
198704  0.0000000e+00
  51.4532137  74.3003464  45.7082844  51.3622189  74.7412252  44.8041582
  51.9471312  74.9343348  46.3200092  50.5796576  74.1215563  46.1826611
  52.1859407  73.0206347  45.6505680  52.1787262  72.5292015  46.6234732
  51.5177441  72.1339607  44.5950603  51.4069080  72.7194929  43.6823893
  52.1527910  71.2935925  44.3147182  50.2383995  71.4657736  45.0846815
  49.6695948  71.8496084  46.0843468  49.7734118  70.3661108  44.5304012
  48.9701891  69.8903608  44.9158764  50.2829218  69.8012924  43.8659573
  53.6453915  73.2539845  45.2311277  54.0134811  74.3336058  44.8060608
  54.4563437  72.2058201  45.5776167  54.0190792  71.3180637  45.7795811
  55.9340286  72.1313143  45.2624559  56.4811039  73.0457306  45.0329924
  56.6248751  71.5689468  46.5414953  56.3188934  70.5396032  46.7284060
  57.6734161  71.5897846  46.2444687  56.4507818  72.4085474  47.8216219
  55.3888893  72.5360823  48.0319118  57.0662785  71.7140865  49.0550280
  56.7021036  70.7011318  49.2264891  58.1419754  71.6443586  48.8934183
  56.9013929  72.2479439  49.9909258  56.8938494  73.8661623  47.8346729
  56.6103268  74.3541622  48.7671804  57.9464197  74.1158390  47.7010489
  56.2120819  74.3826151  47.1589708  56.1959600  71.2249470  44.0600920
  55.4549646  70.2861547  43.8187695  57.1890640  71.5565300  43.2283401
  57.7250767  72.3909235  43.4195948  57.8651619  70.5764198  42.3937416
  57.1081495  70.1588488  41.7299128  58.9382315  71.2757015  41.5080833
  59.4246101  70.5617285  40.8434153  58.3888769  72.0541382  40.9785986
  59.9959087  71.8837500  42.2217751  60.1397610  72.7044439  41.7449379
  58.5382938  69.4670916  43.2481861  58.7592125  69.7324848  44.4753695
  58.8486052  68.3157301  42.6317072  58.4198141  67.9051065  41.3259029
  59.0071201  68.4210014  40.5662823  57.3710060  68.0607080  41.0731459
  58.5531569  66.3909340  41.2695122  58.6038446  65.9771919  40.2623606
  57.7058887  65.9723759  41.8126965  59.8214722  66.0889816  42.0969915
  60.7240677  66.3075542  41.5263367  59.8248434  65.1077747  42.5716734
  59.7217512  67.1956873  43.1942368  59.2020464  66.7561054  44.0455723
  61.1191368  67.7130461  43.6914921  61.3828421  67.3958826  44.8734665
  61.8122768  68.6494637  43.0382729  61.4458418  68.8976955  42.1304131
  63.1356668  69.1524410  43.4593439  63.6502075  68.3231068  43.9446878
  63.9729452  69.5887661  42.2107744  63.8856459  68.8425779  41.4210415
  63.5341454  70.5366659  41.8992567  65.4494810  69.8118353  42.4409771
  65.5883884  70.3513241  43.3778620  66.2670183  68.5294819  42.6500130
  66.1320257  67.8716230  41.7914629  67.2937489  68.8403702  42.8430748
  65.9384871  67.9885578  43.5374641  66.1322021  70.5620575  41.2953711
  67.1747589  70.7496786  41.5522385  66.2115288  69.8572826  40.4676628
  65.6030703  71.4909983  41.0827923  63.0602980  70.1232004  44.6276712
  63.7181711  69.9147558  45.6440735  62.0627928  71.0548687  44.5300913
  61.4018965  70.9024572  43.7817049  61.5545368  71.8365049  45.7651424
  62.3545980  72.5006151  46.0921812  60.3663397  72.7499676  45.4505777
  59.7446442  72.1125221  44.8218870  60.0183678  73.0913496  46.4255047
  60.8601332  73.9079332  44.6054411  61.6379976  74.4039059  45.1859903
  61.3517284  73.5358524  43.7065554  59.7762537  74.8722458  44.2966604
  60.1733446  75.9514523  43.8114738  58.5371590  74.7133160  44.4213343
  61.1994648  71.0207224  46.9753647  61.5071249  71.3909912  48.1221533
  60.3858328  69.9907780  46.8473625  60.0198984  70.0199938  45.9064388
  59.9073315  69.1244364  47.8715467  59.3096924  69.7270346  48.5555077
  59.0192938  68.1540108  47.2954655  59.4093037  67.6381016  46.4180613
  58.8418865  67.4257278  48.0868149  57.7950621  68.7092495  46.9507456
  57.9248667  69.0872526  46.0778999  61.1935902  68.5066032  48.6540222
  61.2989998  68.4916449  49.8778105  62.2302866  68.0156374  47.9578066
  62.1539259  68.0872631  46.9532442  63.4783983  67.6043367  48.5499287
  63.1561947  66.8559265  49.2739296  64.3160772  66.9297695  47.4845028
  63.8703728  65.9558725  47.2820950  64.3976688  67.5463820  46.5893841
  65.7544088  66.6046381  47.9508495  66.1619663  67.4729013  48.4686518
  65.8291101  65.5027390  48.9390182  66.7833471  65.6695938  49.4387054
  65.0873709  65.6329393  49.7270393  65.7219887  64.5083714  48.5055923
  66.7181635  66.0815811  46.8893051  67.7228642  65.8819103  47.2618771
  66.4215755  65.1184559  46.4739418  66.8536663  66.8352127  46.1135578
  64.2279863  68.7073326  49.2998743  64.6096468  68.4775114  50.4561520
  64.4078445  69.8494053  48.5784769  64.0535212  69.8635721  47.6327705
  65.2325773  70.9106302  48.9686298  66.2303305  70.5837584  49.2614460
  65.3201342  72.0192862  47.9784393  65.7751322  71.6643858  47.0537090
  64.3274832  72.4158812  47.7652311  66.0708475  72.7376890  48.3077192
  64.6495295  71.4695120  50.3150129  65.3729677  71.7049122  51.2612009
  63.3381557  71.4755487  50.4431343  62.8199387  71.1910820  49.6242094
  62.5496864  71.7427540  51.6135645  62.9097700  72.6965904  51.9990969
  61.1005592  71.9854736  51.1592197  61.1030912  72.7585554  50.3908253
  60.6783819  71.0604239  50.7665920  60.1196337  72.4997044  52.1737909
  59.0914154  71.7707634  52.6937246  58.8280296  70.7677031  52.3922491
  58.4573936  72.5055504  53.7024832  57.6075840  72.2620726  54.1909933
  58.9936876  73.7426519  53.7544823  58.7057781  74.9268484  54.4610548
  57.8243160  74.8348093  55.0782681  59.4525814  76.0959244  54.4350672
  59.1594601  76.9765663  54.9872923  60.5994320  76.0862017  53.6233473
  61.1979675  76.9840574  53.6682606  60.8688736  74.9400234  52.7827311
  61.7706347  74.8863316  52.1908331  60.1147509  73.7288189  52.8641224
  62.7268362  70.8885670  52.8855801  62.9209232  71.4028692  53.9440727
  62.9248095  69.5907068  52.6713657  62.8908539  69.2072105  51.7376232
  63.4322786  68.6610365  53.7244320  62.9511690  68.9681053  54.6530581
  63.1213760  67.1577358  53.4766293  63.4540510  67.0116901  52.4489594
  63.5443497  66.5320778  54.2625952  61.5705919  67.0204163  53.5876417
  61.1612415  67.2939920  54.5601082  61.0740089  67.7722502  52.9742479
  60.9947300  65.6300020  53.2394648  61.7294407  64.6264553  53.1173420
  59.6930838  65.5191469  53.0069923  59.3111658  64.5844412  53.0308056
  59.0493202  66.2937832  53.0819130  64.9309349  69.0128565  54.0805054
  65.1707935  69.2928219  55.2282810  65.8278942  69.0780449  53.0830288
  65.4149151  68.9337349  52.1726847  67.2861433  69.3451214  53.2528257
  67.6888132  68.5663986  53.9005518  68.0438995  69.3845224  51.8468475
  67.5236988  70.1821995  51.3165617  69.5399237  69.5588160  52.0053291
  70.1237154  69.0763712  51.2214088  69.7410679  70.6064177  52.2293377
  69.7573328  69.0700436  52.9550362  67.8630972  68.1021833  51.0246372
  67.9142094  68.2455063  49.9453115  68.5776615  67.3515654  51.3623857
  66.9236755  67.6221752  51.2988281  67.5269413  70.6007528  54.0495872
  68.2366133  70.5520344  55.0438643  66.9438839  71.7753410  53.7173748
  66.4567757  71.8029261  52.8330278  67.0678520  72.9637337  54.5423937
  68.1350231  73.1738567  54.6138000  66.2787008  74.1522360  53.9521933
  66.6032743  74.3282700  52.9266357  65.2362251  73.8349485  53.9782572
  66.5654278  75.4760885  54.7344112  66.1204100  76.2381697  54.0946531
  66.1774826  75.5185270  55.7521534  68.0230761  75.8858585  54.7235394
  68.7270832  75.1061153  55.0141859  68.3824730  76.2026405  53.7444639
  68.1140900  77.1510696  55.6298113  67.4410343  77.8221893  55.0962448
  67.7520323  76.9442463  56.6369057  69.4158268  77.7893877  55.6207132
  69.3367100  78.6412334  56.1575508  70.1481724  77.2355366  56.0414505
  69.7258759  78.0433512  54.6936369  66.6291142  72.7731752  55.9976244
  67.2123528  73.2221222  56.9881868  65.4141665  72.2628689  56.2064743
  64.8564386  72.0090580  55.4035950  64.9494553  71.8974972  57.5358152
  64.8126125  72.8246737  58.0923414  63.6308622  71.1650229  57.4211788
  62.8337860  71.8318319  57.0923424  63.7098885  70.3078938  56.7524576
  63.0241060  70.5728436  59.0329742  62.6825237  71.7119598  59.6417713
  65.9202766  71.0704374  58.4904718  66.2633657  71.5578651  59.5373535
  66.5183115  69.9589825  58.0266666  66.2642956  69.6776581  57.0904875
  67.5717068  69.2028427  58.6920881  67.1507168  68.8513231  59.6340561
  67.8741598  67.9105425  57.8690386  68.1678915  68.1604433  56.8495417
  68.6597872  67.2957563  58.3082724  66.5477610  67.0163488  57.7824783
  65.7349777  67.6904440  57.5121546  66.7310476  66.0335636  56.6686916
  67.5637007  65.3497028  56.8333864  65.8549738  65.3850412  56.6648960
  66.8639565  66.5621424  55.7247353  66.1852980  66.2279701  59.0528822
  66.9395494  65.4529381  59.1890001  66.1560488  66.8993568  59.9110699
  65.2381754  65.7346058  58.8346052  68.7874460  70.0439167  58.9737940
  69.2257881  70.1868773  60.1454639  69.2824650  70.7775021  58.0001688
  68.8036203  70.6636477  57.1182108  70.5121422  71.6208792  58.1123877
  71.3495970  71.0439587  58.5047293  70.8928061  72.0559788  56.6782141
  70.0455666  72.5033569  56.1584616  71.6981888  72.7895164  56.7154980
  71.3632345  70.9575748  55.7668734  70.6093168  70.1838064  55.6219673
  71.8124580  71.5149689  54.4222879  71.0263395  71.9814014  53.8285255
  72.6473379  72.1991777  54.5737267  72.1753120  70.6794786  53.8236284
  72.5639391  70.2952242  56.5162277  73.1470394  69.6305609  55.8787918
  73.2450342  71.0614347  56.8865395  72.2740984  69.6531057  57.3479605
  70.2898407  72.7498674  59.1022062  71.2852240  73.2103539  59.6508169
  69.0227795  73.1584740  59.3337202  68.3269262  72.8409243  58.6741400
  68.6230326  74.0891218  60.2704048  69.4195652  74.8299599  60.3396463
  67.3318148  74.8401403  59.8487663  67.4479771  75.1619959  58.8138676
  66.4946222  74.1470337  59.9312830  66.9300365  76.0773134  60.7104635
  66.9471598  75.8322287  61.7724133  67.5501156  76.9424820  60.4757547
  65.4644060  76.4761925  60.4038620  65.3537226  76.9264555  59.4174004
  64.7743177  75.6326056  60.4194593  64.9932814  77.4142027  61.4524841
  65.0949049  77.0043039  62.4573517  65.5329132  78.3553219  61.3466740
  63.5208130  77.7093363  61.2040854  63.2081795  78.6336803  61.4647579
  63.2454109  77.7303028  60.2325869  62.8875113  77.0121765  61.5687656
  68.4984016  73.5118580  61.6629219  68.9368057  74.1855955  62.5783014
  67.9792976  72.2987461  61.7816782  67.6527071  71.9453859  60.8936596
  67.8146458  71.4911842  63.0016422  67.2741175  72.1271515  63.7026978
  66.9390345  70.2896786  62.7663803  66.2368298  70.4824781  61.9553137
  67.5676489  69.4665718  62.4266148  66.2102652  69.7064924  63.9415407
  66.6131306  68.6036015  64.6377802  67.5149965  68.0839682  64.3496370
  66.0006952  68.2699156  65.8426905  66.2363195  67.3895597  66.4222193
  64.8326492  68.9415741  66.2851381  64.0065002  68.4775209  67.2266102
  64.4518375  68.1988430  68.0301094  64.4301081  70.0835752  65.5129385
  63.6120796  70.6712914  65.9025860  65.1204824  70.5088711  64.4053411
  64.8282146  71.4044046  63.8771296  69.1444731  71.1563873  63.6151838
  69.3139791  71.2074947  64.8549461  70.1215601  70.8254099  62.7634239
  69.7386789  70.5497694  61.8703794  71.5634394  70.4969168  63.1035995
  71.4836121  69.6200848  63.7461710  72.3381376  70.2404165  61.7838430
  71.9803619  69.2947483  61.3766432  72.0736217  71.0088444  61.0574436
  73.7363100  70.0895882  61.8657112  73.9178324  69.1470098  61.8517017
  72.2594070  71.6213226  63.9197063  71.9526911  72.8254604  63.7380648
  73.1638336  71.2693357  64.8061132  73.3461618  70.3128338  65.0743628
  74.1487551  72.2771358  65.2790976  73.8090134  73.3116388  65.3288698
  74.6536207  72.0562840  66.7448854  75.1334524  72.9898024  67.0388269
  73.4404993  71.7794943  67.6129389  73.1943989  70.7208967  67.5298071
  73.7857342  72.1527243  68.5771036  72.5668430  72.3968506  67.4039125
  75.4634047  70.9611368  66.9601727  75.8199644  71.0041761  67.8504610
  75.4172611  72.3703814  64.4053936  76.0542345  73.4155941  64.2549610
  75.8360004  71.2979746  63.7742281  75.3198576  70.4369450  63.8852358
  77.1626997  71.1914444  63.0521011  77.8669024  71.6210175  63.7646055
  77.4976826  69.7081709  62.7565813  76.6947889  69.3117189  62.1350622
  78.8077831  69.4720888  62.0500469  78.7694979  69.7952843  61.0097694
  79.5086956  70.0233746  62.6768732  78.9620638  68.4012794  62.1829557
  77.4154186  68.9046764  63.9353466  77.8416157  68.0596972  63.7742186
  77.2490120  72.0293999  61.7319775  78.3032131  72.5340605  61.3848972
  76.0903358  72.3074198  61.1710691  75.2390146  71.9353962  61.5672398
  75.9661102  73.2151794  60.0426960  76.5995884  72.8040934  59.2566824
  74.5989656  73.1814289  59.4527245  74.2444897  72.1507359  59.4419575
  73.9425278  73.7340164  60.1249123  74.5124340  73.7909889  58.0842924
  73.9266205  74.8438072  57.6150703  73.3255100  75.5060625  58.2204533
  73.9555740  74.9912405  56.2454367  73.5818529  75.8189917  55.8035564
  74.7768784  74.0292263  55.6478214  75.1892281  73.7290430  54.3941116
  74.9167967  74.4248629  53.6143589  76.0106087  72.5873280  54.2294168
  76.3622952  72.4413061  53.2187796  76.4071894  71.8554783  55.3484058
  77.0572138  70.9967852  55.2676582  76.0222626  72.2136497  56.6282892
  76.4094543  71.6001225  57.4283314  75.1627874  73.2857084  56.8095255
  76.4013195  74.6544600  60.2328730  76.0233641  75.2599907  61.2022638
  77.2072220  75.2340603  59.3363142  77.6127720  74.7184420  58.5683537
  77.4388647  76.6827011  59.1085100  77.0209217  77.2562981  59.9357986
  78.9328098  76.8966389  59.3484354  79.4708157  76.4366102  58.5195637
  79.0511894  77.9779053  59.2780685  79.6039057  76.3003588  60.6098509
  79.4434643  75.2261448  60.5180836  80.6538486  76.5701151  60.4960442
  79.1070986  76.8002796  61.9709110  78.0633545  76.5139246  62.1001434
  79.5577669  76.2726498  62.8115082  79.3040609  78.2704353  62.2938585
  79.0701008  78.9602470  61.4829779  78.7075901  78.4849644  63.1805944
  80.7143784  78.6383581  62.5549793  81.2333012  78.3490610  61.7381907
  80.8788395  79.6309805  62.6430559  81.0641098  78.1732130  63.3804655
  76.8413067  77.2436762  57.7781630  77.4221706  77.0872259  56.7531776
  75.6569672  77.9146671  57.8126097  74.7439528  78.1739378  58.9890337
  75.2412891  78.3978891  59.9327517  74.1014528  77.3330927  59.2503262
  73.9340734  79.3949986  58.6647129  74.4652987  80.3127098  58.9170980
  72.9784012  79.3864870  59.1888475  73.8172054  79.3188429  57.1029282
  73.5545301  80.2660942  56.6319609  72.9905844  78.6710167  56.8111753
  75.1976585  78.7773800  56.6997242  75.1781130  78.1927681  55.7799721
  76.1442995  80.0113487  56.4889479  76.6667652  80.5197525  57.4695015
  76.2562180  80.5330849  55.2915764  75.9776878  79.9530554  54.5130587
  76.8819571  81.8622017  55.0637770  77.9266930  81.8119431  55.3705311
  77.0412111  82.1901703  53.5613728  77.7384853  81.4679050  53.1368208
  76.1138678  82.0174694  53.0151939  77.5601435  83.5958195  53.2004118
  76.9009209  84.2872238  53.7252855  79.0690708  83.8294315  53.4023428
  79.7451973  83.0929565  52.9681110  79.3587589  84.8109436  53.0270815
  79.3177032  83.7533474  54.4608784  77.2754049  83.8379574  51.6672373
  77.5899696  84.8587227  51.4499855  77.9142237  83.1803036  51.0777378
  76.2468624  83.6462879  51.3615131  76.0070896  83.0189800  55.6957912
  74.8022509  83.0041790  55.6687260  76.6347218  84.0606594  56.2362862
  77.6365423  83.9410591  56.2827158  76.1937141  85.1900196  56.9818830
  75.9935856  84.7586823  57.9626989  77.4007940  86.1485195  57.1045780
  78.3072996  85.6285763  57.4144268  77.7341652  86.5790176  56.1603069
  77.3161888  87.2898006  58.0778217  76.7400599  88.3122444  57.7579737
  78.0275488  87.2372913  59.1975975  78.0987453  88.0191803  59.8329592
  78.6235285  86.4424515  59.3796349  74.9946642  85.9182262  56.4096260
  74.9752855  86.2366295  55.2028275  74.0128183  86.2267399  57.2330523
  74.0212440  86.0240841  58.6046600  74.8862314  86.4472866  59.1153431
  74.0709543  84.9531364  58.8014078  72.7576494  86.5995121  59.0925646
  72.9826355  87.6354408  59.3462372  72.3745203  86.1775112  60.0216627
  71.8466377  86.5842247  57.9459572  71.1551428  87.4266624  57.9612541
  71.3294220  85.6273460  57.8754187  72.7123308  86.7046165  56.7234898
  72.2123480  86.0874081  55.9770536  72.8392363  88.1116867  56.1938620
  72.1065426  88.3882904  55.2128792  73.8634491  88.8713455  56.6011429
  74.4030666  88.5768318  57.4025106  74.1438341  90.1521111  56.0011244
  73.2909632  90.4643631  55.3984499  74.5011806  91.0325050  57.2084904
  73.9590549  90.8197880  58.1298780  75.5517197  90.9150124  57.4743128
  74.3562365  92.4720955  56.8770599  73.5215712  92.8270149  56.0506248
  75.0085163  93.3871555  57.5632286  75.0172043  94.3461037  57.2463083
  75.6862783  93.0131149  58.2119513  75.2230692  90.0390720  54.9410295
  75.9454060  91.0021496  54.6726847  75.3512001  88.9072704  54.2138958
  74.7589874  88.1001568  54.3478823  76.4770985  88.7598228  53.1744671
  77.3566771  89.1606140  53.6782598  76.8177652  87.3126125  52.7629471
  77.1988773  86.6720009  53.5582399  75.8888006  86.8614769  52.4142265
  77.6648951  87.2894764  51.6475630  78.4830236  87.7408123  51.8679619
  76.1925077  89.5857430  51.9222021  75.0094318  89.6897221  51.5203333
  77.2619581  90.2978134  51.4316225  78.2067156  90.1341343  51.7490196
  76.9873571  91.0879993  50.2227163  76.3348913  91.9245243  50.4729605
  78.1895638  91.9466782  49.7561455  78.0510950  92.4755192  48.8131428
  78.2283306  92.6872921  50.5549479  79.4525528  91.1709404  49.5684099
  80.4632854  91.0189533  50.4615211  80.5683994  91.4072037  51.4638233
  81.5335274  90.4956341  49.7688770  82.4157619  90.3423214  50.2360582
  81.0679913  89.8560810  48.6789656  81.7119789  89.0539837  47.7633047
  82.6298237  88.6051369  48.1133270  81.2672806  88.7896538  46.4823055
  81.8863869  88.2587337  45.7743263  80.0733948  89.4105434  46.0935736
  79.7341585  89.2237949  45.0853825  79.3589401  90.2287769  47.0228529
  78.4131670  90.6907082  46.7809057  79.8246574  90.4337406  48.3587074
  76.3317823  90.3488255  49.0695286  75.6112528  91.0207844  48.3374214
  76.6261721  89.0519714  48.7643242  77.2412586  88.5758972  49.4086266
  76.0722303  88.2743549  47.6781178  76.4861393  88.6841393  46.7567873
  76.5117455  86.7793941  47.8156424  76.4462090  86.4568138  48.8547516
  75.7019329  86.3137054  47.2540045  77.9050112  86.5307045  47.2584915
  78.1492376  87.2916031  46.5172243  78.9435911  86.5674877  48.3557749
  79.9167109  86.2062263  48.0231524  79.0766764  87.5518894  48.8045025
  78.6352682  85.9186745  49.1755772  78.0440474  85.1718044  46.5259552
  79.0669107  84.9137115  46.2516642  77.6817894  84.4567776  47.2646093
  77.3797750  85.0916958  45.6654739  74.5382309  88.4120178  47.6213694
  73.9579868  88.5572815  46.5677500  73.7977266  88.3254433  48.7445354
  74.3683290  88.1115818  49.5500040  72.3387384  88.3714962  48.8496780
  71.8387079  87.7140331  48.1384754  71.8702412  87.8000736  50.1779795
  72.1403599  88.5572147  50.9140968  70.7842493  87.7137375  50.2135420
  72.3651218  86.4724350  50.6896877  71.6655922  85.3452587  50.2692270
  70.8371687  85.4149532  49.5798397  72.0268965  84.0617275  50.7202625
  71.4664125  83.1785297  50.4515266  72.9555273  84.0392876  51.8230772
  73.3848381  82.8540611  52.3813057  73.0359173  82.0934772  51.9108105
  73.6145639  85.1904774  52.2438240  74.3781853  85.0795650  52.9994583
  73.3739710  86.4231014  51.7098427  73.8296652  87.3124695  52.1194267
  71.8844175  89.8520279  48.6086845  70.9653282  90.1008701  47.7755737
  72.5774384  90.7921600  49.2301893  73.0473900  90.5960846  50.1024246
  72.2773838  92.2283459  48.9402580  71.2340450  92.5007820  49.0993929
  73.1649017  93.2017231  49.7830009  74.2013979  92.8692722  49.7259140
  73.1387186  94.2508316  49.4884253  72.7991629  93.2767010  51.2107325
  71.5039587  93.4419441  51.6855049  71.5455198  93.2333088  53.0136347
  70.7836914  93.4919167  53.7341499  72.8498173  92.9658413  53.3135366
  73.2009602  92.8404427  54.2521906  73.6375189  92.8469086  52.1746635
  74.6421671  92.4543381  52.1201658  72.4370241  92.6170635  47.4285746
  71.5398502  93.2193756  46.9221640  73.5189581  92.2175884  46.7170715
  74.2779303  91.8563652  47.2770452  73.6648226  92.4209499  45.2889013
  73.4939861  93.4712219  45.0525570  75.1675558  92.3668861  45.0507593
  75.5992842  93.2752323  45.4710340  75.6188440  91.5831757  45.6592321
  75.4503393  92.4830341  44.0045071  72.8493547  91.5253162  44.3309641
  72.8654718  91.7159462  43.1108952  72.1360302  90.5436039  44.9487019
  72.2092915  90.4562855  45.9522486  71.3151503  89.5538807  44.2003775
  70.8057308  88.9735222  44.9696541  70.2806711  90.3110027  43.3153534
  70.7567024  90.8879375  42.5224781  69.5132494  89.6477890  42.9162169
  69.4660521  91.3003159  44.1758394  69.2633867  90.9183884  45.1764202
  70.1161337  92.1749401  44.1530561  68.1304455  91.6752338  43.5439014
  68.2827282  92.0003986  42.5147390  67.4780655  90.8021355  43.5580969
  67.6172209  92.9141712  44.4059134  67.4401426  92.6106262  45.4377127
  68.4448910  93.6229610  44.3800640  66.4739561  93.6620426  43.8209534
  66.8637133  94.3040466  43.1456566  65.8629799  93.0091763  43.3513021
  66.0177279  94.0483093  44.6350479  72.1126223  88.4047985  43.4917641
  71.5668678  87.7284908  42.6230955  73.2960558  88.1298256  43.9798546
  73.5748434  88.6216354  44.8168135  74.1583109  86.9880486  43.5314846
  73.9354706  86.8368340  42.4752712  75.6763983  87.2870445  43.7994385
  75.9119272  87.1719456  44.8574495  76.1665297  86.5001011  43.2261992
  76.0835361  88.6690807  43.3201122  75.5363560  89.3983364  43.9175129
  77.5526571  88.8703537  43.6276722  78.1753016  88.4096718  42.8607416
  77.7183437  89.9280453  43.4228468  77.8805590  88.4963989  44.5975924
  75.9233618  88.9760780  41.8123198  76.3846016  88.1537151  41.2654448
  74.8898554  88.9150333  41.4713717  76.2892962  89.9824619  41.6088867
  73.8265419  85.6174088  44.1959524  74.2841816  84.5973110  43.6422729
  72.9938650  85.5603695  45.2128172  72.6839495  86.4775848  45.5005407
  72.3076916  84.4950294  45.8620977  72.3154402  83.6325932  45.1955843
  73.0161238  84.1243553  47.1378756  73.1070089  84.9513912  47.8420401
  72.2847033  83.4140968  47.5234365  74.3623114  83.4648037  46.9562101
  74.9951553  84.2146015  46.4814425  74.9508762  83.2399464  48.3371592
  75.1983452  84.1869450  48.8168097  74.1878843  82.6455021  48.8397408
  75.8512926  82.6728630  48.1010103  74.3239069  82.1612072  46.1493587
  74.1739464  82.4595165  45.1117516  75.2094984  81.5285015  46.2086010
  73.4425259  81.6001225  46.4599180  70.8121204  84.9216175  46.0416842
  70.5607748  86.1100960  46.3142776  69.8863840  83.9292240  46.0248852
  70.0635052  82.9465485  46.1767960  68.4580231  84.3065643  45.9592533
  68.4375429  85.3277493  46.3398504  68.0034113  84.4359970  44.5074368
  68.7342215  84.9946213  43.9226580  67.9644966  83.4440422  44.0573072
  66.6690445  84.9947548  44.2151833  66.2236357  84.9978256  43.0534792
  65.9647799  85.3939342  45.1469183  67.4300480  83.4111118  46.7556620
  66.8503141  82.5401878  46.1861086  67.2445917  83.5620594  48.0238771
  68.0807018  84.4138432  48.8869810  67.6033354  85.3561687  49.1557503
  69.0785027  84.5997524  48.4895754  68.3109999  83.6573505  50.1541519
  68.6554384  84.3135452  50.9534502  69.0072966  82.8328133  50.0011635
  66.8810797  83.0749607  50.3507996  66.2564039  83.8543320  50.7872152
  66.9653320  82.1707630  50.9536505  66.4784670  82.6371288  48.8883543
  66.7062235  81.6324329  48.5322475  64.9915934  82.7221584  48.7756157
  64.2168856  82.2769260  49.6588230  64.4768190  83.0545139  47.6295567
  65.1629734  83.4253120  46.9878387  63.0092239  83.0480480  47.2821808
  62.4609756  83.4081841  48.1527090  62.7944088  83.9147758  45.9927130
  63.3954573  83.4103394  45.2361536  61.7279720  83.8604164  45.7739592
  63.3241749  85.2618885  46.1017036  64.2364597  85.2012444  45.8090258
  62.3951006  81.6586971  47.0683718  61.1969423  81.5402031  46.7997837
  63.1676912  80.5715942  47.1087170  64.0861368  80.6443024  47.5225592
  62.7795267  79.1568375  46.8846655  61.7445660  79.0242672  47.1999121
  62.9158163  78.8273621  45.3831244  62.2613621  79.5018005  44.8309278
  64.3422556  78.8737392  44.7838020  64.9404573  78.0404615  45.1524591
  64.1861916  78.6080503  43.7382603  64.8677254  79.8160267  44.9389791
  62.5830841  77.4536276  45.2577114  61.6615248  77.3610115  45.0052166
  63.6106205  78.2026386  47.8291273  64.7973442  78.4161377  48.0702877
  62.9964876  77.0116663  48.1271505  61.5180206  76.7038584  48.1524754
  61.1406708  76.6908264  47.1299601  61.0246468  77.4704790  48.7499475
  61.3435173  75.3122044  48.7912655  60.6738472  74.6975708  48.1897068
  61.1032963  75.4184628  49.8491430  62.7503347  74.7395372  48.6411142
  62.7673626  74.2572641  47.6637602  62.9715347  73.9745760  49.3854380
  63.6887598  75.8720064  48.6941624  63.9857864  76.1680603  49.7002554
  64.9844551  75.4707336  47.9733562  66.0693598  75.2345181  48.5771608
  64.9158525  75.4163885  46.6659069  64.0015459  75.5298615  46.2520647
  65.9969997  74.8919153  45.7859802  66.4144230  73.9487457  46.1385298
  65.7347250  74.6733475  44.3139362  66.6620302  74.3340540  43.8523245
  64.8522472  73.3865976  44.2174006  65.3997183  72.5406456  44.6330214
  63.8973665  73.5216856  44.7253942  64.5945787  73.2986403  43.1619501
  65.0597715  75.7020187  43.4799910  65.1041889  75.3902912  42.4364662
  64.0588284  75.9801722  43.8099098  65.5969477  76.6495180  43.5222673
  67.2432804  75.8490515  45.8159065  68.3196402  75.4083014  45.3804064
  67.1549940  77.0462370  46.4024401  66.2020636  77.1981144  46.7007017
  68.2210827  77.9989719  46.5285110  68.6757469  78.3668232  45.6086922
  67.7235460  79.2792416  47.2841263  67.3365974  79.9695635  46.5345716
  66.9790030  78.9832830  48.0231524  68.9438486  79.9832869  47.8929138
  69.9584961  80.6317234  47.2243643  70.8217812  80.9831715  48.1821394
  71.7716026  81.4704037  48.0182552  70.4073668  80.6287003  49.4225645
  70.9784651  80.6298828  50.2555990  69.1653347  80.0843430  49.2283678
  68.5406399  79.6224785  49.9785900  69.3975878  77.3374557  47.2693300
  70.5693579  77.4522972  46.9404936  69.1887474  76.4123058  48.2307005
  68.2140255  76.1962700  48.3834982  70.3535652  75.7481003  49.0102959
  71.0494947  76.5793180  49.1237164  69.8739386  75.0942945  50.3396797
  69.2686319  75.7795954  50.9330320  68.9559889  73.8603973  50.1625538
  69.4989252  72.9160166  50.1243925  68.2708406  73.8252926  51.0095739
  68.3313179  73.9727449  49.2764044  71.0197163  74.7092915  51.2197256
  71.4207458  73.7603474  50.8636618  71.7576599  75.4941893  51.0539770
  70.7945251  74.4888926  52.7147102  70.0785589  73.6842346  52.8820944
  71.8070936  74.2915106  53.0666304  70.5643272  75.4678774  53.1350613
  71.1073589  74.7692156  48.1789732  72.3242188  74.6397161  48.4478140
  70.4440308  74.1030073  47.1570206  69.4662905  74.1598988  46.9102621
  71.2376451  73.1912231  46.2356138  71.8439960  72.5215626  46.8455267
  70.2801704  72.2725916  45.4201221  69.5378542  72.8802824  44.9026346
  70.9121323  71.6297865  44.8073196  69.4373417  71.2889433  46.2882996
  68.8992119  71.8272781  47.0685005  68.4089470  70.5884075  45.3783274
  67.7231455  71.3000107  44.9185419  68.9207554  69.9671745  44.6433258
  67.8632975  69.8628616  45.9816122  70.2290440  70.1821423  47.0710039
  70.6646538  70.6326485  47.9628468  69.5462132  69.5046329  47.5836658
  70.9202337  69.6510887  46.4165211  72.1863127  74.0300846  45.3646278
  73.2837439  73.5306406  45.0454569  71.8448400  75.2964878  45.0562811
  70.9755230  75.7192945  45.3488874  72.7114105  76.3055229  44.4954729
  73.3581066  75.7661772  43.8033772  71.8638515  77.4500561  43.8031292
  71.4556026  77.0095015  42.8935432  71.0270500  77.6599312  44.4693232
  72.7247000  78.6639357  43.4138441  72.8282452  79.3125200  44.2837381
  73.6948872  78.2674313  43.1144810  72.0171642  79.4297123  42.2572088
  71.8079233  78.6737967  41.5003014  71.1064053  79.8599768  42.6737356
  72.8189898  80.5394936  41.8465900  73.5645866  80.3520679  41.1915636
  72.8225851  81.7785645  42.2449780  71.9948435  82.2538948  43.1522560
  71.1912870  81.7047596  43.4221601  71.9362783  83.2576370  43.2480383
  73.7234068  82.6066589  41.9081497  74.5100641  82.1938133  41.4277029
  73.7434959  83.5719204  42.2047567  73.7629080  76.7646885  45.5548048
  74.9492550  76.6733170  45.2615452  73.3241081  77.2348452  46.7081070
  72.3167229  77.2007608  46.7722464  74.2825937  77.6933241  47.7884340
  74.8786116  78.4502125  47.2785473  73.4683895  78.2459593  48.9448929
  72.7524996  78.9637232  48.5443640  72.9683781  77.3942471  49.4060564
  74.3183374  78.9980888  50.0330925  75.0366163  78.2974052  50.4587936
  74.8372793  79.8302603  49.5573854  73.4654140  79.4867325  51.2084436
  73.4044266  78.8350964  52.2484875  72.8536844  80.5462456  51.0233641
  75.3191900  76.6456175  48.1300354  76.4578485  76.9934797  48.2336569
  75.0310326  75.3510523  48.2872963  74.0588808  75.1114988  48.1544495
  75.8895350  74.1603374  48.5288334  76.6957903  74.4208145  49.2145538
  75.1628590  72.8972912  49.0459967  74.2951059  72.7774191  48.3973503
  76.1514091  71.5853739  48.9447737  76.4420223  71.2613487  47.9454470
  77.0788956  71.8875313  49.4311714  75.6813908  70.7017756  49.3765593
  74.6581984  73.0246162  50.4703903  75.4537821  72.9505634  51.2117863
  74.0988159  73.9464569  50.6297684  73.6767912  71.8788815  50.8323240
  74.1471291  70.9015656  50.9406233  73.2655478  72.2335148  51.7774248
  72.8677416  71.9233942  50.1032400  76.6365814  73.7444639  47.2346163
  77.7984142  73.3388233  47.2184658  75.9611416  73.7849188  46.0478115
  74.9857903  74.0472174  46.0462809  76.6130495  73.4630585  44.7487450
  76.9836378  72.4440813  44.8602962  75.9224033  73.4857988  43.9057779
  77.7931356  74.4150209  44.5077372  78.9091873  73.9807844  44.1355896
  77.5898600  75.7137918  44.8077917  76.6815090  76.0179472  45.1279402
  78.6366701  76.7820740  44.7782326  79.1618490  76.5749311  43.8458300
  77.8922510  78.0971098  44.7644281  77.1985006  78.1198740  45.6048393
  78.5561943  78.9578438  44.8446131  77.0138454  78.3474302  43.5058641
  76.3856363  77.4837065  43.2880688  76.1648655  79.5939255  43.7522840
  76.7477512  80.4852200  43.9845562  75.6332493  79.7344112  42.8111458
  75.5022192  79.4175959  44.5995903  77.9034901  78.7084103  42.2681904
  77.2426510  78.8798952  41.4184952  78.4531116  79.6434975  42.3760653
  78.5968924  77.9150343  41.9891787  79.6529770  76.7470789  45.8452892
  80.6044865  77.5414753  45.8373594  79.5088911  75.8878994  46.8992758
  78.6732340  75.3211641  46.9235754  80.4040623  75.5330801  48.0821848
  80.0620270  74.5721245  48.4664583  81.9430542  75.2240181  47.6791811
  82.4370861  76.1474466  47.3769951  82.3407841  74.7309923  48.5662174
  81.9637299  74.3272114  46.4797258  81.2623501  73.5458422  46.7723513
  81.6398335  74.7922277  45.5486202  83.3490753  73.7978840  46.2874222
  83.9890957  74.6734571  46.1785793  83.5366154  73.3159971  47.2469616
  83.4868622  72.8640938  45.1593733  82.8683949  72.9374743  44.3642616
  84.4729042  71.9962406  44.9668264  85.5405331  71.9184208  45.6857729
  85.7366657  72.5912333  46.4130640  86.2352657  71.1972761  45.5539131
  84.2693615  71.1547184  44.0065098  83.3544636  71.1430073  43.5788012
  85.0044632  70.5156374  43.7395000  80.3697395  76.5983820  49.1499949
  81.2926769  76.7789888  49.8561668  79.2301464  77.3021650  49.2399693
  78.4623194  77.0939302  48.6177301  79.0169477  78.5225773  50.0756598
  80.0352192  78.8145256  50.3325653  78.2245731  79.6251249  49.1746902
  77.2809839  79.1896582  48.8458872  78.1429052  80.5015659  49.8175526
  78.9772558  79.9280834  47.8297663  78.8964224  79.1043043  47.1205759
  78.5399485  81.2586880  47.2414780  78.7455225  82.0161819  47.9978180
  79.0636158  81.4820671  46.3119745  77.4695539  81.2118816  47.0410872
  80.4763699  80.1007748  48.1637144  80.6467628  80.7064152  49.0538025
  80.9156227  79.1098499  48.2787752  81.0196781  80.4384136  47.2811556
  78.3578110  78.3236122  51.4409256  78.4979677  79.2034912  52.3164415
  77.7839231  77.1691132  51.7066813  77.6454163  76.4824438  50.9790754
  77.3851776  76.7567682  53.0344105  77.8531694  77.4263573  53.7560320
  75.9028530  76.8902206  53.3012390  75.2343655  76.5310049  52.5188112
  75.6429052  76.4011717  54.2400455  75.6107187  78.3290100  53.4859371
  74.8550463  78.4992743  52.9188681  77.8708839  75.3499508  53.3715248
  77.8736210  74.5351934  52.3937845  78.3254957  75.0503922  54.6117306
  78.2665730  75.7787371  55.3089666  79.3133593  74.0156078  54.8083258
  79.0939379  73.1571579  54.1734934  80.7071304  74.5355129  54.4525623
  81.4708138  73.7850761  54.2482519  80.6004715  75.0126362  53.4783554
  81.2716198  75.6027126  55.3826094  80.9133339  76.9180536  55.5016041
  81.7785072  77.3482752  56.4231300  81.9298267  78.3752155  56.7212772
  82.6607990  76.3898277  56.8502712  83.3500481  76.4530993  57.5858212
  82.3286247  75.2745199  56.1399031  82.7920628  74.3041611  56.2400818
  79.2078686  73.3105135  56.1923790  78.6712122  73.8504601  57.1079636
  79.7310686  72.1302986  56.4373159  80.0389862  71.6217089  55.6208467
  79.7510862  71.3691330  57.6722765  78.9174223  71.6449690  58.3180428
  79.5367146  69.9709034  57.1332121  80.3075314  69.7312355  56.4007521
  78.5719872  69.8270416  56.6466808  79.8341703  68.8077116  58.5308123
  81.0511398  71.6221285  58.4738970  82.1175385  71.7304754  57.8820705
  81.0180759  71.7691183  59.7447443  80.1515102  71.5934229  60.2328968
  82.1774578  72.0500708  60.6563616  82.8580379  72.6713610  60.0741911
  81.8286705  73.0304050  61.7679691  82.6580620  73.1413555  62.4664640
  81.4181805  73.9655733  61.3871050  80.8263493  72.4503469  62.5068569
  79.9738359  72.5797653  62.0848656  82.8110123  70.7807112  61.2044859
  83.9756680  70.8419037  61.5852737  82.0483971  69.6465397  61.2391186
  81.0673523  69.7003460  61.0051060  82.7553844  68.3810616  61.4167738
  83.3596802  68.4179211  62.3231792  81.7752934  67.2221518  61.6072607
  81.0770035  67.4951363  62.3984480  81.3148785  67.0408678  60.6360435
  82.3145771  65.8254862  61.9689035  83.0064106  65.4445553  63.1612539
  83.1577301  64.1377068  63.0291128  83.6681938  63.4560347  63.6932993
  82.6938629  63.6949921  61.9080687  82.7599335  62.7555084  61.5432453
  82.0040894  64.7261095  61.2327671  81.4367008  64.6865129  60.3146648
  83.6642933  68.0292511  60.2336550  84.8009968  67.6094007  60.5050373
  83.1568432  68.0157900  58.9792728  82.1701527  68.2254696  58.9284801
  83.8989735  67.7556086  57.7171803  84.4965172  66.8579483  57.8760767
  82.8760052  67.4002409  56.5965605  83.4814644  67.2888517  55.6970549
  82.0904350  68.1259537  56.3860369  82.0481205  65.7789898  56.8576717
  84.8958206  68.8386536  57.3165417  86.0554504  68.4787941  57.2598648
  84.4765949  70.0928926  57.0415449  83.5099030  70.2713537  57.2734022
  85.3363895  71.0676908  56.2810516  86.3171005  70.5921602  56.2678623
  84.8520851  71.3162279  54.7931623  85.4218864  72.1194220  54.3259382
  85.1781273  70.0709343  53.9990330  84.6736622  69.1868019  54.3888092
  84.7787857  70.1766205  52.9903364  86.2528515  69.8898363  54.0155983
  83.3836269  71.5735435  54.7233152  83.0655670  71.9443178  53.7489128
  82.7793407  70.6859875  54.9108696  83.0361271  72.4036312  55.3383684
  85.5440807  72.4612713  56.9810486  85.0908089  73.4496212  56.4592981
  85.9849548  72.5128746  58.2156563  86.6968727  71.4583063  58.8970804
  87.4371433  71.1077976  58.1778860  86.0465717  70.6807995  59.2979431
  87.3165035  72.0536375  60.1805973  88.3180141  72.4622011  60.0458717
  87.2755432  71.3865042  61.0416222  86.3799191  73.1614590  60.4602909
  86.8280125  73.8847685  61.1415720  85.4807472  72.7102518  60.8798122
  85.9420109  73.7344265  59.0988922  84.9710655  74.2285299  59.1341448
  87.0007801  74.8175192  58.7241173  86.7922783  75.9731150  59.0706301
  88.1062698  74.5302153  57.9297304  88.1355572  73.5635233  57.6386023
  89.0878105  75.5029249  57.3397875  89.2472649  76.3801622  57.9667854
  90.4797649  74.7775316  57.2250986  90.3621578  73.8074780  56.7421150
  91.1085701  75.3498697  56.5430927  91.2717724  74.5060205  58.5642576
  91.1285877  75.3827906  59.1958284  90.9447765  73.6416864  59.1422749
  92.7353859  74.4237757  58.2451391  92.9407597  73.4829664  57.7344513
  93.0698395  75.2743435  57.6511955  93.6502552  74.3703747  59.4777155
  93.4272099  75.3532505  59.8928070  93.3241653  73.6250067  60.2031040
  95.1210213  74.2899418  59.1642618  95.5042839  75.1047993  58.7068510
  95.6266689  73.9250660  59.9587965  95.2516651  73.4400082  58.6345053
  88.6468983  76.1546803  55.9822273  89.3667316  76.9759941  55.3824139
  87.4342155  75.8885860  55.5649042  86.8487835  75.3906918  56.2202549
  86.8201637  76.8457365  54.5158529  87.5617599  76.8602705  53.7171459
  85.5152893  76.3388348  53.8697338  84.7462559  76.1242533  54.6117830
  85.1582432  77.0847225  53.1596136  85.6832027  74.9735546  53.1898403
  86.1189842  74.2467165  53.8753366  84.2745209  74.5665026  52.7380705
  83.8816452  75.2516460  51.9868517  84.3438816  73.6641121  52.1306276
  83.6153316  74.4061518  53.5912180  86.5143299  74.9969769  51.9414091
  86.5598583  73.9817619  51.5472555  86.0907173  75.5440855  51.0991955
  87.5643444  75.2558947  52.0775414  86.8014812  78.2795620  55.0425959
  86.3276672  78.5327721  56.1710310  87.3211956  79.1820240  54.2254305
  87.4321556  78.9297485  53.2537603  87.7672672  80.5155659  54.6991491
  88.0454445  80.4792404  55.7524300  88.8839054  80.9017372  53.7087250
  88.5233879  80.7711983  52.6883888  89.1218758  81.9616890  53.7980127
  90.2362061  80.1638222  53.9699316  90.1231670  79.0840960  53.8723946
  90.9069824  80.5509949  53.2029486  90.8465290  80.5054855  55.3437185
  91.9000816  81.2372112  55.4745150  90.3437901  80.0558472  56.4121819
  86.6718864  81.5381241  54.7064734  85.9699535  81.5295982  53.6978054
  86.5200043  82.4475670  55.7099009  87.3689079  82.6957607  56.8180799
  88.4413052  82.5591946  56.6787529  87.0836544  82.0156765  57.6207113
  87.1485615  84.1872597  57.1362448  87.6334763  84.8168755  56.3902283
  87.3811245  84.4843864  58.1588554  85.7099533  84.3412495  56.9296122
  85.5040073  85.4053116  56.8136358  85.1706696  83.8913250  57.7631807
  85.4765129  83.5409451  55.6521749  84.5038605  83.0489635  55.6525373
  85.5684662  84.4794655  54.4108152  86.6305828  85.0359726  54.0383196
  84.4227409  84.6680164  53.7059593  83.6227131  84.2343330  54.1441059
  84.1737270  85.7029533  52.6458979  85.0285244  85.5783463  51.9811344
  82.8134346  85.3295135  51.9381714  81.9722080  85.3700924  52.6301241
  82.4395657  86.2835503  50.7889891  82.5471783  87.3153782  51.1234236
  83.1389236  85.9814739  50.0093937  81.3841820  86.1859989  50.5345535
  82.9617786  83.8791656  51.3773918  83.9030743  83.6950874  50.8595324
  82.9653454  83.1951427  52.2260475  81.8802071  83.2669353  50.5666161
  82.0422840  82.2174740  50.3207016  80.9120083  83.3088684  51.0655499
  81.7273617  83.8153362  49.6371031  84.1892719  87.0637035  53.3354712
  83.4239960  87.2024250  54.3357754  84.8323059  88.0747509  52.6992607
  85.6429863  87.9291916  51.5405369  84.9602985  87.8187561  50.6980181
  86.3568592  87.1209621  51.6994429  86.4821625  89.2067242  51.4269209
  86.8685341  89.3614197  50.4195118  87.3999500  88.9705563  51.9654274
  85.5455875  90.2950382  52.0482016  84.7839642  90.6654549  51.3620472
  86.0299492  91.2238216  52.3496246  84.8003292  89.4913578  53.1253433
  85.5201721  89.5373535  53.9425421  83.4633160  90.0272465  53.5280848
  82.4470234  89.8455429  52.7842379  83.3185768  90.7558250  54.5855570
  84.0901661  90.9628868  55.2035141  82.0166206  91.2207317  55.0217390
  81.3727093  90.3987885  55.3346014  82.1464634  92.0308018  56.3749027
  82.8098297  92.8935146  56.3133907  81.1574364  92.4482250  56.5638065
  82.4795818  91.1793137  57.5919580  83.5575867  91.0230160  57.5522947
  82.3845100  91.8179989  58.4701109  81.6486073  89.9692249  57.8304243
  80.6317997  90.0721169  58.4851980  81.9672585  88.8467693  57.3076010
  81.3082695  92.1502113  54.0108013  80.1329136  92.0386314  53.7395334
  82.1684551  93.0563736  53.4981060  83.1365204  93.0798149  53.7851810
  81.7025948  94.1360664  52.5727749  80.8587074  93.6871433  52.0489216
  81.2495422  95.3309250  53.4071159  80.5430508  94.8307323  54.0695190
  82.1446228  95.7146358  53.8966942  80.5474758  96.4264679  52.6328039
  81.2085247  97.4654770  51.9725180  82.2669220  97.6801777  51.9624949
  80.2449608  98.2261086  51.3241339  80.4910469  99.1031075  50.8877802
  78.9601326  97.8417587  51.4970684  77.6850128  98.3113861  51.1299038
  77.5261497  99.2443848  50.6096411  76.5737009  97.4749565  51.3997984
  75.5933094  97.8288651  51.1169624  76.7411470  96.2486362  52.0288849
  75.9046078  95.5667782  52.0698643  77.9822731  95.9114456  52.5577259
  78.0432463  95.0365639  53.1880093  79.1706991  96.6474819  52.2656202
  82.8120518  94.5834637  51.5888309  83.9289951  94.6267796  52.0522070
  82.5078487  94.8665905  50.2784586  81.1812019  94.8319340  49.6323395
  80.7100105  95.7963562  49.8219538  80.5330372  94.0363407  49.9997902
  81.4026165  94.6683311  48.1378269  80.5953312  95.0825596  47.5338459
  81.5111065  93.6131477  47.8869820  82.7516460  95.3713703  47.9994059
  82.5830936  96.4448261  47.9133892  83.3439636  95.0893402  47.1289349
  83.5057449  95.0486946  49.2745829  84.0771198  94.1323948  49.1261768
  84.5347977  96.1190033  49.5678997  84.1463566  97.2879219  49.8019218
  85.8242226  95.8240604  49.2995119  86.4650440  94.5714760  48.9553118
  86.3768482  94.3751335  47.8867722  85.9617996  93.7253952  49.4232655
  87.8949738  94.7887516  49.3331528  88.5506058  94.1895676  48.7013149
  88.1160641  94.4991970  50.3604698  88.1060982  96.3193893  49.1726828
  88.4779835  96.4972115  48.1636333  88.8456535  96.5244198  49.9467182
  86.7724133  96.9072723  49.5192480  86.7558956  97.2399902  50.5570936
  86.6049671  98.1326866  48.5699415  86.1215782  98.0433083  47.4595022
  86.9197559  99.3533325  49.0967894  87.4413490  99.3683720  49.9615526
  86.6063690 100.6185341  48.4064674  85.5345154 100.6291008  48.2086706
  87.0601749 101.8599701  49.2613745  87.8293419 101.5545368  49.9707270
  87.6592731 102.5856209  48.7112713  85.9563446 102.6136112  49.8861074
  85.3256321 102.9205132  49.0517759  85.1662731 101.9517994  51.0249090
  85.6692028 101.8649197  51.9880390  84.2761326 102.5623798  51.1763477
  84.8776436 100.9774017  50.6307602  86.5040207 103.9199352  50.4270124
  85.7143497 104.4347286  50.9742785  87.2479916 103.6996365  51.1925745
  86.8646049 104.5172882  49.5896053  87.2160912 100.5636787  47.0054340
  86.6217422 100.9633160  46.0226917  88.4414291  99.9672890  46.7914486
  88.8208866  99.3812847  47.5213146  89.1420174  99.9857998  45.4880857
  88.9245987 100.9401035  45.0083447  90.6849575 100.0354481  45.6514883
  91.0569859 100.6113243  44.8041058  90.9304333 100.5239105  46.5944862
  90.9378433  98.9761257  45.6067753  88.7334919  98.8518715  44.4926023
  89.3857765  98.7003899  43.5174847  87.7728653  98.0738449  44.9292231
  87.3600864  98.4365368  45.7766771  87.0599937  97.0240593  44.1721344
  87.3590946  96.9832039  43.1247711  87.3509979  95.6389236  44.6921682
  87.3182774  95.4968739  45.7723761  86.6777325  94.9151325  44.2328882
  88.6027527  95.1931667  44.1400671  88.4895515  95.2145672  43.1870079
  85.4775620  97.2454548  44.2510891  84.7393131  96.3553047  43.8570452
  85.0352478  98.4504318  44.6389961  85.6841660  99.1959190  44.8469496
  83.5999775  98.9272785  44.5300627  83.1675625  98.7610817  43.5434055
  82.7970600  98.1411934  45.5489874  82.7738476  97.0567703  45.4413271
  83.2753563  98.2856083  46.5177393  81.1360931  98.8505745  45.7908297
  81.5407658  99.6502399  46.7816210  83.4696198 100.4560566  44.7401571
  83.0078125 101.2066078  43.9121389  83.7421894 101.0007095  45.8998203
  83.9513969 100.3864098  46.6737604  83.7818909 102.4734211  46.2536335
  84.7202873 102.5850296  46.7968321  83.7434578 103.1277943  45.3827620
  82.5164890 102.9098797  47.0854568  82.3748875 104.0922642  47.4103451
  81.5874100 102.0698643  47.4220037  81.6032314 101.0868359  47.1906996
  80.4540062 102.3496532  48.2805490  80.2558231 103.4214878  48.2789373
  79.3086624 101.4645386  47.6975679  79.6481466 100.4355907  47.5787449
  78.0324793 101.4529419  48.5523415  77.1250439 101.3154507  47.9643250
  78.1680965 100.6361198  49.2612267  77.9578304 102.4109364  49.0669012
  78.8291693 102.1501160  46.3583040  79.6535301 102.2788143  45.6568956
  78.1073141 101.5020180  45.8613157  78.3561325 103.1196404  46.5144253
  80.7937431 101.8646812  49.7006750  81.2147045 100.6971169  49.8316813
  80.8908844 102.7101517  50.7857466  80.5867767 104.0801048  50.6707668
  79.5186758 104.2114353  50.8439684  80.8978558 104.5736599  49.7500372
  81.4492130 104.7247982  51.7410135  81.0401154 105.6746101  52.0853949
  82.4670982 104.8792267  51.3829851  81.4766216 103.6755848  52.8699446
  80.7128143 103.8424301  53.6294603  82.4365520 103.7471008  53.3813286
  81.2727642 102.3299122  52.1754694  82.2353172 101.8250942  52.0933485
  80.3637600 101.2459755  52.8119326  79.2298937 101.1511898  52.3056793
  80.7591915 100.5911350  53.8691092  82.0773983 100.6165886  54.5041132
  82.1744823 101.6042805  54.9548244  82.9113102 100.5323029  53.8072634
  82.0343208  99.5811558  55.6528854  81.8749809 100.0532436  56.6223383
  82.9531860  99.0179157  55.8158398  80.7721901  98.7228584  55.3463745
  80.2951717  98.6657524  56.3247871  81.0013390  97.7776337  54.8543119
  79.8884106  99.5394421  54.4069195  79.6262312  98.9574718  53.5233641
  78.7431049 100.2097702  55.1090527  78.8913965 100.8517170  56.1648369
  77.5159836 100.0416183  54.5464420  77.4481773  99.5914364  53.6448622
  76.2221241 100.6396866  54.9729967  75.4383993 100.2752686  54.3088579
  75.8086967 100.0251770  56.3089514  76.6022205 100.2851868  57.0095301
  74.9138403 100.5567074  56.6326952  75.5202055  98.5660744  56.2008190
  74.6279240  98.0459881  55.2050877  74.0967512  98.7359715  54.5661974
  74.4808674  96.6761589  55.0618839  73.7224340  96.2423992  54.4270277
  75.4273891  95.8000278  55.6347084  75.4796267  94.8019218  55.2254963
  76.3219261  96.2671185  56.6372442  77.1307993  95.6654930  57.0247698
  76.2800455  97.6335144  56.9451427  76.9451952  98.0401611  57.6925468
  76.1922884 102.1677399  54.8674345  75.7423973 102.8605461  55.7795429
  76.7303276 102.6710510  53.7308550  77.1332359 102.0688820  53.0271721
  76.6016912 104.0582275  53.3842230  75.7966995 104.5468426  53.9331722
  77.8933382 104.7875786  53.7810421  78.6489677 104.3697357  53.1158161
  77.7787685 105.8646393  53.6589003  78.4179688 104.6899033  55.2282810
  78.5476542 103.6364555  55.4763126  79.4324493 105.0871658  55.1948833
  77.7306509 105.4387951  56.3159657  76.9668961 106.4211464  56.1648655
  77.9184628 105.0217628  57.5152063  77.4420452 105.5366802  58.2418299
  78.4153986 104.1556549  57.6669121  76.2548780 104.1861343  51.9036674
  76.5434027 103.2849884  51.1136484  75.7459784 105.3529453  51.4585066
  75.5743504 106.0154343  52.2012997  75.9159470 105.9548473  50.1293468
  75.5516863 105.2164459  49.4150782  75.0610304 107.1053123  49.9200869
  75.2865267 107.8549862  50.6785250  75.2240133 107.6955414  49.0183306
  73.5543537 106.7969608  49.9591255  73.2605267 106.1040401  49.1706896
  73.3120537 106.3069344  50.9021330  72.6710224 108.0428600  49.6688747
  72.8454542 108.7269688  50.4993391  73.0568981 108.5843086  48.8051414
  71.1539841 107.7829647  49.4898510  70.8547163 106.8673706  48.9797306
  70.7855511 107.6741314  50.5099058  70.4973555 108.8999367  48.7619972
  69.4906521 108.8251686  48.7945271  70.6852007 109.7969151  49.1865683
  70.8295345 108.9762783  47.8112411  77.4221420 106.2085152  49.7386026
  78.1779861 106.4489555  50.6928253  77.7953529 106.3573360  48.4850073
  77.1141720 105.9631348  47.3267317  76.1532497 106.4707470  47.4107265
  77.0700073 104.8742771  47.3033047  77.9292965 106.5469074  46.1537313
  77.6953840 107.5680637  45.8527040  77.8708601 105.9223747  45.2622890
  79.3724251 106.5973663  46.6184568  79.9432993 107.3897457  46.1343861
  79.8482084 105.6179905  46.6690731  79.1311264 106.9212246  48.0796671
  79.9036455 106.3646507  48.6102867  79.2241669 108.3608627  48.3771420
  78.5057592 109.1588211  47.7387238  80.1314259 108.7068367  49.3014431
  80.5788994 107.9049206  49.7219276  80.6207943 110.0500488  49.6282005
  79.7277927 110.6286526  49.8645496  81.6753292 110.1688004  50.7109356
  82.6194000 109.8042297  50.3060627  82.0123482 111.1626530  51.0055065
  81.3895512 109.5244503  52.1173429  80.7243252 108.6653709  52.0304108
  82.6216793 109.1151047  52.8299141  83.0472183 108.2094765  52.3976421
  83.3654690 109.9090576  52.8970194  82.3734379 108.7856960  53.8388586
  80.6926060 110.4670238  53.1235647  80.4228401 110.0419235  54.0903139
  81.1587811 111.4491749  53.2021093  79.6532106 110.5575180  52.8080130
  81.2768364 110.7843685  48.4698915  81.3337326 112.0012665  48.5214758
  81.8734360 110.0880337  47.5174189  81.7937279 109.0812111  47.5253868
  82.5265694 110.7828331  46.4236164  83.0039120 111.7340946  46.6589165
  83.7089252 109.9014378  45.9650564  84.1724777 110.4572487  45.1500177
  84.7618675 109.7172260  47.1321201  85.7740974 109.5347786  46.7712879
  84.8285961 110.6210518  47.7377224  84.4072437 108.9485455  47.8187513
  83.3970356 108.6357594  45.4723072  84.0520191 108.3221245  44.8444271
  81.5648556 110.9277058  45.2101040  82.0115566 111.4486694  44.2047787
  80.3760719 110.3130627  45.1961899  80.0418568 109.8707867  46.0404682
  79.3027210 110.3758240  44.1902447  78.4194136 110.0221252  44.7220039
  79.0518332 111.8240166  43.7308216  79.9019051 112.1686935  43.1420279
  78.1655836 111.7356110  43.1024504  78.8406706 112.5767994  44.9246979
  77.9010582 112.4385262  45.0647163  79.5546103 109.6549416  42.8381634
  80.6903648 109.4661617  42.3639679  78.4926414 109.0886593  42.2265005
  77.1337605 109.0465736  42.6845789  76.5502214 109.8779392  42.2890806
  77.0140505 109.0057087  43.7672138  76.6042948 107.7768326  42.1345472
  75.5199671 107.6917458  42.0631742  76.9747543 106.8905258  42.6496315
  77.2077942 107.7617359  40.7402706  76.6473007 108.4468174  40.1041794
  77.2876024 106.7599297  40.3182411  78.6063290 108.2194901  41.0802650
  79.0658569 107.3104191  41.4682484  79.3634415 108.7327290  39.8942828
  80.0155163 107.9115582  39.2360282  79.4133091 110.0091839  39.5386815
  78.9635181 110.6364536  40.1900816  80.2945518 110.5164242  38.4973717
  80.0358868 109.9954128  37.5755501  80.0538731 112.0070171  38.2798600
  80.7652664 112.2827721  37.5014186  78.9899445 112.1226406  38.0729961
  80.4284859 112.6858711  39.5144844  79.6369028 113.1750870  39.7504187
  81.7860603 110.2940369  38.6477613  82.4808025 109.9423218  37.6712346
  82.3457050 110.5885410  39.7514033  81.8644238 111.1547089  40.4354572
  83.7450123 110.2681255  40.1217556  84.3349934 110.7296181  39.3298936
  84.1002464 110.8950901  41.4159632  83.4277248 110.5596352  42.2054529
  85.0985813 110.5459785  41.6796732  84.0071106 112.4341488  41.4120817
  84.6132278 112.7975750  40.5822277  83.0111027 112.7810478  41.1369038
  84.5622444 113.0694294  42.6911354  84.3200207 112.6038074  43.6464453
  85.6416988 113.0695629  42.5398588  84.0662384 114.4776630  42.7175760
  84.7837925 115.1883507  42.7293444  82.8459358 114.9470329  42.7101183
  81.8762493 114.1506290  42.9589033  82.0481873 113.2203579  43.3126497
  80.9624672 114.5789051  42.9997158  82.6638412 116.1866093  42.4471807
  83.4312057 116.8374157  42.3594475  81.7630005 116.6304016  42.5550795
  83.9729309 108.7175465  40.1304960  85.0884533 108.2536983  39.7695017
  83.0046177 107.8745937  40.4073477  82.0701694 108.2406139  40.5210829
  83.2230854 106.4287853  40.4078436  84.2175961 106.2576389  40.8198690
  82.1434975 105.7992268  41.1588097  81.1577034 106.1479759  40.8510923
  82.1580696 104.7292233  40.9514904  82.3407841 105.9958935  42.7447462
  82.7099037 107.0129108  42.8771544  81.1066628 105.9983635  43.5598278
  80.3912640 106.6989708  43.1291819  80.6033039 105.0385952  43.6763191
  81.3659954 106.4072037  44.5363998  83.3299160 104.9279976  43.2977438
  82.7631950 103.9978123  43.3388138  84.1197205 104.7502708  42.5678587
  83.8263512 105.2402592  44.2165184  83.2446003 106.0010338  38.9509916
  83.9791584 105.0546646  38.6117363  82.4942493 106.6085529  38.0475783
  81.8032074 107.2183323  38.4607816  82.4538326 106.4767551  36.5622139
  82.1546745 105.4337406  36.4586711  81.4113617 107.3991966  35.8853960
  80.4735565 107.4601650  36.4375687  81.8668461 108.3751202  35.7174301
  81.2347889 106.9342804  34.5812941  80.3332520 106.6172314  34.4901085
  83.8172913 106.6660690  35.9483409  84.2246628 105.9730148  34.9731350
  84.5339203 107.5816631  36.5483904  84.0788269 108.1662464  37.2348690
  86.0374355 107.7684021  36.2802982  86.1413288 107.7723408  35.1952696
  86.3340378 109.1498661  36.9045639  86.0761929 109.7789860  36.0526061
  85.6914139 109.3213558  37.7681136  87.8509998 109.3654060  37.1703506
  88.2820892 108.4333324  37.5357366  88.3000946 109.6057320  36.2066793
  88.1532001 110.4994965  38.2509017  89.1814232 110.8380699  38.1235051
  87.5376225 111.3916111  38.1355429  87.9352379 109.9109936  39.6301365
  88.3763885 109.0084934  39.7350025  87.6554966 110.4929256  40.7654572
  87.4265003 111.7944336  40.9112692  87.4193096 112.3283768  40.0539732
  87.6333237 112.2578049  41.7845440  87.6175022 109.6783161  41.8347979
  87.7540684 108.6805630  41.7577171  87.5670815 110.0728035  42.7632046
  86.8835258 106.5815163  36.7778826  87.6921844 105.9882355  36.0069299
  86.7008018 106.2173176  38.0817413  86.0954952 106.7822361  38.6601734
  87.5842571 105.1247215  38.6244273  88.6268044 105.2586365  38.3358645
  87.5857067 105.1511192  40.1518917  86.5774441 104.9032974  40.4836750
  88.1838036 104.3391991  40.5656147  88.0287170 106.4893723  40.7543182
  87.7646255 106.8479061  41.9241714  88.7863255 107.2550201  40.1187706
  87.2664261 103.7169933  38.0644655  88.1259918 102.9463291  37.7500343
  85.9914970 103.4505844  37.7941966  85.2866554 104.1442394  37.9995275
  85.6077957 102.1986961  37.1690392  86.1469078 101.3668919  37.6224327
  84.0807056 101.9711494  37.4491072  83.5974026 102.8023815  36.9357181
  83.7540436 101.0235786  37.0207453  83.5716152 101.9696522  38.8584375
  82.2006035 101.9152832  39.2622828  82.1749496 102.0824909  40.5706024
  81.3002968 102.0641804  41.2038946  83.4227276 102.1253681  41.0671139
  83.6472702 101.9033051  42.0264721  84.3320084 102.0660686  40.0159025
  85.4106998 102.0722961  40.0686598  85.9329319 102.1104431  35.7148719
  86.1043930 100.9634304  35.2041888  86.1293697 103.1888676  35.0100207
  85.7776451 104.0573883  35.3869438  86.7775154 103.1699276  33.7370944
  86.2966537 102.3980331  33.1362081  86.5016174 104.6003819  33.1700110
  86.9890118 105.3714085  33.7667179  86.9637966 104.7163105  32.1896791
  85.4429722 104.7779274  32.9806423  88.2361126 102.7462006  33.7191105
  88.8044548 102.6358795  32.5755906  88.8774109 102.4466133  34.9045324
  88.4841442 102.6478863  35.8127904  90.1463604 101.7761040  34.9769402
  90.7474422 101.8731880  34.0728521  91.0095882 102.2064972  36.1173725
  92.0592976 101.9129086  36.1144996  91.0057068 103.6777496  36.4411664
  90.1132774 103.9420223  37.0084739  91.8657589 103.9992237  37.0285940
  91.0401917 104.2699051  35.5266905  90.4653454 101.6762352  37.3670006
  89.8016453 102.3164654  37.6338434  90.0689793 100.1964188  35.0412703
  91.1194992  99.5260620  35.2886844  88.9102554  99.6027565  34.7110295
  88.1484127 100.2454090  34.5476365  88.7345695  98.1594563  34.6382785
  89.5708561  97.6033115  35.0618672  87.4266338  97.7557564  35.4833531
  86.5619087  98.2804775  35.0771165  87.2908020  96.6805363  35.3669286
  87.3764610  98.1729984  37.0008683  87.7578545  99.1875362  37.1164632
  86.0074425  98.0989552  37.5402975  85.3448105  98.8405609  37.0941663
  85.5146027  97.1350479  37.4133730  86.0552788  98.3495426  38.6000204
  88.3216953  97.3338699  37.7767420  88.0479145  96.2791634  37.7495098
  89.2972469  97.4322510  37.3005915  88.3670902  97.6696873  38.8127279
  88.5605812  97.7336502  33.1242561  88.1847382  98.5215282  32.2294188
  88.5319996  96.4138699  32.8642845  88.7174606  95.7658863  33.6164999
  87.9931927  95.8069324  31.6225886  88.2890415  96.2964344  30.6947088
  88.6362457  94.3982220  31.6531420  88.5634422  93.9044762  30.6841135
  89.7165394  94.4609261  31.7840743  88.0306911  93.5151768  32.7546883
  86.9735527  93.0479431  32.5903916  88.7530804  93.3186722  33.8763070
  88.7422752  92.4098396  34.3167782  89.6723747  93.7133884  34.0148258
  86.4465046  95.8378792  31.5972281  85.7676983  95.8578300  32.5939012
  85.8464336  95.7321167  30.4164505  86.4437675  95.8602142  29.6121597
  84.4004917  95.8818722  30.2285504  84.2516518  96.9255257  30.5055642
  84.1492558  95.7291222  29.1789556  83.4857559  94.9671078  31.0467076
  82.5608540  95.3006077  31.7501879  83.8179111  93.6898136  30.9429288
  84.4350719  93.4280491  30.1874924  83.2823086  92.6823425  31.7654681
  82.2579288  92.5977898  31.4027119  84.0235519  91.3245201  31.5524721
  83.4721279  90.5346394  32.0624924  84.0957832  91.0444069  30.5015564
  85.0103951  91.3670826  32.0133591  83.2408047  93.0876160  33.3151913
  82.2484016  92.7496052  34.0001583  84.3598366  93.6038208  33.9230132
  85.2180767  93.7700939  33.4171700  84.4223022  93.8987637  35.3883505
  83.7232876  93.2576084  35.9253716  85.8373260  93.5379505  35.9467745
  85.9922409  92.4818230  35.7261205  86.5419865  94.0772820  35.3137851
  86.1559772  93.8797474  37.4269629  86.1721230  94.9302769  37.7171803
  85.3337002  93.1428814  38.4580946  84.2597103  93.3025455  38.3624792
  85.5916691  92.0841503  38.4327650  85.7042217  93.4904289  39.4224715
  87.6285648  93.2904148  37.6252317  87.9546547  93.3745670  38.6619020
  87.5843239  92.2149563  37.4533796  88.3829403  93.8008022  37.0264626
  83.8072872  95.3569889  35.6473756  83.3768463  95.6720066  36.7463994
  83.8650703  96.2477970  34.6573091  84.2404079  96.0236549  33.7468195
  83.2850742  97.5667381  34.7921896  83.7446213  98.0799484  35.6368995
  83.6875343  98.3524513  33.5817480  84.7775078  98.3538151  33.5879922
  83.4664345  97.8946495  32.6175690  83.1559181  99.8056412  33.7327647
  82.0803642  99.7676373  33.5600376  83.3505821 100.1233768  34.7570968
  83.7912941 100.7178402  32.6809859  84.2651463 100.2360630  31.6449738
  83.8541126 101.9846630  32.8937602  84.0733814 102.4852753  32.0444012
  83.3591080 102.4956608  33.6106610  81.7612457  97.6105404  35.0233769
  81.3564587  98.2317638  35.9996676  81.0005283  96.8715096  34.1950226
  81.5077209  96.4144325  33.4507561  79.6016693  96.4509296  34.3782043
  78.9232159  97.2957134  34.2593193  79.4241238  95.4899788  33.1523871
  79.5544767  96.0727215  32.2405124  80.2118301  94.7391415  33.2145143
  78.1313038  94.7714806  32.9680490  77.0936537  95.4111290  32.2697759
  77.2445631  96.4002323  31.8632054  75.7888460  94.8339748  32.1871543
  74.9295902  95.3458500  31.7796302  75.6189156  93.5222340  32.6525331
  74.7050047  92.9490185  32.6016879  76.6675949  92.8311157  33.3836102
  76.5223455  91.8801594  33.8744998  77.9283857  93.4599018  33.5213089
  78.6799049  92.9645252  34.1181493  79.3795109  95.6999779  35.6785631
  78.4934378  96.0679436  36.4811063  80.2468300  94.7490311  36.0833216
  81.0510731  94.4587708  35.5457067  79.9981117  94.0594673  37.3541307
  78.9539528  93.7501335  37.3077965  80.9770298  92.8930378  37.5419879
  80.8080769  92.2883606  36.6509652  82.0384884  93.1218052  37.6371956
  80.5461502  92.3636246  38.3917975  80.1385784  95.0282574  38.5797000
  79.2915297  94.8910236  39.5120120  81.1400032  95.9494209  38.5959554
  81.7931557  95.9283066  37.8258538  81.3546371  96.9859886  39.5786929
  81.2909985  96.5391731  40.5708647  82.7565956  97.6575375  39.4928145
  82.7925873  98.2944775  38.6090016  83.0624866  98.4137630  40.7821512
  83.9764690  99.0012741  40.6951857  82.2482109  99.1008472  41.0123158
  83.3150291  97.7239895  41.5874624  83.7547112  96.6901207  39.2886710
  83.7619019  96.4363670  38.3628416  80.1920605  97.9994106  39.6046591
  79.8290157  98.5099125  40.6806183  79.6972418  98.3852100  38.4487557
  80.2173805  98.1366444  37.6194358  78.5457897  99.2722225  38.3305144
  78.7070370 100.1951027  38.8876414  78.3253574  99.6979332  36.8936610
  78.3097506  98.8347530  36.2282419  77.3481417 100.1804829  36.8763041
  79.3483829 100.7392502  36.4324379  79.1822481 101.5847588  37.0999742
  80.3633785 100.3511810  36.5178323  79.2561722 101.0345936  34.9130774
  80.1400757 101.4997578  34.4766831  79.1754866 100.0972176  34.3626952
  78.0220604 101.9738770  34.7224855  77.2008181 101.3875103  35.1345921
  78.2105780 102.8254318  35.3762603  77.8608084 102.4079895  33.3408451
  77.7812338 101.6337967  32.6971078  77.0136786 102.9568958  33.3066273
  78.6607838 102.8603840  32.9219341  77.3581600  98.5791302  38.9828444
  76.7459679  99.2380047  39.8039627  77.0653820  97.3175621  38.7236714
  77.6503944  96.9227886  38.0011678  75.9266758  96.6488075  39.3086386
  75.1035833  97.3629093  39.2827344  75.5248165  95.4190445  38.5044003
  75.3668070  95.7230568  37.4696469  76.4498043  94.8430920  38.5324049
  74.2488813  94.6927452  39.0404963  73.5015583  95.4668331  39.2148232
  73.9118433  94.0339375  38.2401919  74.3915367  93.7874699  40.2492237
  75.4431915  93.4927654  40.7987165  73.2466221  93.4610176  40.7469034
  73.1977463  92.9811287  41.6342688  72.3885965  93.8318825  40.3643465
  76.1836004  96.4182758  40.8268023  75.3421831  96.6552258  41.6960478
  77.3976421  96.0921288  41.2439156  78.1071949  95.7941914  40.5897951
  77.6759529  95.9842300  42.6466894  76.9744158  95.2827835  43.0982733
  79.0571451  95.4882526  42.8628540  79.1865921  94.6217728  42.2143602
  79.7067785  96.2599850  42.4499226  79.4792509  95.1873875  44.2814922
  79.2829514  96.0424328  44.9283695  78.8442993  93.9069366  44.8329449
  79.1182852  93.7006855  45.8675957  77.7586937  94.0016460  44.8086309
  79.0638351  93.0642223  44.1774130  80.9645176  94.8160553  44.3151188
  81.2223148  93.9830494  43.6610985  81.5437603  95.6705761  43.9652872
  81.3032055  94.6397305  45.3360462  77.5201464  97.3284912  43.3806992
  76.9247532  97.2923470  44.4621849  78.0296326  98.4617233  42.9070282
  78.3156872  98.5076523  41.9394684  77.8348827  99.7812366  43.5407829
  77.9720402  99.6886826  44.6181536  78.8938427 100.8297348  43.0216217
  78.5781717 101.8499374  43.2398701  79.8747110 100.7375050  43.4879827
  79.0026093 100.8248901  41.6409636  79.2539310  99.9832726  41.2535095
  76.3828516 100.3238201  43.5318995  75.8276081 100.6153774  44.5197773
  75.7532310 100.2055073  42.3286676  76.2980223 100.0478649  41.4929295
  74.3352079 100.5962849  42.2609520  74.3158722 101.6836071  42.3348856
  73.9288855 100.5292511  40.7791901  74.6648264 101.0493565  40.1660156
  73.8985920  99.4915199  40.4470825  72.5616503 101.1627960  40.4898214
  71.8511057 100.5053043  40.9907484  72.5625134 102.1817303  40.8769512
  72.2125483 100.9405804  38.9741921  71.2579489 101.4002705  38.7182093
  72.8660679 101.5062618  38.3100986  72.1281576  99.5664978  38.5442615
  71.4515352  99.0681267  39.1045403  72.9388905  98.8724709  37.8002596
  74.0013790  99.2951107  37.1651506  74.3581581 100.2207184  37.3550582
  74.6728897  98.6179733  36.8325043  72.6336622  97.6087189  37.7131939
  71.6888428  97.2871304  37.8681350  73.2276058  96.9876862  37.1824956
  73.3908415  99.8553753  43.2016945  72.3773241 100.4583359  43.6143875
  73.6323833  98.6072540  43.4961367  74.5097160  98.1936550  43.2144785
  72.7006245  97.8232193  44.2906094  71.7114401  98.2683372  44.1834211
  72.6584816  96.3922119  43.7099934  73.5980940  95.8523941  43.8276243
  71.5249777  95.4485893  44.2060375  70.5563593  95.9233093  44.0494108
  71.6731024  94.5356369  43.6292648  71.6012573  95.2332211  45.2718210
  72.4847412  96.5289211  42.2490454  73.4063196  96.4390373  41.9956493
  73.1008959  97.8213310  45.7715321  72.2803831  97.2559071  46.5315771
  74.2144823  98.3877754  46.1833477  74.8233509  98.8687325  45.5367756
  74.5880938  98.4149265  47.6129913  74.0523624  97.7176952  48.2571697
  76.0722685  97.9062080  47.6850748  76.7219114  98.5154533  47.0566797
  76.4174509  98.0969143  48.7012386  76.2467766  96.4088726  47.5066185
  76.0454750  96.1150742  46.4764452  77.7057314  96.0700893  47.7512407
  78.0167103  96.4101410  48.7390471  78.0594110  95.0394917  47.7213240
  78.1939173  96.6024399  46.9349241  75.4903364  95.4074669  48.4101534
  75.5332851  94.3588924  48.1156301  75.7387447  95.5804729  49.4572783
  74.4300079  95.6548595  48.4611320  74.4159889  99.8110771  48.2977533
  74.3542194  99.8785400  49.5352602  74.3560600 100.8892727  47.5781250
  74.2328405 100.6473923  46.6052866  74.1110754 102.2435093  48.0557108
  74.9945068 102.5608444  48.6097383  74.1675997 103.2296944  46.8768072
  73.9562607 104.1833496  47.3605299  75.1345778 103.1919098  46.3751841
  73.1517649 102.9157257  45.9871960  73.4450579 103.0867863  45.0892401
  72.8534460 102.3481274  48.9631844  72.7710295 103.0983639  49.9536085
  71.7910194 101.5710926  48.7315226  71.8162346 100.9656239  47.9235172
  70.5270576 101.5856934  49.4842052  70.4410076 102.4456882  50.1483583
  69.2834377 101.6724873  48.5739183  69.2883873 100.7638931  47.9718065
  68.3285093 101.7242146  49.0969324  69.3883276 102.8259087  47.6448774
  69.6134758 103.7189388  48.2278872  70.1243877 102.6320362  46.8646669
  68.0224228 103.1746101  47.0244455  67.6135731 102.4207973  46.3516140
  67.3059177 103.4005165  47.8141880  68.2518673 104.3295193  46.2264824
  69.2245770 104.5899010  46.1481428  67.4005938 105.0073051  45.4709196
  66.0889053 104.7840214  45.4877710  65.7154322 104.0879726  46.1171627
  65.4217863 105.2718735  44.9072027  67.8626347 105.8369064  44.6124220
  68.8506126 106.0453892  44.6353436  67.2971630 106.3009453  43.9159918
  70.3189945 100.3506660  50.3061342  69.3039989 100.1819515  50.9293842
  71.2887049  99.3592930  50.3028202  72.2189093  99.4735718  49.9263096
  71.2480164  98.2145691  51.1399698  70.3696060  97.6169395  50.8963871
  72.4687243  97.2851181  50.8395338  72.3671818  96.3347244  51.3635015
  72.5340605  97.0199966  49.7842884  73.4275246  97.7049541  51.1437273
  71.2672758  98.6970043  52.5989771  71.9635534  99.6381664  52.9861259
  70.4678869  98.0315685  53.4804296  70.0336790  97.1700954  53.1813765
  70.4475164  98.2507420  54.9339914  71.2106180  98.9989567  55.1483440
  69.1015911  98.7110519  55.3821468  69.1765881  98.8362885  56.4623308
  68.7162971 100.0517464  54.7478247  68.2193518 100.6190968  55.5347538
  69.5976019 100.5988216  54.4129896  68.0114412 100.0612926  53.9164495
  68.1539679  97.6953125  55.1279545  67.3655796  97.8057480  55.6644678
  70.9079599  96.9571877  55.6486416  70.9065437  95.8272076  55.0902510
  71.5627289  97.0867538  56.8515539  71.6526079  98.2925510  57.5791216
  70.6710005  98.7094021  57.8044558  72.2884226  99.0243816  57.0808601
  72.2714138  98.0351162  58.9753771  71.5773535  97.7574253  59.7686481
  72.8340960  98.9207458  59.2705774  73.0042887  96.7678070  58.6578512
  73.1631231  96.1349964  59.5310211  74.0036345  97.0230198  58.3053207
  72.1612453  96.0573769  57.6293755  72.8059101  95.5459404  56.9145679
  71.1800909  95.0267315  58.2134390  70.2160263  95.4142284  58.9466953
  71.4834404  93.7460327  58.0161381  72.2289085  93.4636211  57.3959541
  70.6560135  92.5560665  58.4811401  69.6830177  92.9542732  58.7689257
  70.4427671  91.5299988  57.3955917  71.3977194  91.1945057  56.9911003
  69.7045183  90.3206158  57.8737307  68.9167166  90.5732059  58.5834217
  69.2598104  89.7492695  57.0589209  70.3876257  89.6772861  58.4283400
  69.5706558  92.2332764  56.3018036  68.6180019  92.5121212  56.7521334
  70.0054312  93.2042599  56.0645962  69.3484259  91.4893150  54.9649000
  68.7834883  90.5657291  55.0911856  68.7176037  92.0880413  54.3078756
  70.3359270  91.2260056  54.5859432  71.2847948  91.9828606  59.7723579
  72.4654531  91.6350555  59.7581720  70.5170107  91.7350101  60.8968687
  69.1087580  92.0733833  61.0758972  68.4951591  91.8333721  60.2075720
  69.0792513  93.1419086  61.2891531  68.5815048  91.1715698  62.1730232
  68.1888342  90.2240181  61.8041611  67.7876329  91.6765976  62.7233028
  69.8884153  91.0678101  63.0715513  69.8680019  90.0846577  63.5417652
  69.8655844  91.9009972  63.7739658  71.0808182  91.1633396  62.1360826
  71.8401909  91.8340302  62.5381088  71.7568350  89.8075581  61.9573021
  71.1593342  88.7795258  61.5038824  73.0381012  89.6576691  62.4040365
  73.4604931  90.4408836  62.8818083  73.7707567  88.4117413  62.5247049
  73.7892294  87.9680347  61.5292692  75.2157164  88.6672592  63.0003786
  75.3086138  89.2882824  63.8913298  75.6818008  87.7130413  63.2460165
  76.0941744  89.2104149  61.8664360  76.2514830  88.4654427  61.0864496
  75.7802773  90.1696587  61.4548206  77.5219917  89.3182945  62.4676895
  77.7784491  90.0539398  63.4357929  78.3431244  88.5844421  61.8620300
  73.1474304  87.4062634  63.5657644  72.8076792  87.8005505  64.6353006
  73.0907679  86.1085415  63.1789684  73.5051203  85.8617020  62.2915697
  72.6016998  85.0582981  64.0641212  71.5610600  85.3286839  64.2431736
  72.5725842  83.7048912  63.3350611  73.6072016  83.3634090  63.3025265
  71.9620371  83.1484985  64.0462303  72.0098734  83.6157703  61.9376659
  70.7493162  84.2733574  61.7194939  70.3825998  84.7925663  62.5926208
  70.0824785  84.2748928  60.4540348  69.0544844  84.5900440  60.3524876
  70.7126665  83.5646915  59.3958139  70.1027441  83.4092331  58.1710100
  70.8512354  83.1400681  57.6335001  72.0267820  83.0486488  59.5894527
  72.5121212  82.6669502  58.7033558  72.6488733  83.0522156  60.8360529
  73.6541462  82.7278900  61.0610914  73.3232450  84.9648666  65.3989506
  72.7550077  84.7997475  66.4570904  74.7044802  84.9980164  65.2743912
  75.0933504  84.9777031  64.3424749  75.6654930  84.8180294  66.3668585
  76.6443205  84.8018074  65.8875465  75.6835222  86.0154629  67.3321629
  74.7705412  85.9246826  67.9206562  76.5347719  85.8352375  67.9886675
  75.8307695  87.3848057  66.6578150  75.1087856  87.4494743  65.8437824
  75.6880760  88.4411621  67.7313948  74.7759008  88.1896973  68.2725191
  76.5770626  88.4503746  68.3620453  75.5450058  89.3761063  67.1896410
  77.2242594  87.4508667  65.9351540  77.4406958  88.5084724  65.7844448
  78.0429220  87.0486069  66.5318727  77.2458267  86.8362427  65.0352192
  75.4077721  83.4970284  67.0772982  75.1475048  83.4278488  68.3081198
  75.4283381  82.4102592  66.2937164  75.6065798  82.5130749  65.3048992
  75.1617622  81.0208511  66.7362499  75.0331259  80.8943081  67.8112125
  73.8629150  80.6117058  66.0048151  73.8687944  80.8303547  64.9369860
  73.7725067  79.5409250  66.1874533  72.6231098  81.2847805  66.6414118
  72.5370932  81.0676289  67.7060938  72.8009558  82.3524189  66.5125036
  71.3519382  80.7877827  65.8814621  71.5376854  80.9388542  64.8180819
  71.1606312  79.7196865  65.9848499  70.1330662  81.7515945  66.1704111
  69.8342466  81.5612507  67.2012281  70.4868269  82.7742672  66.0396194
  68.9955282  81.3829136  65.2881336  68.1446075  81.8815994  65.5057192
  69.2178059  81.5742874  64.3216610  68.7628269  80.4038715  65.3743219
  76.3218021  80.1334763  66.3330746  76.8296623  80.1678562  65.2077675
  76.8519068  79.3392754  67.2862625  76.4769316  79.4426441  68.2183599
  78.1797695  78.6362743  67.2438145  78.1815863  78.0423784  66.3298178
  79.2351580  79.7707939  67.0202255  79.2852736  80.0867081  65.9782124
  78.9986753  80.6304741  67.6472235  80.6928730  79.2762089  67.3410463
  81.4843941  80.0052738  67.1677160  80.6769657  78.9693737  68.3868456
  81.1129856  78.0511093  66.4656782  81.0346127  78.0511045  65.2345514
  81.7207909  77.0131826  67.0380354  81.9777393  76.2118483  66.4795160
  81.9850063  77.1433830  68.0041313  78.4711313  77.7421522  68.4986258
  78.4118891  78.2748556  69.6135902  78.8028955  76.4730930  68.2962608
  78.9522076  76.1242676  67.3602438  79.1646051  75.5529213  69.4504547
  79.1942120  76.2141132  70.3165102  78.1895351  74.3966722  69.6972084
  78.1731653  73.7931347  68.7896967  78.6699963  73.3698750  70.7989693
  77.9877710  72.5570488  71.0479403  79.6529484  72.9457951  70.5938864
  78.8050175  73.8880205  71.7483902  76.7611265  74.8688745  70.0171518
  76.7772293  75.4551792  70.9358978  76.4622498  75.6289911  69.2953491
  75.7164669  73.8054800  70.2848530  75.6205416  73.2009459  69.3829441
  76.0032797  73.1216860  71.0837698  74.7939539  74.3421698  70.5062962
  80.5024433  74.9705219  69.1475439  80.6808472  74.5254612  68.0195999
  81.5356445  75.0468683  70.0633812  81.4111328  75.6385040  71.3731432
  80.9063244  75.0029659  72.1007156  80.7449055  76.5005970  71.3411045
  82.8745270  75.9522390  71.8470430  83.0236626  75.7388258  72.9054928
  83.0592918  77.0027256  71.6224623  83.7376118  74.9924946  71.0100174
  83.9253807  74.1813850  71.7135382  84.7308540  75.3498220  70.7381964
  82.9634571  74.6667910  69.7176838  83.2152748  75.2502584  68.8321018
  82.9894066  73.2048464  69.4014978  82.5318336  72.4196720  70.2068615
  83.6824226  72.8595304  68.3129692  84.0439415  73.5676956  67.6901484
  83.8197994  71.4771557  67.8252029  82.8542805  70.9754705  67.8899145
  84.1927147  71.4758253  66.3251591  85.1227283  72.0357513  66.2268877
  84.4505119  70.4591608  66.0284567  83.1946850  72.1292353  65.4161882
  83.1133366  73.3303785  65.3397322  82.2971725  71.3661861  64.8074627
  81.5068626  71.8784761  64.4426870  82.4913406  70.3784084  64.7256231
  84.6343327  70.5209160  68.7459469  84.5503998  69.3053865  68.6949396
  85.2619839  71.1438990  69.7272444  85.1222706  72.1410942  69.8058653
  85.7840729  70.3827429  70.9287834  86.4878750  69.6346092  70.5639887
  86.5707207  71.3521385  71.8269491  87.1082783  70.8662653  72.6412296
  87.3215389  71.7852831  71.1660719  85.7436848  72.4280977  72.1937704
  86.2123871  73.2164288  71.9101286  84.7654629  69.6583271  71.8581915
  85.1496792  68.7277222  72.5641966  83.4763241  70.0577354  71.8760490
  83.2639122  70.8698750  71.3144350  82.3346996  69.4485235  72.5227880
  82.6917362  68.5477972  73.0221033  81.8356991  70.3224802  73.6331606
  81.0991573  69.7033072  74.1452456  82.6428509  70.7111454  74.2540741
  81.0114193  71.8533230  73.0471039  82.0598316  72.6130295  72.7175999
  81.2193298  68.9984369  71.5671062  80.0612068  68.8492584  71.9821453
  81.4482212  68.8842869  70.2444649  82.3352051  69.1913700  69.8715496
  80.5242062  68.4714222  69.2220211  79.8903036  67.7925014  69.7923946
  79.5173883  69.6049500  68.7652397  79.0696049  70.0579643  69.6497536
  80.0245667  70.7142591  67.9108429  79.2857742  71.4032555  67.5014925
  80.7248116  71.2735605  68.5312748  80.5783749  70.3498411  67.0456219
  78.3798456  68.9349079  68.0137634  78.6611891  68.6319590  67.0052147
  78.0738640  67.9761934  68.4325075  77.5100660  69.5915604  68.0335140
  81.1930370  67.7100277  68.0167198  82.1223736  68.2363129  67.3764563
  80.6341362  66.5037584  67.8231812  79.7661495  66.2877893  68.2922840
  81.1218929  65.6709194  66.7901564  81.5738487  66.3001919  66.0234404
  82.2330189  64.6456003  67.2727823  82.8665924  65.1597881  67.9954910
  81.7513561  63.7512398  67.6680279  82.9819870  64.1740704  66.1543846
  82.5859642  63.3924580  65.7621431  80.0257874  64.8695612  66.1017752
  79.0797567  64.5559311  66.8209839  80.1109409  64.6354675  64.7543049
  81.0014057  64.7291422  64.2869759  79.0642977  64.0755510  63.8602352
  79.6017647  63.5655260  63.0607986  78.5053396  63.3474731  64.4480991
  78.0452728  65.1240015  63.3450842  77.4900007  65.9689379  64.1146421
  77.7613926  65.0081873  62.0326090  78.1786776  64.2259693  61.5487623
  76.9530344  65.8606052  61.1444950  76.4604425  66.5735054  61.8057299
  77.9075336  66.5537071  60.1659250  78.6691713  67.0177889  60.7925224
  77.4500132  67.3410225  59.5668364  78.7822628  65.3201389  59.1742706
  75.8703995  65.0894308  60.4077721  75.6588173  63.8982248  60.6545496
  75.1526403  65.7127094  59.4663572  75.3602362  66.6865730  59.2972708
  73.9516640  65.1959801  58.7740278  73.6142159  64.2690849  59.2378092
  72.9820347  66.3649464  58.7040806  72.9451084  66.8107986  59.6980381
  73.4356022  67.0896912  58.0279779  71.2790108  65.8493376  58.3604479
  71.6772413  65.2844381  57.2171211  74.2872477  64.8288965  57.3112011
  73.4951496  64.2848015  56.5586853  75.5017138  65.0264788  56.8999529
  76.1692953  65.4274893  57.5430918  76.1022234  64.6947432  55.6039286
  75.6732273  65.3555918  54.8507071  77.6333189  64.7907305  55.8007193
  78.2395124  64.2285824  55.0903606  77.9195023  64.4190073  56.7846060
  78.1066942  66.5974474  55.7581806  75.7765007  63.2275724  55.1179171
  75.6700611  62.9885769  53.9403629  75.7471895  62.2179651  55.9696436
  76.1464167  62.5209761  56.8465137  75.6417656  60.7956886  55.6191921
  76.4334297  60.5538940  54.9100351  75.9450054  60.1596165  56.4507914
  74.2612791  60.4375553  55.0266743  74.1858816  60.0299978  53.8669634
  73.2756853  60.8130980  55.8232403  73.5130978  61.2229490  56.7152929
  71.8519974  60.7469511  55.3866529  71.6991043  59.7768736  54.9137115
  70.8802128  60.9644365  56.5782022  71.3001823  60.3947067  57.4071407
  70.9569311  62.0187712  56.8439150  69.4687223  60.5984783  56.3268805
  68.8977146  59.3905020  56.5304470  69.2901039  58.4569931  56.9059324
  67.6048756  59.4270229  56.0711479  66.8228388  58.7990856  56.1903715
  67.3179197  60.6558847  55.4157829  66.2488699  61.1829138  54.6227074
  65.4098082  60.5364275  54.4119024  66.2713051  62.5223112  54.2304993
  65.4164648  62.9433680  53.7222052  67.3175621  63.3423519  54.5964813
  67.1464682  64.3675900  54.3031979  68.4957361  62.8302383  55.2149343
  69.3972635  63.4020185  55.3783941  68.5050106  61.4262581  55.6306219
  71.5660238  61.6395760  54.1789675  70.9589720  61.1799383  53.2481861
  71.9580841  62.9440355  54.2615604  72.5486612  63.0655289  55.0718403
  71.7780685  63.9278793  53.1803703  70.7079363  63.8522243  52.9875040
  72.1384239  65.2789164  53.6986637  73.1751299  65.1967955  54.0251541
  72.2185135  66.0160065  52.8996754  71.2092113  65.8495426  54.8392200
  71.1639404  65.1212120  55.6488991  71.7207718  67.2261477  55.3246689
  72.6828432  66.9945478  55.7816982  71.8980408  67.8824186  54.4726181
  70.9818125  67.5855303  56.0408258  69.7706509  66.0917282  54.2437601
  69.2792034  65.1659298  53.9446115  69.1472816  66.5065908  55.0358486
  69.9615574  66.7718792  53.4136724  72.3661613  63.4168768  51.8657398
  71.6630220  63.4457111  50.8186531  73.6255598  62.9140806  51.8757868
  74.1056967  62.8960896  52.7641821  74.2542315  62.3309755  50.7045221
  74.3333721  63.1418657  49.9804401  75.7440662  61.8963957  50.9407043
  75.7050085  61.0543203  51.6317081  76.4274406  61.4340353  49.6247816
  77.3853350  61.9230223  49.4474792  76.5107679  60.3472424  49.6186972
  75.7800388  61.7624283  48.8116837  76.5004778  62.8526926  51.5257359
  76.0841227  63.1440544  52.3402023  73.4203100  61.1638689  50.1466560
  73.0678558  61.1367083  48.9500475  73.0752563  60.2057362  51.0069132
  73.4694815  60.1895142  51.9366598  72.4432468  58.9346313  50.5667210
  73.0208063  58.4478283  49.7808790  72.4225473  57.9373550  51.7311096
  73.4457350  57.8654385  52.0999098  71.8317413  58.4583950  52.4844837
  71.8836498  56.5237045  51.5739822  70.8832026  56.6089630  51.1497879
  72.3900652  55.9871149  50.7716656  71.8282032  55.7458544  52.9154730
  72.8490829  55.4796171  53.1893730  71.5110445  56.3219786  53.7847185
  71.0644770  54.4353628  52.7088404  71.2676907  53.9306641  51.7643404
  71.4569759  53.8229227  53.5206079  69.6165276  54.5660543  52.9843330
  69.1841936  53.6560869  52.9125547  69.4146967  55.0470638  53.8492012
  69.1120577  54.9722576  52.2093439  71.1150694  59.1675138  49.9223471
  70.7956791  58.7343454  48.8047695  70.2732468  59.9846840  50.6121731
  70.5722237  60.2165413  51.5486288  69.0346193  60.6039524  50.0251150
  68.2585239  59.8627186  49.8344707  68.4359121  61.6403627  50.9728765
  69.2286348  62.3609209  51.1741066  67.0844078  62.2987556  50.5171919
  67.3525190  63.1012344  49.8299932  66.4974022  61.5513897  49.9833679
  66.5651894  62.6797628  51.3965940  68.1751060  60.9006023  52.1213484
  68.0341434  61.4967394  52.8605032  69.2527676  61.2616158  48.6679029
  68.4961843  60.8055353  47.7361965  70.1774693  62.1892214  48.5174465
  70.6929922  62.4195337  49.3548775  70.4327297  62.8898621  47.2676611
  69.5467091  63.3925486  46.8798637  71.5026140  64.0285826  47.4518633
  72.2772598  63.6012363  48.0885744  72.0813560  64.6371984  46.2076092
  72.8792620  64.0518045  45.7507038  71.3994217  64.8470163  45.3835630
  72.6175547  65.5248976  46.5431547  70.8227825  65.1825666  48.1907654
  71.5769243  65.9500456  48.3649683  70.0208616  65.6042957  47.5848150
  70.4462671  65.0100613  49.1990185  70.7833338  61.8794870  46.1851549
  70.1990700  61.9710732  45.0918865  71.5990305  60.8472347  46.5611410
  72.0739174  60.9197950  47.4495792  71.9400549  59.7748899  45.6522512
  72.3272038  60.1603079  44.7090292  73.0482912  58.9564371  46.3086176
  72.9339314  58.7303972  47.3687744  73.2423067  58.0231380  45.7800293
  74.3396568  59.9133921  46.2734652  74.6632814  60.2041531  45.2740526
  74.1410446  60.8744907  46.7477465  75.5194521  59.3861866  46.9417381
  76.1747456  60.2433777  47.0963907  75.2772045  58.9775467  47.9227734
  76.2403393  58.4099865  46.0403585  75.5995655  57.5691509  45.7748318
  76.5654182  58.9208746  45.1340389  77.4654770  57.8575611  46.7390823
  77.2551918  57.4560976  47.6416922  77.8465986  57.1358633  46.1441040
  78.1605625  58.5528803  46.9703531  70.7871628  58.8080645  45.2789783
  70.5840445  58.5783482  44.0940285  70.0565434  58.2695484  46.2760115
  70.1166868  58.6801672  47.1968126  68.8263226  57.6095200  45.9636021
  69.0344810  56.6378689  45.5156469  68.1753826  57.2085142  47.3138428
  68.2737350  58.0486107  48.0013561  67.0979786  57.0756865  47.2155762
  68.8451290  56.0112000  47.9522467  68.7570906  55.0838995  47.3861504
  69.9200153  56.1911011  47.9334116  68.3095741  55.6255674  49.3826580
  67.2354794  56.0658455  49.8067808  68.9669466  54.9176645  50.1313305
  67.8324461  58.3593607  45.0384855  67.1020317  57.7145338  44.1980648
  67.7324677  59.6565676  45.1864529  68.3113670  60.1316023  45.8641863
  66.9567823  60.4062796  44.2386818  65.9395409  60.0149012  44.2505836
  66.9637632  61.8810892  44.7931147  68.0169916  62.1519995  44.8667049
  66.0489321  62.9239607  44.0974760  66.5732670  63.3212852  43.2283926
  65.0536299  62.5297546  43.8923502  65.8642244  63.7594461  44.7727251
  66.5064573  61.8903542  46.1432791  67.1728468  61.4261770  46.6551971
  67.5352955  60.4220963  42.8545570  66.8804741  60.6511211  41.9050074
  68.8647556  60.3798580  42.7053881  69.4014645  60.3157854  43.5585785
  69.6122789  60.2564144  41.4432287  69.3648672  60.9265995  40.6199789
  71.0905123  60.6218767  41.6473198  71.5085077  59.9331188  42.3814821
  71.8389177  60.7476187  40.3089571  71.3894224  61.5509367  39.7252321
  72.8869963  61.0280132  40.4138947  71.7847204  59.7682858  39.8334885
  71.0856390  61.9030285  42.2976398  70.7043362  61.8183851  43.1745911
  69.6799469  58.7630463  40.8721209  69.6307325  58.5887909  39.6493006
  69.5880604  57.7402878  41.7383528  69.6405792  57.9335546  42.7282953
  69.5263815  56.3011599  41.4411783  68.6641312  56.1996126  40.7821560
  70.8078146  55.7813168  40.6945658  70.7994223  56.3718891  39.7784519
  71.6700268  56.0424709  41.3081455  70.7028675  54.3067074  40.2737761
  70.8362627  53.7099743  41.1761141  69.6953440  54.1314650  39.8965788
  71.7919064  53.9716768  39.2009163  71.4072657  54.3854284  38.2687378
  72.7940607  54.3422651  39.4164443  71.8802691  52.5192022  38.9954829
  71.2400007  52.1985197  38.2832146  72.6710320  51.6428852  39.6314597
  73.5797930  52.0276976  40.4941607  73.6552334  52.9917908  40.7855988
  74.2377901  51.3428593  40.8378649  72.5529146  50.3920031  39.2845249
  71.8496323  50.0830317  38.6287570  73.0060768  49.7024679  39.8670053
  69.2641878  55.5169964  42.7507925  70.0833464  55.5097818  43.6218452
  68.0852985  54.8408890  42.8690863  67.4453020  54.9507999  42.0955086
  67.7969217  54.0181065  44.0787315  68.1949091  54.5617294  44.9355745
  66.2946844  53.6980820  44.3694735  65.9407902  52.9253387  43.6870289
  65.9659481  53.2073832  45.7878351  66.6305923  52.4177837  46.1383724
  66.3635826  53.9879131  46.4364958  64.8987436  53.1392813  45.9988832
  65.3718758  54.8299837  44.2889166  65.4490948  55.3408813  43.4798336
  68.5642338  52.6824856  44.2025518  68.0620193  51.5961790  43.8002157
  69.7788906  52.6931620  44.8266125  70.2104521  53.5612249  45.1100349
  70.5152416  51.5611219  45.3323936  69.8855448  50.6724119  45.2901077
  71.7146921  51.4082909  44.4815111  72.2017050  52.3832989  44.4980240
  72.3523331  50.6831503  44.9871635  71.6184092  50.8959579  43.0395937
  71.1874390  51.7027330  42.4467373  72.6317072  50.8081818  42.6476431
  70.8527994  49.6521091  42.8195143  70.0495577  49.5880461  41.8584824
  70.9356451  48.6959028  43.6407995  71.0030842  51.7347431  46.7702770
  71.4151335  52.8620386  47.0363235  71.0739279  50.6447315  47.5343275
  70.4396057  49.3506765  47.2661734  71.0313940  48.7430716  46.5815496
  69.4425631  49.5597935  46.8785191  70.4973269  48.6051655  48.5642433
  70.4954338  47.5255823  48.4138775  69.6500778  48.8194656  49.2156601
  71.8285322  49.0345287  49.1746521  72.6113844  48.5677767  48.5768318
  71.9656086  48.8580656  50.2415037  71.7125607  50.5793762  48.8304567
  71.0931873  51.1361074  49.5336819  73.1384516  51.1352587  48.7852669
  73.9584017  50.6400394  48.0501604  73.4535742  52.0804262  49.7016573
  72.7134514  52.4182558  50.3001547  74.8277092  52.3503399  50.1671171
  75.0982952  51.3014889  50.2887774  75.6362772  53.0713511  49.0710497
  75.6110287  52.4191046  48.1980944  75.1411104  54.5070076  48.7539864
  75.3274632  55.2208424  49.5563650  75.6535149  54.8643541  47.8607655
  74.0828085  54.4490528  48.4995747  77.0851898  53.2520294  49.4182777
  77.6005793  53.8574886  48.6726904  77.1193027  53.7788677  50.3718901
  77.9114151  52.0075893  49.6930838  77.5180960  51.3906860  50.5010700
  77.8275776  51.3202715  48.8512611  78.9540243  52.2507524  49.8978901
  74.8713017  52.9826832  51.5773201  74.4559479  54.1146421  51.8645144
  75.3441477  52.2146130  52.5453949  75.5524445  51.2343502  52.4196720
  75.7590294  52.7065945  53.8023186  74.9140167  53.0356169  54.4071293
  76.5557384  51.5617180  54.5790386  77.2882271  51.0480309  53.9563990
  77.0987272  52.0234203  55.4037237  75.6106710  50.5275774  55.1183462
  74.7046471  49.9867439  54.4287729  75.8568811  50.1064777  56.3152981
  75.1493692  49.5042515  56.7113400  76.6714334  50.4065180  56.8316126
  76.6942501  53.9139271  53.5992050  77.7145910  53.9116859  52.8565025
  76.4757395  54.9435663  54.3549252  75.7805538  54.9628735  55.0873470
  77.0303106  56.2794447  54.1338396  77.9966593  56.0874367  53.6675835
  76.1569548  56.9495249  53.0394030  75.1474619  57.1355200  53.4060574
  76.7763567  58.3356476  52.8695011  76.7957067  58.8485813  53.8310766
  77.7188158  58.4480906  52.3335648  76.0956240  58.8867807  52.2206926
  76.0989714  56.2966347  51.8018818  75.5458689  55.5212975  51.9224215
  77.1350861  57.0641708  55.4365015  76.1726141  57.1434116  56.2125254
  78.3773851  57.3090410  55.8384609  79.0622711  57.1298027  55.1181078
  78.6526728  58.0884552  57.0376587  77.6917171  58.3244801  57.4947786
  79.4548845  57.3340464  58.0910778  78.9183521  56.3961697  58.2346869
  80.8203697  56.9068480  57.5780106  81.3219357  57.7135038  57.0433712
  81.4081573  56.6402292  58.4563732  80.7727242  56.0364342  56.9236279
  79.7013760  58.0058146  59.3345976  78.8111258  58.2338715  59.6121597
  79.2617989  59.4519138  56.6533661  78.9091825  59.9152756  55.5820704
  79.9675417  60.1299429  57.5213718  80.1486683  59.7057581  58.4199095
  80.3774357  61.5494919  57.3546696  79.4781923  62.0495796  56.9949675
  80.7750797  62.1499395  58.7061787  80.8693981  63.2173586  58.5066462
  79.9768591  61.8864870  59.4001150  82.0621395  61.7879057  59.3023300
  83.1968021  62.5435638  58.9255476  83.1577587  63.4421968  58.3277702
  84.4321442  62.1450853  59.4722319  85.3115273  62.6483393  59.0983152
  84.5698738  60.9751034  60.2523851  85.8096695  60.5134344  60.5615807
  85.7946873  59.6613121  61.0034752  83.3892536  60.2221727  60.5371571
  83.5209179  59.2921209  61.0701418  82.1093559  60.5704880  59.9991560
  81.2331104  60.0452280  60.3494358  81.3494968  61.7924833  56.1943531
  82.4382114  61.2171125  56.1108208  80.9634876  62.7912951  55.2999783
  80.1410866  63.3296537  55.5322075  81.8200111  63.4238052  54.2075443
  82.6827717  63.8133717  54.7478962  82.3265266  62.4294949  53.1832170
  82.9354000  61.6801548  53.6890459  81.3944530  62.0739794  52.7439499
  83.0768490  63.0661154  52.2251940  83.2379246  62.3602772  51.5947628
  81.0072708  64.6215200  53.4976292  80.2086258  64.3814039  52.5484037
  81.3412762  65.8589077  53.8274527  81.9642925  65.9883118  54.6118021
  80.9038639  66.9940996  53.0374002  79.8158073  66.9336128  53.0133677
  81.2614918  68.3240318  53.6712074  80.7905483  68.3139038  54.6541691
  82.3314857  68.4211588  53.8549948  80.8187675  69.5605707  52.8445482
  79.4786501  69.9998188  52.8501129  78.7551737  69.3771887  53.3553982
  79.1204834  71.2201595  52.1836805  78.1059551  71.5871572  52.2331333
  80.0728035  71.9306803  51.4630127  79.6432352  73.0722332  50.7713366
  78.8812351  73.3882093  51.2623692  81.4026737  71.4968348  51.3970661
  82.1045780  71.9888592  50.7400751  81.7981434  70.3411102  52.0710135
  82.8072643  69.9634409  51.9972467  81.4246368  67.0158625  51.5076208
  80.7409191  67.4796534  50.6047630  82.5825119  66.3910580  51.2117004
  83.0105495  65.8941317  51.9797802  83.2081509  66.2083769  49.8452806
  83.2425404  67.1427393  49.2850256  84.6224213  65.6235790  49.9330139
  84.5698166  64.5994902  50.3025723  85.2162838  65.5619717  48.5595560
  84.8037338  64.7245502  47.9968500  85.2105713  66.4892626  47.9866648
  86.2910652  65.3973818  48.6359882  85.4613400  66.3455963  50.7428980
  85.1977348  66.1597872  51.6471052  82.3602867  65.3926325  48.9255476
  81.9703865  65.7948828  47.8263664  81.9277477  64.2326450  49.4816160
  82.3194122  64.0259504  50.3893518  80.8931446  63.4669352  48.8736153
  81.1390781  63.2034969  47.8449202  80.7330990  62.1952581  49.6541071
  80.7177830  62.4379110  50.7166481  79.7660303  61.7564869  49.4084072
  81.8650532  61.1460114  49.4923925  82.7310467  61.1412811  50.3349209
  81.8424225  60.4063749  48.4916496  79.5982838  64.1245842  48.8648510
  78.9332867  64.0152550  47.8076839  79.0297461  64.8328543  49.8948097
  79.4936466  64.7944498  50.7911444  77.7033234  65.4919958  49.9785852
  76.9226313  64.7717381  49.7339296  77.3602152  66.0677528  51.3859081
  77.2388983  65.3152037  52.1650410  78.1308937  66.7666864  51.7109394
  76.0344410  66.7842007  51.5719748  75.0079536  66.7709637  50.6368542
  75.0172377  66.1176300  49.7769260  73.8165998  67.5044775  50.8653784
  72.9093027  67.4653196  50.2808428  73.6715031  68.2206821  52.0668888
  72.7435732  68.7185574  52.3066235  74.7330093  68.3999634  52.9430676
  74.5824575  68.8175535  53.9276266  75.8946705  67.6469564  52.6882076
  76.7561913  67.7579880  53.3299685  77.6789618  66.5230036  48.8387108
  76.8283367  66.4101410  47.9321480  78.5018349  67.5346136  48.7894344
  79.1689920  67.6709318  49.5353699  78.5716629  68.4010792  47.5965834
  77.6052523  68.9014578  47.6580143  79.6058416  69.4751835  47.7640915
  79.4473171  69.9033356  48.7538671  80.5797577  68.9860439  47.7821684
  79.5016384  70.6289291  46.7851162  78.4459686  70.8588648  46.6409254
  79.8606682  71.6013145  47.1222734  80.2002716  70.5365038  45.4255390
  81.0919380  69.6492290  45.2847815  79.9354076  71.4240074  44.4759130
  80.3132725  71.2264204  43.5603333  79.2257833  72.1340036  44.5874500
  78.7468433  67.7401733  46.2298918  78.1452179  68.2578182  45.2604723
  79.4687700  66.6286802  46.1484814  80.0503635  66.3854933  46.9375992
  79.5732355  65.9043932  44.8269892  79.8182964  66.5199947  43.9614964
  80.6853771  64.8146820  44.9814892  81.6568756  65.3070927  45.0241995
  80.5699348  64.1523170  45.8394194  80.5908203  63.8348532  43.8368940
  79.7927952  63.1016779  43.9539576  80.4806232  64.3435240  42.8791857
  81.9005775  63.0713844  43.7295961  82.7170563  63.7921381  43.6851215
  81.9924736  62.4184227  44.5975208  81.9615364  62.1557999  42.3804379
  81.1956978  61.3876772  42.2728395  81.9128895  62.8824568  41.5694523
  83.3306789  61.5241623  42.4204922  83.2828045  60.8991146  43.2124043
  83.4115791  61.1237955  41.4967728  84.0816021  62.1891356  42.5389862
  78.2180452  65.2982855  44.5034170  77.8154135  65.3103065  43.3544636
  77.5368786  64.7001410  45.5050850  77.9662943  64.7074699  46.4192247
  76.1724567  64.2949438  45.4109573  76.1211777  63.4974909  44.6696472
  75.6539536  63.7192297  46.7061234  74.7483349  63.1287622  46.5671778
  76.3625526  63.0722094  47.2231865  75.4691553  64.4154453  47.5241852
  75.2893543  65.3648615  44.8861647  74.5518923  65.2159548  43.8412857
  75.2421761  66.5543365  45.4812145  75.9229517  66.5958118  46.2261486
  74.3852758  67.7201653  45.0937843  73.3143282  67.5214720  45.1349068
  74.7197342  68.8035727  46.1573458  75.7987642  68.9565516  46.1772442
  74.0537405  70.1233006  45.7716227  72.9649496  70.0908518  45.7319260
  74.3128967  70.9447145  46.4396191  74.4074202  70.4996204  44.8117256
  74.1473627  68.4959602  47.5574636  73.0725002  68.6127853  47.4191856
  74.4482517  67.5017977  47.8879404  74.5917797  69.1310978  48.3237505
  74.6842003  68.1314468  43.6414862  73.7757254  68.1963444  42.8396082
  75.9802628  68.3084822  43.3775854  76.6372967  68.1900787  44.1354656
  76.4300346  68.5133076  42.0211792  76.0399246  69.4698048  41.6732836
  77.9298449  68.6307430  41.9382858  78.1890917  69.4237804  42.6396990
  78.3255196  67.7447176  42.4347782  78.4794283  68.8558149  40.6131649
  79.2600870  68.0739260  40.0771856  78.2221365  70.0164080  40.0243473
  78.6722231  70.2300167  39.1457701  77.4296951  70.5479479  40.3554153
  75.9521914  67.4229670  41.0463572  75.3660107  67.6838064  39.9812794
  76.0190392  66.1464548  41.3398743  76.4294577  65.8968830  42.2283411
  75.5447006  65.0506687  40.4021549  75.9145546  65.2683258  39.4001865
  76.1288023  63.7067890  40.8353662  75.9457016  63.7541246  41.9088316
  75.6511164  62.8803730  40.3091097  77.6293993  63.6701965  40.4674053
  77.9001427  63.8925743  39.4352484  78.0942249  64.4698381  41.0441351
  78.2751083  62.4317074  41.0391617  79.3579388  62.4363708  40.9144497
  77.9899120  62.4326611  42.0911884  77.7789068  61.1541796  40.4182768
  76.6975403  61.0270643  40.4691744  78.1172991  61.2179089  39.3840957
  78.3346844  59.9228621  41.0686922  78.1859159  59.9037457  42.0674944
  77.9664278  59.0119648  40.8347034  79.3050337  59.7899961  40.8219481
  74.0614271  65.0255299  40.2634144  73.5297060  64.6017408  39.2396474
  73.2972002  65.4717684  41.2649536  73.7594175  65.9103537  42.0485926
  71.8688536  65.6503773  41.2760782  71.5269518  64.7183561  40.8260298
  71.1961174  65.6749725  42.6613140  71.4752293  64.8288774  43.2892656
  71.6081572  66.5075397  43.2315350  69.6539402  65.7743073  42.6641893
  69.3579817  66.7114067  42.1926451  68.8963842  64.6678495  41.8377495
  67.8437328  64.8201466  42.0761585  69.0488434  64.7298670  40.7602501
  69.1351461  63.6553335  42.1631765  69.1909170  65.9421730  44.1254187
  69.2366838  64.9522352  44.5793343  69.7362041  66.6178608  44.7843647
  68.1350470  66.2112522  44.0965843  71.3968897  66.8147373  40.4238796
  70.3822231  66.7658281  39.7037888  72.1671009  67.9184818  40.5051708
  72.9004192  67.9138803  41.1996651  71.9222546  69.1944408  39.8210740
  70.8572435  69.4256306  39.8412752  72.7754545  70.3379250  40.3887558
  73.7865257  69.9613953  40.5438614  72.8557348  71.1043358  39.6178627
  72.2145128  70.9495115  41.6792393  72.0780754  70.1467419  42.4038506
  73.1352234  72.0214319  42.1817636  72.6472807  72.6458502  42.9301739
  73.9625692  71.5770149  42.7350235  73.4822226  72.6938534  41.3971996
  70.7873249  71.6239643  41.3916254  70.0643969  70.9265471  40.9684420
  70.3223038  71.9441605  42.3240089  70.8874846  72.5190163  40.7776594
  72.2457695  68.9765787  38.3418918  71.4132643  69.3731213  37.5237799
  73.3264256  68.1991243  38.0510879  73.8605928  67.9971075  38.8841248
  73.6141825  67.5855732  36.8058181  73.8719320  68.4033966  36.1328936
  74.8786926  66.6697216  36.6944146  74.6788883  65.7667255  37.2712803
  75.2320957  66.2343645  35.2948618  75.9191370  65.3882885  35.2794075
  74.3652439  65.9024334  34.7234678  75.6567812  67.0501900  34.7099113
  76.0267115  67.3185873  37.2820497  75.8905315  67.4892998  38.2168818
  72.4038982  66.8091345  36.2433696  71.9199038  67.1074104  35.1902843
  71.8315458  65.8349752  36.9524789  72.2421598  65.6373119  37.8538251
  70.7075787  65.0473642  36.5008163  70.9897375  64.5951700  35.5500245
  70.5467796  63.8563347  37.4827886  70.3415823  64.1421795  38.5144329
  69.7055769  63.2416534  37.1623850  71.4460802  63.2541800  37.3533010
  69.5020390  65.9718609  36.2824845  68.7759304  65.6670952  35.3191185
  69.2769146  67.0279074  37.0876956  69.8188353  66.9672585  37.9378390
  67.9708672  67.6732254  37.0090628  67.2558975  66.9030237  36.7197323
  67.6013565  68.3378077  38.3276105  68.2196426  69.2227793  38.4781194
  66.5716553  68.6929893  38.3683443  67.6955462  67.4431467  39.4453359
  68.6161757  67.4373007  39.7173810  67.9225349  68.8178110  35.9776068
  66.9175434  69.4545269  35.9369659  68.9370441  68.9398623  35.1132655
  69.7574377  68.3782434  35.2911401  68.6644077  69.3500042  33.7336254
  67.8360701  70.0549793  33.6630678  70.0270128  69.8744059  33.2117963
  70.4016733  70.5983877  33.9353824  70.7662106  69.0734291  33.2228589
  69.8977184  70.4818249  31.7690158  69.5443058  69.7683859  31.0245633
  69.1525364  71.8308353  31.7113090  68.9114809  72.0918036  30.6808281
  68.1823158  71.6516876  32.1746421  69.6309471  72.5673532  32.3568869
  71.2752867  71.0161066  31.3749743  71.9432735  70.1603603  31.2770486
  71.2253046  71.4700651  30.3852654  71.7097998  71.7781210  32.0219898
  68.1111193  68.2035494  32.8962064  68.8867998  67.4979782  32.1953940
  66.8643045  68.1611252  32.8048062  79.8543453  66.6825962  57.5225496
  41.9984722  36.5328884  66.5644979  41.7659807  36.1643219  65.6533432
  41.7109442  35.9361267  67.3269367  42.9724216  36.8002939  66.5689468
  41.2528801  37.7483797  66.6980934  40.1981449  37.5373721  66.8744755
  41.7670107  38.7119246  67.7882147  41.7048120  38.2389283  68.7682676
  42.7742815  38.9793253  67.4688387  40.9904099  39.8385262  67.6677847
  41.2718058  40.5609608  68.2339096  41.3283253  38.4264588  65.3513813
  42.3903322  38.7489581  64.8743248  40.2267361  38.6378527  64.6892071
  39.3440318  38.4342217  65.1358223  40.2102947  39.1483426  63.3092403
  40.8712769  38.5087323  62.7243471  38.8168550  39.1299820  62.7696371
  38.0411768  39.6766496  63.3058977  38.8902855  39.5873332  61.7829561
  38.2521272  37.7149487  62.5946379  38.1479430  37.2473955  63.5737419
  37.2693610  37.9799128  62.2046900  39.0464997  36.7791843  61.6288614
  39.5952797  37.1341228  60.5751705  39.1007686  35.5444598  61.9454670
  40.5545282  40.6116390  63.3491516  41.2747812  41.0128069  62.4000692
  40.3069305  41.3290024  64.4354677  39.7358060  40.8043766  65.0825310
  40.7958651  42.6944780  64.5798779  40.6617022  43.3903074  63.7516689
  40.0851345  43.3682394  65.7760239  40.4366159  42.8629351  66.6755962
  40.4203320  44.4047070  65.8143950  38.5382509  43.4086227  65.8095837
  38.1789374  44.2838001  66.3509274  38.2501173  43.4993744  64.7622776
  37.7643013  42.1357250  66.2863541  38.2638311  41.0266829  66.4080191
  36.4234352  42.2380400  66.4394855  36.0797071  41.3714218  66.8279791
  35.8475089  43.0554247  66.2970114  42.3214579  42.7828026  64.7598219
  42.9138517  43.8132763  64.3490982  43.0027342  41.7547131  65.2206182
  42.4731922  40.9150791  65.4068851  44.4644785  41.6735697  65.2841854
  44.8006105  42.6900721  65.4887199  45.0375271  40.5959988  66.3363743
  44.4067430  40.6185055  67.2250271  44.8686457  39.6061730  65.9123182
  46.5322733  40.7691050  66.6000271  47.1244764  40.6423330  65.6937599
  46.8725014  42.1938467  67.0375299  46.2981796  42.4776602  67.9194069
  47.9392576  42.2711372  67.2476578  46.6036844  42.9188776  66.2693071
  46.8661928  39.7360778  67.6938105  46.2906408  39.9233174  68.6003351
  46.6823053  38.7060642  67.3882675  47.8985167  39.9580765  67.9642344
  45.0635529  41.3866663  63.8005209  46.0439110  42.0241261  63.3660221
  44.3224812  40.5913925  63.0169630  43.6096907  40.0477648  63.4822607
  44.6342468  40.2719784  61.6464138  45.7055950  40.0817585  61.5821600
  43.9104795  39.0394783  61.1397457  42.8371143  39.2145276  61.2128830
  44.1233349  38.8834691  60.0821781  44.3049622  37.8082824  61.9884443
  45.3926468  37.7791023  62.0532036  43.8803101  37.8803706  62.9897261
  43.8104010  36.5438366  61.3976574  43.8657475  36.5221357  60.3092813
  44.3858767  35.6765485  61.7213011  42.3244429  36.2517428  61.6859198
  42.1584082  36.1818337  62.7609253  41.7698240  37.0530772  61.1976814
  41.8803549  34.9756622  61.0456657  40.9558868  34.7102976  61.3539505
  41.7760086  35.0227904  60.0421762  42.5742579  34.2721915  61.2547922
  44.5072269  41.5504503  60.7563114  45.4791832  41.8941355  60.1175642
  43.4356976  42.3577881  61.0179949  42.7348661  42.0155811  61.6597319
  43.2386589  43.6043453  60.4069901  43.2785034  43.3959723  59.3378353
  41.8322706  43.9954567  60.8496666  41.2313557  43.0962515  60.7139158
  41.7831850  44.2899847  61.8979740  41.2613916  45.3631449  59.8443747
  42.4189138  45.9671307  59.5611000  44.3332577  44.6655416  60.7381439
  44.6233845  45.4546642  59.8362064  44.8516893  44.7078466  61.9902182
  44.4242859  44.1663504  62.7279282  45.9365702  45.6151009  62.4123526
  45.6552076  46.6652298  62.3337984  46.3743544  45.3697586  63.8761377
  46.6241741  44.3166828  64.0054941  47.2323751  45.9844732  64.1482067
  45.0884914  45.9197235  65.0633860  43.9868832  45.3006983  64.6296120
  47.1272993  45.3910971  61.5280485  47.7310610  46.3595724  61.0892010
  47.4478054  44.1629553  61.0699558  46.9240284  43.3987713  61.4721680
  48.5420656  44.0195704  60.0088167  49.4281197  44.4895935  60.4355383
  48.8661432  42.5443029  59.8525476  49.8642874  42.4497414  59.4249153
  48.9645767  42.1643734  60.8694363  47.9037857  41.8723345  59.0964794
  47.0179653  41.8852329  59.4663000  48.2480097  44.6924114  58.7179708
  49.1195917  45.3563404  58.1802130  46.9804955  44.7085238  58.2527399
  46.3036394  44.0700340  58.6455441  46.3959217  45.5668545  57.1872902
  46.9281578  45.3438377  56.2625790  45.3333092  45.3899574  57.0209455
  46.5408945  47.0705318  57.4025011  46.7854786  47.7134418  56.3869047
  46.4764452  47.5448656  58.6648130  46.2888622  46.8550730  59.3783331
  46.8343019  49.0005350  58.9832020  46.1881018  49.6219444  58.3632231
  46.5418768  49.4267035  60.4215002  47.0906639  48.7390852  61.0650206
  47.0560169  50.8444357  60.6370926  48.0610895  50.8493996  60.2153063
  46.3580418  51.5823269  60.2415514  47.0860195  50.8467770  61.7266798
  45.0141191  49.2684889  60.6684971  44.5080566  50.1052189  60.1869535
  44.6461439  48.3877802  60.1421499  44.5790911  49.2395973  62.1266556
  45.3133297  48.6356258  62.6597738  44.7229147  50.2443695  62.5239563
  43.5959435  48.8351536  62.3673630  48.3163595  49.2154551  58.6043310
  48.7503719  49.9553299  57.7629995  49.1554165  48.4334660  59.1561031
  48.9004183  47.5231028  59.5115137  50.6118584  48.5309076  59.0322113
  50.9776402  49.3948793  59.5870590  51.2568808  47.3503733  59.8381615
  50.8959293  47.1805906  60.8525515  51.0631180  46.4296675  59.2878437
  52.7936029  47.5027514  60.0936842  53.2336617  47.5995827  59.1011715
  53.1690645  48.6596537  61.0007954  52.4438047  48.8190222  61.7987347
  54.1872740  48.5145521  61.3617706  53.0884266  49.5922232  60.4423094
  53.2731581  46.2054062  60.7595587  53.1511211  45.4422998  59.9908781
  54.3239450  46.3948107  60.9788513  52.6396465  45.9298468  61.6026688
  51.0663319  48.4309244  57.5723076  52.0288658  49.0896225  57.1592808
  50.3981113  47.5813007  56.8513536  49.7104692  47.0131731  57.3251486
  50.6183004  47.4584341  55.4428101  51.6884995  47.3364687  55.2757645
  49.9157667  46.2634373  54.9329376  50.4499531  45.3850412  55.2950954
  48.9436007  46.1978388  55.4215002  49.6690130  46.0810995  53.3716536
  49.1394281  46.9668245  53.0207443  50.5800152  45.9305382  52.7924204
  48.6909914  44.9117899  53.1255817  49.2505598  43.9874363  53.2689428
  47.8735065  44.8472404  53.8436794  48.0875492  44.8892736  51.6824865
  47.3494816  44.1026831  51.8394327  47.6227379  45.8416843  51.4276123
  49.0902710  44.5117807  50.6799269  48.6059427  44.3374014  49.8109484
  49.7521877  45.2688360  50.5859375  49.5877409  43.6839962  50.9755468
  50.1562309  48.6922312  54.6305656  50.9223747  49.1555834  53.8209581
  49.0474558  49.3702650  54.9476719  48.6439085  49.0669584  55.8224630
  48.6957073  50.6412363  54.3321228  48.7514734  50.4648495  53.2579374
  47.3031759  51.0351753  54.6689081  46.6748333  50.1768160  54.4312048
  47.2090197  51.0493183  55.7547426  46.6503382  52.2840071  54.0705252
  45.5826378  52.0933580  54.1790295  46.9081259  53.1107759  54.7324228
  46.9459009  52.6208162  52.5709486  47.0782518  51.6905451  51.7275953
  47.1823311  53.7675714  52.2367001  49.7614479  51.7033815  54.7768736
  50.0869417  52.6138973  54.0071964  50.2556229  51.6214132  56.0051823
  49.8762751  50.8979273  56.5991211  51.2672424  52.6166058  56.5157270
  50.9933996  53.6198950  56.1893415  51.3318586  52.5099897  58.0891323
  51.6861296  51.5222979  58.3841896  52.0506287  53.2793951  58.3710670
  49.9979782  52.9284096  58.7425280  49.7727060  53.9336777  58.3864546
  49.1323566  52.2986078  58.5372305  50.2328968  52.9454660  60.5545759
  51.2837744  54.3904161  60.6983757  51.3693523  54.6492863  61.7537260
  52.2452545  54.1342926  60.2533293  50.8666754  55.1960754  60.0941896
  52.6253128  52.4423265  55.8469915  53.3334637  53.4591293  55.6478024
  53.0514717  51.2277079  55.5618143  52.3789406  50.5664062  55.9230328
  54.2651653  50.8332205  54.7802114  54.9916506  51.4719629  55.2825308
  54.5066595  49.3619061  54.8503017  53.5386753  48.8745117  54.9667025
  55.0082016  49.0226221  53.9439631  55.3372192  48.8910007  56.0115051
  54.9281788  47.7963829  56.9156837  53.8866138  47.5108147  56.9158649
  55.8205843  47.3019266  57.9237366  55.5364847  46.4673519  58.5475731
  57.1064329  47.8012562  57.9362583  57.7935219  47.4254942  58.6799717
  57.4984169  48.8170099  57.1239901  58.5381365  49.1074467  57.0917702
  56.6602135  49.3254375  56.1595011  57.0766068  50.2046204  55.6903934
  54.2624664  51.1976910  53.2747602  55.3590727  51.3245344  52.7697277
  53.1299210  51.3316536  52.6467705  52.2416401  51.2060881  53.1107664
  53.0180168  51.5604162  51.1996889  53.3141279  50.6833649  50.6241798
  51.5874815  52.0660591  50.8407927  51.3004017  52.8545332  51.5364885
  51.6588497  52.4267960  49.8146963  50.9589481  51.1874104  50.9857941
  53.9447927  52.7726221  50.7131195  53.9975071  53.8134241  51.3602018
  54.6901655  52.6467466  49.5693111  54.5320129  51.7777872  49.0794134
  55.7067871  53.6483049  49.1404724  56.4946747  53.7108850  49.8910856
  56.3549423  53.1427050  47.8029728  56.5907526  52.1021700  48.0261040
  55.6407261  53.1255817  46.9797421  57.6969814  53.9032936  47.4042845
  57.4059391  54.9301291  47.1829128  58.4491253  53.8641119  48.1922245
  58.4053802  53.2820892  46.1852026  58.8492155  52.3488522  46.5318727
  57.6795578  53.0352449  45.4103851  59.4944143  54.2172766  45.7391787
  59.0405941  55.1246691  45.3407049  60.1007795  54.5315552  46.5886736
  60.5548811  53.7613583  44.8013544  61.4525032  54.1914940  44.9727011
  60.6270313  52.7995253  45.1009798  60.2241755  53.7436819  43.8471937
  55.1218367  55.0304651  48.9196157  55.8239794  56.0105419  49.1646433
  53.8882256  55.1284695  48.5224867  53.3562899  54.3086195  48.2675648
  53.1934977  56.4446115  48.3064222  53.7066221  56.7986012  47.4122763
  51.7092991  56.1890745  47.9716921  51.2867355  57.1430111  47.6561975
  51.6188478  55.5263567  47.1110392  50.8926439  55.5589008  49.1173315
  51.3900423  54.5910978  49.1809845  50.9780455  56.0057259  50.1078606
  49.4091225  55.4396296  48.7606192  48.8920259  56.3990545  48.7460232
  49.1880369  54.9476147  47.8134441  48.7007189  54.5848227  49.8042679
  49.1900063  53.6113405  49.8364878  48.7353563  55.0226831  50.8018541
  47.2668123  54.3771219  49.5017529  47.1663475  53.8606930  48.6396027
  46.9522238  53.8673878  50.3149605  46.7354059  55.2322769  49.4216537
  53.2505512  57.4629545  49.4210625  52.9097557  58.6222458  49.2609119
  53.5076380  57.0133829  50.6283998  53.4624577  56.0084248  50.7185221
  53.6589527  57.7966499  51.8601513  53.0718184  58.7142277  51.8223953
  53.0863857  57.0025826  53.0729675  53.6653137  56.0821152  53.1483078
  53.3324385  57.5499630  53.9828730  51.6340303  56.6222429  52.9172897
  50.5561161  57.4114275  52.5203657  49.4768476  56.5953779  52.5830698
  48.4656763  56.9382381  52.4206686  49.8474598  55.3029442  52.7576065
  49.1940403  54.6102190  53.0941725  51.1890316  55.2965689  53.0252838
  51.7722178  54.4091511  53.2222223  55.1526165  58.2414341  52.1529818
  55.3327465  59.1472054  52.9765224  56.1460590  57.6620960  51.4861727
  55.9569263  56.9320536  50.8143330  57.5868654  57.8284121  51.8332624
  57.7957344  57.4969101  52.8504038  58.3816051  56.9899368  50.8926868
  58.3240938  57.5154352  49.9394560  59.4344997  56.8147278  51.1136198
  57.9969406  55.9719467  50.8307505  58.1613636  59.2777157  51.7691088
  59.2369175  59.4998646  52.2936392  57.4590158  60.3141737  51.3097715
  56.5503454  60.1276875  50.9102058  57.8070641  61.7092228  51.5464783
  58.8172531  61.8096352  51.1495733  56.8184662  62.5086689  50.7476139
  56.7472839  62.2275019  49.6969080  55.7946587  62.4307919  51.1134672
  57.0303297  63.5703754  50.8740807  57.7577305  62.1286917  53.0013466
  58.6198950  62.8581905  53.4719419  56.7429733  61.6813231  53.6801004
  56.1463642  60.9896660  53.2490921  56.5610886  61.8671274  55.1348495
  57.3534012  62.5695705  55.3935194  55.1636791  62.3920488  55.4777956
  55.0157213  62.4301624  56.5570307  55.1050854  63.4145451  55.1047373
  54.0306711  61.7083740  54.7156477  53.2828617  60.6963062  55.3703642
  53.6494112  60.4992676  56.3669682  52.1184158  60.1622438  54.8436642
  51.5554380  59.4129896  55.3803873  51.5988922  60.8248377  53.6804199
  50.4345036  60.3360891  53.1865215  50.3969717  59.3784952  53.1298494
  52.3156643  61.8541574  53.0592155  51.9336414  62.4080801  52.2144508
  53.6480522  62.1820545  53.4595537  54.1779470  63.0350637  53.0620766
  56.7954779  60.5967808  55.9984732  57.2002697  60.8419418  57.1431398
  56.8007851  59.3507719  55.4543400  56.3290024  59.2222834  54.5705891
  56.9565964  58.1321335  56.2108374  56.6024303  58.4017229  57.2058201
  56.0888958  57.0297098  55.6003141  56.4564085  56.7029428  54.6275568
  55.9441233  56.2221909  56.3179874  55.0923967  57.4434662  55.4457331
  58.3823633  57.6545572  56.5082312  58.5813761  56.7554855  57.3332119
  59.3284512  58.1988573  55.6919146  58.9989853  58.6609173  54.8564148
  60.6837988  57.6432753  55.6545448  60.6122780  56.6353369  55.2458286
  61.6527748  58.4891987  54.7106838  62.6045418  57.9591179  54.6753550
  61.2516785  58.5082388  53.6973476  62.0102072  59.8905468  55.0586033
  61.4056492  61.0390425  54.6744156  60.4520607  61.1164761  54.1733503
  62.1626902  62.0890284  55.1597548  62.0679283  63.0445480  54.8465395
  63.0274725  61.7142916  56.0474157  63.8441896  62.4343300  56.9526911
  63.7853718  63.5052681  57.0792866  64.6828556  61.7331553  57.9305649
  65.2756882  62.3122740  58.6230803  64.7444057  60.3195524  57.8509903
  65.3645802  59.7606611  58.5361385  63.9495039  59.6617651  56.8704367
  63.9412308  58.5819578  56.8517971  63.0155945  60.2724361  56.0115242
  61.3348246  57.4988031  57.0884657  62.0128155  56.5109587  57.1787500
  61.0685921  58.2583189  58.1446838  60.4237509  59.5132494  58.1843185
  59.4279432  59.3176079  58.5820436  60.3908777  60.0975990  57.2647810
  61.1254406  60.3725624  59.1379356  60.4929590  61.0718918  59.6847582
  61.9327927  60.9697342  58.7140656  61.6860151  59.3877983  60.1696920
  61.0170698  59.2635584  61.0212708  62.6940584  59.7016096  60.4407454
  61.7989111  58.0582476  59.4003773  62.8687048  57.9517078  59.2206669
  61.2990570  56.8410969  60.2054405  62.0858812  56.3825464  61.0276031
  60.1119804  56.3067102  59.8640728  59.6913719  56.5499449  58.9786148
  59.4016123  55.4116249  60.6720591  59.9302673  55.0987387  61.5724659
  58.1361485  56.0693884  61.1254263  57.4014425  55.9531212  60.3286886
  57.8216648  55.5182934  62.0117092  58.1614161  57.5397587  61.4627409
  58.5476780  57.8931046  62.8093433  58.8875532  57.2020149  63.5664988
  58.5871315  59.2513847  63.1480694  58.9289904  59.3928957  64.1627169
  58.2967949  60.2993488  62.1839714  58.3768749  61.3544703  62.4001122
  58.0722141  59.8725557  60.8748770  57.7813387  60.6681538  60.2049351
  57.9322672  58.5310698  60.5299234  57.7068806  58.2253265  59.5189238
  59.1315603  54.0139771  60.0489283  58.5836458  53.1565905  60.7667446
  59.3857622  53.8140202  58.7375641  59.6373606  54.5746613  58.1225586
  59.4923735  52.4516249  58.1762886  58.5056782  51.9966269  58.2630157
  59.8918200  52.6271200  56.6873503  60.8900118  53.0584002  56.6117811
  59.8880529  51.5778303  56.3922501  59.0346336  53.3325434  55.6363201
  57.6190376  53.2416058  55.6616545  57.1258974  52.6659966  56.4309978
  56.7654133  53.7143183  54.6687651  55.7129526  53.4744453  54.7032356
  57.2892141  54.4569635  53.5820246  56.5178061  54.7806931  52.5075722
  55.6634808  54.3446207  52.5471830  58.6625671  54.6930981  53.5799885
  59.1275978  55.1063538  52.6971674  59.5352888  54.1726160  54.6154261
  60.6089640  54.2893171  54.6179867  60.5316734  51.5499401  58.8271523
  60.1273537  50.4318476  59.2058802  61.7615414  52.0244884  59.0954971
  61.9991350  52.9934216  58.9379549  62.9439354  51.3119173  59.6616650
  62.6026821  50.4336929  60.2097178  63.9130878  50.9073114  58.5864258
  64.0761757  51.6978741  57.8539515  64.8685265  50.6395817  59.0375996
  63.5510349  49.6662998  57.7809763  62.4760008  49.5692968  57.6293468
  64.0187168  49.7322750  56.7986202  63.9615583  48.3723593  58.5207653
  65.0507116  48.3757210  58.5636663  63.4858036  48.3583641  59.5013571
  63.5088491  47.1120548  57.7768183  62.4320936  47.1293926  57.6082993
  63.9067507  47.1890974  56.7649698  64.0556526  45.8076811  58.3356285
  65.0504351  45.7543659  58.1692839  63.8685369  45.7680893  59.3273544
  63.5556793  44.9974918  57.9984188  63.6412287  52.2016621  60.7403755
  63.2584333  53.3393812  60.8240318  64.4872665  51.6860628  61.6143179
  64.8331404  50.2471685  61.7876720  65.6325865  49.9893999  61.0930204
  64.0113401  49.5574903  61.5950584  65.3312063  50.1060057  63.1990480
  65.9780788  49.2393923  63.3355713  64.4494724  50.0606966  63.8382578
  66.0655308  51.4185953  63.3976793  67.0625448  51.2611008  62.9862785
  66.2315178  51.6978884  64.4381332  65.2744913  52.4742889  62.5688314
  64.5530081  52.8729486  63.2820177  65.9481621  53.7542820  62.0699644
  66.5784740  53.6700439  60.9632063  65.9338665  54.8427868  62.8563023
  65.3946638  54.7897768  63.7086821  66.5499449  56.1295891  62.4266720
  66.1447906  56.3498306  61.4390230  66.1533165  57.2259378  63.4733582
  66.4549303  56.9357109  64.4797850  66.8483162  58.5831928  63.2083654
  66.4562178  59.4203949  63.7858200  67.9308176  58.5017586  63.3066320
  66.5572071  58.7914848  62.1788168  64.6300030  57.4623108  63.5701895
  64.0630245  57.4376154  62.6395845  64.2047119  56.7120314  64.2367601
  64.3951607  58.4302425  64.0129852  67.9938459  55.9931087  62.4327660
  68.5732651  55.4745722  63.4152937  68.6548376  56.5220690  61.4446974
  68.1408834  57.0544195  60.7572603  70.0728083  56.4794636  61.2992764
  70.5126953  55.6148624  61.7963314  70.4025745  56.4222574  59.8329258
  70.0360012  57.3283339  59.3504810  71.4913368  56.3943720  59.7892284
  69.6893597  55.2517366  59.2537832  68.8617659  55.4608679  58.2946539
  70.1117325  54.1033030  59.4413137  70.6600475  57.7536917  61.9944763
  71.0112286  58.6799860  61.3016748  70.8334637  57.6700783  63.3566952
  70.3733349  56.9012308  63.8227987  71.1696100  58.7781763  64.2676735
  70.3888130  59.5359612  64.3326330  71.2710094  58.2183361  65.7400227
  71.8567228  57.2998238  65.7771826  71.8124199  59.1856098  66.8487787
  72.7481699  59.6820879  66.5919161  71.0841131  59.9559307  67.1022940
  71.9701004  58.5521078  67.7216530  69.8770952  57.8709984  66.1510229
  69.1823530  58.7068272  66.2336683  69.4580889  57.0818329  65.5267143
  69.8380852  57.3412418  67.1028280  72.4163866  59.4241571  63.8047266
  72.4371719  60.5854940  63.5850143  73.5797358  58.7058401  63.8050461
  73.4679222  57.7072382  63.9070034  74.8584604  59.1939354  63.3932590
  75.0452423  60.0585413  64.0301800  75.9284067  58.1471205  63.6934614
  75.7654667  57.7257586  64.6854305  75.8191252  57.2508097  63.0829000
  77.4153519  58.6683846  63.5212231  77.4520063  58.9002657  62.4568033
  77.5319052  59.6468830  63.9871168  78.6062717  57.8312922  63.9446354
  78.4783316  56.5701628  63.8854027  79.7245169  58.3187008  64.1736412
  74.9524403  59.6381187  61.8967915  75.6828785  60.5417109  61.4792442
  74.1563129  59.0086985  61.0134029  73.6237812  58.1968355  61.2915897
  73.9456511  59.5133400  59.6860552  74.9818707  59.5616627  59.3513680
  73.1785345  58.4981489  58.8275576  72.0934248  58.5845518  58.8839054
  73.4276152  58.7408829  57.7945328  73.4920359  57.4908686  59.1017962
  73.2766485  60.9173346  59.4791889  73.6884212  61.7085791  58.6369753
  72.4220896  61.2398815  60.4516459  72.2080040  60.4639912  61.0617781
  71.8988514  62.5630713  60.6749153  71.9024897  63.1260920  59.7415876
  70.4858255  62.2796297  61.1494446  70.3449583  61.4711475  61.8668079
  70.0563526  63.1604481  61.6267443  69.5494795  61.8233490  59.9917364
  70.0369549  61.2020063  59.2404699  68.4025526  60.8655119  60.4600859
  68.7845945  59.8446512  60.4575253  68.0980158  61.1236382  61.4743471
  67.5628185  60.7911396  59.7691345  68.8059378  63.0158186  59.3625784
  68.3946657  62.6892138  58.4074354  68.0416059  63.4354687  60.0166321
  69.5824623  63.7167406  59.0562773  72.5349426  63.4666491  61.7070913
  72.4375534  64.6887064  61.6870594  73.5076952  62.8674650  62.4349594
  73.6162996  61.8634701  62.4520969  74.3062925  63.4085083  63.5829544
  74.8713684  62.6584578  64.1363239  74.8710537  64.3199539  63.3869791
  73.4253836  63.9722204  64.7315836  73.7290716  64.9628305  65.2662945
  72.3117161  63.2889748  65.0566292  72.0846653  62.4673176  64.5149469
  71.3631010  63.6937141  66.1429453  71.2062311  64.7651815  66.0186386
  70.0208330  62.9233885  66.0668087  70.1186228  61.8498802  66.2284088
  69.3537617  63.3363867  66.8234777  69.3088198  63.0219555  64.6798372
  70.0434732  62.8125477  63.9023161  68.2348680  61.9386053  64.5984936
  68.7550306  60.9949732  64.4338942  67.5023842  61.9517708  65.4055834
  67.5376177  61.9862986  63.7620306  68.7730598  64.3541479  64.2084837
  67.9651785  64.6397591  64.8821688  69.5686960  65.0991726  64.2083073
  68.3808756  64.2188883  63.2005167  71.9651461  63.3968401  67.5557566
  71.9803905  62.2332907  68.0979395  72.5187492  64.4273520  68.2275629
  72.5254011  65.3796339  67.8910875  73.2458496  64.2827320  69.5179415
  74.1194105  63.6591673  69.3277884  73.8016129  65.7121944  69.9362421
  72.9539013  66.2760925  70.3254843  74.4988585  65.6391573  70.7708740
  74.4892311  66.3715410  68.8390207  75.6834650  65.9091520  68.3163357
  76.0842276  66.7177534  67.3480797  76.8648815  66.5244389  66.6272354
  75.2330065  67.7729988  67.3058939  75.2976131  68.4720087  66.5797281
  74.2216015  67.5247002  68.1825399  73.3544159  68.1473064  68.3461094
  72.3641920  63.8660908  70.7066870  72.8145552  63.6326694  71.8411636
  71.0507202  63.9675379  70.5760098  70.6419277  64.2626953  69.7008657
  70.0856733  63.9828205  71.6671181  70.5358887  63.6356640  72.5971174
  69.5696306  65.4031086  71.9411182  68.9616728  65.3636408  72.8449583
  70.4165030  66.0892963  71.9334602  68.7231493  65.8085346  70.7360220
  67.7003670  66.5202570  70.8849096  69.0421534  65.4595184  69.6045494
  68.8826752  63.0528402  71.4468670  68.1333733  62.8639507  72.3952532
  68.9246750  62.3829508  70.3690624  69.6341228  62.4918222  69.6584797
  67.8812981  61.3121796  70.0469494  66.9314861  61.8465996  70.0657988
  68.0967999  60.6876183  68.6150408  68.1278753  61.4734507  67.8603172
  69.0254545  60.1172829  68.6357212  66.9627094  59.7122192  68.1546116
  65.7128286  60.2028275  67.7813816  65.4767609  61.2567139  67.7812433
  64.6819448  59.3323374  67.4242401  63.7203407  59.7081852  67.1072721
  64.9043131  57.9646063  67.2696829  63.9290524  57.0841312  66.9114923
  63.3805704  57.3987818  66.1891603  66.1388874  57.4907494  67.7871227
  66.3051796  56.4294815  67.6754713  67.1334648  58.3816528  68.1884193
  68.0495405  57.9156065  68.5200739  67.7927685  60.1995134  71.1029005
  66.8991661  60.1790142  71.9065619  68.8948107  59.6035719  71.3279009
  69.6124125  59.7148848  70.6259346  69.1672230  58.4893751  72.2582102
  68.3732224  57.7449560  72.1989679  70.5116415  57.8838921  71.8635845
  71.3200712  58.5984087  72.0185232  70.7441902  57.1383810  72.6240015
  70.4466534  57.2024393  70.1994419  69.5030451  56.2684965  70.3486252
  69.2267132  58.9213085  73.7620115  69.4404411  58.0420685  74.6140766
  68.9664793  60.1800489  74.0400743  68.7260151  60.8162689  73.2934141
  68.9186192  60.7265043  75.4225302  69.2315245  59.9223661  76.0885286
  69.8709583  61.8925476  75.5828524  70.9094858  61.6236067  75.3898859
  69.6425581  62.6028919  74.7882843  69.7496462  62.6408529  76.9041681
  68.7733459  62.6740551  77.6763868  70.7011986  63.4209299  77.1395445
  67.4153900  61.0976267  75.6816864  66.9218397  60.5714750  76.6000175
  66.7195272  61.7713261  74.7052526  67.2056198  62.2201777  73.9421415
  65.3506184  62.2555208  74.9425745  65.2671719  62.6241636  75.9649467
  65.0323391  63.4258699  73.9961243  65.4586029  63.3528566  72.9955912
  63.5197115  63.5963964  73.8626623  63.3157492  64.5809126  73.4416723
  63.1220865  62.7813196  73.2579756  63.0605936  63.4832144  74.8447514
  65.4967737  64.8235273  74.6339989  65.3293610  65.6111479  73.8993359
  64.8976660  65.0798750  75.5077600  66.9251108  64.8746777  75.1474190
  66.8949127  64.2612934  76.0479450  67.6411152  64.6882868  74.3469810
  67.1190739  65.8999014  75.4626942  64.3846464  61.0935545  74.7911549
  63.5359049  60.9431362  75.6698227  64.4124317  60.3424549  73.6934328
  65.1588011  60.6282997  73.0759192  63.5658789  59.1713905  73.3573437
  62.5130987  59.3962908  73.5281515  63.7728786  58.8014317  71.8657827
  64.8288107  58.7081051  71.6119957  63.1545639  57.3877573  71.6633320
  63.0439758  57.2424984  70.5887318  63.7789440  56.5438795  71.9567871
  62.1613503  57.2798061  72.0991945  63.2355499  59.7925901  70.8200026
  63.8620377  60.6697607  70.6581783  63.1796837  59.3471193  69.8267555
  61.8296146  60.2557516  71.1370802  61.1431026  59.4550276  71.4121199
  61.8117666  60.9594488  71.9693041  61.3859797  60.7523251  70.2741194
  64.0375566  57.9457378  74.3013477  65.1817703  57.4827433  74.0853310
  63.2121038  57.4335480  75.2895021  62.4155664  57.9858494  75.5733919
  63.5229731  56.2446928  76.1008930  64.5682001  56.0912991  76.3693523
  62.7355003  56.4898062  77.3450422  61.6839314  56.2582827  77.1756268
  62.9559088  55.7405233  78.1053686  62.7674437  57.8829527  78.0368757
  62.2259521  58.6233902  77.4481106  62.2367382  57.8756571  78.9889288
  64.2701578  58.2956457  78.2876158  64.5929909  57.5005531  78.9597130
  64.7110891  58.3337498  77.2915125  64.2941904  59.6241903  79.0079927
  63.7106323  60.2468252  78.3298445  63.8140059  59.5731878  79.9851942
  65.6454706  60.1269341  79.1286039  66.1277914  59.6046066  79.8459911
  66.1396122  60.2031469  78.2510376  65.5630445  61.0736227  79.4707870
  63.1882858  54.9278402  75.4356003  63.7133694  53.8701820  75.8861589
  62.3125887  54.9661875  74.4613457  61.7550135  55.8008528  74.3493319
  61.9363832  53.7700558  73.6505032  62.7399635  53.0418968  73.5402679
  60.8053732  53.0088091  74.3541002  61.1602783  52.7826357  75.3595829
  59.9336481  53.6585379  74.4318438  60.3484392  51.7643356  73.7289381
  61.0794163  50.6119680  73.6122322  60.2192545  49.6874809  73.2192612
  60.4761934  48.6711788  72.9594421  59.0099335  50.2612209  73.0473804
  58.1860876  49.7774315  72.7197695  59.0600395  51.5743113  73.3644199
  58.1858492  52.2039032  73.4406328  61.6350842  54.1073275  72.2182989
  60.5351734  54.6344566  71.9399166  62.6442194  53.9334869  71.2912655
  64.0399551  53.6132097  71.5509272  64.1044188  52.5479078  71.3293982
  64.5054340  53.9543867  72.4756050  64.8562431  54.1954041  70.3975916
  65.7822084  53.6302376  70.2914000  65.0429726  55.2209997  70.7159996
  63.7999153  54.0699673  69.1972256  63.9068937  53.1256294  68.6634779
  63.8376236  54.9545240  68.5614300  62.4442434  54.1292334  69.8802042
  61.9530964  55.0906134  69.7297955  61.4895630  53.0039310  69.3128490
  61.2584066  51.9812536  69.9426222  60.9291172  53.2221365  68.1261396
  61.2510157  53.9976978  67.5649071  59.8727465  52.4210835  67.5448322
  60.1398373  51.3692665  67.6470900  58.5495424  52.6197958  68.2641315
  58.5539246  52.3766518  69.3266582  58.3632708  53.6922121  68.2064915
  57.4336243  51.9234276  67.6319361  56.5345907  52.1599245  68.2010603
  57.3078442  52.1755981  66.5789890  57.3864317  50.1254272  67.5910425
  56.7701435  49.6820927  69.2386484  56.7588091  48.6013269  69.3797970
  57.5424051  50.0300360  69.9246883  55.9308577  50.3235531  69.5074081
  59.7777796  52.6634455  66.0184193  59.9053240  53.8239288  65.5857897
  59.5183945  51.5748262  65.2506113  59.2768192  50.6911993  65.6759834
  59.2950439  51.6549683  63.8004398  58.7498522  52.5797033  63.6114120
  60.6022596  51.5890121  62.9896879  60.4223442  51.4353085  61.9256830
  61.1511135  52.5252581  63.0911875  61.4905596  50.4578257  63.4528303
  62.2201300  50.5769110  64.4624615  61.3266087  49.3070364  62.9829979
  58.4403229  50.4948378  63.2959938  58.2116556  49.5469999  64.0079403
  57.9098797  50.6739187  62.1177769  57.9509640  51.5583563  61.6317940
  56.9265270  49.7180748  61.5927458  56.0574245  49.7024536  62.2504091
  56.4979792  50.3047228  60.2026749  57.3642826  50.4176760  59.5508623
  55.9576130  49.4897795  59.7210455  55.7155228  51.5601540  60.1285887
  54.8426056  51.4357805  60.7694054  56.3750267  52.3119879  60.5620575
  55.2929831  52.0125008  58.3634853  55.5948210  53.7881756  58.6336994
  55.7334471  54.3848276  57.7321005  54.6610403  54.1835928  59.0334558
  56.5085554  54.0727997  59.1554022  57.3884678  48.2545424  61.4928532
  56.5377283  47.3237610  61.6303873  58.6940622  48.1690788  61.2297964
  59.1280985  49.0810537  61.2339783  59.4048309  46.9566774  60.9649277
  58.7449551  46.3377857  60.3569508  60.7274437  47.1618128  60.2164888
  61.3733625  47.7736425  60.8462143  61.2805033  46.2239790  60.1645660
  60.4712391  47.7668953  58.9984083  60.0400257  48.5896826  59.2406559
  59.5516586  46.1716652  62.3400497  59.2723179  45.0015354  62.3639202
  59.7695637  46.9560385  63.4226465  59.9130583  47.9505396  63.3202791
  59.6073151  46.5446615  64.8516750  60.2828598  45.7046843  65.0134850
  60.0196695  47.6089239  65.8099651  59.3171215  48.4323072  65.6812096
  60.1318216  47.0557308  67.2881365  60.8386469  46.2288761  67.2187424
  60.6230974  47.7966595  67.9188299  59.2134380  46.6294527  67.6918221
  61.3668966  47.9541588  65.4229927  61.3909292  48.4528732  64.6030521
  58.2188082  46.0298300  65.1223135  58.1142139  44.8853111  65.5330133
  57.2132874  46.8730307  64.9012804  57.3669720  47.8183842  64.5806646
  55.8556938  46.3819456  65.1059484  55.7666016  46.0242748  66.1317348
  54.7936344  47.4671268  64.8783493  54.8433685  47.8919840  63.8757896
  53.3733368  46.9220066  65.1644850  52.5325918  47.6151037  65.1349306
  53.0968571  46.1955261  64.4003582  53.3304739  46.3986540  66.1196613
  55.0804949  48.6398268  65.9278440  55.0226212  48.1720638  66.9106722
  56.0973597  49.0038538  65.7809734  54.0188074  49.8067760  65.8006382
  53.0208111  49.3848276  65.9192848  54.2006016  50.6290007  66.4927340
  54.0843248  50.2748203  64.8184252  55.4921246  45.0310087  64.3119097
  54.8927689  44.0798712  64.8611021  55.9883404  44.8268700  63.0872726
  56.3813829  45.6534576  62.6602173  55.9435606  43.5971832  62.3226452
  54.8923540  43.3507347  62.1732283  56.4764833  43.8575602  60.8565569
  55.9072638  44.6379185  60.3514528  57.5150204  44.1761017  60.9464693
  56.3564062  42.6004028  59.9410820  56.9514322  42.8838539  59.0729189
  56.7639923  41.7429781  60.4766083  54.9514627  42.2879219  59.4140482
  54.4523191  41.6166973  60.1129150  54.4252920  43.1945610  59.1153002
  54.8996401  41.3265991  58.1902027  55.5467939  40.4715347  58.3855295
  53.8784933  40.9993410  57.9946041  55.4200935  41.9062281  56.9111872
  56.1485720  42.5920200  57.0493984  55.6644726  41.1014509  56.3519764
  54.6726513  42.3811197  56.4254856  56.7587471  42.4588823  63.0025101
  56.3146639  41.3069487  62.9984474  57.9592323  42.7352858  63.5438919
  58.3840704  43.6082220  63.2653332  58.7459946  41.9546413  64.4178438
  59.1291857  41.0407591  63.9638758  60.0269318  42.6511002  64.9319077
  60.5541563  43.0171347  64.0509081  59.8620653  43.5736084  65.4885912
  60.8469057  41.7588711  65.6209183  61.7407990  42.1083546  65.6003857
  57.8515959  41.4191628  65.5704737  57.6372719  40.2140379  65.6778622
  57.1004915  42.3143673  66.2567186  57.3882103  43.2303715  65.9432650
  56.3647366  42.0425987  67.5296068  56.9698524  41.4249849  68.1932974
  56.0550880  43.3451748  68.3188486  55.5434418  43.9885712  67.6030540
  55.2897692  43.1006193  69.0554523  57.2486305  44.0862656  68.8891506
  57.6726341  43.3551550  69.5774841  57.9340696  44.4373608  68.1177855
  56.7461109  45.2983665  69.6225309  56.4125061  45.9623098  68.8250399
  55.8419514  45.0323725  70.1701021  57.7737904  45.9230709  70.6606579
  58.7625122  46.0205793  70.2122927  57.4761724  46.9082165  71.0198307
  57.9036760  45.0540495  71.8432903  58.4263611  44.2211819  71.6125774
  58.4280109  45.4974079  72.5839663  57.0491552  44.7696114  72.3004436
  55.1052475  41.2813568  67.1972561  54.6335030  40.4282999  67.9745054
  54.4275618  41.5086222  66.0859871  54.7482824  42.2261190  65.4516077
  53.2246494  40.7747746  65.6299019  52.4797440  40.8916235  66.4170218
  52.5925303  41.4221859  64.3950605  53.3891487  41.6339350  63.6818600
  52.0348740  40.6614494  63.8488007  51.6905880  42.6186275  64.6275187
  52.2861052  43.2649422  65.2722931  51.5359116  43.4587049  63.2944298
  50.8133030  44.2728233  63.3505392  52.4720192  43.9739180  63.0791140
  51.1008263  42.8557014  62.4974442  50.3442860  42.3051643  65.1698256
  49.7454691  43.1899357  65.3859234  49.7358418  41.7977285  64.4212198
  50.3450394  41.5879250  65.9906054  53.6340427  39.3000793  65.3815413
  52.8607798  38.3880162  65.4905224  54.8541927  39.0310788  64.7985744
  55.2211046  39.8471260  64.3300247  55.2814627  37.6932311  64.4350386
  54.4267750  37.1972919  63.9749765  56.4633799  37.7940369  63.4489632
  56.3378429  38.5154605  62.6415634  57.3909140  37.9548764  63.9984274
  56.8754673  36.4956975  62.8111506  57.8748941  36.6043711  62.3899174
  57.1205521  35.7659125  63.5828018  55.9800291  35.7351756  61.9069099
  54.8625755  36.2416029  61.6499090  56.4444017  34.6621633  61.4190149
  55.7471323  36.8608737  65.6450033  55.6156349  35.6538868  65.7188177
  56.1494064  37.6324892  66.6674709  56.3808632  38.5862327  66.4289379
  56.3255692  37.2016692  68.0043459  56.7955256  36.2201333  67.9424381
  57.2059727  38.2154846  68.6962652  57.6273489  37.8840542  69.6453190
  58.0664825  38.4822345  68.0826902  56.7078066  39.1645694  68.8941717
  55.0504446  36.8985319  68.8025475  55.0693178  36.2337828  69.7965384
  53.8794136  37.4173093  68.3479166  53.9568424  38.0091238  67.5331402
  52.5079918  37.0526314  68.9142847  51.8824530  37.3932457  68.0891895
  52.1833467  35.5074477  68.9457989  52.8075027  35.0531721  69.7153234
  51.1629534  35.2569318  69.2358637  52.4940348  34.7876239  67.6196480
  52.0073271  35.2235460  66.7471886  53.5619020  34.6851516  67.4266148
  51.8657017  33.3314538  67.6805258  52.2772646  32.8277612  68.5551739
  50.7852173  33.2900357  67.8181028  52.2331953  32.6156878  66.4548111
  52.1962261  33.2657576  65.6827068  52.2965193  31.3434052  66.2372208
  51.9340324  30.4892635  67.1246672  51.5573835  30.8683324  67.9817247
  51.8782616  29.5195460  66.8478346  52.5868177  30.8991194  65.0424337
  52.6553249  31.5147877  64.2447090  52.5249958  29.9000311  64.9078989
  52.2194338  37.8493404  70.1804495  51.4157915  37.4497652  70.9937954
  52.8887081  38.9836097  70.3449249  53.5382605  39.2571259  69.6214819
  53.0434084  39.6833110  71.6162539  53.3100367  38.9801097  72.4052477
  54.0509748  40.8420086  71.4104414  53.8966656  41.4256001  70.5028534
  53.8104868  41.5840149  72.1718168  55.5455065  40.3857851  71.5734339
  55.5604410  39.6239233  70.7940483  56.2105274  41.1957693  71.2737989
  55.8792973  40.0022554  73.0449772  55.6569242  40.8842325  73.9182138
  56.3312483  38.8564515  73.3898258  51.7193747  40.4629707  71.8747330
  51.2241745  40.4289532  72.9893494  51.1442661  41.0342646  70.7894897
  51.5081739  40.8252668  69.8708010  49.9618101  41.8273926  71.0937166
  50.1570702  42.5838757  71.8537855  49.5743322  42.5953865  69.8461390
  49.4822598  41.9443750  68.9767694  48.5877371  43.0570126  69.8057175
  50.6498098  43.5805607  69.4518948  50.7631350  44.8067236  70.1543570
  50.2168608  44.9288607  71.0779810  51.8437243  45.6546831  69.8580217
  51.9163418  46.5122175  70.5105257  52.7392864  45.4230595  68.8195467
  53.7038851  46.3157797  68.6480045  53.8155699  46.8016624  69.4683981
  52.5374651  44.2818499  67.9938936  53.2958364  44.0719461  67.2541475
  51.5076065  43.3042812  68.3339405  51.3389444  42.3793650  67.8024530
  48.8639593  40.8146715  71.4563560  48.6431217  39.8979712  70.7038450
  48.0720425  41.0807419  72.4902582  48.3901930  41.8358135  73.0808067
  46.8512011  40.3140354  72.7859259  46.9928885  39.2714381  72.5012684
  46.6047478  40.3302956  74.2986345  46.9345522  41.2993574  74.6731377
  45.5815411  40.0739431  74.5732880  47.4799204  39.2260599  74.9477720
  47.2784710  39.1499925  76.0162926  47.0798206  38.2773924  74.5899248
  49.0046215  39.2589521  74.8842239  49.2672920  38.9109921  73.8852072
  49.2997837  40.2862024  75.0980759  49.5480394  38.3571768  75.8364058
  48.8484049  37.9953742  76.4686394  50.7896328  38.0642629  76.0278749
  51.7646265  38.7375593  75.4501438  51.5571070  39.3571925  74.6800184
  52.6978159  38.3931565  75.6252003  51.1202049  37.2472954  76.9400549
  50.4319811  36.8521500  77.5648022  52.0642805  37.1477509  77.2848892
  45.5742741  40.7403135  72.0590258  44.6880007  39.9066520  71.8712950
  45.3832626  41.9922113  71.5761518  46.1817312  42.6066637  71.6469145
  44.3158627  42.2707891  70.5653143  44.3367624  41.4928913  69.8020697
  42.9220104  42.4507046  71.2568617  42.7717447  41.7764854  72.1000385
  42.9886103  43.4498072  71.6875172  41.6617584  42.3429680  70.3983641
  40.5768347  42.7930450  70.8475447  41.8426943  41.9232798  69.2281866
  44.6267366  43.6108112  69.8223257  45.6189775  44.1980505  70.1288176
  43.7684155  44.0277004  68.8826942  43.0174160  43.4141874  68.6003685
  43.9935780  45.2941132  68.1785965  44.8866463  45.2003098  67.5607538
  42.7183771  45.5552530  67.3901272  42.4198580  44.6025515  66.9526911
  41.9465780  45.9923697  68.0236530  42.8835011  46.3485336  66.6610527
  44.2824793  46.4855766  69.0140247  45.1938915  47.2436142  68.6930275
  43.6569929  46.6723871  70.1511145  42.7868938  46.1750889  70.2764940
  43.9335537  47.7667999  71.0609722  43.7162161  48.6774635  70.5028009
  42.9511213  47.8267241  72.2316790  43.0928040  46.9266701  72.8299475
  42.9733324  48.7459755  72.8169966  41.4879656  47.6599932  71.7920637
  40.8732796  48.1093836  72.5720119  41.2812138  48.1431293  70.8371115
  40.9987688  46.2341118  71.7407942  40.9127617  45.4940271  72.7060127
  40.6797028  45.7268476  70.6078005  40.3078794  44.7878551  70.6198215
  40.4133415  46.3258457  69.8394585  45.3443193  47.8644800  71.6286325
  45.7412672  48.9521551  72.0288563  46.1050701  46.7877007  71.7254019
  45.7027388  45.8868504  71.5093088  47.4735355  46.6904640  72.1338511
  47.6469326  47.4307203  72.9149151  47.8046227  45.3083992  72.7560663
  47.0647621  45.0344324  73.5081625  47.7131033  44.5139503  72.0153999
  49.1801119  45.3848267  73.5414267  49.9951506  45.5907917  72.8476000
  48.9632273  46.1672258  74.2686892  49.5462275  44.1143608  74.2535734
  48.7629128  43.1898975  74.2368984  50.6973076  44.0118074  74.8351812
  48.4393072  47.0755529  70.9826851  49.3711567  47.8213167  71.2513161
  48.1385660  46.7816639  69.7495031  47.2424126  46.3379192  69.6077538
  48.8534880  47.1858644  68.5592699  49.9176884  46.9934845  68.6955166
  48.3265829  46.4262533  67.2984409  48.7234116  45.4113626  67.3234129
  47.2428226  46.3118792  67.3203993  48.7351704  47.0694494  65.9869099
  47.7868271  47.9623127  65.4023838  46.8751478  48.2877779  65.8812571
  48.0265570  48.3658123  64.0391254  47.2547436  48.9305735  63.5373783
  49.1620207  47.9300070  63.3120584  49.1195107  48.2664728  62.2866917
  50.1200151  47.0789576  63.9144659  50.9112644  46.5833569  63.3715916
  49.8224354  46.6481209  65.2480030  50.4588985  45.8574772  65.6170559
  48.6914921  48.7341261  68.3584023  49.6916437  49.4120932  68.2222176
  47.4924707  49.2389011  68.4789705  46.7160654  48.5957527  68.4185076
  47.2255373  50.6979895  68.4164715  47.4460077  51.0074997  67.3948574
  46.1567497  50.7705593  68.6177874  48.0003738  51.5726852  69.3442583
  48.4892130  52.5857210  68.9158726  48.2379150  51.1090565  70.5812359
  47.8375292  50.2543116  70.9406948  49.0019274  51.8130922  71.5259552
  48.6735392  52.8490782  71.6096210  48.7563515  51.0972691  72.8453732
  49.4807386  51.5073490  73.5490751  47.7580643  51.3429785  73.2075214
  48.8398981  50.0247192  72.6699924  50.4733419  51.9374990  71.1923695
  50.9949112  53.0614281  71.3349915  51.0433626  50.8947134  70.5703878
  50.4801893  50.0600004  70.4916763  52.4065113  51.0157394  69.9945211
  53.0936813  51.4721775  70.7069588  52.9699373  49.5772839  69.7904921
  52.2393179  48.9735174  69.2522001  53.8168049  49.5770931  69.1042519
  53.3843374  48.7568665  71.0432053  53.1375170  49.1624022  72.2416639
  54.0983486  47.7622890  70.8589697  52.5754690  51.9601488  68.7479401
  53.5237694  52.7540255  68.6432171  51.6089344  51.8971109  67.8112793
  50.9771013  51.1265421  67.9759550  51.4355469  52.8556061  66.6113472
  52.4073648  52.8493309  66.1177540  50.3962040  52.3796606  65.5770302
  49.4130421  52.5075960  66.0299444  50.4579067  53.1396723  64.2424536
  51.4455748  53.1518841  63.7815189  49.7229385  52.7962255  63.5144711
  50.1910925  54.1591454  64.5210075  50.5768108  50.9116030  65.1913023
  50.4163122  50.3156614  66.0897446  49.7957325  50.5758810  64.5091629
  51.5589619  50.8561707  64.7218227  51.1505699  54.2798901  67.1218777
  51.8108130  55.2153206  66.5871906  50.3669691  54.5083570  68.1590033
  49.7785568  53.7212849  68.3922291  50.2074528  55.8448315  68.8558102
  50.0163937  56.6459751  68.1418324  49.0256119  55.9040356  69.9223804
  49.1819477  55.0703573  70.6069565  49.1558456  56.8657017  70.4187059
  47.6553869  55.9008646  69.2249727  47.7092838  56.5498209  68.3508730
  47.5827265  54.9401760  68.7151718  46.5167761  56.3595963  70.1045847
  46.5879440  55.8562183  71.0687685  46.6499662  57.4091387  70.3669405
  45.2074432  56.1095667  69.5060730  44.6594238  55.3304291  69.8418283
  44.6470594  56.8658257  68.5911608  45.2811432  57.9293823  68.0840540
  46.1395216  58.2688618  68.4939766  44.8533678  58.3862829  67.2913694
  43.5235739  56.5464211  68.0414963  43.1859541  55.6015682  68.1571150
  42.9221964  57.1547413  67.5044727  51.5564966  56.2732315  69.4322777
  51.8947315  57.4634218  69.2444420  52.2415400  55.3464365  70.1015949
  51.8049097  54.4358063  70.1158905  53.6224318  55.6667137  70.6116295
  53.5974264  56.5221834  71.2866449  54.1619873  54.4024754  71.3656569
  53.3182287  54.0909290  71.9813776  54.4132137  53.6100054  70.6606913
  55.3540850  54.6569824  72.3487091  55.3459263  55.7190704  72.5936747
  55.1787138  53.8307667  73.5950422  55.1883698  52.7723837  73.3345747
  55.9347630  54.1812277  74.2976522  54.1899109  53.9548159  74.0366173
  56.7183590  54.2792511  71.7697001  56.8610191  54.6674490  70.7612085
  57.5567913  54.5322752  72.4186325  56.7322683  53.1950998  71.6577625
  54.6041203  56.1242914  69.5018530  55.3157616  57.1199894  69.7506237
  54.5572710  55.4442501  68.3099365  53.9343977  54.6510696  68.2552624
  55.3195906  55.8727980  67.1825457  56.3213873  55.6289387  67.5361443
  55.0329065  55.0783253  65.9073162  54.7206116  54.0741730  66.1941004
  54.1880083  55.4784107  65.3467894  56.1744452  55.0132084  64.8879004
  56.6510916  55.9398031  64.5680189  56.8969774  54.4797325  65.5055141
  55.8435106  54.1707373  63.2834482  55.2069950  52.6018620  63.8139868
  54.1779327  52.6218271  64.1727781  55.2397346  51.8876457  62.9912329
  55.7692528  52.2384739  64.6741724  55.2106762  57.3835182  66.8694067
  56.2592888  58.0077457  66.5321016  54.0147161  57.9719019  67.0013571
  53.2697773  57.4246550  67.4084091  53.7954235  59.4374466  66.8301630
  54.4379234  59.8643446  66.0600567  52.3105478  59.7042227  66.4394093
  51.6538286  59.7555447  67.3078489  52.2948694  60.7341242  66.0828161
  51.6090441  58.7190437  65.4898930  52.2973299  58.3051491  64.3095922
  53.2113743  58.7806129  63.9857578  51.7359352  57.2830248  63.5260963
  52.2951317  56.8160105  62.7288437  50.4963923  56.7665291  63.7807322
  50.0960636  55.9604883  63.1837082  49.7718048  57.2321463  64.9186134
  48.7514734  56.9248724  65.0944090  50.3205919  58.2043600  65.8304644
  49.7156572  58.4650087  66.6863394  54.1483402  60.2348661  68.0294275
  54.7510815  61.2688255  67.8126431  53.9135551  59.7416258  69.2563963
  53.2378960  59.0033150  69.3923235  54.1829348  60.4841423  70.5164194
  53.6680460  61.4448071  70.5054808  53.6861944  59.6841908  71.7653084
  54.3539000  58.8671398  72.0386124  53.7884569  60.3217268  72.6434851
  52.3286819  59.3591452  71.6597033  52.1307611  58.7854433  72.4035406
  55.6851435  60.6777906  70.6936312  56.1203003  61.6882896  71.3082027
  56.4639616  59.6269417  70.3675795  56.1259556  58.7050962  70.1308203
  57.9143190  59.7711182  70.3040314  58.3186054  59.7707176  71.3162851
  58.4535551  58.4462500  69.7029495  57.9400110  58.1019783  68.8052559
  59.4785023  58.6236620  69.3771935  58.3953142  57.3506021  70.7602406
  57.8485155  57.4488306  71.8319559  59.1091347  56.2708139  70.4650688
  59.1135073  55.4511690  71.0552025  59.4257021  56.2858343  69.5060778
  58.3977413  61.0331774  69.4713593  59.1143560  61.8925381  69.9677277
  57.9575396  61.1200333  68.2265997  57.3918056  60.3816986  67.8330135
  58.1774998  62.2995710  67.3450613  59.2399168  62.4035883  67.1247149
  57.5551224  62.1285248  65.8841705  58.1644249  61.3987398  65.3510141
  56.5432596  61.7368412  65.9881783  57.4934483  63.7401867  64.9839354
  58.7440157  64.1131735  65.2700424  57.5666714  63.5588455  68.0451775
  58.1763172  64.6080685  68.0654335  56.4139366  63.4681845  68.6731863
  55.8759356  62.6323843  68.4940434  55.7669783  64.6341896  69.3051052
  55.7967949  65.5292177  68.6837053  54.2780018  64.3794441  69.5354652
  54.2013788  63.4787464  70.1445436  53.8597918  65.1528215  70.1797342
  53.3883476  64.1925287  68.2955933  53.8262844  64.3821526  66.9702148
  54.8283005  64.7010469  66.7238903  52.9570675  64.0847492  65.8909845
  53.2704878  64.1846943  64.8623037  51.5927696  63.7178469  66.1355305
  50.7814455  63.3416796  65.1396608  50.1166010  62.7243662  65.4535151
  51.1539555  63.6775780  67.4881935  50.1541853  63.4474134  67.8256559
  52.0139885  63.9637184  68.5660982  51.7374420  63.9347792  69.6096897
  56.3923073  65.1044655  70.6393433  56.1847591  66.2276077  71.0573244
  57.1940899  64.2272806  71.3490486  57.0811319  63.2609510  71.0778475
  58.1439877  64.6234512  72.3916388  57.6642609  65.2652931  73.1305552
  58.5334873  63.3599043  73.1599760  57.6916790  62.6939774  73.3497047
  59.2071819  62.7839661  72.5255203  59.3842936  63.5500860  74.4142675
  60.2679920  64.1014338  74.0930223  58.7305689  63.9880991  75.1685095
  59.9042273  62.2674417  75.0239801  59.1444874  61.4958239  75.1484776
  60.6195450  61.7781830  74.3628883  60.6045866  62.4890089  76.4214373
  61.5401268  63.0412436  76.3325167  59.9079990  62.9340172  77.1319485
  61.1487007  61.2345982  77.0750332  61.5175104  61.3691330  78.0056095
  60.4197598  60.5357170  77.0926714  61.8390799  60.8907366  76.4229298
  59.4485664  65.3371239  71.8215752  59.9590540  66.2738991  72.4660206
  60.0054407  64.7854757  70.7202816  59.5986748  63.8884830  70.4965591
  61.3224220  65.0147104  70.2207088  62.0377398  65.1942825  71.0233116
  61.9274950  63.7794256  69.5114899  61.7711782  62.9662180  70.2202702
  61.3774967  63.4798670  68.6193752  63.3631420  63.8854885  69.1852474
  64.4703960  63.8565636  70.0099564  64.3442822  63.8193893  71.0819244
  65.7859421  64.0715408  69.5672894  66.5187073  64.1371202  70.3579569
  66.0336733  64.2450809  68.1982660  67.2539616  64.5552635  67.7658272
  67.7483749  64.9793673  68.4710121  64.9671698  64.2747450  67.2761726
  65.2197599  64.2563486  66.2262869  63.6710787  63.9846516  67.7798557
  62.8512573  63.9849567  67.0767975  61.4576769  66.2631655  69.4227505
  62.4399185  66.9955873  69.4835281  60.3946781  66.4508915  68.6061430
  59.7310781  65.6961536  68.5055876  60.3241253  67.6601219  67.8257704
  61.2941551  68.1470203  67.7253819  60.1088715  67.2789431  66.3986683
  59.0703869  67.0566607  66.1532354  60.3625679  68.1109762  65.7418060
  61.0654497  66.1712265  65.9142780  60.6442165  64.9930525  65.8628082
  62.2958040  66.3705778  65.4379559  62.8212547  65.6172371  65.0178623
  62.6324034  67.3200178  65.3647900  59.2409754  68.6943150  68.2619476
  58.1735611  68.3576632  68.8461161  59.5009708  70.0271320  68.2139444
  60.8145428  70.6835175  68.1644726  61.1388159  70.8665228  67.1400452
  61.5865469  70.1432753  68.7124205  60.5373001  72.0606756  68.8805437
  61.1894274  72.8638029  68.5372782  60.6016254  71.9508982  69.9630928
  59.1364288  72.3693943  68.5332918  58.9824057  72.7687120  67.5308323
  58.6365318  73.0463600  69.2260551  58.4732008  71.0011339  68.6116600
  58.1594849  70.8178902  69.6393299  57.1429396  71.0105228  67.7342129
  57.2641516  70.6764126  66.5538549  55.9999800  71.4449358  68.2447863
  55.7491922  71.8727207  69.5738077  56.2886429  72.8039360  69.7468233
  56.1601591  71.1488724  70.2775526  54.2482758  72.0363379  69.9103642
  54.0336418  72.9375982  70.4846144  53.8808727  71.1097908  70.3515387
  53.7839556  72.1961212  68.4209824  53.8160992  73.2594156  68.1833315
  52.7644253  71.8493032  68.2525396  54.7464418  71.4422750  67.5653553
  54.3140602  70.4426146  67.5226021  54.6057272  71.9812107  66.1381388
  53.7175035  71.6542053  65.4835510  55.3786802  72.9771423  65.8445644
  56.1670494  73.1350470  66.4558268  55.4155016  73.6907721  64.6138382
  54.4422531  73.7067556  64.1232920  55.7649899  75.2205181  64.9171686
  55.6876421  75.7762623  63.9826822  54.9525595  75.6710815  65.4873037
  57.1340513  75.4239655  65.5109644  57.2755575  75.1355886  66.7317438
  58.0512476  76.0069609  64.8587942  56.5074205  73.2109880  63.6167336
  56.6628456  73.7823439  62.5268269  57.3670197  72.2305489  63.9569569
  57.2463655  71.7320108  64.8270130  58.4722805  71.7849731  63.0989027
  58.9521313  72.6516247  62.6442003  59.4529295  71.0433578  64.0898085
  59.7952843  71.7222261  64.8708487  58.9341068  70.2452326  64.6207714
  60.7227707  70.5860233  63.4343958  61.1626673  69.3185997  63.0639744
  62.4178267  69.4811440  62.4949789  63.0658913  68.6432123  62.2845316
  62.6913881  70.7683945  62.3650551  63.5163879  71.2584925  62.0499706
  61.7195177  71.4662457  63.0533218  61.7826080  72.5277901  63.2418489
  57.9208612  70.8852243  62.0216799  56.7682838  70.3240395  62.0872879
  58.6740685  70.8033228  60.9269619  59.5331860  71.3339758  60.9063148
  58.2636452  70.0335836  59.7399950  57.2971535  70.3766632  59.3708086
  59.2935371  70.2322674  58.5624170  60.3052568  69.9749470  58.8759613
  59.0746403  69.4872427  57.7974892  59.2342234  71.6259527  57.8756523
  59.5486259  72.3248768  58.6507416  59.9228144  71.5785933  57.0320320
  57.6958752  72.0061779  57.5549030  57.1765137  71.4098406  56.6333628
  57.1181440  72.8778553  58.1939030  58.2375717  68.5436392  60.0353384
  57.3629808  67.8656149  59.4689894  59.0472651  68.0118227  60.9232712
  59.7413778  68.6093044  61.3490963  59.0349388  66.6000557  61.3312960
  59.0412331  65.9862423  60.4305696  60.3417635  66.1754560  61.9892836
  60.5075121  66.8221855  62.8508902  60.2696466  64.6857309  62.3911476
  60.0193739  64.0835762  61.5177202  61.1632586  64.2884541  62.8725290
  59.4211626  64.5263147  63.0565453  61.6451073  66.3466835  61.1826277
  62.5322199  66.0011721  61.7134285  61.6098070  65.8134031  60.2326441
  61.8761826  67.3873949  60.9554005  57.7419662  66.1322403  62.0313787
  57.3249817  65.0270891  61.7796040  57.1094131  66.9486332  62.8726387
  57.5821972  67.8325987  62.9958391  55.7410002  66.7803288  63.4076023
  55.7279968  65.7803726  63.8412189  55.4240799  67.7957487  64.5601940
  55.5880356  68.8247013  64.2400742  54.0161371  67.5383520  64.9851942
  54.0226412  66.4702702  65.2025843  53.8658190  68.2197237  65.8226013
  53.2816458  67.7183056  64.2001820  56.3321495  67.5207233  65.7148743
  56.1517668  68.1848860  66.5601301  56.2506151  66.4643383  65.9708166
  57.3159647  67.8171396  65.3510809  54.7444057  66.8701792  62.2601080
  53.7810516  66.1437225  62.3235941  54.8692179  67.7540874  61.2819719
  55.6952667  68.3284521  61.1933851  53.9279652  67.7489376  60.1470661
  52.8823805  67.8882456  60.4217529  54.1984129  68.9689398  59.2770529
  55.0056219  68.8439369  58.5553265  53.2814837  69.1269207  58.7092638
  54.2094469  69.8581362  59.9073744  53.9274216  66.4509773  59.3195438
  52.8510809  65.9581804  58.9702606  55.1059723  65.9030485  59.1378736
  55.9063768  66.4229155  59.4683123  55.2787256  64.5915556  58.5893822
  54.8760939  64.5148039  57.5793839  56.7909384  64.2661428  58.4840822
  57.2344112  64.3893194  59.4721413  56.9874811  63.2249165  58.2284832
  57.4688530  65.2259398  57.4843740  57.4256754  64.9879074  56.4215565
  57.0802593  66.2434435  57.5265217  59.2568827  65.2594185  57.7977180
  59.7638369  63.6318588  57.0998907  59.3733931  63.5971260  56.0828161
  60.8447313  63.7381458  57.0078468  59.4440365  62.8576136  57.7972984
  54.6182442  63.5123968  59.4477654  53.8524866  62.6620674  58.9663124
  54.8577356  63.5202312  60.7741356  55.3749371  64.2573404  61.2315941
  54.2119455  62.5667477  61.6688395  54.3359089  61.5593910  61.2713861
  54.9477482  62.5503540  63.0439758  55.9453392  62.1930552  62.7885485
  55.0066710  63.5639858  63.4404469  54.5196629  61.8601131  63.7708950
  52.6848459  62.6768589  61.9073486  51.9715357  61.6689205  61.9472933
  52.1729088  63.8927841  61.8908167  52.7852726  64.6940851  61.8358088
  50.6878471  64.2009401  61.8299675  50.0665426  63.7561893  62.6073170
  50.4954386  65.6889391  61.9659138  51.2118864  66.2831450  61.3986969
  49.5607328  65.9997034  61.4991665  50.4451609  66.1739969  63.3893347
  49.6649933  65.6580830  63.9490461  51.4283705  65.9162855  63.7830162
  50.3168154  67.7094316  63.4130526  51.1805868  68.0793428  62.8606415
  49.3419981  67.9918814  63.0154991  50.5194807  68.2133579  64.7975349
  50.5866671  67.5393295  65.5467176  50.8788729  69.4596720  64.9819136
  50.7926273  70.3228188  64.0232229  50.7182932  70.0021601  63.0683661
  50.9689331  71.2768030  64.3041754  51.1611128  69.9767113  66.1212683
  51.2995386  69.2849112  66.8440056  51.4659929  70.9387207  66.1623287
  50.0352573  63.5528803  60.6484365  49.0470648  62.8615570  60.8323860
  50.6675291  63.7286568  59.4794559  51.4860821  64.3203259  59.4808006
  50.1072788  63.1763363  58.2180262  49.0386581  63.3593655  58.1055593
  50.7308483  63.8147783  57.0092297  50.6402636  64.8892689  57.1685219
  51.7607784  63.4626961  56.9509888  49.8997688  63.4766960  55.7485294
  50.6040049  63.6751175  54.9405813  49.8340368  62.3897171  55.7010078
  48.5124731  64.1644716  55.4020596  48.5615826  65.2144623  55.6905079
  48.4893799  64.0469265  54.3186569  47.3022652  63.5585499  56.0921669
  47.2962666  62.4836254  55.9116077  47.3800850  63.7774801  57.1571159
  46.0534716  64.1624594  55.6591654  45.8481169  65.0137901  56.1623096
  46.0027695  64.4166803  54.6829987  45.2989864  63.5102510  55.8187914
  50.1333475  61.6149282  58.2787085  49.2004251  60.9928846  57.7306223
  51.1770725  61.0489082  58.8600016  51.9773149  61.5908575  59.1532612
  51.2420750  59.6323204  58.9880085  50.9975195  59.1395378  58.0470181
  52.7000475  59.2480755  59.2032003  53.2998991  59.6633148  58.3933496
  52.9801750  59.7513056  60.1286125  53.0239296  57.8078938  59.4585609
  52.4555063  57.4061584  60.2973700  52.6952267  56.9255495  58.1967783
  52.9881716  55.9113216  58.4681129  51.6131306  56.9382668  58.0663443
  53.0895042  57.2607708  57.2374678  54.5320511  57.6288605  59.8593044
  54.9037981  56.6137552  59.9988222  55.1387167  57.9952621  59.0311718
  54.7788858  58.2395458  60.7277775  50.2728271  59.1023445  60.0537539
  49.7891665  57.9839802  59.8644114  49.9394941  59.8388720  61.1269617
  50.3678513  60.7407188  61.2795687  48.8545561  59.5450068  62.0200634
  48.9488125  58.5203791  62.3797178  48.8961983  60.5289602  63.1321764
  49.7107744  60.2216482  63.7880182  48.9572954  61.5389395  62.7268314
  47.6288748  60.5545044  63.9860821  46.8454933  61.1590052  63.5289288
  47.2418737  59.5445156  64.1211987  47.8245163  61.0685396  65.3714085
  48.6424541  61.9433832  65.6633234  47.0631170  60.6289053  66.3462830
  47.0647621  61.0703850  67.2546816  46.2996101  60.0066614  66.1227417
  47.5128031  59.6275711  61.3514662  46.7981434  58.7470388  61.6690350
  47.2373772  60.5622005  60.5029964  47.9825544  61.2287712  60.3598404
  46.1143446  60.6527996  59.6462870  45.2842474  60.5910826  60.3500223
  46.0812950  61.9580030  58.9245367  47.0448160  62.0750427  58.4285212
  45.4066324  61.9654274  58.0684519  45.8602858  63.2461071  59.6694660
  46.1036015  64.2810440  59.0414143  45.5375910  63.2816601  60.8666182
  45.9382057  59.4083118  58.6831188  44.7868156  59.0245724  58.4052658
  46.9848299  58.7794495  58.1705713  47.9282236  59.0763235  58.3754444
  46.9203138  57.4639225  57.5616646  46.1564684  57.5084114  56.7853546
  48.1890583  57.0235777  56.7806244  48.9887762  56.9171953  57.5135946
  48.1214237  55.5901623  56.1968422  47.1662855  55.4886389  55.6815672
  48.9463568  55.4169655  55.5057621  48.0327129  54.8545933  56.9963217
  48.5572147  58.0461550  55.6576347  48.6585617  59.0659761  56.0288382
  49.5110941  57.6933670  55.2655029  47.7952337  58.0111265  54.8790073
  46.5673161  56.3909340  58.4798431  45.7858801  55.5085516  58.1843233
  47.1834517  56.4278316  59.7079420  47.7642441  57.2411537  59.8538303
  46.8513536  55.4922771  60.7895994  47.1212482  54.5008516  60.4258204
  47.7871656  55.6927776  62.0066357  48.7269258  55.2022839  61.7529392
  47.8838634  56.7611027  62.2001266  47.1468163  55.1166391  63.2463217
  47.1799660  53.7340403  63.4370422  47.4725389  53.2306147  62.5274420
  46.6764879  53.1402349  64.6487474  46.5943098  52.0686245  64.7550583
  46.1717510  54.0012646  65.6593227  45.7221651  53.6955261  66.5924835
  46.1630106  55.3786325  65.4571867  45.8080721  56.0732460  66.2041330
  46.5994596  55.9279442  64.2686605  46.6292763  57.0004702  64.1454077
  45.3152037  55.5475760  61.2113714  44.5566511  54.6210384  61.0495853
  44.8430252  56.7505598  61.6495037  45.5196810  57.4940968  61.7464256
  43.5313749  57.0465374  62.1530581  43.2462406  56.3467455  62.9386139
  43.5626936  58.4998608  62.6826715  44.5502806  58.7728643  63.0544710
  43.3170033  59.1785288  61.8658733  42.6217222  58.8531399  63.8310337
  42.4120617  59.9225140  63.8551521  41.6277885  58.4264565  63.6963320
  43.1336069  58.4980583  65.2228928  42.3481274  57.9722643  66.0650492
  44.2690611  58.8835716  65.6076097  42.4074936  56.9546127  61.0925150
  41.3007450  56.6080761  61.4776707  42.6963139  57.1307659  59.7872257
  43.6400127  57.4056625  59.5549154  41.8995047  56.6759825  58.6467457
  40.8674335  57.0247459  58.6827707  42.5913143  57.3101091  57.4221230
  42.6166248  58.3811665  57.6228714  43.5960054  56.9259739  57.2456741
  41.7882490  57.0058632  56.1128378  40.7306194  56.9757318  56.3747883
  41.7734051  57.7484417  55.3150606  42.1428347  55.3749609  55.3513050
  43.9507961  55.3939342  55.0917578  44.5612717  55.8850050  55.8495617
  44.3063927  54.3801260  54.9077845  44.1887712  55.9156847  54.1648006
  41.6808701  55.1344728  58.5988903  40.5296040  54.6672487  58.6531782
  42.7596092  54.4140863  58.4267998  43.6636925  54.8636818  58.4513760
  42.7505350  52.9629850  58.2405329  41.9859838  52.7065468  57.5071764
  44.0122175  52.3440742  57.6997042  44.6685553  53.1497812  57.3708344
  44.5838118  51.7972422  58.4496117  43.7298155  51.4419889  56.5442085
  43.1314373  51.8783951  55.7444620  44.6864080  51.2209654  56.0707235
  43.2758141  50.0480843  56.9832230  43.8569593  49.5749235  57.7747297
  42.2475481  50.1960897  57.3131609  43.1241751  49.1664219  55.7989931
  43.1731749  49.5319986  54.8587513  42.8185225  47.9306555  55.9338379
  42.7308989  47.3353529  57.1425724  42.7161789  47.8572273  58.0071735
  42.7342176  46.3258314  57.1115017  42.6125526  47.2428942  54.8116684
  42.7848339  47.7347803  53.9465284  42.3582745  46.2663794  54.7686052
  42.1495390  52.2902441  59.5852232  41.3981152  51.3324118  59.5325661
  42.3123789  52.9262018  60.7663107  42.9439497  53.7082529  60.8643389
  41.7482519  52.5324821  62.0319223  42.1819544  51.5478849  62.2067928
  42.3711538  53.3408260  63.2072353  43.3783531  53.5959482  62.8777409
  41.8359375  54.2794847  63.3506107  42.4870872  52.6168537  64.5359659
  41.3643456  52.5235796  65.3681326  40.4744625  53.0872822  65.1298952
  41.3931179  51.7183256  66.4613724  40.5171919  51.7953777  67.0884466
  42.5340986  50.8568048  66.7418623  42.5296354  50.3078556  67.6719379
  43.6877489  51.0122347  65.8710098  44.6062183  50.4458952  65.9166241
  43.6183977  51.8313360  64.7460270  44.4006109  51.8271542  64.0013647
  40.2070475  52.4621344  61.8954802  39.5969582  51.5074015  62.3362780
  39.5346522  53.4781837  61.2694454  40.1223278  54.2208242  60.9184122
  38.1212163  53.4330702  60.9678745  37.5442863  53.3009148  61.8831825
  37.7284503  54.7773123  60.4439640  36.6545200  54.7949505  60.6296110
  38.1152105  55.6250477  61.0095263  37.9272985  54.8426580  59.3742514
  37.6402783  52.2571564  60.0332499  36.4642143  51.8526983  60.1433706
  38.5016751  51.6875982  59.1677380  39.4120383  52.1220636  59.1169930
  38.1871319  50.5322933  58.3761883  37.1452808  50.4303169  58.0724621
  38.9488292  50.5143785  57.0579863  39.9839377  50.5823612  57.3926973
  38.6727476  49.6440411  56.4626789  38.5783982  51.7839766  56.2871790
  37.5408792  51.7225027  55.9587431  38.5918450  52.7038527  56.8717670
  39.5376730  51.8568516  55.1093721  40.5733871  51.7267418  55.4231739
  39.3008900  51.0787535  54.3837023  39.3522930  53.1279612  54.3501091
  39.4478846  54.0311289  54.9528170  40.1366186  53.1792688  53.5949278
  38.0437088  53.1493473  53.6651230  37.7917790  52.3320198  53.1278944
  37.3624206  53.2452917  54.4045448  37.9509187  53.9713478  53.0856419
  38.4120679  49.2238569  59.2450619  39.2805386  48.4458351  58.9184999
  37.6565242  49.0285158  60.3164148  36.9644332  49.7266436  60.5482006
  37.7003574  47.9050589  61.3059139  37.5667095  46.9114447  60.8781624
  39.0581322  47.8287363  61.9256353  39.8551846  47.6689816  61.1994886
  39.2343378  48.8289070  62.3215199  39.4133830  47.0451307  63.0877256
  38.6759710  47.3576260  63.8270998  39.3239641  45.9922361  62.8202915
  41.1074543  47.2131586  63.8120651  41.0313606  49.0173769  64.0565014
  41.6877270  49.3243694  64.8707724  41.3161421  49.5739508  63.1636238
  40.0445414  49.1823626  64.4890213  36.6798162  48.1443071  62.4284458
  36.3961482  49.2721891  62.8114557  36.0224485  47.0794773  62.9464483
  36.2056899  45.6825256  62.5199223  37.2208858  45.3471136  62.7319956
  35.9867454  45.4969072  61.4683914  35.2582788  44.8583746  63.4041595
  35.7189941  44.6845961  64.3766022  34.9312901  43.8822031  63.0460119
  34.0921497  45.7750082  63.5522747  33.4377837  45.5486393  64.3940973
  33.4139252  45.8060360  62.6995468  34.7688031  47.1380997  63.7984896
  34.0861654  47.8948355  63.4118843  35.0287819  47.4955130  65.2551508
  36.0852861  47.2012758  65.7344151  34.0765262  48.1526518  65.9066296
  33.1732106  48.2796574  65.4730511  34.2110705  48.8178635  67.2177267
  35.0049210  48.3088303  67.7643347  34.7204232  50.2176666  66.9479465
  35.5945468  50.1599884  66.2993526  33.9626479  50.6071615  66.2681150
  34.7670722  51.0451555  68.2498741  33.9275694  51.9698954  68.3977461
  35.7637286  50.9585524  68.9952803  32.8877854  48.7771177  68.0367279
  31.8197775  49.0957880  67.4427700  32.9939771  48.5342789  69.2778683
  67.9555559  96.1648655  42.0105648  53.8837862  50.2831125  47.2670841
  92.2645473  60.6994200  44.9067545  76.5936756 105.4444027  37.0840716
  71.5559340 108.5741234  45.5310774  43.7426090  49.4464540  52.4598694
  99.1900063 123.2067108   0.9485570  98.6266613 122.4328423   0.9478036
  98.5974216 123.9341545   1.1380330  91.3419056  20.6633549 106.5559387
  91.0126400  20.9298115 107.4143124  91.9224834  21.3764744 106.2901878
 102.8881741  96.3629627  11.7732183 103.0498791  97.0226669  11.0987703
 102.3215961  96.8025303  12.4072591  30.5840903   4.2584496 100.7646942
  30.0932913   3.8533097 100.0497055  31.4319449   3.8142758 100.7550335
  96.2821007 127.1254635 108.9838600  96.8233299 127.3388958 108.2237625
  95.6137371 127.8104401 109.0019131 106.7461300  14.9576931 107.5303173
 107.6625633  15.2211933 107.4469948 106.4689636  14.7681599 106.6339397
   2.9069644 115.2091694  89.1373539   3.7843161 115.5088806  89.3754005
   2.3348647 115.5895233  89.8038864   3.5350638 127.0758438 109.6143150
   2.9528933 127.6213646 110.1431847   3.0055743 126.8240356 108.8576984
  90.4755020  13.3907872  10.4601423  91.0977840  14.1129856  10.5463353
  89.8661518  13.6794644   9.7807351  98.7076283 138.5578156  10.8043138
  99.6146393 138.4187984  11.0767881  98.7287712 139.3777561  10.3108732
  86.5370369 140.6285095 101.0695744  85.9956455 140.0852585 100.4968643
  86.0085869 140.7447338 101.8591785  13.2518702 100.1453686 100.8642578
  12.6904135  99.6785164 100.2453613  12.9523593 101.0534954 100.8213711
 120.6682682 130.6339359 104.7704697 120.8417988 131.0974407 105.5897903
 119.7161484 130.6623936 104.6762085  84.8848152 124.0302467  88.9913177
  85.0567627 123.5380650  88.1885529  84.2182446 123.5175037  89.4484901
  99.4405079 137.3970890   5.2719442  99.8122501 137.6597309   4.4298879
  98.7760258 136.7456245   5.0476590  12.4639350  10.0911503   4.4335977
  13.2536250   9.6007901   4.6620027  12.0062380   9.5299988   3.8076059
  80.5143833 133.8317871  68.2787037  79.9139452 133.8844681  67.5351095
  80.6612587 132.8939915  68.4019852  79.7233200 119.8244476  84.0454483
  80.3110695 120.3371811  84.6003151  80.2967262 119.1982079  83.6035538
 109.1863441 116.9556046  51.8919317 109.8865414 116.4494038  51.4799634
 108.7018394 117.3350143  51.1587850   6.0955840 134.7474194 109.4149113
   6.2985068 135.6311893 109.1083050   5.8408480 134.2721272 108.6240673
  76.3695478   6.3132840  22.5040189  77.2790003   6.5004139  22.2714082
  76.3673306   6.2883644  23.4608976   3.7154608   0.2880268 106.8560696
   4.3238860   0.2089577 106.1213589   3.7889987   1.2020569 107.1306324
 117.3860073  14.7592907  88.0403900 117.1083832  14.8423558  87.1281052
 117.3576260  15.6531124  88.3817101 117.0214748 115.9202290 103.5826492
 116.3747120 116.3475609 104.1441822 117.6743221 115.5730629 104.1905117
 113.4522057 131.0908031  76.3101292 113.4040165 132.0374775  76.1769581
 112.5784111 130.7723045  76.0836744  22.8744631 142.9981613   7.8952352
  22.0138484 142.5908566   7.7969209  23.2004958 143.0882740   6.9998018
   9.9118262 144.0563393   0.9922830   9.0514880 143.6828041   1.1833898
  10.5171996 143.5555458   1.5390531   5.2236014  97.9138947  81.1323833
   4.4221240  97.8108120  80.6193066   5.0563937  98.6756420  81.6873646
  15.7846385   4.0007096  82.6645756  15.7323771   3.6507397  83.5539722
  15.4606276   3.2918911  82.1088600   7.5907450 121.1935902  79.7869062
   8.2244235 121.1492348  79.0708637   6.9992762 120.4576874  79.6292305
  23.0274516   7.7696209  97.9260254  23.4570532   7.4140625  97.1480465
  22.2618228   8.2328587  97.5862122 117.7480125 135.4014969  13.6016027
 117.0140457 134.8427010  13.3461038 117.3415565 136.1336136  14.0653268
 115.3200531 142.0146179  23.3739225 114.4762802 142.2236538  23.7746373
 115.6681061 142.8609467  23.0931798  87.1684265 126.1879921  34.2878763
  87.6094151 127.0375538  34.2850725  86.2390709 126.4002609  34.2013875
  12.4384623 130.8964539  86.6764545  12.9024916 130.0895214  86.8995571
  13.1075125 131.4564896  86.2828159 116.2024879   9.1186505  68.8609171
 116.8614388   9.0630322  69.5529652 115.3935528   8.8191300  69.2758131
   6.2559729 124.5883846 104.0322113   7.0642119 125.0845909 104.1617012
   5.8208495 125.0260448 103.3005428 106.3722610  23.0138569  67.4204826
 106.4248848  22.4322682  66.6620445 105.9027290  22.5043087  68.0808973
  98.4111118 116.7277431 101.3685322  97.6204967 116.5613747 100.8552456
  98.5997486 115.8920670 101.7954922  95.9948349  92.7505970 109.5299530
  95.0980377  92.8659439 109.8441124  95.8986664  92.2989082 108.6915207
 111.0188961 118.9852905  10.7793752 111.2561131 119.9098778  10.7080499
 110.8785820 118.7035847   9.8753969 108.4478855 140.8263969  15.6655923
 107.6465702 141.3496876  15.6483690 109.1286564 141.4398479  15.9421007
   7.4514800   8.4238987  87.1949482   7.2354346   9.2326908  86.7308235
   6.6168814   8.1243973  87.5554752  15.4985076 113.2510281  40.0439548
  15.3614646 113.8575840  40.7716513  15.1883917 113.7271404  39.2736459
  91.0871887   4.3636589   3.9234201  91.8516064   3.7876397   3.9338437
  90.3893661   3.8287525   3.5450498 109.2177391  26.3960820  83.6434746
 109.1685867  26.2526303  82.6983643 109.0195751  25.5413609  84.0260983
 111.8494797 134.0065002  61.2599230 111.1847210 133.7076187  61.8804026
 111.5146160 134.8419380  60.9341145 106.2122059  11.7920571  92.4239922
 106.5142155  12.6907616  92.2922325 107.0117664  11.2925606  92.5896645
  81.5658951 133.5609055 104.9834156  80.7987690 133.0130386 104.8173237
  81.6499710 134.1000652 104.1969872  85.3568554 141.8855953  80.5755043
  86.0209942 141.6164875  79.9408865  85.0273323 142.7187443  80.2386189
 105.2325249 110.6367874  87.6905823 105.6216621 111.3999939  87.2635937
 104.3963528 110.9537506  88.0320263   1.5026599 145.8526039  84.8766899
   2.2401076 146.4024639  85.1413631   1.3630038 146.0669422  83.9543152
 108.6816597 113.9817238  86.8199062 108.2983494 113.7486935  85.9743214
 109.6250057 113.8841248  86.6903019 109.2445087 105.4320526  19.5233671
 108.3730030 105.5846500  19.1580907 109.4067955 106.1925602  20.0815145
 103.9087200   3.2824974  71.7179489 103.7707329   2.9681187  70.8244419
 103.2931709   2.7759629  72.2478151  38.0274897 137.7075100 106.9404030
  38.2106333 138.2266808 106.1573696  38.2174235 136.8062019 106.6800213
 108.5504341  38.7693386  92.5024605 109.3307877  38.4266835  92.0667076
 107.8393555  38.6074810  91.8824577 121.8577194 142.3799896 108.1379604
 121.1828136 142.5573921 108.7931442 122.3995781 141.6960049 108.5313892
  12.6209574 119.9370098  16.8177835  11.8126135 120.1520252  16.3523904
  13.2120734 120.6632233  16.6191999 120.1155472  96.1039448  64.4647169
 119.8530102  95.5042934  63.7663412 121.0629654  95.9879017  64.5364809
  82.9797935 119.2900848  82.6935673  82.3400974 118.6434650  82.3953915
  83.6363220 119.3161201  81.9974899 107.5017166  29.2579823  94.0140533
 106.9311714  28.7162762  94.5592690 106.9003487  29.7814160  93.4843349
  12.1809035 130.4625797  60.5795908  11.3516837 130.8803463  60.8121729
  12.8434401 131.1304283  60.7563734 104.8495293 138.5901928  10.1008550
 105.6020260 138.4117126   9.5368329 104.3837833 137.7553940  10.1501218
 120.5718231 130.0309944  97.3346519 121.0390282 130.1767159  98.1572819
 121.2609673 129.9920273  96.6714764 121.5741253 134.4889641   4.4212858
 121.2794399 133.6073303   4.6496049 122.0406532 134.7945404   5.1992360
   9.5195990 121.3006496  77.9458666   9.1256362 120.6908226  77.3220587
  10.4119616 120.9762192  78.0669785 107.3955345 115.3129196  15.6803266
 106.7227173 115.9749794  15.5214540 106.9734001 114.6759796  16.2568132
 118.0750561  32.3331433  19.0192262 117.3118401  32.0248967  18.5306302
 118.5632515  31.5367680  19.2282525  98.3049488 129.4091797   2.1916620
  98.3851910 130.3626728   2.1662942  97.3923016 129.2519855   2.4337426
  83.5468102  78.3920813  85.9430122  84.4279766  78.7453270  85.8205223
  83.6701965  77.4431372  85.9656429   1.9900733  97.2781658   4.9836198
   2.2959548  98.1849194   4.9618665   1.8228465  97.1039581   5.9098569
   4.6656161 131.8487263 101.9074535   5.3979998 132.4479294 102.0516682
   3.9718848 132.1762657 102.4798965  92.5584126 107.8954887 106.8967533
  91.6362381 107.8620338 107.1511555  92.5419617 107.9279804 105.9402466
 112.7795601 106.8282127 109.0180302 112.4969006 105.9256554 109.1654205
 113.1367302 107.1080112 109.8608685   7.6159125 106.8647861 110.0865269
   8.1477194 106.1423206 109.7526836   6.9374495 106.9893646 109.4229031
  15.7982760   9.8322754  90.8532524  16.4379340   9.7185021  91.5561867
  15.2121382  10.5188160  91.1715984  87.6143456 145.4217720  90.2966309
  88.5587883 145.5409908  90.1964378  87.4056244 144.6776390  89.7318935
  97.2695160  76.4476490  15.8686677  97.8968716  77.0355511  16.2894288
  97.1555996  75.7318163  16.4938394 110.9750462 128.6069489  99.7613621
 111.7360973 129.1788387  99.8612595 110.4972076 128.6979580 100.5857468
  92.9602623  12.4409752 105.9267712  92.2102070  13.0019551 106.1241245
  92.8489971  12.2077637 105.0051117  98.2763481  11.0412388 106.1083221
  99.0914345  11.5385323 106.1758614  98.2910728  10.4534893 106.8636703
  13.8296633 123.1269932   8.2011453  14.1311865 124.0285015   8.0889646
  13.9835101 122.9363728   9.1264764   5.1772719   0.2561074 104.3388557
   5.8599120   0.9270554 104.3314648   5.6492549  -0.5671901 104.2138100
   7.2546702 110.5773449  88.5475826   6.6377955 110.0485706  88.0415154
   6.9861537 111.4813232  88.3833790 120.6702709 127.2815609  99.4499302
 120.0772953 126.7201996  99.9494171 120.2473927 127.3773575  98.5965729
  86.9662094   9.1241722   0.4006139  87.3305607   8.7862854   1.2187330
  87.2110939  10.0494843   0.3934900 117.3203182 119.4351864  17.2695199
 117.1362686 119.7086525  18.1681672 116.5534592 119.7179031  16.7713014
 121.0203171 123.0337334  75.9429407 121.3158035 122.9070377  76.8445301
 120.1329136 122.6751709  75.9291077 108.6428642 117.5771236  82.9075146
 107.7575970 117.7616692  83.2213402 109.2013168 117.7116871  83.6731911
 101.8916035 122.7748489 109.3637085 102.4710846 122.1821690 109.8424244
 101.0137177 122.5553703 109.6757507 112.7058411 126.1877060  82.1625614
 113.5428715 126.4928341  81.8125343 112.9192162 125.8479214  83.0316067
  92.8659630  14.1576367  97.5426102  92.2451210  13.5015564  97.8593922
  93.4614182  13.6691647  96.9742203  98.9631176 146.2101173  93.9974689
  99.4557667 145.9874439  94.7873783  99.1910934 147.1231461  93.8224316
  90.7999611  13.2949906  26.0451928  90.3347778  12.4591523  26.0800973
  90.9751034  13.5100537  26.9613305   2.1889716 143.6552334  81.6400051
   2.0702868 143.1861115  82.4658871   3.1209593 143.8725567  81.6197872
   1.0413771 127.1878338 102.6560211   0.1452761 126.9208145 102.4512291
   1.5382891 126.3698006 102.6677895 110.5909348  17.9108029  19.4910852
 110.1034737  17.1032505  19.6538202 109.9371815  18.6054020  19.5708791
  13.8452178 140.5311203 106.8015957  14.2859297 140.9634686 107.5330925
  13.6961012 141.2301159 106.1648846  33.4950762 129.9226379  97.2354317
  33.8221293 129.7819042  96.3469124  33.0396872 130.7634830  97.1926403
   6.8535166 122.3476315 102.2115993   6.4707213 122.5858402 101.3672352
   6.9193202 123.1758499 102.6869488 103.1579781 134.6951008 107.2886848
 102.6422596 135.3914452 106.8820286 103.0624294 134.8444176 108.2293224
  83.8116455  79.3499613  92.1343040  83.7585926  78.3942318  92.1349621
  83.9086342  79.5850897  93.0570889 100.6671906 124.6167088  59.3151331
 100.8207989 124.2226982  60.1738501 100.1419640 125.3954315  59.4994164
  99.4307613 129.7344112  82.3038387 100.3395367 129.4359779  82.3400497
  98.9518833 129.1105843  82.8495026 120.8462048 136.8235111  72.6548052
 121.5230656 136.8025398  71.9783068 121.3309383 136.9049835  73.4761667
 120.3732967  14.8409252  96.1240196 119.6647453  15.4567509  95.9370613
 119.9292755  14.0119725  96.3026333  14.9642687 146.2240791  14.6240465
  14.0271216 146.4047909  14.6970884  15.0559264 145.3151894  14.9099675
 113.2777214 111.7104340  10.4576627 113.9037228 111.6912174  11.1815397
 113.0788898 110.7895279  10.2884523 120.2721119  96.7018986  25.9378854
 119.3625927  96.4462280  25.7841626 120.3961277  96.5906811  26.8804780
  14.0469390  34.2445927  12.7877084  14.9903613  34.2394047  12.9494897
  13.9180213  34.9419575  12.1448270  96.4564610 110.6792545 100.4788208
  95.5719948 111.0275841 100.5911255  96.3935757 110.1082897  99.7131348
 123.2621384   9.8248463  94.2451286 124.1302013   9.7118454  93.8579178
 122.8883839  10.5737858  93.7807560  87.9649448 114.6513176  97.4762535
  88.8871288 114.4071007  97.5547791  87.6633930 114.1981888  96.6888714
   3.8855677 118.0538368   4.1498987   4.4106227 117.2718239   3.9795724
   4.5182639 118.7721157   4.1484014  10.2195483   8.4479218  91.5800953
   9.7665530   9.2603093  91.8060493   9.8606043   8.2027703  90.7272816
 101.9224453 117.7701569  90.7971478 102.0476532 116.9786930  90.2735710
 102.7991772 118.1460094  90.8765411 111.3802052  83.1964397  31.7183248
 111.2384510  83.3293247  32.6555959 110.6238461  82.6844501  31.4319173
 119.3032169 109.9686527  13.3043424 119.9352551 109.4542122  13.8064519
 118.4503460 109.6994209  13.6454526   1.6708403  10.0921612   7.1449701
   1.0723143   9.3461686   7.1837560   1.1445456  10.8026867   6.7783777
  88.9551830 109.1082668  25.2886716  88.0920410 109.2127991  25.6890336
  89.1862106 108.1939888  25.4528085  83.9255238   4.0708332  93.2753944
  84.5193100   4.8178940  93.3499146  84.2807674   3.5537033  92.5524712
   5.0975257  98.5816669   7.6953069   4.5894461  98.7500000   8.4888784
   5.3935366  97.6761246   7.7880040 120.4518509   1.1647110  84.4694996
 120.9789181   0.4524117  84.1074657 120.0853729   1.6051178  83.7027073
 112.9029751   7.5828247  67.6674128 112.1195126   7.4804383  67.1271038
 113.2385063   8.4501820  67.4408293 104.2703915 136.1626244  84.5657063
 104.7830486 136.8363667  84.1190720 103.7545300 136.6437817  85.2127171
 118.4312153 112.3149967  73.9451265 118.2872581 113.0162048  73.3096647
 118.4622288 112.7612877  74.7913504 123.5241508 139.2598820  93.7174797
 123.4744358 139.1524029  94.6673203 122.6176262 139.1829586  93.4199619
 101.0200500 141.6572762  82.0685387 100.6262112 140.8373833  82.3666954
 100.3055859 142.2932529  82.1047211 106.9721222  91.9459152  86.7942905
 106.5781307  91.2574673  86.2585163 106.9735813  91.5873814  87.6818085
  99.8569393  46.0539227  95.3628826 100.1098251  45.2704029  94.8746681
 100.3247547  46.7676716  94.9293327 116.7202282 112.4507618 106.1372375
 117.3196793 112.0360851 105.5168152 117.1399689 112.3350048 106.9896793
  66.3683081  11.3531094  91.4469147  66.5924263  10.6341725  92.0377827
  66.2048578  12.0972615  92.0263577 121.4486599  13.4959393 104.4626522
 122.1754169  13.5414677 105.0839233 121.7255497  12.8453999 103.8173962
 116.2005234  29.0005665  98.4158516 116.3319588  29.8628788  98.8100243
 115.6231880  28.5432415  99.0272141  83.0916882   2.9800968  34.0155546
  82.5362587   2.8643685  34.7864953  83.9013290   2.5176983  34.2320768
 104.7850990   6.4123516  82.9670525 104.9599171   7.2928028  82.6346684
 104.8258114   5.8514576  82.1924686   5.6720572 108.0195618  21.5208665
   5.1116400 108.1685162  20.7593099   6.5358000 107.8375053  21.1506788
 124.3707752  97.6200962  90.4629135 123.4989834  97.8063679  90.8115005
 124.5834923  96.7505550  90.8018494 117.6940155  14.5647984 106.2053108
 116.8299866  14.7933941 105.8626366 117.5263023  14.2695217 107.1002579
  10.4356604 130.9473324  92.9281330  10.3995257 131.3739681  93.7842274
  10.8328562 131.6002083  92.3517418 121.5895748 134.9798107 105.8355236
 122.3711777 134.6602917 105.3847122 121.5791607 135.9205818 105.6592178
 104.0503216 125.2854156   2.9765359 103.4706974 125.1570415   2.2256700
 104.9213696 125.3851891   2.5924150  95.8757687  78.6013651  24.3706456
  95.9758091  79.2831421  23.7062589  94.9382019  78.4085512  24.3766824
 116.8853569  88.6705399 104.1636944 117.1459484  89.3848228 103.5822105
 117.6888180  88.1689644 104.3019199 103.6732769 120.9859180  93.2530308
 104.1240311 120.1968670  92.9522800 103.9166927 121.0639286  94.1754723
 105.6155968 121.4066029  11.8437616 105.6571579 122.3440075  12.0328943
 106.0487366 121.3140297  10.9952108 117.9321575 121.4803028   1.1301366
 118.7510681 121.5833759   0.6453744 117.5873566 120.6354809   0.8409635
  22.9616576 137.0701027  12.9132596  22.9474574 137.9262161  12.4853460
  23.2333308 136.4628220  12.2250501 121.2795353  93.4007549 102.1309662
 121.3323975  93.7733650 103.0110836 120.6235600  92.7074432 102.2034073
 121.9432735 113.5740185   5.7889882 122.6360607 113.4526062   6.4382497
 121.8178844 112.7052498   5.4072133   2.7382498  99.7493839   4.6493093
   2.8862315 100.2510738   5.4509584   3.4867888  99.9621964   4.0919629
 122.4780178 143.8409996  96.8410778 121.8093300 144.3446255  97.3052311
 122.0495319 143.0115223  96.6298771 112.4418449 142.1664619 109.6557426
 112.3514938 141.5010834 108.9735794 112.5722218 142.9846954 109.1764450
 109.9008465 141.0263348  99.0911007 109.8921204 141.8544388  98.6111069
 110.8268452 140.8631134  99.2703152 122.0203400  18.1063061  98.0464554
 122.5922203  17.9821759  97.2889805 121.8137169  17.2185307  98.3386326
 107.6290226 113.4431076 101.7923450 107.9685307 112.5590134 101.9314384
 107.6674938 113.8531494 102.6564217  18.8501864 142.0856953  62.6688623
  18.1616526 141.9973278  62.0098114  19.6494513 142.2301197  62.1623468
  -0.2928609 124.3419743  96.9897461   0.5124217 124.7249508  97.3377132
  -0.0994558 123.4077930  96.9114780 122.4667549 125.0659084  67.9700375
 122.6335430 124.7684765  67.0756388 122.7789783 124.3495464  68.5228157
 101.3270378 115.9613132  97.7547550 100.4636955 115.5879593  97.9321957
 101.1454868 116.8503761  97.4500465 104.4960976 133.9036179  59.1375875
 104.1704082 134.7278023  58.7758255 104.9563694 134.1583443  59.9372768
   2.1732932 130.5986214  93.8328743   2.0010214 130.7913589  94.7545052
   2.0494586 129.6523476  93.7588596  84.5813560 138.8269424  98.9971638
  85.2841759 138.3444405  98.5618877  84.2607689 138.2273293  99.6708965
 112.8217983 124.3241692  18.4301797 113.3745384 123.7317276  17.9205552
 111.9293213 124.0194511  18.2662908 113.3032894   3.6960106   6.3393251
 113.0682278   4.2866116   5.6236688 112.8813934   4.0745526   7.1106473
   2.7240782 104.4675255  74.6848488   3.3015280 104.1776657  75.3910828
   2.8480845 105.4159546  74.6481037 115.0902271 102.4160004  69.9716473
 114.8033142 103.3055687  69.7652721 114.4647408 102.1087837  70.6278658
  84.6515656 140.7636929  94.9812126  84.5869350 139.8233795  95.1481247
  84.4992447 140.8509445  94.0402412  10.1668006 141.3029003 107.6329803
  10.4802256 141.1581707 108.5257626  10.8436900 141.8438435 107.2262478
  96.1168385  23.3922558  11.8140451  95.6571484  23.4969120  10.9810010
  96.9459724  23.8541394  11.6897432   7.7782279 128.1922817  78.7184858
   6.8562060 128.1044197  78.4768677   8.0160552 127.3349571  79.0715647
 101.3087749 125.6499577  75.7260370 101.2574768 124.7419643  76.0246086
 102.1004105 125.6810856  75.1888418 117.1077251  15.3871518  65.5186129
 116.8475723  15.2442723  64.6085930 116.5821648  16.1347561  65.8034086
 104.7220135 109.6474838  11.0672418 103.9957237 110.1425266  10.6881944
 104.3658543 108.7703896  11.2089864  14.5241862 140.7637024  92.5948524
  14.1202765 140.2739906  91.8784237  14.2799693 140.2794266  93.3835602
   5.6724864 131.1854935  99.5061207   6.2647086 131.9321537  99.4166470
   5.1618319 131.3777161 100.2925777  86.6605759   2.6019268  65.6789827
  87.3188114   2.3110276  66.3101292  86.5508556   1.8576603  65.0871468
   7.7293521 116.4089012   1.2013665   8.1446200 117.2288990   1.4685479
   8.3889037 115.7379246   1.3774625  25.1576834 132.1804810  96.5408993
  25.2803927 131.7552662  95.6921577  26.0246497 132.5167561  96.7678928
  88.5663319 136.2680912  84.7987938  88.9622974 137.1388435  84.8340416
  87.6626682 136.4267731  84.5259571  97.0262146 135.2692032 100.3549099
  96.8393421 134.4483852  99.8993111  97.0436096 135.9292221  99.6618748
  81.2645817 140.9017944  52.6420498  80.8270359 141.7337704  52.8226519
  81.3033390 140.4622269  53.4914637 110.3721046 135.8916950  66.8193150
 110.8244038 136.3436317  66.1069918 109.9167728 136.5874577  67.2934771
 112.5993538  25.3021031  82.2221279 113.3681583  24.7586804  82.0492840
 111.9182682  24.9408894  81.6547966  10.4499846 134.8714256  84.4173622
  11.3609915 135.1628208  84.4545555  10.4931574 133.9290142  84.5793438
 121.6842937 143.7299538   5.7417814 120.9286022 144.1208744   5.3032056
 121.3668633 142.8838444   6.0573045 106.1937428 136.1610222  95.7537937
 106.1736488 136.8185329  95.0584412 106.9283295 135.5919266  95.5241394
 121.3199043 113.1561661   3.1496946 120.8669281 112.3445702   3.3785192
 120.8065987 113.8444424   3.5728113 110.4455662 125.6963444   6.8253366
 110.1609898 125.2926731   6.0053960 111.3650036 125.4439640   6.9100801
  20.0066882  34.0217381  94.4018459  20.8166915  34.3710881  94.7734261
  19.8278552  33.2339650  94.9153519 114.0769768 140.8469677  90.8482552
 114.3355656 139.9255085  90.8650780 113.6777592 140.9680176  89.9867439
 102.6193714  14.0783291  15.1260606 103.5097218  13.8159161  15.3598539
 102.5843334  15.0132733  15.3282682   6.0201579  93.0619717  89.6141434
   5.3199702  92.7108479  90.1643085   6.7788058  92.5130939  89.8126602
 111.9869518 135.1671886  72.1003580 111.4651871 135.3883457  71.3289452
 111.4761639 134.4940662  72.5500631 105.4622459 138.1296825  97.8158283
 105.8680153 137.4391079  97.2917271 104.9412441 138.6313725  97.1888542
  12.7784186 137.6411819  78.7285757  12.5098448 137.1073818  79.4763374
  12.1521407 138.3649063  78.7136745   2.9477435 124.9177742  89.0282059
   3.1870394 124.1125965  89.4871807   2.5815516 124.6191502  88.1957626
  13.7494021 146.3251686  76.6193151  14.2038947 146.5999031  75.8229446
  12.8708582 146.0866451  76.3235235 123.0702686 139.5050430 104.5863342
 123.2929039 139.8833942 103.7357330 123.8886833 139.5318794 105.0820160
   9.1430312 126.0853195  80.1397228   9.5505076 126.3723660  80.9569168
   9.3485766 125.1520824  80.0844955 104.3923950   8.9918213   3.9741937
 105.1702690   8.4417324   4.0666047 104.6456909   9.6597462   3.3370439
 115.4190254 144.6614647   3.8402215 116.1973572 144.9160099   3.3446065
 115.3997898 143.7062263   3.7819806  87.0652199  10.4386120  51.8292665
  87.8714752  10.2623730  51.3443756  87.3629856  10.7525235  52.6831007
  85.5948830 133.8637447   2.3759214  85.5789661 132.9266548   2.5704614
  86.2304497 134.2257786   2.9933492 122.7077198   4.5507126  66.7677641
 122.5089264   5.3317051  67.2842598 121.8815327   4.0684586  66.7351007
   1.0461073  10.4985123  99.9771881   1.3742476   9.6562558  99.6623039
   0.2655154  10.6642323  99.4485760   4.1448336   5.1443081  94.4549942
   4.9232512   5.2392655  93.9061165   3.4288436   5.4793339  93.9152336
 114.9942112 143.5990143  95.1134586 114.4708920 143.0692482  94.5120144
 114.3575954 143.9605999  95.7300663  84.4020844 118.6703682  64.9672031
  83.6192989 119.1702938  64.7357893  84.6977901 119.0564442  65.7916641
 118.1646538 130.3167152  69.2586565 118.6256790 129.4849396  69.3673992
 118.8056087 130.8932209  68.8426590   7.0008402 130.8248234  85.6441116
   6.7197924 130.0118065  86.0639477   6.3756590 131.4814377  85.9510899
   0.5408602 127.1249008  48.1471491  -0.4056806 127.1316528  48.2894039
   0.8255225 128.0065536  48.3877373   2.1394282 105.2340412  92.1373081
   1.8232661 104.7033978  92.8685379   1.4026957 105.2639389  91.5269375
   1.5707999 134.0957832  47.0471096   1.3790732 134.9432659  47.4486732
   1.2390643 134.1740322  46.1526537 102.4321938 131.3702297  81.2261105
 101.7815685 132.0558548  81.3772202 102.0371914 130.5798626  81.5942574
   0.8680945 140.3229046  61.4492989   0.1583415 140.4395294  62.0808697
   0.7679015 141.0533237  60.8388233  33.7682086  22.6616268  78.7325001
  34.6161395  22.5017147  78.3181620  33.1685954  22.0602780  78.2908344
  97.1342564 122.7321243  73.2149124  97.1948433 121.7999077  73.4235382
  96.5272999 123.0843067  73.8659239   8.8333827 119.6359921  82.0957375
   8.7998515 120.3957653  81.5145016   8.0373698 119.7025776  82.6231480
 112.7891922  91.7233753  83.2348537 112.0391464  91.2819576  83.6333656
 112.9957104  91.1954975  82.4635410 108.9119053 135.5286026  73.4877634
 109.2224979 134.6233845  73.5062647 108.2707596 135.5473614  72.7772570
  91.9093895 129.1952705  88.4509373  90.9760380 129.1079903  88.6445236
  92.0403957 128.6700630  87.6614952  77.8541660 111.7831802  98.4844875
  76.9026756 111.7550468  98.5850143  78.1508970 110.9193230  98.7707424
  89.0615654 102.4752712  91.1470127  88.9853859 102.0454025  91.9988537
  89.9707317 102.7722645  91.1090469   8.1880026 126.4930820  89.7657967
   8.9509993 126.1244583  90.2109814   8.3205443 127.4401283  89.8078060
 112.8763962 100.3100204  89.9163532 113.6455345  99.8673725  89.5575714
 112.2179413 100.2444172  89.2247200 110.0792885 129.7342968  37.5609684
 109.7160912 130.2005577  36.8080258 111.0213470 129.8964691  37.5114679
  25.6176119   9.7570877   2.8481809  25.6891947   9.4734459   1.9367830
  25.6677943   8.9471035   3.3557550  99.3929291 136.0184669  97.8882694
  99.3065739 136.9133472  97.5597095  98.6366749 135.5564785  97.5265026
  97.1933746 138.4232903 101.5890217  96.2984467 138.0836868 101.5922070
  97.1102524 139.3142414 101.2491226  92.1150494  90.3217602 109.6678162
  92.5702572  89.5799351 110.0662136  92.0022011  90.0693989 108.7514019
 106.2446308 106.2268257  89.3801308 105.3744602 106.0266781  89.7250557
 106.0857677 106.8661308  88.6856651   1.0446959   2.3219185  83.8415623
   0.4308730   1.9688683  84.4856167   1.9069892   2.1923523  84.2363930
  10.4580908  10.4072743   0.9546415   9.8093443   9.7143345   0.8313791
   9.9393492  11.2040501   1.0655156  97.7546597  96.3186836 105.5043125
  97.9028511  97.2536373 105.3624344  97.4713802  95.9889603 104.6515179
   3.5793715 123.0895042 104.2513180   4.1615038 123.2213497 104.9996281
   3.5330706 123.9476299 103.8297653  96.5537262 101.1113930  90.0886536
  95.9755325 101.1728191  89.3282890  97.3887730 101.4664078  89.7838593
  99.5921040 124.2856598  87.9689693  98.6521149 124.4090271  88.1009865
  99.8893070 123.8418388  88.7632751 123.1102753 128.8432789  56.1650944
 123.8805199 129.1998672  55.7226038 123.4487534 128.4902859  56.9879293
 120.2624321 125.9848404  71.0193586 120.2321625 125.2473354  71.6287851
 120.8842850 126.5962505  71.4139557  90.2802086 140.3906727  99.1139698
  89.7174644 141.0366821  98.6871052  89.7393131 140.0282288  99.8156071
   1.5614157 146.1882496 100.9057426   1.7379504 146.8866253 100.2753925
   0.6322890 145.9897518 100.7893181 120.2584171 137.2326565  62.3860025
 120.5743980 137.1766567  63.2878065 121.0346222 137.4595642  61.8738985
 122.1171093 123.5009384  79.4498682 122.8796768 123.1039810  79.8707485
 121.5790939 122.7572155  79.1785002  98.0646420   4.3753414  91.4548779
  97.2333431   4.1950970  91.0159302  98.7320232   4.1274910  90.8150387
  12.0117503  22.7170163  88.2218266  11.4767867  22.8735333  89.0000057
  12.5145465  23.5239010  88.1105900 102.5725365 139.5461750  90.8688641
 102.3211288 139.4958687  91.7910862 101.8533802 140.0190449  90.4500103
  96.9841385 131.9375038  77.9210472  97.4381447 131.4991856  78.6407614
  96.9898224 132.8636169  78.1629419  17.7165347 133.3150578  71.9346237
  16.7916995 133.5243320  71.8037748  18.1827479 133.9174461  71.3549709
 100.9878826 133.6728573  74.1462231 101.4729214 132.8592777  74.0082216
 100.4284286 133.4929562  74.9017859   0.7960063  95.4346752  73.8414907
   1.0890227  95.6813431  72.9642677  -0.1423807  95.2729893  73.7439203
 108.0841541  20.3176480  92.9013443 109.0115261  20.0860005  92.8508472
 107.9866028  21.0495549  92.2922230 121.3689423 131.6895199  66.1522484
 120.4715061 131.6278458  66.4793968 121.4219189 131.0197163  65.4704952
 119.0506172  10.5302887  11.9521085 119.2062759   9.6432858  11.6277162
 118.5911274  10.9697991  11.2366144  97.5247860   5.9885292  52.8357553
  96.6704559   6.1662751  52.4423790  97.7543545   6.8008499  53.2870483
 118.1078815  10.5492478  80.0157166 118.1533146  11.4895611  79.8426151
 117.3768806  10.4531269  80.6261539 122.8086472 121.6793251  96.3735485
 123.7357330 121.5782642  96.1578751 122.8022289 122.2515965  97.1408176
   4.4248515  20.8913403  81.1561203   4.3909579  20.9065991  82.1125984
   3.7359839  20.2773075  80.9018230  96.3951969 125.1256943  81.8682861
  96.5631866 125.2015209  80.9289932  97.2494411 124.9211502  82.2486210
 116.2858582  25.3516178   1.2688676 115.5566216  25.7004528   0.7562677
 116.8405628  26.1117344   1.4442579 114.2999172  14.3331127  42.8726625
 113.5581970  13.7517910  43.0403948 114.3990421  14.3263417  41.9206285
   1.6914206 120.9601784  79.9328327   0.7897978 120.8488274  79.6313047
   2.2148352 120.4463100  79.3178463  40.1942378 136.6646385  58.7748909
  39.7915202 136.8837166  57.9346180  41.1343508 136.7597485  58.6219597
  18.4205561 146.5384960   5.1271859  19.2998438 146.1650276   5.1872484
  18.2194262 146.5283203   4.1914121 103.2963562 137.5821590  94.3824291
 104.1948318 137.4824810  94.0677261 102.9273129 136.7001438  94.3366718
 119.4516087 137.6283836  82.1026897 120.1847363 137.0161724  82.1655941
 119.1197014 137.5139141  81.2122154 103.7689781 128.6001110  86.6350842
 103.8770199 129.5309639  86.4399815 104.6601486 128.2507515  86.6368198
   0.4159194 117.7452946  79.3621922   1.2849837 117.7383327  79.7633171
  -0.1156110 117.1900082  79.9326086  12.9352789  12.3775177 108.8690090
  13.4728175  13.1008034 109.1917324  13.1778269  11.6340237 109.4209290
  93.2301617 127.2361851  93.4037209  93.0029774 126.7222118  92.6288319
  94.1598892 127.0578575  93.5452938  17.7501422 146.1359787  60.9330750
  18.2564765 146.0317802  60.1274633  18.4097033 146.2029934  61.6235256
  80.7854557  18.0821972  95.2015114  81.3333321  18.6790257  95.7112694
  79.9195290  18.1492977  95.6038761 117.5140190   2.0760613  57.4919319
 118.4321690   2.1222382  57.2253084 117.1355534   1.3988571  56.9312191
   4.7313624  21.7065602  31.9850373   5.2401095  21.1407452  31.4042997
   4.8172217  21.3026409  32.8485799  97.5982285 133.4071922 106.0918999
  97.4581432 134.2990875 106.4099026  98.4002018 133.4614086 105.5721664
 121.6061974 117.4014282  80.2879143 121.9923782 116.8425083  80.9622288
 121.7844009 118.2936192  80.5853748 109.5161629 139.8057175   0.1181928
 109.4383907 139.0474415   0.6971589 109.7185421 140.5348682   0.7043783
   3.5772544 130.0012112  86.8074703   3.1540709 130.7616138  86.4087963
   3.6342555 129.3600082  86.0990620 107.4668503 135.3228951  75.7847548
 107.9428101 135.3281212  74.9542952 107.4431610 136.2414360  76.0530186
  14.3788939 125.6239986  87.4848366  14.7882205 125.5721474  88.3485413
  15.0207930 126.0825729  86.9427109 124.0857697 137.3263741 107.9256630
 123.4393024 138.0054092 107.7327347 124.1856766 137.3542309 108.8772297
  15.6577426 114.3766785  60.0913763  16.4317542 114.1984177  60.6255674
  15.5658656 113.6019325  59.5367956 121.3533974  17.4589329 106.6423130
 121.2519073  17.8546315 105.7766533 120.4630566  17.4136715 106.9908428
  24.0321856 134.3789101  83.7814426  24.4571333 133.5607338  84.0387821
  24.2703276 134.9994564  84.4702435  95.9470463 133.4086514  98.3988857
  95.1587200 133.2325363  98.9124584  95.6631565 134.0323830  97.7306080
  86.3307476 135.0091362  73.8436127  87.0395470 135.6498528  73.7859058
  85.9507465 135.1498032  74.7108221  89.0513325 133.7162209  83.1221485
  89.0377235 134.4533348  83.7326527  89.1679573 134.1197395  82.2620296
   6.6419821 122.2855854  11.0739652   6.8248683 123.2239151  11.1220781
   6.9575625 121.9369984  11.9077054 112.5701427 125.3792286  66.2176847
 111.7462730 125.2190971  66.6779327 113.0233097 124.5363331  66.2374973
   6.3786822 110.3675461  84.5875740   6.1283904 110.7437611  85.4314041
   5.6140452 109.8601723  84.3152905 119.0986729  21.4105778  85.4386044
 119.3453979  22.2180729  85.8895302 119.4525623  21.5119534  84.5550251
  11.4406233 133.3512592  94.6704197  10.8826762 134.1277504  94.6258926
  10.9259825 132.7146626  95.1665211 115.9916115 114.8725891  10.3631059
 116.3073063 114.7996330   9.4624177 115.3161812 115.5498219  10.3260461
 105.7422924   8.9203720  81.7042065 106.3920593   8.4661370  81.1678219
 104.9122810   8.7733250  81.2506866 123.1818867 110.4979420  71.2550402
 123.3806801 109.7314167  71.7927694 122.3693562 110.2695560  70.8035183
  91.6999435  21.5795117   5.0391904  91.0777664  22.2540837   4.7669927
  91.4935303  20.8260708   4.4860689  13.5645133   0.4175358  99.2498493
  13.8286048   1.2991791  98.9867783  14.1014128  -0.1639671  98.7114906
 112.4598789 102.2325516  64.2677355 113.2140827 102.3221111  64.8503113
 111.7208576 102.5596428  64.7806597 100.2295685 114.5209026  83.7975979
 100.8607101 114.9706650  84.3593884 100.1592922 113.6426067  84.1716099
  38.9012461 144.1335964 106.9408131  38.1122523 144.4959068 107.3438740
  39.2274600 144.8364258 106.3788128  93.0439758 120.4237366  80.7573700
  92.8903675 121.2855911  80.3702736  93.5457706 120.6041908  81.5522671
   2.4004679 119.9261856  94.2350674   2.0669966 119.1125393  94.6132374
   2.6279002 119.6960258  93.3342075  82.1320915 138.9682770  76.7139769
  81.4578533 139.3572807  76.1569166  82.9442310 139.0784550  76.2194824
 117.6990891   3.4508877  93.9400005 116.7921543   3.1448441  93.9339066
 118.1981468   2.7140789  94.2925453  96.9966412  35.1988201  48.5022306
  97.3242855  34.8690777  47.6654768  96.0789967  34.9273472  48.5238695
 119.9028206  94.0352154  68.6449671 120.5261612  93.4233952  68.2533646
 120.0350189  94.8523140  68.1642294  24.3724471 135.9244823  89.5880413
  23.7642317 135.2792740  89.9486065  23.8299018 136.6933823  89.4129181
  11.8753081   1.1520844  74.9945021  12.5296813   1.4341050  75.6336355
  11.2847357   1.9006424  74.9101496   9.0469390 105.5625248  89.4345188
   8.5402995 106.0616970  88.7939167   8.6450320 104.6937847  89.4333172
  72.0833588  12.6142769  99.4456387  72.6968241  13.1333809  98.9256096
  72.5596380  12.4179535 100.2523899  99.5938969  23.1262188   1.0685102
  99.9444675  23.8838368   1.5368501  99.3047810  23.4778958   0.2265111
  91.7723465 110.3304482  86.2333107  92.5494003 109.7757626  86.3021183
  91.6649151 110.7018852  87.1089458  92.1810627  99.2235184  83.5544777
  91.6121674  99.8433208  83.0979252  92.0561028  98.3963108  83.0893612
  88.2830429  11.4860897  70.5554581  87.5996494  12.1447544  70.4315138
  88.0638981  10.7933693  69.9322844  96.6555500 113.4939289  85.2535820
  96.2187576 112.9277802  85.8899117  96.4082336 113.1328678  84.4022846
   4.1864901 143.1786537  95.4919624   4.6536570 142.4516964  95.0802231
   4.1716605 142.9571247  96.4230537  77.3016930  18.9601879 100.8985901
  77.6827574  18.1021672 101.0851288  76.4583683  18.9512806 101.3513088
 117.8872204  22.8877812  12.1068517 118.0742645  23.7816410  11.8200532
 118.7398624  22.5341778  12.3602048   3.0790263 120.9695625  13.1662694
   3.8319808 120.9759426  13.7572328   2.7334147 120.0790882  13.2282869
  12.5599890 125.6709862  53.7995815  13.1229048 124.9721527  54.1327333
  12.3123770 126.1705208  54.5776463  89.7433949   2.4805432   9.9440614
  89.7320938   2.2221070  10.8656446  88.8195801   2.5571041   9.7054426
 111.5652752 135.7765961  93.1870079 111.5508938 135.4812527  92.2766209
 110.8564949 136.4175415  93.2421017 101.5130329 108.2457829  99.1514015
 100.7727909 108.0759335  98.5687923 101.5528584 109.1999531  99.2161274
   6.5159636 137.4497128  11.2652341   5.7242232 137.8419304  11.6333906
   6.8986064 138.1427002  10.7271138 110.4789639   5.8274441  88.7922287
 111.2656689   6.1796456  89.2084980 110.0537205   6.5900021  88.3999252
  98.6316395 113.0315399  98.7630653  99.1650867 112.6646996  99.4681168
  98.7999058 113.9730930  98.8004780  11.3870555 126.1689186  73.7574863
  10.5960875 126.1054230  74.2928171  11.7986518 126.9875145  74.0344858
  12.9647761 125.3690243 106.8259716  12.4045878 126.1135483 106.6066456
  13.2673674 125.5508614 107.7156925 105.0195217 134.9333572  78.7028170
 105.8507442 134.8428440  79.1687727 105.1681232 134.5011902  77.8617573
  95.1570606 132.1218967  58.3287287  96.0362148 131.9960499  57.9716825
  95.3027725 132.3765755  59.2398453  95.0917816   2.6344757  86.1036777
  95.4478645   2.5473671  85.2194595  94.3421650   3.2211857  86.0032845
 115.7713890 131.4260960  90.2569103 115.5867577 131.9130802  91.0600281
 115.5228424 130.5245304  90.4609871 109.9032974 142.0113087  13.2054178
 109.6874332 142.8022766  13.6993829 110.7614136 141.7480087  13.5378972
 112.8295326 145.4782391  91.4914608 112.4903584 146.0128593  92.2093582
 112.1939754 145.5945492  90.7852173  94.8707581  40.5222683  82.8400898
  94.7187710  40.0862866  82.0016098  94.8790836  39.8117619  83.4814548
 122.2850132 134.4923019   9.8852388 122.4223423 135.4395390   9.8742143
 123.1471539 134.1275978  10.0850622 105.7813454 133.1854248  12.3995439
 106.2076950 134.0273952  12.5593225 106.4962292 132.5489902  12.4108354
 110.5551910 143.8199520  80.1755047 109.9658012 143.4884739  79.4980288
 110.8477116 143.0372143  80.6423950  12.0645362 138.8690948 104.5539093
  12.7722769 139.3345261 104.9996758  12.3763400 138.7631702 103.6551380
  95.5291939 104.5364475  76.8635130  96.2783623 104.6817589  76.2856960
  94.7914410 104.9383831  76.4048243 112.3052120 120.4609108  44.9456882
 112.1216679 121.1820030  44.3435431 112.9723549 119.9397564  44.4989729
  91.4022446 118.2795143  58.3843231  91.3332462 118.3331871  57.4311209
  90.9993458 119.0885448  58.6995602  99.4198036  19.4788723  85.8433437
  98.9662743  19.7216778  86.6505623  99.7120571  20.3117543  85.4730225
  97.0152569   9.9181824  46.7156029  97.1979427  10.4776173  45.9606934
  96.1824894  10.2427178  47.0582676  97.6423931 119.3557358  18.4779418
  98.3435154 118.7506580  18.7199116  97.9983234 120.2234936  18.6690891
 106.6706276 143.7848568  80.9413052 106.6269588 142.9922676  81.4762115
 106.0305977 143.6392021  80.2446175  29.2291766 140.9729385  70.0718260
  29.5958930 140.3598499  70.7088995  28.5631590 141.4564133  70.5606127
  92.5261116  95.2663898  95.0358582  93.2919788  95.4119873  95.5912685
  92.4680328  94.3145752  94.9526691 106.4699650 119.3376255 108.5276318
 106.0113811 119.8006630 107.8265381 106.9668007 118.6539936 108.0781555
  23.4863024 138.6306667  76.0966635  23.3385211 138.5159779  77.0354080
  22.8461867 138.0529118  75.6810951  94.3851089 111.7929173 102.1858790
  93.4545326 111.5948105 102.2908356  94.8278236 111.1835098 102.7765169
 117.1211147 117.1993160  59.1440439 117.5518417 117.7752113  58.5123396
 116.9276237 117.7654839  59.8912001 116.0804844  10.7439785  66.6795158
 116.2492180  10.1791745  67.4336720 115.4337502  10.2648812  66.1614180
 104.4775486  22.6824169  77.6704216 105.1734257  23.2604390  77.9832697
 103.9662647  22.4775868  78.4532833  15.1429396 142.6701546  68.1210756
  15.7927256 142.0399380  67.8099155  14.3050795 142.2173309  68.0253315
  19.3785124 123.6262321 104.0952301  20.0214987 123.7182522 104.7983170
  19.1524821 124.5256424 103.8581371   6.9362288 125.2444172  10.1785111
   7.8112059 125.2733898   9.7914529   6.3675337 124.9580288   9.4638097
  28.9948779 136.6449833  67.8336716  29.7906428 136.1300850  67.9673338
  28.3063441 135.9926510  67.7047777 107.2008610 124.0821075  51.9872141
 107.8178978 123.4255981  51.6639662 106.4313030 123.9841080  51.4264965
  94.9679947 143.2930279  77.4282837  94.6830463 144.1542530  77.7337742
  94.3948936 142.6758575  77.8831482   4.1393405 123.5945034  68.4524632
   4.8195963 124.1684341  68.1001949   3.3184844 124.0421486  68.2474422
 109.8798752 129.1856861  70.0351667 110.5299377 129.8517990  69.8116684
 109.0757275 129.6797943  70.1946497 113.8549805 125.0910378  69.0334797
 113.4276676 124.9108887  69.8708487 113.6756897 124.3157959  68.5014153
 118.9344978   9.0218621  45.0365925 118.3018589   8.5533314  44.4920969
 118.3974457   9.5521431  45.6253338  25.7524520  31.9838505  62.1604395
  24.9149066  32.1643620  61.7336178  25.6986075  31.0622769  62.4134874
  11.2734061 102.7494335  82.2251034  10.9772521 103.5445786  81.7820740
  10.5187827 102.4683666  82.7425766 114.8189449 129.3229294  87.6718235
 114.0815067 129.0720081  88.2281113 115.4595089 128.6219978  87.7926826
 120.5887318 127.3683453  35.5171418 119.9965668 128.0988979  35.3386140
 121.3805771 127.7807331  35.8623362 106.5572166 138.1675911  76.4012671
 105.7868004 138.3484173  76.9397783 106.2129021 138.0797005  75.5124664
 106.4424801 134.2736149  64.4309425 107.0224762 133.5288811  64.2721844
 105.8785820 134.3070221  63.6582041  19.0369349 113.8486004  60.5152893
  18.7786036 113.7074852  59.6044683  19.9918013 113.7824726  60.5064201
 124.2586422  17.1419697  51.5987778 125.0671864  16.8024807  51.9824886
 124.5335484  17.5365620  50.7711506 116.0384369 135.4142475   6.3659040
 115.5666924 134.7844696   6.9109384 116.8093586 135.6481647   6.8828145
 113.3558464  97.1485806  72.5511312 112.5137329  97.2795868  72.9869270
 113.7997055  97.9930782  72.6288939 116.8929291  26.5196209  34.9406171
 117.1497822  25.6914692  35.3461194 116.7464638  27.1121006  35.6780124
 124.4225216 128.4043789  41.2553835 123.7043762 128.7583065  40.7307577
 124.9226856 129.1740036  41.5269279 102.2451401 128.7827969  55.4025459
 102.0955181 128.1167793  56.0735655 101.4414120 128.7838268  54.8826885
 103.4712219 133.8614845 103.4737873 104.3338776 133.5407829 103.7368679
 103.3687401 134.6878815 103.9458084  94.1944981 114.8122311  68.2527685
  93.8859653 114.2564583  68.9684200  95.1443577 114.8441315  68.3666945
  10.0480967 141.2235355  80.5572319   9.7269660 141.8276024  79.8877525
  10.4293757 141.7900658  81.2279701  87.2402668 134.2979050  62.9486227
  86.5415955 133.7735271  63.3399343  88.0475616 133.9189911  63.2963705
 116.4347267 139.8991299  63.9887524 115.5037212 139.9028397  63.7663794
 116.8620586 140.3104687  63.2374763  73.8101625 128.1273842  34.8719120
  73.3709192 128.4470558  35.6600118  74.0277243 128.9197063  34.3808746
 106.1734009 144.9597645  70.6222868 105.9640980 144.3679142  71.3448811
 107.0837498 144.7594357  70.4046297  12.8494292 131.5044212  64.8994398
  13.2483321 130.6343269  64.8925018  13.4471064 132.0377445  65.4234457
 118.9434528  84.4550419  54.1797018 118.3613396  84.8332977  54.8387146
 118.4174824  83.7762165  53.7568569  96.0050583   1.2907772  70.0136518
  95.1463699   1.2467270  70.4343128  96.0564804   2.1814709  69.6668816
   4.0523177 140.1968193  33.2807326   4.3705397 139.3086338  33.1192255
   3.1129580 140.0910282  33.4311771  23.2206565   3.3283310  79.0266991
  23.5130339   3.5902672  78.1536961  23.0524092   2.3890667  78.9511442
 106.6987896 144.0290451  74.2463827 106.7422676 143.6034966  75.1026869
 106.8110752 144.9605560  74.4358730   5.0098544 140.0556755  83.3376217
   5.7302600 140.2260494  82.7308083   4.2590933 140.5060005  82.9505730
   3.0949240  16.2576084  38.7835503   3.7737113  16.7942791  39.1927767
   2.4680644  16.0871868  39.4865727  69.9305916 133.5330772  48.8688946
  69.7819805 132.6105309  49.0764093  69.9943304 133.5565472  47.9141045
 100.9995651 107.5858498  85.1072693 101.1799526 107.0664310  84.3237591
 100.7926369 106.9385433  85.7813644  12.2199851 130.8356571  76.3857460
  12.0936804 131.7810631  76.3051939  12.9218226 130.6341839  75.7668209
  28.5333090 136.3036823  78.8744688  28.6430388 135.7114792  78.1305027
  29.3827277 136.2939835  79.3156290  26.0091143 130.9543324  52.0576763
  26.8869715 131.1176109  52.4025393  26.1500197 130.3761005  51.3079929
   2.0150786 133.4888935  69.5643044   1.7794352 134.4006634  69.3929005
   1.3060790 132.9802322  69.1708422 111.4547825 121.8124104 104.8956680
 110.7887650 121.1933708 104.5966148 111.5001774 122.4694729 104.2010975
   4.2248087 121.1001205  84.1223812   3.8871317 120.8783054  84.9901390
   4.9211531 121.7347622  84.2913723 120.3878593 126.8793678  96.2833023
 120.1451492 125.9540272  96.2506390 119.7486305 127.3147106  95.7193089
   0.5563956 120.2245140  76.5583611   0.5646258 120.7254314  75.7427406
  -0.2784128 120.4494095  76.9691515   0.3980570 127.0800877   7.2045493
   0.7106524 126.8765354   8.0860710   0.0527220 126.2502861   6.8753183
  16.9955855 132.8190422  81.4820671  17.0459300 131.9273663  81.8264484
  17.7043276 132.8684330  80.8406067 121.8707180  12.6111489  30.6886959
 122.8085613  12.8017693  30.7073951 121.8213940  11.6572457  30.6264281
  21.1196738   0.5069523  77.1343422  21.7081862   0.6546955  77.8746557
  21.0481864  -0.4455108  77.0715761   9.6079474 114.7467995  53.3897114
   9.5730525 113.8453484  53.7097073   8.9780074 115.2188301  53.9343119
 118.7928867 126.4336967  62.0316172 118.4207344 125.5611134  61.9038343
 118.8082314 126.5507889  62.9815054 120.0220299 139.7990417  69.2511606
 119.9139309 140.0581360  70.1662636 119.1299438 139.7598171  68.9063597
   9.6451789 142.7919006   5.8879415  10.1359778 142.6462746   6.6967241
  10.1661997 143.4323597   5.4036180 123.2191944 117.1275043  50.5205297
 123.7555981 116.9183826  51.2852335 123.6650467 116.6979504  49.7905111
 114.5986080 127.2804546  78.7721395 114.7858429 126.9325924  79.6440125
 115.2985573 126.9321156  78.2198954   0.7686358 116.8737221  90.7211590
   0.0505858 116.4784813  91.2155437   0.6214743 117.8164673  90.7973576
   2.7430945 143.2688999  29.3440342   3.4437018 142.7688789  29.7627926
   3.1855708 143.7796116  28.6660838 104.0076923 107.7507305  75.7833052
 104.7445583 107.3307896  75.3395605 103.9170647 108.5981369  75.3475046
  21.2164240 130.5405140  51.8592072  20.8667403 130.4460526  52.7452278
  21.9539385 129.9312305  51.8265629  98.9144516 137.4926758  92.2126961
  99.2511463 136.6497612  92.5166035  99.6370697 138.1042767  92.3540688
   3.3292609  41.2993031  32.9513597   2.9184180  41.8820362  32.3127127
   2.5957614  40.8567982  33.3784437  77.9890203   8.8139038  30.5277252
  77.4085236   8.4402924  31.1908007  77.5201082   9.5834904  30.2050877
  83.2224846 123.7992573   2.6078264  83.1870079 124.7323704   2.3974363
  84.1573143 123.6030579   2.6697198 112.5131226  15.1446324   5.3469125
 113.3777428  14.8344403   5.6160585 111.9264221  14.8543911   6.0453168
  30.3599578 121.7077065  73.8654709  30.2551776 120.7586288  73.7983608
  31.1783438 121.8247986  74.3479300 109.2362499 138.1443119  72.3978519
 108.8465023 137.3556805  72.7751875 109.2169189 137.9924774  71.4529657
 103.4309769   9.3681794  51.8780327 103.9012527   9.9475365  52.4775410
 102.6293945   9.1373234  52.3475027 124.0642357 132.0791435  61.5005350
 124.7856140 132.7077198  61.5278435 123.2916451 132.6095581  61.3056135
  31.7256766 128.5474968  92.3928928  30.9010821 128.3698845  92.8453636
  32.3274355 127.8790569  92.7204895  36.6889124 114.0131378  43.6874962
  37.4498492 113.4384346  43.6043930  36.4676028 114.2492962  42.7866697
   6.5684634  16.3311940  85.2872562   6.5221911  16.7061024  84.4077492
   7.4306708  16.5897732  85.6127930 123.3019924 105.3320789  49.1616488
 122.7594376 104.5444489  49.1228104 122.7691555 106.0106373  48.7470770
 122.9911423   6.9532090   6.1133996 122.5767040   7.0121174   5.2525846
 123.4071541   7.8062611   6.2378064  21.4754801 137.0004749  75.4060698
  21.3935786 136.4012051  74.6641779  20.7049590 137.5650024  75.3441572
 122.9211235   8.5536557  81.9257927 122.8256226   7.6891594  82.3255062
 122.2163773   8.5979061  81.2795639 108.4878731   1.0695248   2.6281110
 107.7464199   1.3416176   2.0873395 108.8767242   1.8898278   2.9316465
  92.7108669 105.3148651   0.2345697  92.2380257 104.8758030   0.9415857
  92.0351028 105.7964802  -0.2425345 101.2546825 146.1393261  41.3512373
 101.3441849 147.0917225  41.3851118 100.7189178 145.9765625  40.5748987
  89.7835350 142.5480843  62.6965714  89.8809624 142.5089169  63.6479950
  90.4938126 143.1204224  62.4064398  95.8531380 136.0013771  80.5094814
  96.2466908 135.1880836  80.1933861  95.0366783 136.0799599  80.0160694
 119.4153690  23.9951306  51.1523294 118.5250568  24.2209606  50.8829165
 119.8540974  23.7410145  50.3404379   9.4114237 127.0552254  82.8802013
   8.7963992 126.8902874  83.5948849  10.1292163 127.5390339  83.2887745
 113.3652115 144.8002815  49.8172283 114.0933800 144.1790199  49.8228502
 112.5815105 144.2507076  49.8124981 106.6610718 137.6706028 100.0897217
 107.0420456 138.5117245 100.3419209 106.0287857 137.8896332  99.4052696
   7.5682955 126.1584854  62.2259903   7.0932704 125.6622219  62.8925610
   7.5551730 125.5944252  61.4527559 102.7833366 100.2420330  99.5160294
 102.3888016 100.9787846  99.9826813 103.3309269  99.8092175 100.1710415
   7.8284197 128.6605740  63.4384108   8.0687838 128.4480000  64.3402243
   7.5703555 127.8221893  63.0553532  10.3090506 131.1662579  63.5245323
  11.0042983 131.5704441  64.0436649   9.7308951 130.7623386  64.1716862
 106.2256813 141.0731792  53.6002684 105.5765247 141.4760685  54.1769075
 105.9122849 140.1773357  53.4757948  72.7486944 126.3233471  52.6327419
  72.7832556 126.2416935  51.6796541  71.8231058 126.4708328  52.8270864
 102.4373817 136.4295578  61.0871983 101.5250778 136.1533737  61.1747265
 102.6205540 136.9104004  61.8943310  93.9863682  23.0187779  79.3771219
  93.5708427  22.5950985  80.1281643  94.7156239  22.4419003  79.1499090
  21.3240462 141.0829067  48.1945801  20.3928023 141.1568642  47.9858923
  21.4074641 140.2285862  48.6181593 112.0926762  21.8141346  64.9756336
 112.7307415  21.1330967  64.7627592 111.4318371  21.7470532  64.2864132
  33.9916449 136.0160923  40.8439732  34.8916846 136.2593174  40.6271982
  33.6508208 136.7673683  41.3294220 119.1459560   9.1128044  28.3103895
 118.6203575   8.5967522  28.9216685 118.7118816   9.9654465  28.2819176
   9.1112834  10.0798302  34.1409612   9.9091368  10.6018048  34.0560937
   8.6112528  10.5169850  34.8302317 108.2301521   7.1165924 105.2888775
 107.4240398   6.6609555 105.0463486 108.0115128   7.5745755 106.1004639
 109.2941189 122.1755314  49.6990061 109.8189449 122.8387928  50.1471901
 109.4864750 122.3051834  48.7703419  28.4649687  24.2734700  55.9519577
  28.5927897  24.8014241  56.7400885  28.6692935  23.3796101  56.2267208
 114.7143459 125.0545883  72.5884390 115.3353310 124.4975471  73.0578136
 115.1942158 125.8674812  72.4298429 108.2541275 143.4653378  39.7000813
 107.3363400 143.7345314  39.7381425 108.5372162 143.4495831  40.6143236
 110.1580048 105.2036953  77.7786589 110.8945179 104.6074963  77.6432276
 109.4043350 104.6278763  77.9077101 116.7881489 146.4019966  91.2448120
 116.2829685 147.0817471  91.6908646 116.7669392 145.6558037  91.8439579
  13.5369998 123.9891720  74.2131901  12.7896624 124.4944477  73.8931656
  13.7448912 123.3892441  73.4968805  23.1577044 123.2174110  86.4806271
  22.8690272 122.5379276  87.0898914  23.9908152 123.5227966  86.8396664
  16.5751105   3.6864739  85.4402542  16.4707118   4.2648297  86.1957932
  17.5149088   3.6967068  85.2588367   2.2098094 121.1320686  35.9721327
   2.0798426 121.7874908  35.2867460   3.1475287 120.9416294  35.9467077
 116.0157776  12.6001721  94.0363407 115.3782368  12.8084259  93.3534050
 116.2796307  13.4515362  94.3853378 110.1070786 134.5119286  95.0540257
 110.1833916 135.2717209  94.4768524 110.6756401 133.8518429  94.6574688
  16.2056952 117.3421097  61.8551922  16.2939578 118.2728672  61.6499186
  16.9303637 116.9244289  61.3897562  78.7212467 144.3003082  40.7371998
  79.0436935 145.1955891  40.6335926  77.7747965 144.3706894  40.6126785
   4.3011408 121.7079163  77.1795559   4.1835528 120.8244705  77.5287294
   3.5439330 121.8430138  76.6098022  -0.1118154 126.4867020  89.8873043
   0.1074820 126.6187382  90.8096409   0.4947501 127.0554161  89.4130993
  39.2167216 118.0871201  87.9852486  39.5105486 118.7189102  88.6415577
  39.4762164 117.2362995  88.3387947 124.3470573 140.3562546  64.8949480
 124.6526527 141.1508274  65.3325462 123.5479069 140.6247330  64.4416285
  78.0135965  18.3108502  50.5123281  77.2496843  18.8659268  50.6690073
  78.3810568  18.6355572  49.6902752 107.9958439   7.3052292  66.4526463
 107.8819370   7.9864388  67.1153736 108.4390068   6.5935021  66.9144678
 107.3131275 138.7026691  31.7924595 107.0398521 138.7148094  30.8751798
 106.5019608 138.5673046  32.2822690 110.5170631 134.7363281  97.8390789
 110.7301998 134.3912125  96.9720650 109.8298550 134.1555786  98.1657314
 117.1399879 124.8052406  39.9532557 117.0805073 125.2832127  39.1260743
 118.0447388 124.4944286  39.9857593   8.4096652   8.6995201  69.2818546
   8.1270724   8.5602455  68.3779860   9.2493945   8.2441883  69.3431282
 112.4129486   8.6692124  70.2055120 113.1824112   9.2352085  70.2673054
 112.5842190   8.1144028  69.4445276  90.8303928 128.6580563  59.7983932
  90.4046917 128.5907364  58.9437151  90.2192688 128.2386112  60.4040623
   0.8267909 124.5370674  65.6617022   0.4607516 125.4192734  65.7246208
   0.0624781 123.9650154  65.5923223   5.9553557  12.9445820  66.1449528
   5.0019961  12.8822499  66.2037325   6.1364871  12.9661923  65.2052975
  76.4242458 130.3986454  91.1165333  75.8563614 130.7054615  91.8233585
  76.8601894 129.6267128  91.4775085 106.1266899 145.6956196   0.5311719
 106.0224915 146.4858723   1.0611478 106.3479519 146.0201073  -0.3417548
  61.4625788 119.4296551  40.7355833  61.4506769 118.4796047  40.6193829
  60.5556297 119.6573067  40.9401560 106.7726707  35.2693730  68.9800501
 106.4364338  35.5454617  68.1274366 107.4596786  35.9040814  69.1835356
 109.7447109 117.2873306  68.0074406 109.8116684 116.3856411  67.6932669
 109.0711308 117.6840305  67.4550438   7.1715766 124.2985535  46.5141296
   6.2606841 124.5315266  46.6936874   7.4948245 125.0071907  45.9577322
 104.2948246 136.3963985  38.7097430 105.1380348 136.4287853  38.2578683
 104.2740059 137.1959877  39.2355442   1.2180167   9.4585972  65.4442358
   1.9416934   8.8428383  65.3285503   0.7248049   9.1116124  66.1875916
 123.9514351 131.5080261  16.1211264 124.6800900 131.8464947  15.6008041
 123.2038498 131.5213394  15.5234885 103.4934807 111.1486244  91.9857693
 103.6845970 111.9248581  92.5122356 104.3225479 110.9417152  91.5544128
  87.0875549 119.7897053  81.4107037  87.1473408 120.7172775  81.6393280
  87.6433086 119.6974564  80.6368446 123.8980770   6.3509350  87.6537514
 123.6982632   6.4470463  88.5849190 124.2795849   5.4761772  87.5796986
  19.0235358 145.1397800  96.8276787  19.6074706 145.8982277  96.8286705
  18.9952593 144.8604679  95.9125710 101.1250401 131.4647865  35.4294896
 101.1937618 132.4085903  35.5734897 100.4257011 131.3714886  34.7826171
  69.2678452 129.2104340  61.6528797  68.5078049 128.8136196  61.2273121
  69.8474789 128.4730530  61.8439770  96.4069271 143.8223553  94.9160862
  96.6876602 143.6075306  95.8056164  95.9772491 143.0268383  94.6018314
  81.9101048 119.6676540  64.1992283  81.7493629 120.5889702  64.4031048
  81.0376167 119.2940807  64.0749598  84.5696926 143.6734104  62.8914070
  83.9389515 143.6165714  62.1736622  84.4990063 142.8306198  63.3396816
 111.4810848 136.4788342  40.9328842 110.8449650 137.0635128  40.5208969
 111.8459797 135.9723759  40.2072191 103.9869690 142.1842098  66.7763948
 104.3318653 143.0768013  66.8001223 103.9912701 141.9013977  67.6908493
 101.9254875   6.7033081  19.7192216 101.0108948   6.7756634  19.4462526
 101.9330692   7.0277672  20.6197214   4.0070658 107.7023697  52.8476810
   4.3391734 107.8942299  51.9706821   3.6411410 108.5327911  53.1521940
  23.8257056 137.4135399  41.9161558  24.5371657 136.9180679  42.3218107
  24.2672473 138.0488300  41.3525295 105.8611202 143.0313396  35.3781581
 106.5474701 142.3735142  35.4895639 106.2778854 143.8566494  35.6259346
   0.8207541 129.1059875  83.7475681   0.9762793 129.5801067  84.5644188
  -0.1117105 128.8908863  83.7692928 107.1106911 120.3987598  42.3165083
 106.6580963 121.0110569  41.7364359 107.6899242 120.9504795  42.8421736
   8.2793646 133.0258369  88.1720257   7.6812010 132.7067184  87.4963093
   8.1510859 133.9743900  88.1769085  80.3188229  11.7777615  49.1659546
  80.9896088  12.4425679  49.3218851  80.0152874  11.5340691  50.0404358
   6.1853438 135.9044456  41.4977741   5.5435591 136.0657501  42.1893883
   5.6666880 135.5845737  40.7595968 118.2497025 128.5153484  97.7473068
 117.8644753 128.5230446  96.8710709 119.0500736 129.0333080  97.6616287
 123.5059071 140.7397366  27.6663923 122.9307175 141.1397839  27.0142078
 124.1698360 141.4066601  27.8414536 119.8381138 127.1181583  39.8166299
 120.1807976 126.2493420  40.0262976 119.2044926 126.9630623  39.1161299
 117.5444889 125.1537228  24.8627114 117.4931812 124.3827438  25.4276848
 117.5760555 125.8934975  25.4693079 121.8533325 141.8744755  25.5972767
 121.8356323 142.7734375  25.2689528 120.9420395 141.6821766  25.8181500
   7.6640444   5.1927929  58.8763523   8.2838755   4.7421341  58.3028078
   8.0098849   6.0822087  58.9509726   4.8483782  15.8456784  56.1560297
   5.6919222  16.0548001  56.5571880   4.9791937  16.0123425  55.2225733
  99.9287128   2.2549992  61.4171696  99.5972538   1.7069702  62.1285200
  99.1538715   2.7050286  61.0805368  94.8754883 115.6853676  93.6879512
  93.9783764 115.7431984  93.3591839  94.8629189 116.1809921  94.5067509
   5.1261168 121.0541534  66.4475298   4.9088221 121.8105602  66.9923830
   4.8864680 121.3213825  65.5601835 112.7397442 131.5435982  57.6961803
 112.5178242 132.3571205  57.2432423 113.2180786 131.8262291  58.4756327
  89.8258114 130.3706551  54.1133928  89.1764069 130.8041286  54.6671057
  89.3348122 129.6854591  53.6598921 114.3973923  12.6919251  67.8083467
 114.9021530  12.6455098  68.6203194 114.6884632  11.9337349  67.3017216
 111.8400860  89.0619373  88.0450821 111.8968773  88.7394142  87.1456432
 111.0630417  89.6208763  88.0504894 110.9290695 105.7252884  24.6994424
 110.1777935 105.4976845  25.2471781 111.4725113 104.9373150  24.6988320
  98.8117409 125.6301022  24.3309712  98.6540413 124.8869133  23.7487078
  99.1490650 125.2365398  25.1356816 109.4746208 126.4102650  35.3509164
 109.9173069 126.0534096  34.5809054 110.0796795 127.0693874  35.6910515
  18.0397349 120.9063721  58.1372976  18.0943232 121.5219879  57.4063540
  17.1010142 120.7722664  58.2678843  21.5394240 140.2925014  41.4120674
  20.9266501 140.0107193  42.0912886  22.3359995 139.7907162  41.5850067
   7.9525500  11.2533741  70.6406975   8.1615382  10.4435616  70.1751184
   7.4297553  11.7592221  70.0185871 120.6154060 141.7011166  39.1017818
 119.9078274 142.3311329  39.2382765 120.1823521 140.9303188  38.7349653
  76.4217329  21.8708210  35.5353308  76.8045044  21.2755566  34.8908424
  76.4583731  22.7314358  35.1179218 111.9104958 145.6011868  25.7360172
 111.9571400 146.5116501  25.4442978 112.8086758 145.3831100  25.9849191
 119.4227505 118.9619350  11.4924955 119.5468521 118.3426666  10.7732332
 120.0912476 118.7211609  12.1338809   5.5770903 134.9196720  50.3643513
   5.9611254 134.6379852  51.1946487   5.3989153 134.1051006  49.8942852
  67.0109701   0.4792672 103.8623347  67.7446699   0.6457024 104.4541254
  66.7010307  -0.3933544 104.1046097 109.0949535 139.5922947  35.0813317
 108.2822418 139.1477203  35.3223681 109.1968727 140.2789688  35.7403564
 119.0732098 144.2526722  22.9731035 118.3268166 144.8471737  23.0485749
 118.6862469 143.4124374  22.7271605  18.9270907  71.1893654  34.2047977
  19.1462260  70.2580214  34.2332458  17.9780226  71.2084579  34.0817213
  11.0813647  28.2064801  48.4485340  11.4357501  28.3656674  49.3233490
  11.7908412  28.4514027  47.8544903   8.5500365 130.9493446  14.9516630
   8.2838660 130.5338955  14.1314244   8.6600905 131.8733788  14.7274351
 116.8865681 109.8666954  47.3133039 117.2748661 110.6898975  47.0170116
 116.5625095 110.0578403  48.1934595 115.4753876   8.8655072  21.2992334
 115.2713871   8.6523323  22.2098184 116.4186001   9.0285759  21.2969518
   7.7733546 128.4068775 108.3599734   7.0585661 128.1053448 108.9206756
   7.3420745 128.9227867 107.6787432 102.0352173 142.5158024  43.5513735
 101.8088341 141.8306637  44.1803122 102.2174358 143.2853127  44.0907192
  88.2840633 145.7591820  39.1709828  88.7387848 145.6043053  38.3430457
  88.8723278 145.4041100  39.8373914  88.6346626   8.1001931  24.4187951
  88.4588528   8.0176525  23.4815073  87.7697945   8.0726605  24.8280430
  13.7969523 136.5946579  52.8624582  14.5403796 137.1930885  52.7888346
  13.3664256 136.8468857  53.6793137 120.6997871 108.9171505  84.8771572
 119.9652290 108.6478710  85.4286480 121.3560104 109.2415333  85.4938984
   3.3645182   1.6658478  28.8324618   3.8019400   2.3551731  28.3327341
   3.4683066   0.8792382  28.2970238  78.9811945 115.5089569  40.3707075
  78.9831877 115.2362633  41.2882423  78.1378508 115.2073383  40.0330305
  96.7918777 146.0587215  32.0795178  97.7067471 146.3267803  32.1654892
  96.7612076 145.5723667  31.2556553 106.4623451 134.3644905  84.4533539
 105.9518909 135.1233006  84.1707039 106.1941051 133.6615181  83.8616562
 110.8067799 127.1048450  18.1493545 110.7023335 127.6454639  18.9323306
 111.7028713 126.7729950  18.2052112  84.0153599 123.9816856  18.5943735
  83.4063148 124.4275284  18.0057108  84.8114491 124.5121765  18.5619581
  24.0123206   0.6478005  68.4409714  23.9106207  -0.2013988  68.0111599
  23.4174090   0.6099682  69.1898870  31.9681674 140.7071209  40.8813667
  31.1399298 140.3550720  40.5553150  32.5160151 140.7921410  40.1010609
 107.3579121 116.5895081  36.2073517 107.1914101 117.4070072  35.7380843
 107.8332901 116.0454559  35.5794525  90.3364277 132.2069740  94.1898537
  89.8561764 132.2067547  93.3618546  90.7387638 131.3395405  94.2336082
  10.6768923 128.6088562  41.3803530  10.7819491 127.7185345  41.7157888
  10.0927954 129.0340137  42.0082855 123.6718082 120.5827236  66.3349819
 124.3781853 120.3285503  66.9288301 122.8753471 120.2648830  66.7602682
  92.4771309 138.1666279  73.6277008  92.2612476 138.6184883  72.8119516
  92.5882053 138.8690281  74.2684221   3.6623698   1.1685257  80.9595776
   2.7449828   1.0092240  81.1814880   3.6306983   1.8378525  80.2760315
   7.0036917 114.5102406  70.4171133   6.9024783 113.7782478  71.0255384
   7.6167899 114.1890812  69.7559023   2.6525050 100.6298161  34.1365409
   2.9910403 101.2030220  33.4487486   1.8498927 100.2611542  33.7675691
 120.7928848 126.6738129  29.4267225 121.2556362 126.1691189  28.7578630
 120.1701832 126.0538960  29.8064351  20.0326281  21.4122372  68.8074684
  19.9592810  21.5008717  67.8572083  20.9218913  21.0879307  68.9498425
 119.0609169 141.7389107  50.3841782 118.5927773 141.8220615  49.5534182
 119.9827576 141.8505573  50.1518536 113.8063431  12.9872589  12.0160258
 113.6795807  12.0387059  12.0361197 114.7341251  13.1092339  12.2174776
  86.2156582 139.3232155  41.1535168  86.1631393 138.5977554  40.5312824
  85.8069992 140.0593567  40.6981897 119.4216251 145.8650684  26.0049677
 120.0780201 146.4230537  26.4221358 118.6743355 146.4444542  25.8562732
  88.5270596  21.7330532  15.9899354  89.2435551  21.4057713  16.5337694
  88.9387608  22.3766308  15.4132628  14.6002799  20.4563313  58.2832146
  15.0356799  19.6790104  58.6331606  15.3122550  21.0724240  58.1107616
  25.8578234 111.5647507  31.2513423  26.2916213 111.5889931  32.1042538
  26.5043860 111.1720467  30.6648540 118.1604195 133.8047314  40.1575708
 118.9909840 133.9565468  40.6085157 118.3893204 133.8030052  39.2281461
 100.3391266 128.4777737  37.5482488  99.9605751 127.6182175  37.3635983
 101.2347126 128.4216595  37.2150445  12.9748278 130.5719757  27.3871398
  12.0651846 130.8119011  27.2104812  13.4392005 131.4079380  27.4290872
  14.6478491 143.0038834  30.1534534  15.1744204 142.2063637  30.2074432
  13.7469225 142.6909733  30.0718641   8.2034808 142.2707081  53.7986469
   7.2502070 142.3322773  53.8595676   8.3926993 142.3968315  52.8688526
   8.3052092 129.6681595  81.1412621   8.1568652 128.8977718  80.5928802
   8.7136775 129.3222237  81.9348049   6.2195807 136.6169930  21.4679837
   6.7641574 136.0291576  21.9915390   5.7877570 137.1795368  22.1108699
  94.3101025 112.4891949  22.8408599  93.7763691 113.1339550  22.3764825
  93.8947678 111.6491890  22.6456165  94.8196697  99.7381020  53.1069326
  93.9132309  99.4452381  53.2008791  94.7996426 100.6624222  53.3548307
  84.5066547 113.0987644  37.6400900  83.8889980 113.5410500  38.2224250
  85.3668308 113.4088135  37.9232669  71.4594269 122.5112152  40.2742100
  72.1388721 121.8372631  40.2547836  70.7369137 122.1375275  39.7696638
  74.2037439   2.4554806  36.6900659  73.8572979   2.9347592  37.4427247
  74.4421053   1.5976124  37.0414567 114.1709328 138.0280113  56.0269213
 113.9658928 138.0805492  55.0934172 114.3901730 137.1077061  56.1725616
   9.4764262 144.8610592  37.0713973   9.2426806 143.9338684  37.1150899
  10.4203826 144.8628712  36.9127440 123.5658932 121.4402962  36.2294841
 123.8907719 122.2574520  36.6075587 124.1549778 120.7675362  36.5709710
  11.1559992  11.6225033  34.5119905  11.3859492  12.3674851  35.0672936
  11.9827300  11.1587982  34.3788791 100.7082748 125.5247688  43.2444096
  99.7900772 125.5394554  42.9743862 101.1244583 126.2052059  42.7152252
   3.1714850 131.4108276  62.7799892   2.3848754 130.9758663  62.4509144
   3.7609606 130.6941700  63.0148315 117.7823067   3.3406048  54.5665741
 118.3610630   3.4498482  55.3211212 117.8934288   4.1457348  54.0609455
  10.0871211 118.6846352   7.2319484  10.6380492 118.8047791   8.0054319
   9.8792773 119.5739937   6.9454461 115.0794983 128.5261440  30.0944257
 114.7443676 127.6957417  30.4325819 116.0313034 128.4270859  30.1164675
 113.3528233 129.0440845  25.8623815 113.2240868 129.9835396  25.9930611
 114.0920448 128.9855385  25.2571106  76.5819740 109.3318653  53.4443521
  76.0261583 109.8395824  52.8531456  76.3450718 108.4205532  53.2722378
  89.7917747 107.0688534  52.0057154  89.6153450 106.1854649  52.3293352
  88.9339638 107.4042511  51.7451572 113.6866188 117.3065376  68.8043165
 114.5480347 117.6244259  69.0747786 113.4651279 116.6358757  69.4503689
 120.2838135 137.9181004  31.6315484 119.9032688 137.1714401  31.1690521
 121.1078644 137.5850677  31.9868851  93.0598164  16.7446118  32.1742988
  92.8423405  16.5456753  33.0849910  94.0122890  16.8395024  32.1707296
 102.3135090 117.3027611  64.7347116 103.0515003 117.4038410  65.3358555
 102.6836109 117.4779224  63.8695145 110.5502224  95.5397224  90.7710171
 110.1620579  94.6694756  90.6803036 110.2915478  96.0016632  89.9735641
  29.2815428 102.1820164  27.9507852  29.0892439 101.6720772  28.7376833
  29.0858012 103.0859566  28.1973910 105.3888416  96.4046097  44.1153240
 105.0752831  96.7939663  43.2990408 104.6304607  95.9361172  44.4640350
 123.3198547   1.8134098  36.9272923 122.5070190   2.2791748  37.1237397
 123.1019783   1.2560540  36.1802173 113.1701756 134.5791340  48.5436201
 112.2942638 134.2033958  48.6321306 113.3365917 134.5793247  47.6009989
 112.3376942  91.9140434  59.6867085 112.8307343  92.1222782  60.4802990
 112.3669815  92.7183628  59.1685820  13.2400446 137.9935551  64.1276598
  13.5431128 138.6460972  64.7589874  12.8194743 137.3202038  64.6623945
 117.9705620 100.8116531 108.2991984 117.1534443 100.7139111 107.8103282
 117.8969383 101.6682529 108.7199567  83.7147617 125.1020908  95.2978631
  84.1992950 124.5452690  95.9072932  83.1697845 124.4935417  94.7989532
 121.2344265 125.3305244  58.5075665 121.6883850 125.7551670  59.2354631
 121.8942833 125.2691936  57.8168631  92.4380970  10.3210907  33.9209104
  91.8507767   9.5652848  33.9131474  92.0844746  10.8922081  34.6028280
 112.7089691   5.3769474  20.1639175 112.4131393   4.4858914  20.3502774
 112.4709511   5.8765965  20.9448981  94.2428970   9.6087056  48.9158010
  94.5867062   9.7228985  49.8017931  94.5315075  10.3901368  48.4443188
  25.8109027 141.9838333  74.2845488  26.3582163 141.2237549  74.0871477
  26.2064295 142.6995087  73.7869453  91.0694313  90.9303951  21.5425634
  91.5192032  90.8610058  20.7004738  90.4920387  91.6874599  21.4440370
 109.0718746 120.8396244  54.1904688 108.8937569 121.2222958  55.0495768
 108.6555195 119.9782562  54.2209625  10.4410582  89.3229485 104.3899598
  10.3010588  90.0442028 103.7764271   9.9734336  89.5880413 105.1819744
 123.0114460 124.4074249  56.3058805 123.3544540 123.5167694  56.2329245
 122.8225613 124.6659756  55.4038286  83.0512047 126.2052536  22.0694852
  82.6983833 126.7061806  21.3340831  82.4749088 126.4189434  22.8032804
  72.6417875 128.3459759   5.9539813  73.3406782 128.8650417   5.5560505
  72.6257515 128.6272049   6.8687946   5.4054576  27.5747471  44.6590805
   5.7775336  28.2252865  44.0636015   5.9175425  27.6650601  45.4627228
   6.8736010 118.3314991  64.2877579   6.9147521 119.1645527  63.8181210
   7.7191763 118.2645893  64.7313309 110.3207493   9.5503693  57.7825451
 111.2061501   9.5541745  58.1462431 110.4501438   9.6171646  56.8364859
   0.9417468 125.3549767  18.6457062   0.6247359 124.4803524  18.4204078
   1.2770777 125.7078648  17.8215337 120.7166958 140.3921509  65.8399296
 121.0949421 141.2058926  66.1730671 119.7731781 140.4998684  65.9598923
  13.5433894 126.8411350  17.3818684  14.3922167 127.0929527  17.7456057
  13.3808165 127.4804974  16.6883135  94.2175102 129.0402126  59.4677925
  93.3108807 129.1192913  59.1711664  94.7384834 129.3735504  58.7372398
   0.1850348 124.0194798  59.9343204   1.0695963 124.3020153  60.1666021
   0.1967650 123.0702686  60.0572300 105.0434017 106.8679810  61.6836596
 105.2251530 107.0726299  60.7664251 104.8475075 105.9310436  61.6857433
  86.2841702 130.8567905  54.3135452  86.4135361 131.3691330  53.5154200
  86.4494324 131.4756393  55.0248384 101.1125565 129.7926903  24.8429608
 100.5127335 129.2458630  25.3503299 101.8642616 129.9236393  25.4209161
  80.3936768  30.0394039  36.4598322  80.5216122  30.8541279  36.9457197
  79.6501446  30.2181225  35.8841062  95.9409428  12.3366814  74.6780157
  96.1374378  11.4130574  74.5213556  96.5712452  12.8109627  74.1357851
 109.0939045 118.3202744  42.1113825 108.3916855 118.9705944  42.1255541
 109.8811150 118.8223648  41.9005632 102.7956390 120.7156467  56.6396904
 103.6580086 120.8196545  56.2375212 102.6855278 121.5003967  57.1766043
   2.1254759 141.6018295  44.8011303   2.2196227 141.4176941  43.8665390
   2.4387198 140.8078766  45.2344275 116.7065620   7.5625496  43.6416483
 116.7597485   6.7531090  44.1497946 116.0399818   7.3853379  42.9779530
 107.8976917 108.7286091  99.0653610 108.1072807 108.0526638  98.4208393
 108.7445450 109.1107178  99.2957115  98.2094479 138.6933327  31.0804296
  98.5659695 139.3782234  31.6461539  97.2891998 138.6270523  31.3353586
   8.3642321 139.1395569  26.3471580   8.5504847 139.9288940  25.8387399
   7.4699622 138.9021492  26.1019039  27.4609976 117.1668339  19.7373128
  27.1812373 118.0734539  19.8638129  28.3356886 117.2372150  19.3549633
   3.1089335 130.7977390  69.1113329   2.2832614 130.3212929  69.1979218
   3.0416136 131.5109634  69.7461605  22.9678851 113.9576149  43.5662889
  22.3583155 113.3896923  44.0375853  23.6620646 114.1414261  44.1991854
  77.0212030 145.5339527  47.6671743  77.9416227 145.2966976  47.7801991
  76.7075872 144.9532890  46.9738436  99.2205524 113.4748936  28.8679719
  98.3964348 113.2814407  28.4211612  99.4021511 112.6905537  29.3857241
  97.2233963 117.4350262  51.5472317  97.4453831 117.4293041  50.6161451
  97.3292542 118.3484554  51.8130827 111.4179993 127.1216011  11.5852666
 111.7725945 126.2863064  11.2806821 110.4693794 126.9937420  11.5842366
  18.1705790 130.8593273  35.6774712  17.6337748 130.1554108  36.0415816
  19.0592414 130.6595421  35.9717369 122.5873375 122.9034424  11.2155521
 122.6976681 122.8322029  10.2674043 121.7502975 122.4740314  11.3922107
 107.2183323 144.6105957  66.5138483 106.3807011 144.6056652  66.9770718
 106.9984627 144.3528652  65.6186008 116.6347504 146.1749554  56.4010668
 115.7656765 146.4798069  56.6618538 116.4762592 145.6312561  55.6293726
 114.7351360 138.1894016  79.4167948 115.0153923 138.4964180  78.5545683
 114.9206734 137.2503948  79.4086409  11.0765868 138.8585472   9.7094971
  10.9946757 139.3242359   8.8772362  10.1760226 138.6465549   9.9549836
  12.5026160 141.3444042  67.8017092  12.2738391 140.4153347  67.7751255
  12.4655371 141.6264439  66.8877554  96.4882565   3.1997662  56.4189434
  96.9553089   3.9502125  56.7862606  95.7957745   3.5872536  55.8836460
 112.8873253 138.0251694  53.7464046 112.0147038 137.8954315  53.3750105
 113.4862804 137.7459335  53.0539417  96.9251728  92.7521896  31.4983296
  97.5275040  93.4879494  31.3884068  96.7741871  92.4313641  30.6092262
  91.1290073 132.6346874  53.1533861  90.8102322 131.7376614  53.2532072
  91.4053726 132.8899956  54.0335417  80.3874111  32.1855145  55.3538656
  79.9293184  32.7607708  55.9666061  80.4765606  32.7073841  54.5564079
  97.4552917 102.8029060  12.9150641  98.0460167 102.4678802  13.5896277
  97.4602222 102.1284199  12.2358930 105.0377178  33.2624035  92.5527477
 105.9145546  33.2830601  92.1693707 105.1519394  33.6242848  93.4315109
  12.5849372 110.2086067  23.3576798  12.5633460 109.3824100  23.8405466
  12.9651862 109.9803925  22.5094104   2.0298129  96.8156147  63.9230776
   1.6294985  96.0402298  63.5297012   1.7246752  96.8085670  64.8303127
 105.0098419 115.8167076  92.7134323 105.8598995 116.2521648  92.6502419
 104.5580482 116.0546684  91.9038105 124.5778370 143.8750935  36.4751649
 124.3044281 143.6856079  37.3727036 123.7790203 144.1714764  36.0389566
  91.7751026   8.7642460  47.5265360  92.6231480   9.1963177  47.4247026
  91.7288494   8.1514531  46.7926550  21.6211157 103.8005829  27.9428577
  22.3031455 103.9633465  28.5944510  20.8182078 104.1255474  28.3502555
  17.9655963 126.9888496  62.5358438  17.3433142 126.5698051  63.1303263
  17.4226409 127.5328350  61.9653082   0.1242667 135.5780315  77.7381039
   0.7147246 135.0829124  78.3059597  -0.6954832 135.6274414  78.2298326
   4.0055876 139.5313263  46.3391876   4.4000464 138.8691330  46.9067574
   4.7216349 139.8184013  45.7725382  79.4752121 116.0920143  22.2171426
  79.8363543 115.9213257  21.3472748  79.3182898 115.2228355  22.5861049
   3.5488539 143.5464668  63.7105036   3.0390673 142.7719116  63.9479971
   3.0862265 144.2742825  64.1258287  10.6608515   8.8323002  17.9104185
  10.2471953   8.7522106  18.7698984  10.9396678   7.9423218  17.6949370
 102.6300907   5.2499466  37.4230909 101.8058491   5.2858334  36.9377375
 102.9823685   4.3804818  37.2329187  98.5557079  14.6215802  65.0005102
  98.8782787  15.3750782  65.4948902  98.7002468  13.8744717  65.5811691
 121.4529991   3.5872345  41.1246824 121.1973667   2.7569180  41.5264988
 121.1799335   3.5052185  40.2109337   9.6240836 122.2216415  58.1181526
  10.3226119 122.8001213  57.8121281   8.8158064 122.6832676  57.8949547
  25.1677733 128.2372093  58.3541727  26.0956698 128.4153843  58.2008648
  25.0128584 127.3928833  57.9306793  21.7035609 118.2311249  91.0887810
  21.6739112 117.6908779  90.2991673  20.8029967 118.5335636  91.2060198
   1.1306696 118.1691837  41.9922924   0.7143527 118.8982964  42.4519682
   0.9842425 118.3557892  41.0649490  23.5910731   7.9952889  38.1524992
  23.7169295   7.9070359  39.0972781  23.3478575   7.1168595  37.8601861
 113.8143539   1.7622929  28.0534554 113.9358425   0.9442978  28.5354972
 113.4615612   2.3720532  28.7014937 108.5063457 132.2960186  29.7983289
 108.5360432 132.7748489  30.6266260 108.3377266 132.9688072  29.1386604
  10.3076678 119.9719906  15.0318134  10.5617266 119.7115135  14.1464686
   9.5434790 120.5344963  14.9059725   5.1257639  17.1767407  40.2031517
   5.1572638  16.5924054  40.9606409   4.6966391  17.9680043  40.5287218
 119.6007824 135.7050610  29.9589038 119.9048519 136.0722256  29.1288662
 118.8301468 135.1881123  29.7241282 109.3151760 143.8179111  21.7926359
 109.8784351 144.1457748  22.4936891 109.4378948 144.4403839  21.0759068
   1.2524539 137.5257778  31.3391066   1.6425734 137.8989983  32.1295118
   1.8318587 137.8061867  30.6306648  11.7506247 141.6953468  25.2109885
  11.0021906 141.1001205  25.2530622  11.8930846 141.9655132  26.1181545
   0.7138472  20.7252293  35.2171612   0.3286105  21.0956364  34.4230509
   0.3021269  19.8655300  35.3045917 101.4363956   0.9559899  52.6151896
 100.8752155   1.2127762  53.3468819 102.3274899   1.0856610  52.9397917
 112.6991177 130.2786160  18.4219503 113.6301422 130.3071594  18.2014644
 112.6718426 129.8898792  19.2962325 122.6709843 129.0912533  36.5330243
 122.8963757 130.0188637  36.6034532 123.4053993 128.7016869  36.0585642
 117.0735264 122.8538418  26.3657331 116.1918354 122.5078392  26.5040803
 117.6530933 122.1171761  26.5597749  97.4496078 125.6136990  35.6733990
  97.1353912 126.3963985  36.1260438  97.2058773 124.8895264  36.2499356
 118.3893013 133.8947296  17.2500896 118.6418247 133.3094406  17.9641604
 118.9636326 134.6541500  17.3483765 118.7341404   1.8926411  23.3875513
 119.1950035   2.1239930  22.5811338 118.2748032   1.0798912  23.1761670
  18.8549834 140.6897736 103.6083325  19.7752028 140.9426403 103.5343268
  18.4049349 141.2310982 102.9597470  80.9144497 119.1175365  18.8929272
  80.4716396 119.8848438  18.5304546  80.9757996 119.2973328  19.8310840
   3.4555274 124.8257160  20.0643277   2.8889685 125.0866222  19.3382597
   2.8869944 124.3140793  20.6398606 115.1853561 119.4919491  22.5319290
 114.8575020 118.5927105  22.5416827 115.5411243 119.6076393  21.6508627
   8.6962729   4.4925194  36.4083433   8.3880931   3.7250214  36.8902183
   9.4039183   4.8456364  36.9475818 116.6956806 114.9733543  39.2351103
 117.5163460 115.4643154  39.2762208 116.7446804 114.3628883  39.9707484
  88.4095955 129.0825272  43.6380863  88.3699989 128.1451321  43.4484911
  88.1412125 129.5036125  42.8214455  71.4250374   8.5754185   4.2954826
  71.2599087   8.2354527   5.1749092  70.6381273   8.3493023   3.7996218
 120.7346916 139.8253918   9.1857845 120.1947117 139.1913509   8.7139338
 120.3475571 139.8659039  10.0602627 112.3125553 128.2049656  42.3562431
 112.5550842 128.8573551  43.0133581 111.9207573 127.4916553  42.8601408
  95.0543118  98.7565041 108.5061213  95.8514404  98.2279396 108.4684532
  95.1773262  99.4238758 107.8310525  92.5605297 110.2382755  22.2930336
  92.1562576 110.6647396  21.5374327  91.9485092 110.3947258  23.0121946
 115.2141476 133.5159874   9.5451528 114.6801472 133.3252144   8.7740004
 114.7478008 133.0976677  10.2688682   9.9977809  29.8014813  36.6114879
   9.1315489  29.5272808  36.9126129   9.8230200  30.3493481  35.8462811
   4.7333079 126.7650986  21.4772487   4.2789679 126.1881828  20.8632612
   4.3009596 126.6093349  22.3169208   6.0931140 123.7249374  20.8313966
   5.8519679 124.3332386  21.5300083   5.2579814 123.4585953  20.4468846
  73.8986540 129.6003914  46.0522270  74.0099955 128.7704372  45.5885363
  73.2393932 130.0724030  45.5434942   7.6442938 130.6390953  54.4009256
   8.3728152 130.7104397  55.0176954   7.4277716 129.7067451  54.3928099
  17.4806815 131.7419243  39.9222326  18.3513289 131.3460255  39.8838544
  16.9324523 131.0752487  40.3360271  88.3936310 119.6913052  35.6132555
  87.8216362 119.8654556  34.8657727  89.1619587 120.2412605  35.4601526
 114.8385334  92.8191376  15.8884251 114.0985680  92.9036236  15.2871370
 115.5915356  92.6567459  15.3202260  12.3748808 114.4623375  12.2326577
  12.1317607 113.6593723  12.6934958  11.6736537 115.0796986  12.4409211
 118.6187649 107.9506397  62.0259285 118.2073784 107.1827698  62.4226332
 118.1708145 108.0555439  61.1865425  99.0018749 129.1665649  30.5141950
  98.6747742 129.6894264  29.7821736  99.9282932 129.0299892  30.3158665
 107.7740383   7.1384507  39.6293163 108.3305454   7.8549939  39.3242145
 107.7404690   6.5301876  38.8909912 110.6578541 125.8236027  32.6520824
 110.9844112 126.1960030  31.8329906 110.6890202 124.8769283  32.5140023
  12.8321772 129.8290730  40.2211189  12.8529482 129.4854832  39.3279576
  12.0080405 129.5040989  40.5836487 110.9670639 139.8299980  47.9151344
 110.5087757 139.9182415  47.0794249 111.8495750 139.5470810  47.6756287
  91.1175823  93.7013817 105.3521519  90.7476234  93.1358814 106.0300698
  90.9815216  94.5899773 105.6809615 121.9685173 135.3586197  12.9649282
 121.1848068 135.7305336  12.5603080 121.9868469 134.4509125  12.6616871
   5.2403479 137.6719379  47.8884220   5.2212172 137.3472404  48.7886667
   6.1140376 138.0500221  47.7886868  41.5767031 145.1949024  29.7669268
  41.8535739 146.0956478  29.9349475  41.7736369 144.7283363  30.5791831
  74.1506720 124.9168301  35.8137107  74.5382500 125.7419872  36.1054707
  73.2857704 125.1615810  35.4846644  99.7427940   4.2546826  21.8282700
  99.1241932   3.6334400  22.2124934  99.2344952   5.0572377  21.7108607
 102.6686287  85.9623337  50.4343367 103.4739017  86.4577293  50.2848244
 102.7340126  85.2141666  49.8408699  12.3028689  13.6727124  36.0923195
  13.2316142  13.5154705  35.9222364  12.2720271  13.9621907  37.0041752
 107.6644421 133.7456703  27.4646974 108.2349014 134.4102192  27.0784426
 106.9061375 133.7126446  26.8815017  99.0657139  15.4571133  23.2449150
  98.4694386  14.9418812  23.7882543  99.7648621  15.7228642  23.8422370
  97.0946503 110.4336834  25.8218241  96.5869904 110.5149841  25.0144219
  97.1348476 111.3243294  26.1701894 106.9834709 120.7665062  93.7105020
 106.3837910 120.1155567  93.3459576 107.1803093 120.4446983  94.5902308
  94.5692539 116.7694092  58.0404568  95.0294781 115.9668446  58.2860613
  93.8827991 116.4778137  57.4404716  11.6856700 125.7735062  87.6145633
  11.3580733 125.0138950  87.1330031  12.6359397 125.6589890  87.6248201
  60.7002640   4.3108921  34.6773267  60.3622389   3.7129956  34.0106273
  61.6512632   4.2682820  34.5772457 110.2032566 131.9406700  63.8795614
 110.4937744 132.7855587  64.2230797 110.2918720 131.3384819  64.6183109
  11.4020281 141.7292309  48.0531263  12.0263606 142.2463226  48.5620880
  11.8145876 141.6325378  47.1948290 123.8637733  10.0113182  21.0547471
 123.8020802  10.0190907  20.0995684 123.3272934   9.2654782  21.3233423
  69.8571157 132.1347427  31.8894815  69.0979099 131.5564156  31.8161416
  70.5866194 131.6166210  31.5494728  78.9150715 127.4776936   1.1267477
  79.6603107 128.0591679   1.2775235  78.5978651 127.7158451   0.2556017
 120.1322746 106.8967438  19.4600224 119.2025185 106.7501545  19.2859602
 120.3010941 107.7798653  19.1316485  93.1598377 135.8559895 109.4306127
  93.7250328 135.7077789 108.6724463  92.8228569 134.9877357 109.6515246
 104.5636368   2.1209317  36.0268688 104.5224762   1.1657601  35.9802032
 104.1328049   2.3391419  36.8533134   5.8491068 144.5766640  13.3915186
   5.4324847 144.1906166  12.6210487   5.1233416 144.9374294  13.9007699
 115.5406284 133.4187794  46.2611723 114.6179485 133.6652088  46.3258648
 115.9996796 134.2457867  46.1143208 111.7619133 123.7957478  36.8553782
 111.7620468 124.7137547  36.5842986 111.2114525 123.3549595  36.2081289
 109.6247578  45.7416134  41.5978289 109.8912716  46.5472775  41.1549664
 109.8282146  45.8967762  42.5201988  81.9315529  19.7939473  21.4144945
  81.5511322  19.7751980  22.2926545  81.7112160  20.6619625  21.0765219
  87.7152443 122.7125454  32.4651384  86.8768978 123.1731987  32.5000024
  87.4979782 121.8037415  32.6727581 100.1821518 129.2713642   7.6672083
 100.6463909 129.4905376   6.8593228  99.5487309 129.9801922   7.7793002
  97.0927620 116.9198036   7.2026330  96.8325806 116.0002327   7.2567856
  96.2717438 117.3935795   7.0695931 108.6436462 127.2122002  12.1576548
 107.9244232 127.8169060  11.9752192 108.6839390 127.1692276  13.1130409
  11.6737109 134.9839020  14.8308551  12.2340899 135.5382156  15.3739393
  12.2067004 134.2099667  14.6486926  82.1350193 120.9109974  36.6318703
  82.3961067 120.3271580  37.3440433  82.9438400 121.0730648  36.1462951
   1.2176638 145.6641102  34.9891472   1.1096697 144.8021126  35.3910518
   0.3249198 145.9557056  34.8042250 118.1651402 125.1318455  18.3245599
 118.3886147 126.0596466  18.2506096 118.6234760 124.8370647  19.1114926
   1.3753825  15.8452969  40.8181906   0.6375056  16.4406758  40.9496927
   1.5255385  15.4560643  41.6796827  84.1545296 139.7434330  30.0094414
  83.5126591 139.1402817  30.3841996  83.6311436 140.3701401  29.5098972
 123.5302448  30.4728108  19.7719812 124.1856766  29.8789769  20.1380682
 123.9912987  31.3055592  19.6710765   4.1004019 144.6859646  27.2035909
   3.9520102 144.1965485  26.3944650   4.9818545 144.4332123  27.4781632
 123.8952637  25.7917576  93.1884738 123.6404037  26.6885548  93.4053715
 124.6483326  25.8910160  92.6060065  90.4788303 106.3877583  21.2593579
  89.7704792 106.9743061  21.5247464  90.0457573 105.7067585  20.7446623
  99.7741318 138.5171700  16.3529861  99.8760796 138.0465603  17.1802497
  99.6257591 139.4267654  16.6115797  87.4719334 135.9939671  60.7044554
  87.3140717 135.3456211  61.3907242  87.5122261 136.8297672  61.1692667
  99.1322994 125.4634857  54.0046453  98.6106014 124.6742916  53.8589430
  99.9139309 125.1529217  54.4616413 115.4938316 137.9571438  42.1187067
 115.7078838 138.6637688  41.5095329 114.7195053 137.5408459  41.7400837
  27.8145438   0.4657917  41.7789412  26.9174128   0.2221279  42.0070076
  27.9797202   1.2656956  42.2780371 115.4911041 112.3980808  14.5082712
 116.0842609 112.6675701  13.8070011 114.6337318 112.7248669  14.2355824
 102.9553413 141.6306782  23.2672310 103.2781792 142.3691750  22.7508664
 102.1340466 141.9441128  23.6460114 109.3179798 103.2414818  46.3529348
 108.4327316 103.5912609  46.4540386 109.8146820 103.6358929  47.0698452
 107.5041866 134.2567730 107.4871472 107.9279518 135.0851345 107.2625014
 106.6247368 134.5067501 107.7705316 106.3505840 114.1514969  17.8486454
 106.5736198 113.2233524  17.7777016 106.7228508 114.4238567  18.6873794
  16.7801886   7.7307492  29.5528364  17.6784831   7.4693947  29.7553229
  16.2386256   7.0343762  29.9243164  77.8239489   3.2722645  39.2806554
  77.5743580   2.9444104  38.4166861  77.3453760   4.0962391  39.3715858
 116.6173172 128.1967258 109.3328247 116.0334873 128.3669853 110.0720063
 116.4604568 127.2791004 109.1101354 106.3525486 120.1053810   4.0190676
 106.8236351 119.6749496   4.7325295 106.9793987 120.1254940   3.2959598
  99.1659737 115.0680733  13.1991065  99.2687416 116.0197353  13.2026374
  99.8378849 114.7568607  12.5925469  90.8901691 136.5615177  20.6220770
  91.7190647 136.1978626  20.3107691  90.4632664 135.8329868  21.0728741
 106.1204052 119.6409607   8.2987291 106.2452126 120.4794693   7.8542429
 105.2136421 119.4011974   8.1076169   3.6089354 111.5697765  28.0369997
   4.4426852 111.1148453  28.1558490   3.0009299 111.1108875  28.6166430
   8.1486636 141.6726208   4.0214947   8.6977702 142.1613979   4.6345273
   8.1661826 142.1920395   3.2176769   0.3655272  94.3186665  33.6936498
   0.8853179  95.1135731  33.5745835  -0.5407113  94.6260834  33.7152267
 113.5509491 112.5088501  60.9988785 112.8498077 113.1603622  60.9858418
 113.6661148 112.2625446  60.0811100  96.2517071 135.0242805  40.6903887
  96.5112877 134.1948700  41.0915422  95.3985023 135.2207851  41.0772562
   6.0869246   0.6708317  52.7827263   5.2561694   0.9188633  53.1884003
   6.3953620   1.4720040  52.3593855  91.2955570 128.9719486  26.7126751
  91.1328030 128.0945492  27.0589471  91.1430740 128.8899994  25.7712579
  18.6297160  41.2380390  36.6056275  19.0694457  42.0795040  36.4839721
  18.0866843  41.3619023  37.3840952  87.0730686 120.1969814  33.0784440
  87.0097065 119.2511272  32.9458261  86.1656475 120.5014801  33.0689406
 117.0634747 139.3960476  28.7763381 116.9710445 140.2314758  28.3183479
 117.9482651 139.4193363  29.1408110  74.1062737   1.7939930  20.8511424
  74.7021723   2.2825795  21.4189553  74.6816826   1.3276177  20.2448153
 115.6923866 128.8382339  24.0287638 115.5143166 128.0027199  23.5969734
 116.4716434 129.1750717  23.5865736  65.3780079 110.1242542  26.1559010
  64.8151779 110.6239128  26.7473364  64.7916698 109.8300076  25.4588675
 100.7997417 134.0873623  35.9044266  99.9719334 134.4291782  36.2422562
 101.1005783 134.7547245  35.2876973  16.0279017 124.8125935   1.6105187
  16.0917597 124.0473557   1.0390569  15.1430159 124.7678471   1.9727361
  18.5472994 128.4143257  32.3110676  18.6865931 128.0604935  31.4326429
  18.7215739 129.3513298  32.2222614  35.0197249 125.6548595  24.3522573
  35.5363017 125.1030827  24.9395466  34.2995196 125.9745312  24.8957181
 115.1224232 123.6993504   7.2112620 115.4591084 124.5936584   7.2668999
 115.6813431 123.1957531   7.8030586 101.0424995 143.8972855  17.2464275
 100.8228779 143.5985565  18.1289017 100.2974606 144.4380379  16.9842696
   4.7787886 119.2697239  37.9129505   5.5438262 119.1390610  37.3526978
   5.1269179 119.6893978  38.6996555   7.2519904  23.3273678  53.7958002
   6.5717154  23.2794171  54.4674873   7.8840952  23.9585476  54.1397238
  11.4514189 132.8363132  23.4663630  10.7590418 132.9864883  24.1100192
  11.8505126 132.0080566  23.7327194   7.9419833 134.8581791  18.4175444
   7.4323016 134.3462944  17.7895057   8.8473635 134.5841599  18.2711697
 105.3605366  11.4887696  30.8773375 105.8279419  12.1758061  31.3524604
 105.6346226  11.5982991  29.9667811  84.0657806   9.3738633  33.7675667
  84.4714260   9.0654736  32.9572749  83.1249046   9.3198376  33.6000371
  87.5137043   9.7490101 106.6724797  87.7356148   8.9953881 107.2193279
  88.3355236   9.9816494 106.2403637 114.3190575 108.8219452  13.2343340
 114.1139793 109.1540241  12.3603225 113.4755230 108.8000107  13.6862326
  11.9342833 141.6761971  35.7545185  12.2255831 142.4107075  36.2947750
  12.7311640 141.1745930  35.5824614  87.6972103  25.2432423 102.1596053
  88.0299759  25.0294667 103.0312684  87.3046684  24.4282894 101.8465813
  81.0207081 132.5286865  13.4310412  80.7654762 133.4465218  13.3379579
  81.5609264 132.3510361  12.6610839 114.8212814 128.8130093  57.4387217
 114.8726654 128.6583424  58.3819437 114.0542603 129.3751526  57.3296213
  89.3404293   2.7108937  16.8291962  89.5898533   2.8728657  15.9193718
  88.5232735   2.2160416  16.7690563 101.9990730  11.2482052  33.2365990
 102.1429825  11.9629174  32.6163554 102.4696159  10.5050450  32.8590655
  90.2333164 102.9697227  21.3081884  90.5889988 103.2343483  20.4598451
  89.2871380 103.0820942  21.2167859  79.6770477  81.9857788  10.7526994
  80.1359844  81.1526108  10.8597243  78.7698174  81.7914486  10.9880793
  99.7644520 126.1950684  14.3722463 100.4033470 126.8558025  14.1049218
 100.2939796 125.4412174  14.6321368  85.8479786  18.1809216  15.9279442
  85.3768444  17.7779179  15.1986599  86.4093590  17.4829083  16.2653697
 108.7459087 135.2967548  34.4165993 109.2483044 135.5511093  35.1906419
 107.8890800 135.0432491  34.7598386 111.8377686  11.3460331 105.5922019
 111.7943001  10.4884224 105.1692920 112.7378845  11.6383915 105.4489022
  80.7950783  23.9365750  13.5709596  81.0119438  24.8682194  13.6061800
  79.8387861  23.9118176  13.6046839  83.1179619   2.0841675  14.7224748
  82.4372196   1.4800434  15.0188696  82.7805519   2.4406796  13.9007139
 111.6569614 127.9063511  47.7121925 112.2485542 127.6941586  48.4341526
 111.0176277 127.1939754  47.7091551 107.9469490 111.8372536  22.4482274
 108.1323528 111.1706543  23.1096721 106.9920540 111.9023514  22.4348927
  95.4011631 123.1653881  54.9752140  95.0059891 124.0117359  55.1844358
  94.8064423 122.5216675  55.3601217 111.3819027 121.5384197  26.2619567
 112.0007801 122.0339775  25.7256341 110.5314159 121.6930103  25.8508682
 102.8632641 110.5503750   9.3297285 102.5903225 111.3907051   8.9615256
 103.0556297 110.0056171   8.5665256 120.8505821 119.8116112  18.8316655
 120.9193611 120.7330513  19.0815496 121.1853504 119.7808552  17.9354429
 107.3900414 100.5916786  33.8421559 106.6488171 100.1610088  34.2679906
 107.9493713  99.8720932  33.5496092  94.6186733 130.7778835  53.2435799
  94.4776249 131.3816643  52.5143433  95.5609035 130.6094456  53.2362509
 101.2747574 101.4589977  53.3130312 100.8372021 102.2171497  52.9257345
 100.5621052 100.8627415  53.5428953  94.6423435 146.5156555  19.1137493
  94.7436142 146.0028267  19.9156070  94.9067497 145.9194565  18.4131336
 103.5287094  30.7465153  15.5875528 103.8126850  29.8566037  15.3786683
 103.7755585  31.2629681  14.8203731  32.8037577 128.4956455  19.9961030
  32.9238825 127.5515652  20.0986481  32.6892119 128.6215973  19.0541649
   4.0959197   1.6736775  41.3079596   3.2870989   1.4097672  40.8693218
   3.8799029   2.5061875  41.7280626 118.1272602 125.8637238  35.4393601
 117.9678440 126.1396503  34.5367622 119.0172005 126.1618710  35.6273270
  54.6965790   4.3442898  58.9089346  55.3506804   3.8196068  59.3705511
  54.0046787   3.7218361  58.6852026  96.3296795  15.0766735  18.3157980
  95.6684303  14.6900158  17.7417934  96.0674763  14.8099881  19.1969085
 124.6205902   3.6830120  26.3772416 125.3832912   3.8437062  26.9328570
 124.0803623   4.4665318  26.4795852 101.3839912   5.5323487  24.3571925
 100.7365036   5.6818276  25.0461411 100.8850002   5.1404553  23.6404920
  12.1129828   1.6396790   7.9857534  11.2838870   1.9571286   8.3436000
  12.0087081   0.6889706   7.9468709  93.0070496 108.7631512 101.9496103
  93.5386467 108.2955456 101.3054230  93.5524940 108.7905502 102.7357253
   6.0106974 121.5721607  31.2682819   6.4955454 122.3696804  31.0558844
   5.1161604 121.8717098  31.4304566 119.0254498 115.5211353 101.9295421
 118.9934635 114.5700741 101.8260916 118.2326221 115.7353783 102.4212309
  99.7258472   6.8401223  57.0893621 100.3741455   6.1611348  56.9025135
  98.9188862   6.5177422  56.6879702 122.4665546  79.5353937   2.1924637
 122.0222282  79.8136377   2.9933316 122.1249580  78.6576986   2.0216122
  92.0874119 139.5734501  77.9981669  91.2707043 139.9785423  77.7063974
  91.8236542 138.7157822  78.3314332  19.6524649 114.9516869  33.7444615
  19.4695597 114.3512344  33.0218029  19.7705775 114.3823814  34.5048404
  64.8046255   1.0051232  85.1867255  65.3966713   0.3266697  85.5113991
  64.5849228   0.7259636  84.2978867   6.4264041 126.3354111  40.5417633
   6.3916808 126.8870831  39.7602987   6.8232852 126.8928814  41.2110472
  10.6784564 142.8640366  33.7860417  11.4396411 143.3015919  33.4047461
  11.0439616 142.2932529  34.4619441   4.7047740 124.1814518  24.6334577
   3.8826304 124.4700527  24.2371917   5.2081996 124.9866199  24.7539091
 108.2504082 142.1241951  46.4921141 108.6101532 142.8912640  46.9375658
 107.4526405 141.9168568  46.9787455  96.7316818  15.2037220  13.1945777
  97.3531055  15.8545666  13.5208547  96.0983086  15.7108097  12.6867127
 123.8115978 124.4148350 103.8004746 124.2395592 123.5588360 103.8191851
 123.7101936 124.6521091 104.7222378   3.1903391 142.9693604  41.5462637
   4.0540724 142.6046753  41.3533878   3.3519965 143.6191082  42.2303152
   2.6148062 136.2780952  65.6748390   2.5465899 135.6602669  64.9469233
   1.7339545 136.3063240  66.0483885 116.3763046 121.4745998  99.4688877
 116.5653610 120.5596638  99.6771475 116.2061119 121.4756012  98.5269388
 109.9868202   8.0070763   9.7576004 109.2453003   8.5630493   9.9969453
 109.9966717   7.3206883  10.4246843   1.3298636   5.2401238  96.7609080
   2.0482665   5.8711224  96.7167529   1.7461424   4.4217949  97.0316132
  95.1992798 140.7040596  21.0540628  94.5241642 140.9014893  20.4048538
  95.3094196 139.7545433  21.0039139  88.7237740   2.1497803  99.3842789
  88.1080341   1.4472943  99.5931240  88.1683254   2.8995972  99.1710302
  91.5557003 142.5079155  58.0705214  92.1009445 142.1040726  57.3953533
  91.1979198 141.7692089  58.5629988 104.4651890 137.5055790   6.2331432
 104.5757961 137.5151825   5.2824044 104.0801239 138.3576107   6.4380902
 111.1224079 121.3333225   1.8436423 110.8335209 122.1647167   1.4673947
 110.6666374 120.6666565   1.3297847   0.1694422 119.1937733 109.7264740
  -0.4548902 119.6973801 109.2041508   0.8314734 118.9068985 109.0974739
  44.9043971 145.1596451 106.6530123  44.0875941 145.3762436 106.2033876
  45.2181750 145.9963894 106.9959696  25.8851367  97.5903988  99.0423092
  25.1842909  98.1489086  99.3786415  25.4914599  96.7197037  98.9861795
 115.9264565 119.0472984   9.7434556 116.3589191 119.8265934   9.3943006
 116.4319611 118.3147621   9.3911868 110.7307911 115.6869316  33.4554672
 110.1063156 115.3893757  34.1170764 110.1898956 116.1103344  32.7888393
 124.2905235 111.1303806  25.7967067 124.9785900 111.7782497  25.6448436
 124.6302700 110.5813217  26.5033436 114.5588970 118.7982368  43.8359022
 114.9551487 118.1995106  43.2028532 115.2618408 119.4073200  44.0619802
 108.6118126 112.3969269   4.7822165 107.7721500 111.9376183   4.7667021
 108.8161945 112.5535774   3.8603058   5.7863741 140.5843544   4.8894000
   6.6124755 140.7455730   4.4335470   5.3910952 141.4511299   4.9825671
  99.2485714 111.8639565   4.1702235  99.8957253 112.0250702   3.4835953
  98.8730907 112.7254009   4.3523493  46.9949465   4.0189152  99.5328101
  47.8512507   4.4325619  99.4238290  47.1001559   3.1467324  99.1527435
 108.0729198 104.5191860  94.3208286 107.1550274 104.7650719  94.4359788
 108.2585526 104.7103310  93.4014615 102.1508312  13.7273960  44.5013332
 102.9302406  14.2308407  44.2661810 101.4656258  14.3860035  44.6152210
 107.7686119   2.9737835  16.2561178 107.8047276   3.4054451  17.1096957
 107.0167446   3.3722954  15.8178127   0.4074412  94.2336655   1.0179902
  -0.1219816  93.8713264   1.7283759   0.1207572  93.7574673   0.2387115
  29.7475367 116.5250015   5.8364701  29.3969946 116.1276817   6.6336435
  30.6842738 116.3300323   5.8636153  79.8477173 144.1216564  23.8271499
  78.9098263 144.3071556  23.8737965  80.2628994 144.9841213  23.8304281
  12.4471121 135.4383278   9.8850232  12.9626113 134.9361515   9.2539078
  12.9403334 136.2497711  10.0054979  16.1500006  17.9364758  19.0634155
  17.0057707  17.5186520  18.9669108  15.8929473  18.1650143  18.1701481
 109.6927166 113.0560207   7.0662493 109.2971802 112.8168964   6.2280381
 109.3629742 112.4015999   7.6820618  89.8553085 126.2927055  89.9319121
  89.0278053 125.8320522  89.7931024  89.5977116 127.1543789  90.2596112
 105.7550144 130.0676918  14.3764770 105.8051682 129.2533112  13.8759780
 106.4483738 129.9892330  15.0317013 104.2058182  22.5844364 107.5309425
 105.0603962  22.7194195 107.9404477 103.5750580  22.8541355 108.1985029
  96.1792374 129.9422550  21.7564154  96.4532375 129.0372753  21.6075635
  95.2269268 129.8935413  21.8398809  99.3362617 124.7630310  11.3944113
  99.5127487 124.5631027  12.3137105  99.0012932 125.6596565  11.4043295
  92.0953274 101.6903877  96.8702229  91.3011646 102.1997070  97.0318445
  92.5487423 102.1677303  96.1753889 109.4694710  99.6804714  23.9288568
 109.5601654 100.1330757  24.7673988 110.2273083  99.9667263  23.4189773
 102.3447418 119.0589142  46.9840193 102.3004627 119.7783947  46.3542318
 102.1451569 119.4659328  47.8270674  91.9890881 134.0169525  95.4642709
  91.4072800 133.2593441  95.4029735  91.3995171 134.7708035  95.4831501
 114.8780441 135.9077072  16.6101265 114.3903065 135.9399319  17.4331152
 114.2815113 136.2844944  15.9632766  83.9054489  19.8920803 100.8223339
  83.9251804  19.3805104 101.6311171  83.4816170  20.7140904 101.0691466
  67.0597267 139.5899582  10.7720613  66.3390303 139.3602753  11.3586378
  67.7239943 138.9203453  10.9351778 113.6533928 110.0766182   3.8932228
 114.1241932 110.7963467   3.4730202 112.9578686 110.5045795   4.3925542
   3.2638674 119.3783283  29.9156189   3.1205969 118.5717487  29.4205213
   4.1540270 119.6452332  29.6862650 118.6610985 125.3580570  30.5902958
 118.9588833 124.5039558  30.9034586 118.2100868 125.1676464  29.7677636
 114.2105007   5.7438069   1.0780301 114.3961048   5.5818062   0.1530762
 113.8747120   4.9090939   1.4047103 101.5076542  15.0743466   4.1052181
 101.6096973  15.6559162   4.8586160 102.3416805  14.6081715   4.0478122
  89.0318298 106.2676048  15.2550137  89.6966934 106.2908268  14.5667899
  88.1995106 106.3274193  14.7860825  86.2411880   4.1785031  34.8665905
  86.6874790   3.4884816  35.3574443  86.4288521   3.9795857  33.9492846
 115.3421116 118.6999321  28.2660532 115.6924725 117.9945946  27.7220178
 114.7763443 118.2564545  28.8980842 100.1565075 109.6069622  94.8223456
 100.3322029 110.4707146  95.1955684 100.8336067 109.4918919  94.1556247
 117.9466438 133.2697010  10.4725111 117.1749115 133.7103939  10.1169121
 118.4803104 133.9767075  10.8352482 117.1774578 132.7191448   0.4529697
 116.9498825 133.4836006  -0.0762294 116.8099022 131.9772816  -0.0274114
 103.4594631 129.9672031  26.4322400 103.0176926 130.4244518  27.1477818
 103.9180756 129.2428207  26.8578792  11.4989787   7.1025162   1.9910623
  12.3501425   7.0227700   2.4216403  11.4193755   6.3047009   1.4682013
  93.3298683 124.8535538  27.2628808  94.2739391 124.7435665  27.3763132
  92.9462910 124.0895271  27.6934218  93.4321976 117.3088837  98.9934167
  92.5125980 117.4362373  98.7602791  93.9141560 117.5299168  98.1964859
 108.7269402 107.6385498  21.3039398 108.5274696 108.0049992  22.1654248
 107.8786469 107.5864220  20.8635783 107.5337315 113.6914349  74.3438578
 107.5854588 114.0417194  73.4545612 106.7062187 114.0291119  74.6865368
  89.5813656 114.7423840  37.6746106  89.5204544 115.5213928  37.1217370
  89.9513054 115.0612640  38.4978294 101.2578678  97.7425385  13.5964608
 101.4645386  98.6588669  13.4124506 100.3037834  97.7224922  13.6709356
  29.0454894   8.7002449  20.3950047  29.1739970   7.8201371  20.7487440
  29.5072680   8.6911850  19.5566094  92.8468704  98.2567024 102.7306505
  92.6962376  97.6750088 103.4757527  93.1378460  97.6754475 102.0280077
  88.7594986 123.4340000 101.3000884  89.4646549 124.0629959 101.1472996
  89.1565323 122.7577305 101.8489643 117.9580498 139.7956276   5.6049848
 117.3324394 139.3995667   4.9983704 118.2711411 139.0643978   6.1374384
 111.9496918   4.7919064   8.3513063 111.0654354   4.6403485   8.6850172
 112.4100304   5.2148609   9.0761721  15.5981570 139.6720409   9.7970510
  16.3043051 139.4335270  10.3976285  15.6094199 140.6290531   9.7821295
  99.4160366   3.3267289  26.3680053  98.8833046   2.8917294  25.7022715
  99.1922951   4.2537575  26.2856913 113.4660530 143.0125713  92.7826294
 113.3069706 143.8166332  92.2882613 113.7190628 142.3699856  92.1198269
 119.8058319 102.9874229 109.2090869 120.2678967 102.3383236 109.7395569
 118.9176559 102.9998589 109.5657709 111.9000721   0.2723770 102.5386383
 111.8423367  -0.4882450 101.9604012 111.2819481   0.9023648 102.1681436
 115.1641655  20.7299786 100.0077488 114.6810055  20.0193577  99.5860883
 114.5162106  21.1637097 100.5629715 103.3885670 127.6666355 109.4074271
 102.7796745 127.6270103 110.1449318 103.8903236 126.8536758 109.4671436
  15.3624468 121.2069702  48.0228376  15.1942378 120.2661514  48.0757952
  14.5089083 121.5920830  47.8243685  65.5219364 107.8294659 107.2586461
  66.0178852 107.6566219 108.0588906  65.4789019 108.7841892 107.2050404
  28.7327509  21.2258702  91.0206064  28.4508353  20.4616719  91.5233453
  28.3917075  21.9740658  91.5106436 103.3511353 139.8705578   6.3212597
 103.6791229 140.6894398   6.6928691 103.2116699 140.0668621   5.3948426
  89.5820713  10.4805260  14.7796738  90.4516983  10.8801918  14.7639978
  89.0794563  10.9751301  14.1323841 110.1447296 138.3976364  21.3798285
 110.2052021 139.3085861  21.6675019 110.3967094 137.8863907  22.1488285
  90.6213379 143.7173748  12.0424116  90.7723522 142.9091835  12.5325656
  89.6686649 143.8060665  12.0144117   2.2892027  15.4951458  34.4471669
   2.4009829  15.6011753  33.5024452   2.5406390  16.3424664  34.8146844
   2.4547797  12.5628071 108.7481069   2.9864531  12.8359871 109.4957238
   1.7701274  13.2287674 108.6850015 108.9298248   9.2097645  13.4060311
 109.3897629   9.9969464  13.6976445 108.4164906   9.4980507  12.6513076
 109.1534615  12.0579129  53.4852839 109.1320705  12.3026162  54.4104290
 109.4282722  12.8554421  53.0328846 115.8804321 125.0086784 108.8919777
 115.7099724 124.7633076 109.8013535 116.4569664 124.3195248 108.5619856
 105.9808445 134.1245556   3.8932043 105.5252743 133.4260368   4.3630600
 106.8804550 134.0843487   4.2177340   8.2168704 132.1497917  26.7088747
   7.9530840 131.4122391  26.1587191   7.4533015 132.3229885  27.2595096
  95.1348400 134.1630459   7.8638709  95.2364922 134.1367245   6.9124478
  95.3701115 135.0589466   8.1051856  84.4419193  98.7666702  12.0044541
  83.8444614  98.0408382  11.8243432  84.3111420  98.9598179  12.9327965
  98.7675667 141.8337631  15.0163543  99.6584129 142.0338345  14.7289622
  98.8340855 141.7591190  15.9683180 100.0513172 118.2731342   0.9322088
  99.4060612 118.5344696   1.5891613 100.8303165 118.0445480   1.4392930
  90.8932972 105.3252697  17.1720445  90.1625156 105.8573818  16.8573201
  90.6216335 105.0366688  18.0433309  97.9765320 129.2114544 103.4063103
  97.8335381 130.1029587 103.7241348  97.8716564 129.2758846 102.4570569
  12.8600627 119.8335457  45.6894016  13.4649115 119.1032887  45.8202028
  12.0326834 119.4185257  45.4456043  30.9755927  20.0827008  42.6010227
  30.2184134  19.7876721  42.0951700  31.6950827  20.0954419  41.9698429
 114.7131443  24.0547543  60.1620015 113.9846706  24.5947819  60.4685124
 115.4893303  24.5965557  60.3042468  84.1647053 106.6710758  23.6378789
  83.6046982 106.8324947  24.3971992  84.8775673 107.3035908  23.7272382
  87.9933357 108.3874035   5.8953619  88.8136959 107.9063225   5.7867080
  88.1117439 108.8828373   6.7057633  18.4011584 142.0025635  20.9233308
  18.6122447 142.6554680  20.2559543  17.4929457 141.7602634  20.7425547
  14.9922877  22.6153355 107.9523065  14.6805411  23.4813099 107.6894235
  15.6164008  22.3681240 107.2699463  31.2348490 135.9590340 106.3540378
  31.0287695 135.4691410 105.5579426  31.2728911 135.2939796 107.0414227
   7.9542189 136.6389751  28.0137897   8.0207759 137.5885582  27.9133344
   8.6617976 136.2905693  27.4714208  97.2187996 121.0666084   7.1781540
  97.2771549 121.4851665   8.0370110  97.3705101 121.7769337   6.5547347
  92.4946499 130.9308624 107.2403606  92.7164841 131.7714691 106.8398597
  92.3031902 131.1438179 108.1537204 116.7622089  10.8079319  30.6996489
 116.1520195  10.0780373  30.8052707 116.7549515  10.9921818  29.7603774
   1.0510474 104.9605370  39.6524549   1.3760977 105.1103210  40.5402231
   1.4303523 104.1195774  39.3972182 110.9077644 137.4283314  97.9338952
 110.0771332 137.7772713  97.6105746 110.7867146 136.4788342  97.9292377
 110.4340553 136.8850327  23.7525558 110.0746441 137.3683548  24.4965053
 110.4606533 135.9750843  24.0484023 119.3611240 122.5146008  16.5425026
 119.7198391 121.7104149  16.1672163 119.9235153 122.6995373  17.2946680
 116.7627811 140.1202488  97.2891911 116.0065460 140.1216125  96.7023798
 117.4306679 139.6221256  96.8180009   0.0133544 113.4775448  11.9792557
  -0.2810735 112.6328278  12.3198307   0.3402453 113.2810497  11.1013258
  99.0391541 126.0317802  33.3144212  98.4930229 126.3610840  32.6006126
  98.4322071 125.9123611  34.0448904   2.3888617  15.7998066   1.1092357
   1.6237288  16.1674862   0.6669433   3.1080943  15.9293728   0.4910615
 121.4125633 113.7861347  46.5377903 121.9365120 113.0796146  46.1602497
 120.9325123 114.1517067  45.7947254  91.7002773 128.6658382  72.7879333
  91.2580299 129.2233467  73.4281206  92.0940590 127.9670906  73.3103466
  90.4881382 115.2554131 105.0082129  89.6584511 114.9102020 105.3378885
  90.2350903 115.8693218 104.3187889   4.1714316   3.2547837  16.5428400
   4.3225604   2.5633316  15.8984113   3.4565383   2.9235154  17.0863736
  17.9173689   0.3133564  30.4989266  18.6024314   0.0097637  29.9033141
  18.1565123  -0.0579376  31.3481498  99.8578167 101.7620850  39.3135023
  99.5322990 100.8880234  39.0983701  99.7714138 102.2570801  38.4987926
 112.2452927 131.8137264 109.1885007 112.2699070 131.1205101 109.8481086
 111.7930698 131.4189625 108.4429243  94.1151810 119.0495300  43.3487940
  94.3759918 118.4671307  44.0622520  93.7698841 119.8267174  43.7881041
  69.6066952 113.5000324  28.8909912  69.7618437 114.4322300  29.0432048
  68.7721205 113.4693718  28.4232545  93.2995033 112.4333382  28.1514907
  93.7173843 111.5881634  28.3167052  93.1665897 112.8090096  29.0217996
 106.1680317   4.2152768  38.4118819 106.0711670   4.5108300  39.3171430
 106.3706017   3.2826023  38.4848070 117.5890446 144.9205399  96.6149517
 117.3197174 144.1583252  96.1023887 116.8638039 145.5386162  96.5241917
  91.9773674 141.2514210  39.0028715  91.2931156 141.1341858  39.6618819
  92.1363640 140.3706837  38.6633945  99.6443176 130.4017830  33.1413078
  98.9774132 129.9645615  32.6118708  99.4034863 131.3277531  33.1130171
 103.4360409 116.0440445   6.0217214 104.3820000 116.1902142   6.0255873
 103.3094406 115.3108215   5.4195666  96.5453720 131.5043449   4.3335894
  97.0178318 131.8623447   3.5820258  97.2219563 131.3597393   4.9950725
 102.5236988 132.5042439  32.5033760 101.7852402 132.4932671  31.8944407
 102.2343540 133.0682850  33.2205796 121.8874168 146.4108467  93.8489660
 120.9482574 146.2437439  93.9282843 122.0300865 146.5355873  92.9107138
   4.3311148   4.5016938  42.3028755   4.6237879   4.8608475  41.4652729
   3.5355311   4.9923973  42.5090027  83.4081268 137.2649574   3.1450790
  82.6931667 137.7954674   3.4966710  84.0825558 137.2919083   3.8237920
 114.2101479 107.1102619  98.4412488 115.0477314 107.2410107  98.8857647
 113.6413383 106.7282486  99.1096409   2.2744303 122.3204231  33.3907390
   1.9920569 121.5921497  32.8374648   1.9040614 123.0972195  32.9716325
  17.9965239 132.8594208 108.0726373  18.7608557 133.2059669 107.6122683
  17.2483473 133.1734848 107.5648704 120.6869698 105.9562969  23.2114601
 119.7327995 105.9908581  23.1436491 120.8584118 105.9003448  24.1515183
   4.7466307   4.7296601  46.2040281   4.8165255   5.6831246  46.2515211
   3.8839942   4.5715599  45.8204889   2.7590876 128.0593204  31.7740655
   2.1112471 127.4271679  31.4627361   3.2564192 128.2976246  30.9916949
   4.2714911 119.6114445 100.4682805   3.5891181 120.2548885 100.6595304
   4.8191958 119.6026707 101.2532493 112.9031563 113.8862038  28.4538150
 112.6593208 114.8037434  28.5758710 113.5227871 113.7069321  29.1610289
 114.5760536  94.7056961  31.8828654 113.9923286  95.1684284  32.4840140
 114.0514469  94.5745468  31.0930467  25.8805686  25.8066159  32.3577332
  25.5854445  26.4191799  33.0314612  25.5873900  26.1967831  31.5342903
  20.9189444 142.1967030  13.0269790  21.2273150 142.4606514  12.1601081
  21.2499266 142.8749752  13.6157203   9.6409922 133.3848000  13.7454009
  10.2293234 132.7388668  13.3544266  10.2244406 134.0183640  14.1630399
 122.0848846  16.1319523  23.2168913 122.7982330  16.3932972  22.6346087
 121.3950634  16.7753392  23.0542970 104.2546368 106.8714142  10.9687090
 104.2822742 106.9591713  10.0159407 104.7169399 106.0525036  11.1473155
  49.2583018 141.3478756 105.5236059  49.0756159 140.8265018 104.7419228
  48.7929087 142.1712780 105.3764581  91.0338211 122.6912975  38.7000179
  90.2358055 122.1632004  38.7227654  91.4164925 122.5101948  37.8415370
  81.3220882 123.0562687  33.0123591  81.3346481 122.1926594  32.5997329
  81.0616970 122.8854847  33.9174891  18.5676699 105.8269691  12.3993611
  19.0773421 105.0181675  12.3514783  18.0675631 105.8435917  11.5833664
  81.7622471   7.9254990  32.1323776  81.1882973   7.1702843  32.0040655
  81.9841862   8.2109814  31.2461066   1.3923483 118.4132099  98.3078464
   1.3107520 119.1414547  98.9236637   0.5132895 118.0369473  98.2640382
  95.1700783 126.7082977  13.5549915  95.6859398 126.0247993  13.9827168
  94.3790150 126.2597370  13.2562566   1.3955622 113.3420277  26.9679046
   2.0337611 113.3339882  27.6812506   0.5467063 113.2752705  27.4052000
  94.9494839 123.4848976  24.9873185  95.4495335 123.9979267  25.6221271
  94.6670151 122.7107620  25.4743004  37.2297412 138.5995674  87.6259693
  37.1161967 139.5475101  87.5571188  38.1235247 138.4426594  87.3214039
 101.3126183  84.4609165   0.8852101 101.5146160  84.0333176   0.0529919
 100.8749390  83.7844753   1.4020184  16.4457255   1.3896923  16.6516924
  16.7006903   0.7638054  15.9738410  15.6227046   1.7627220  16.3359034
 116.7422867  35.0290470  97.4775072 116.4767361  34.9320774  96.5630039
 115.9796524  34.7425251  97.9800292 100.1648426 124.5554829 107.5835132
 100.3149223 125.4415512 107.9130378 100.6321716 123.9892006 108.1976504
 104.1934872 132.3725796 106.3675117 104.7990417 132.5432301 105.6461143
 103.8061810 133.2260132 106.5620899 103.7671852 136.1990166  69.5313263
 103.2059002 135.4271984  69.6053839 104.6161366 135.8523464  69.2568731
  26.6702395 125.8840656 107.1273041  26.9729453 125.8602524 106.2195396
  27.4030524 125.5332756 107.6334190  18.7934905 103.2631969  89.2057323
  17.9109889 103.2240486  88.8371086  18.8273078 102.5334358  89.8242378
 108.3711624 135.4976940 100.5390072 109.1737366 135.8512783 100.9225368
 107.8404713 136.2691879 100.3405190  97.3300838 117.9631233   9.8906366
  97.5464344 118.0239201   8.9601938  97.3938465 117.0292664  10.0908510
 103.3811569  83.9551449   4.0496579 104.0833569  84.4377899   4.4857827
 103.6713409  83.8793182   3.1406633  96.5747833 136.5806198   2.8214494
  97.4095345 137.0142937   2.6443616  96.3285637 136.1845779   1.9855348
 112.4379826  92.4549580  67.1703005 111.8596268  91.7424011  67.4423170
 112.1923923  93.1903362  67.7316761  72.7407217 109.7912407  12.5100938
  72.4463940 110.6362534  12.1701471  73.3188772 110.0147343  13.2394925
  16.5447550 116.6805744   1.8357698  16.3454562 116.8298340   0.9115163
  15.8231097 116.1367893   2.1516076   0.7784014  90.8233261  80.1999569
   0.9308749  89.9227619  80.4862595  -0.1389474  90.9911633  80.4156590
 109.1038704 129.1113472 101.9392109 109.5105457 129.5009613 102.7131939
 108.1954765 129.4116116 101.9691372 115.8840370 107.1833801  79.0820789
 115.9564018 108.0593681  78.7030888 116.0503960 106.5907669  78.3490229
  44.6638995   4.1001110  16.5601770  44.9617701   3.5883122  15.8081285
  43.9842539   3.5600071  16.9634000 122.9477406 128.6095238  82.8810406
 122.3264980 129.3096256  83.0813789 123.3878613 128.9010811  82.0825958
  13.0422621 100.8303833  69.3220615  13.0273181 100.6626034  70.2643299
  13.1522971 101.7784500  69.2493057  98.4165001  94.4405079   9.1418973
  98.3202267  95.3894711   9.2221490  98.2420826  94.2593193   8.2183305
  18.4910994 111.2487698  11.6151372  18.9267760 111.8676090  11.0290948
  17.6009493 111.1784172  11.2702886 112.0030594  87.5485802   8.5356847
 112.3487473  88.1132603   9.2269651 111.3368416  87.0170307   8.9713899
  95.6926632 127.5254059  18.9133207  95.1607609 127.0469093  19.5492021
  95.8833408 126.8835640  18.2292882 113.9039803 113.8854408  21.0334340
 113.2731819 114.5863533  20.8689634 113.5650539 113.4348392  21.8069402
  86.0104847 100.9219551  64.3747330  86.4356422 101.6716957  64.7911024
  85.1325417 101.2349987  64.1569042  20.6954985 143.0340767 100.6972694
  21.3857489 142.8113747 100.0726223  20.6668692 143.9908314 100.6915569
 113.6604786 129.6083641 105.1179504 114.0932846 129.1738987 104.3830013
 114.2697430 130.2982235 105.3808784  11.8997984 126.5806770  26.7042867
  11.7701560 126.0646152  25.9086076  12.5545149 127.2352600  26.4612047
  90.4402161 111.5262318  88.2391262  90.1851845 112.4444389  88.1492519
  90.1978779 111.2970543  89.1363335  82.2592640 104.6968460   1.9711725
  82.2263813 103.8563728   1.5142766  81.3644886 104.8359871   2.2814027
 119.3810177 101.8712521  78.2144451 120.1674938 101.7478561  78.7459183
 119.6901131 101.8071365  77.3107958 119.1510963  95.4445934  28.2955114
 119.4880104  95.6089306  29.1762582 118.2199669  95.6593418  28.3513204
 110.2147579  98.8690567  84.8512554 109.3186378  98.7639904  85.1708603
 110.4561996  98.0018520  84.5258236   6.6340380  92.2401714   0.3944150
   5.9683352  91.7661667  -0.1039847   6.1866503  93.0283546   0.7023660
  34.3682414 120.2561665  73.9696264  34.4174033 119.4721794  74.5165873
  34.9638205 120.0781250  73.2417393  11.3348895 136.1056137  88.6555767
  11.0598307 135.1948166  88.5505581  12.2890883 136.0620308  88.7174320
 114.2945766 135.3365231  94.9007893 113.3689308 135.5776787  94.9361324
 114.3563366 134.5446014  95.4349041  89.0036392 128.7638950  90.7393646
  88.6987782 128.8471508  91.6428852  88.8163280 129.6152592  90.3439808
 113.5183048  88.1772995  97.0386028 113.7844753  87.3515606  96.6341972
 112.9534721  87.9165840  97.7660751 108.0653000  91.4761829  91.7750645
 108.5301113  90.6593037  91.9564438 107.1995544  91.1978817  91.4763069
 104.5142174 108.3172703  38.3426229 105.4152775 108.5711765  38.1429807
 104.0757465 109.1402626  38.5586587  97.9341030 118.6804008   2.4852601
  97.3049068 118.0042267   2.2340337  98.2043934 118.4388065   3.3711473
  20.3912001 141.3352871   3.6090127  20.0328379 140.6286240   4.1460744
  20.8192092 140.8878899   2.8790323 102.8777695   8.2806950  94.6021175
 103.0102158   9.2280655  94.6364117 103.7031269   7.9119091  94.9167824
 116.4567566 127.3083115 101.2427044 115.5909252 126.9002056 101.2413311
 116.9443607 126.8333149 101.9156456  12.0769435 127.1929169  84.0658855
  12.9932433 127.3196697  84.3119526  12.0739489 126.3767815  83.5657406
 124.1626167  13.4822255  21.2941781 123.3162308  13.7084370  20.9085695
 124.2993164  12.5664597  21.0514489  17.3947840  86.6970348  37.4050275
  17.7573710  87.1935272  38.1386892  17.4244910  85.7852554  37.6948873
   8.4405928   0.9116059  70.1894426   8.7895804   0.0356942  70.3544569
   9.1860228   1.4961987  70.3266430   2.0869284 134.4373131   1.2099019
   1.3055735 134.4838810   1.7608491   2.1759253 133.5079861   0.9985486
 102.0346069   5.8480721  13.6497155 101.6759682   5.8361225  14.5371095
 102.6983261   6.5375309  13.6688844  87.0463085   2.0133572  76.2273693
  87.3968506   2.7631836  76.7081118  86.1073875   2.1879654  76.1627769
  28.6287623 142.0468998   3.5840265  28.8238268 141.3934708   2.9122964
  28.3905821 142.8325844   3.0918733 113.8211441 103.7462711   3.7970773
 113.3771992 104.1999245   3.0806009 113.7485981 104.3444824   4.5407907
  90.3320503 115.7063293  53.9630938  90.0605011 115.5176067  54.8613596
  89.6095276 116.2160778  53.5965490 106.5890408  99.9151897  12.0602933
 107.2971916 100.5542088  12.1404115 105.9129143 100.3687954  11.5569726
 111.3887405 106.4651585  22.2765771 110.5671978 106.7275715  21.8613187
 111.1517429 106.2910080  23.1874791 106.9915962  19.2381840  63.1131458
 107.0693016  18.6710911  63.8803625 106.8341732  18.6364727  62.3855352
   2.1554976  75.2624846  19.4416086   1.9930106  76.1594105  19.7337571
   2.8216773  75.3496361  18.7598172 115.8267975 101.5742207  83.7471867
 116.6629124 101.7706680  84.1697311 116.0097218 100.8128643  83.1966305
  91.7633343 133.5190392  17.0103017  91.0869122 132.8872967  17.2544233
  91.8463898 134.0885639  17.7751294  98.0739880  77.4609804 104.1895866
  98.0681038  78.4177256 104.1606998  98.6297512  77.2025728 103.4543419
  99.2408657   1.5448933  75.1134586  98.3860970   1.8591767  75.4081202
  99.6428204   1.1727028  75.8984041 119.5068169 121.5266800  10.3761426
 119.4247341 120.7227325  10.8891431 119.8985767 122.1573544  10.9802953
 122.0874786  82.6060677 101.8476868 122.8629684  83.0492115 101.5035057
 122.4047756  81.7450523 102.1201229  76.0811329  94.0427780  22.7639810
  75.1268721  94.0448856  22.6890317  76.2579870  93.5366058  23.5569135
  98.8827610 138.2463264  53.4286976  99.8373413 138.1789303  53.4071541
  98.6993504 138.8101006  54.1802025   1.0258895 122.2333813 104.0620327
   1.4426356 121.3814545 104.1915607   1.6959887 122.8686428 104.3142986
   5.4652529 106.7820358 105.4426098   6.2085372 107.3505974 105.6438828
   4.7535639 107.1158600 105.9887695 100.3324986 102.1807671  87.8520775
  99.4330788 101.8627834  87.7735710 100.6474781 102.2336292  86.9497299
 106.4225674 127.4132347   7.0325128 107.1945286 127.2934628   7.5856534
 106.7771530 127.5760174   6.1584321 116.9085026 145.2278996 107.8948021
 117.6775074 145.6995964 107.5748348 117.2333431 144.3510628 108.0993938
 117.8483868  92.2617149   2.8618184 117.8578758  91.9418430   1.9596998
 117.0588207  91.8782425   3.2436220  14.9192172 115.2160168  12.0915834
  14.0243559 115.3874779  11.7982522  14.8264914 114.9691105  13.0117265
 118.9569855   3.7358933 101.4078712 118.9720535   3.6604576 102.3619747
 119.8563480   3.9626007 101.1712933   3.2556849 108.1613827  73.2849360
   2.5519972 108.7941742  73.1413126   3.1563788 107.5274372  72.5746632
 118.6200809 113.1325054  97.2154045 118.8020802 113.8419724  96.5991592
 118.6176491 113.5557175  98.0739594  99.5897007 104.5763016  24.3027059
  99.2735767 104.4513035  25.1975099 100.3111839 103.9534950  24.2143861
  92.9294109 110.0803089  72.8121233  92.6803684 110.8135986  73.3747005
  92.1964169 109.9853611  72.2038889 114.6576500 116.2851429  85.1106358
 115.5391788 116.6501999  85.1872921 114.2657661 116.4223194  85.9731007
 117.3899746 129.8998356  93.0141640 118.3046341 129.9200439  92.7327156
 116.9106293 129.5837784  92.2482872  95.4254818  95.6785965   6.3858453
  95.8627605  94.9004555   6.7315332  95.3697300  95.5230522   5.4430143
 109.8226547 140.3010464 102.1796989 110.6206322 139.8755169 101.8660259
 109.9892426 141.2366486 102.0651531 113.6680031 119.2904282 100.6891346
 113.2938480 120.0836372 101.0726261 114.3881512 119.0577507 101.2752056
 117.9662037   0.8877449  10.4062406 117.0531654   0.8627110  10.1199285
 118.1628513   1.8199902  10.4983274 101.7663956  86.0083389  93.2058716
 101.3140011  86.1977863  94.0278721 102.6548290  86.3384438  93.3398533
  15.1969081 105.0991631  12.8398172  15.0148230 104.5439243  12.0816652
  15.3426486 104.4834900  13.5581056 100.9574604 141.8841648   3.9451257
 101.0575867 142.8356171   3.9757577 100.6141949 141.6515541   4.8078481
   0.5384570   7.9674321   0.9655706   0.9259921   7.2166615   1.4154569
  -0.3994436   7.8946190   1.1423913  12.8111296 103.5756016  75.7580709
  13.1811648 102.7838707  76.1485338  13.1335955 104.2880821  76.3100052
 115.7636261 138.2907963  76.8170595 115.0610828 138.0478573  76.2140322
 116.5357208 137.8355408  76.4811325 106.2354374 139.8980236  86.6005516
 106.1544704 140.7492256  87.0308113 106.3200092 139.2728424  87.3204327
  98.9441109  23.7846165 105.0196648  99.4709015  23.3673077 105.7012558
  98.0390644  23.5931568 105.2655697  65.4000616  76.0273457  20.0425569
  64.6270370  75.8016634  20.5599920  66.0821629  75.4358530  20.3605310
  17.9735213 118.7658882 100.3468418  18.6707907 119.0544605  99.7579670
  18.2926207 117.9392624 100.7089138   7.0363074  16.3507252  11.5271226
   7.1435862  17.2055226  11.9443170   7.4142962  16.4609127  10.6546441
 103.7936783   7.5690918  18.0172769 102.9574203   7.2204380  18.3260671
 104.2988491   6.7949467  17.7688257 119.9686432 132.4752331  68.6353827
 119.9338627 133.3693409  68.2954073 120.8599377 132.3813248  68.9715719
 102.2064209 112.0838737 104.8851776 101.4941311 112.2801781 105.4937363
 102.3057747 112.8825951 104.3671036  98.7453556 131.5244198  92.8296185
  98.9178658 131.2689400  93.7358189  98.2372475 130.7979965  92.4685574
 122.2973824 117.5737858 104.3914318 121.8308926 117.7824879 103.5820770
 121.6088390 117.4980640 105.0520325   9.4092303 100.9248447  16.7450563
   8.5800009 101.3971996  16.6709367   9.8201304 101.0261154  15.8864919
  12.2124796 134.0154076  18.9749948  12.1804934 133.0599403  18.9272634
  13.0432540 134.2057800  19.4106714  95.7645988 137.5087738  85.5576801
  94.8303032 137.7168846  85.5618000  95.8505344 136.7807674  86.1731911
   7.4450903 113.6029434  65.6745148   7.4327880 113.8200283  64.7423363
   7.2293025 114.4250584  66.1147451  94.3058395  97.7702522  88.5311604
  93.5629082  97.2146893  88.2952976  94.8690605  97.7582932  87.7572823
  89.2024708  29.4694691  73.8120508  90.1285744  29.4624310  74.0539169
  89.0786362  28.6609822  73.3148003 112.0538521  86.8934441  89.9299908
 112.1634483  87.7805710  89.5876122 111.2395573  86.5828419  89.5341682
  92.6497364  71.3399220  79.9472666  92.4697304  71.5315819  79.0268898
  93.5270691  71.6917372  80.0980377 108.3156395 120.3000641 105.6331730
 107.7945805 121.0282516 105.2948189 109.0504932 120.2280331 105.0240612
 110.4455566  98.3062267  59.5404673 109.4908047  98.2429695  59.5663023
 110.6348801  98.7314320  58.7040472 110.0112247 119.9795341 103.6050606
 109.9281788 119.0265751 103.5705090 110.0019646 120.2541637 102.6881504
 112.6943493 142.8469753 103.2458019 113.2459068 142.1874714 103.6666012
 113.3048916 143.5330009 102.9759121 104.9106407 137.6259804  79.8638248
 104.1101265 137.8337097  79.3818903 105.2805138 136.8741226  79.4010830
 117.5168514 120.1772022  66.5595770 117.9956818 120.1823711  65.7307720
 116.9695091 119.3931866  66.5150833 122.7537155  95.3141689  10.0895444
 121.8137932  95.2533627   9.9190465 122.9071617  96.2440872  10.2566663
   7.8272563 103.0085754 102.5798702   8.7798720 103.1017399 102.5717545
   7.5407916 103.5415459 103.3215714 117.8189373  98.4973145  18.2405702
 117.3386097  97.9183102  17.6487485 117.6436520  99.3778801  17.9087297
 112.8756332 105.8233833  82.9052448 112.8284359 106.0872936  83.8241291
 112.2525978 106.3969231  82.4590206 120.6476498 127.8818417  60.5178356
 120.0409698 127.4159050  61.0932255 121.4589405 127.3760796  60.5652523
  87.2331333 131.0233974 104.9683571  88.0364037 131.3893795 105.3385448
  86.7156219 130.7623291 105.7300949 124.5346928 140.5421352   9.6486131
 124.2503357 140.2092266   8.7974111 125.3212166 140.0363350   9.8530332
 107.7427673  96.0286617  94.2063904 108.6591816  96.1286068  93.9486694
 107.5823307  95.0861454  94.1599464  23.7717944 135.0584126  96.2674141
  24.5090037 134.4496059  96.2215042  23.0333548 134.5680332  95.9062004
 111.5709972 134.9226856 102.5403690 111.1708832 135.6409359 103.0305386
 111.0562134 134.1524315 102.7811050 107.8237343  15.8969479  30.7521478
 107.5913906  15.2299290  31.3981668 108.4687996  16.4467602  31.1969320
 116.1872578 108.6154270  24.1415063 116.9607449 108.0939960  23.9268915
 116.5359497 109.4747066  24.3787519 104.4601536 135.3007889  19.0269414
 103.9764786 134.9941921  18.2599489 105.3660393 135.0417423  18.8581411
   4.3642073 114.6846294  65.7649803   4.7532874 115.1708889  65.0380659
   4.8186617 115.0107193  66.5417480 102.8491211 122.9928589 106.7730427
 101.9735813 122.8122902 106.4309216 102.7219296 123.0914307 107.7166271
  92.1816444  97.1370888 105.2367210  91.2564373  97.2516060 105.4537868
  92.6290512  97.1459103 106.0828781  42.0899516 102.5860691  73.3886337
  41.8705874 101.6916943  73.6498260  42.4790316 102.9756451  74.1716194
  17.5223761 114.0969658  86.6981030  16.6105300 113.8347816  86.8247032
  18.0317145 113.3408356  86.9897938  84.0653324 112.4896622  96.9859600
  84.7887516 112.2979069  96.3891888  83.9684200 111.6935349  97.5084686
 117.1973324 116.3507080  63.5550308 116.5063286 115.7086468  63.3922577
 117.3504162 116.7590523  62.7029419   1.1201411  86.5366650 102.5017548
   1.1439925  85.5804634 102.5383759   0.2202540  86.7629719 102.7367306
   8.4415179 143.9913368  76.0169697   8.8051062 144.6547508  75.4305315
   7.4979716 144.0232849  75.8590603   6.6440516 129.3256187  74.9547005
   7.4048262 129.4914913  75.5114174   7.0160990 129.0799809  74.1076612
 118.1822109   6.0305863  74.2708302 118.9863682   6.2859230  73.8187551
 118.0740452   6.6888123  74.9573183   5.1495963 117.2448063 109.0302372
   5.3430873 116.4262486 108.5733509   5.7757025 117.2689915 109.7538567
 107.6904488 116.7575073 108.9469624 108.1160927 116.8987179 108.1013203
 106.9309044 116.2112904 108.7445450 112.0760727 128.0191422  97.3338509
 111.5617275 127.2687149  97.0362949 111.4765930 128.5140991  97.8923130
  37.7013522 125.1580143  89.1960526  38.2317668 124.4044971  89.4550705
  37.6228266 125.6812000  89.9937630 102.1143246  95.2246475  82.1359730
 102.4073315  95.7302761  81.3778687 102.5532150  95.6344891  82.8813744
 116.8777943 107.2713375  15.5578939 117.2696400 108.1351757  15.6862680
 117.6209259 106.6957092  15.3772107 101.6675282 119.2136669  84.4058323
 102.3803139 118.8921833  83.8537407 101.5074921 118.5038757  85.0277805
  97.0788860  66.5586805  78.3593893  97.5467205  67.2377062  77.8732920
  97.4441147  65.7361078  78.0334902 123.3819962 112.1352386   0.3062669
 123.4612274 112.6807308   1.0888234 122.9903793 112.7123547  -0.3493270
  94.3541527 134.9768925  96.8464851  95.0210953 135.4549885  96.3536835
  93.6417198 134.8461914  96.2207127 103.0786419 115.1091862 106.2420464
 102.9922009 114.7880936 105.3444576 102.2409821 115.5342674 106.4260769
   2.2795706  92.7651405  53.3971167   1.8113356  92.3656082  54.1301680
   2.5025397  92.0299816  52.8261042 106.5437317 106.9788456  30.2339689
 107.3215008 107.0425987  29.6796743 106.6670513 106.1679077  30.7273332
 103.1979179 109.1237450   6.9666807 102.3300838 109.4248486   6.6975442
 103.5520458 108.6893845   6.1906949   9.6755820 107.7770329  67.6187611
   9.2086440 108.5118198  68.0166245   9.2792731 106.9998646  68.0126905
 107.4878597 104.3793297  78.3728027 107.3121452 105.0853729  77.7508259
 106.7671871 104.4285393  79.0008497 115.4763603 138.4810829  12.6355497
 116.2179661 138.5124397  12.0311776 115.7221699 139.0721893  13.3471719
 116.7208958  85.3482533  86.6337872 115.8664417  85.7729340  86.7098427
 117.0117855  85.5528259  85.7450962   0.7924014 109.1259193  92.3030376
   0.6111937 109.7863674  92.9717731   0.2553015 108.3751297  92.5561619
   7.9925471 129.1447067  89.8353577   7.0507842 129.3099308  89.7904015
   8.3598452 129.6541214  89.1129875  85.6295586 127.8785324  66.6837597
  85.5765629 128.5058975  67.4047565  85.2312946 127.0803833  67.0310020
 110.5834007 132.8208447  78.9089298 109.7632980 132.9326057  79.3897486
 111.2182617 133.3498192  79.3919945  11.3605528 114.2233276  90.4708099
  11.2123709 113.3727551  90.0575161  11.2881785 114.8537064  89.7541428
  86.3633728 125.7853413  83.4326077  86.3077354 125.9110641  84.3798828
  87.3023224 125.7441139  83.2512093 119.5095062 107.1297073 102.1308708
 118.9528561 106.6695213 102.7590561 119.4830799 108.0441856 102.4124146
 116.5610027  17.4204617  92.2806072 117.4265003  17.2923832  91.8923569
 116.0274601  16.7151814  91.9143867 114.9233055 114.4826317  67.4677896
 115.5177021 114.2384720  66.7583466 114.3604374 115.1569080  67.0873022
 103.9157677 105.3519344  86.0742188 104.3019867 104.6755028  85.5178928
 104.5141792 106.0951424  85.9980869  12.1343642  87.0529556  92.0204353
  12.9449111  86.9301128  91.5263176  12.4152499  87.4429989  92.8482056
 121.3465691  98.1561947   8.7754957 121.6767597  98.3285809   9.6572534
 120.7896328  98.9089394   8.5768834  23.4401160 119.4853973  62.0796537
  23.3202487 119.1973400  61.1747313  22.5800067 119.3702412  62.4835920
 103.3350754  86.1418724  74.8720121 103.2581329  85.5336571  75.6071234
 104.2675114  86.1393833  74.6556759 123.8115692 121.4203548  56.6585350
 124.3052864 121.8887138  55.9853983 123.4364796 120.6681252  56.2006140
  84.0874004 125.6599236   8.2170430  83.2619381 126.0749722   7.9668943
  83.9227295 124.7219372   8.1206266  12.7839308  89.6147060  39.2170278
  13.7236147  89.7764301  39.3011228  12.5672846  89.9148846  38.3343068
   1.7209750 113.9105606  36.1471057   2.6242285 114.1300774  36.3755322
   1.2257224 114.7076416  36.3358116  91.4586258  99.0963078  98.1183434
  91.6678810 100.0126362  97.9372883  91.0814381  98.7707615  97.3010445
  98.6627579 139.2266560  48.4398270  99.1648197 140.0270653  48.2864857
  99.2641926 138.6542130  48.9160681  95.9579372   6.4273911  82.0614910
  96.4757252   5.7508164  82.4978256  95.1049805   6.0186463  81.9144630
 118.4178734 118.6676407  90.8281994 118.5175037 119.1355324  89.9991131
 118.6403370 119.3153191  91.4969730  89.0896034  76.6286707  70.3241205
  89.4271183  77.4912262  70.5655956  88.4083843  76.8106651  69.6767759
 110.8454800 142.3964024  86.7792702 110.9818459 143.2012749  86.2794590
 110.1269436 141.9531727  86.3281822 114.3204021 110.1038170  68.4365129
 113.7393475 110.7006836  68.9080524 113.8095284 109.3003941  68.3377504
  75.6160307  72.8854799  94.7168064  75.1545954  72.0828247  94.9598026
  75.3681517  73.5178137  95.3913021 119.5143795 116.8784046 104.5923233
 119.1744328 117.7700233 104.6677208 119.6228790 116.7422485 103.6510849
  88.2728291   2.1742325  67.9406357  88.6373520   3.0005913  68.2576418
  88.7436390   1.5007859  68.4315872 122.5164318 132.7624321  57.2025156
 121.7326736 133.0216599  57.6870489 122.5327015 133.3456230  56.4436674
  95.7265759 112.0634937  91.0067749  96.4027119 111.9568253  90.3376770
  96.1239433 112.6405144  91.6589737 121.7432976 130.3778076  61.8563557
 122.3651791 131.0372925  61.5488291 121.6116142 129.8028183  61.1025143
  15.5976134 109.3362808  71.2949896  15.1403838 109.9679661  70.7398701
  14.9669581 109.1206074  71.9820023   3.9315539 113.0533981  79.2267847
   4.6194773 112.5382996  78.8052607   3.1330901 112.8193188  78.7536192
   5.3762656  11.8050938  95.9552479   4.7561961  11.9274597  96.6741180
   6.2218314  12.0640068  96.3216209   2.2831660  72.6120949  24.9653188
   2.0326739  72.9939461  24.1240827   1.4630824  72.5535774  25.4554788
 123.6431980  72.5373888  78.8474035 123.9609337  72.7264786  77.9644966
 122.8205395  72.0676136  78.7104034   4.7270995 115.3332615  19.9920884
   5.1344328 115.3309631  20.8582822   3.7876063 115.2857399  20.1690904
  97.1543789 118.6396217  91.0333252  97.1209145 118.9720249  90.1363182
  96.4506531 119.1034412  91.4870453  99.3111324  98.8289738 105.5797005
  98.5483742  99.3997002 105.6729794  99.9800587  99.3862724 105.1819992
 104.8914433  86.6022110  78.0864620 104.1986084  86.4439201  78.7276745
 104.6600533  87.4401379  77.6857567  14.1784125   9.9591332  86.2932491
  14.9331313   9.4188195  86.0594082  14.1119605  10.5978375  85.5834007
 109.7851276 104.5163250  73.4203291 108.9487171 104.0601063  73.3280420
 109.6122551 105.4009533  73.0981731  17.3245555 104.8878765  66.4285946
  17.9072695 105.4693985  66.9169664  17.7322798 104.8093796  65.5661392
   6.6357737 101.5552235  59.3985415   6.8809538 102.3447037  59.8810816
   7.1488886 101.5986538  58.5916615 103.3078384 136.9378281  58.3018446
 102.9445553 137.0860100  59.1749430 104.0613651 137.5260830  58.2529545
 105.7458973 118.2464981  99.6477699 106.1059093 117.3998833  99.9120903
 105.1470184 118.4836864 100.3558064 117.2172165  66.3965988  70.0272179
 117.2067928  65.5423498  69.5954943 116.6063404  66.9296122  69.5183277
   9.1459017 120.1472759  47.7559566   8.7798434 120.7130241  47.0761251
   9.2360812 119.2929935  47.3337126  96.2404346 111.9625568  76.7667150
  96.6028309 111.3909817  76.0898113  95.9170914 111.3626480  77.4388599
 101.3267994  10.9134178  93.3625793 102.1631432  10.8465844  92.9018402
 101.3955402  11.7237645  93.8674068 116.5727425 121.6372871  90.1524544
 116.2182617 121.9174004  89.3085766 116.3898754 120.6984425  90.1893044
  25.1097899 117.4391365  83.0125427  25.1892787 118.2383823  82.4918461
  25.4315978 116.7453098  82.4369812 108.8123512 126.8889332  85.9145546
 108.7613106 127.4963570  85.1765442 109.5416260 127.2141266  86.4424133
 100.5655766 129.6717930  74.4898033 100.1278210 128.8812828  74.1740561
  99.8550034 130.2952957  74.6400213 116.8325615 107.8328419  67.0482779
 116.5434742 108.1452942  66.1909389 116.4747524 106.9474411  67.1136522
 117.0556545   5.0809841  44.6023369 116.3313961   4.6560078  44.1429043
 117.3256779   4.4445591  45.2643681 113.4914780 116.9575500  72.3960876
 112.6554394 116.6133881  72.0817280 113.9814949 116.1825085  72.6707029
 115.8128643 112.8881454  87.0422077 116.4679527 112.2421932  87.3064709
 116.3208485 113.5962772  86.6463184  97.0195675 132.1515179   8.0268899
  96.5459442 132.8757095   7.6176778  96.4153099 131.4109135   7.9758302
  74.3793488 121.9676685  81.4756393  74.0217781 121.7184830  80.6234169
  73.6820364 121.7605400  82.0977974 123.7765694 142.4783802  66.6487026
 123.9474964 141.9171524  67.4050379 122.8528690 142.7157211  66.7304516
  14.1218501  37.8961735  40.4390335  13.5239726  37.2115116  40.7390499
  13.8872176  38.6641865  40.9599209 111.7462730 129.9185658  85.3267479
 112.1803188 129.5118809  84.5767784 110.8301735 129.9959469  85.0602818
 121.3985634 117.9692745  63.9946890 121.5948963 117.5634575  64.8390818
 121.4635468 117.2525215  63.3635998 122.4745178  92.8466511  85.2154827
 121.5311146  92.9049969  85.0644588 122.7152157  93.7058926  85.5618954
 119.0423775   7.4580460  93.4792423 119.8871994   7.0212441  93.3710194
 119.1529751   8.0039482  94.2576885 108.5688686 121.5833187  60.8387136
 109.4266987 121.2724781  61.1280775 108.6299801 122.5371933  60.8899355
 116.5758991 121.9465828  96.6874409 116.4684010 122.8790665  96.8749046
 116.3576508 121.8621445  95.7592869 112.0133114 109.4722366  85.3982449
 111.0641956 109.5522213  85.4931831 112.2194576 109.9820518  84.6147823
  93.1890488  82.9232597  71.3827038  92.8638554  83.7525177  71.7331505
  93.9623451  83.1653786  70.8731699  87.4090004  89.1634464  80.8683872
  87.4864769  89.2190075  79.9159431  88.3095455  89.0615845  81.1763954
   5.6884318 114.9813080  95.5482006   4.7848445 114.8246479  95.2739143
   6.2147265 114.4410229  94.9588490  98.7762070  83.0379105  12.0219079
  99.6890640  83.0778122  12.3071042  98.7304878  82.2543621  11.4740030
  14.9695235 113.3673096  87.5643253  14.7782164 112.6598167  86.9486237
  14.5596343 114.1402054  87.1759129 114.5338631 121.4663792   0.3993741
 114.1075706 121.2188816   1.2198869 115.0981808 122.2026825   0.6352464
   6.1638003 104.8959351  63.2673597   6.6207533 105.0755692  64.0890408
   5.2956896 105.2810574  63.3869314  89.4161987  91.1648464  84.3428707
  89.9741268  91.4815331  83.6324787  90.0295925  90.8575535  85.0103664
   7.8477793 116.3318634  54.4184923   6.9259196 116.1730862  54.2155027
   7.8670149 117.2251797  54.7617865 113.5143948 108.6042213  64.9792767
 113.2768250 108.3505630  65.8711576 114.4509602 108.7962151  65.0262976
 117.2745705 120.6294632   5.9406987 116.5633488 121.1388683   5.5522291
 117.1930981 120.7834339   6.8819181 110.7759953 128.5060787  93.1906509
 110.3965855 129.0514278  93.8797569 110.4794788 127.6195049  93.3963203
 108.9338207 126.9712257  71.4906025 109.5359135 126.2772942  71.2219572
 109.1192627 127.6944256  70.8915758 121.2902641 116.6052628  92.9349327
 121.3702869 115.6717205  92.7391720 121.3586617 117.0354462  92.0825863
  81.4251709 121.0441971  11.2212455  82.2502899 120.8685970  10.7689333
  81.6858578 121.4667797  12.0395947 100.3642464 114.6381569  71.8011045
  99.9857140 115.2214146  71.1432648  99.6499348 114.0455341  72.0351887
 107.3737907 138.8194847  20.0601140 107.9564953 139.3384647  20.6145040
 107.4345207 139.2306328  19.1978589   7.0244437 122.8746700  87.8732395
   7.4188834 122.0460892  87.6010323   7.0012885 122.8263664  88.8289356
 109.0378952 111.8438625  10.8813083 108.1293106 112.0162678  11.1282730
 108.9787292 111.4474297  10.0120711   1.8652373  99.1726780 103.3460903
   0.9877043  99.3664837 103.6756420   2.2993689 100.0247955 103.3052921
 112.1067619 135.5311680  69.0056229 111.5102577 135.6162834  68.2618713
 112.2053719 136.4237785  69.3369293  28.1532126 111.8407726  54.3387508
  27.5403338 111.7448711  55.0677347  29.0080863 111.9445992  54.7566414
  40.9627848 135.6604671  73.7284184  40.7086878 134.8812962  74.2229462
  40.7261210 135.4574871  72.8234196   3.9485865 136.0989952  45.7997847
   4.4988089 136.5800762  46.4178896   3.2155924 135.7824421  46.3277531
   0.8818179 117.0961285  58.1282949   0.4970484 116.2392712  58.3126259
   0.8130484 117.5725555  58.9556503 122.0762730 117.8723145  36.4741945
 122.3136616 117.9469585  35.5499077 122.8840828 118.0748177  36.9460678
 105.5783749 123.0337429  94.8550415 105.9532166 122.4320889  94.2118168
 105.7731152 123.9050770  94.5099354  23.7206107  20.6231480  58.8355112
  23.8249808  21.5727597  58.7758541  24.5895033  20.2737789  58.6375046
 102.8581238 137.3536205  86.6027069 103.1877613 137.3141003  87.5004864
 101.9234657 137.5365448  86.6985703  30.2988940 144.4865036  90.3308678
  29.4413500 144.4986534  90.7559586  30.9212046 144.6358299  91.0426807
  72.6028299 122.2036457  57.7316570  73.4970474 122.5269413  57.8415632
  72.6130056 121.3319683  58.1270027  80.6892776 104.5230484  62.1935558
  81.2139702 103.7646103  62.4498653  79.8798704 104.1480732  61.8464470
 101.4284992 134.5452976  85.9271431 101.4873791 135.2810955  86.5365505
 101.3130665 133.7783527  86.4881229  32.3442107 123.7832260  97.9513836
  33.2778864 123.9195156  97.7904320  32.1648532 124.2757130  98.7523365
 113.0969810 144.6489716  86.5641785 112.3384857 145.2208233  86.6820812
 113.3766556 144.8049831  85.6621456 114.7525501 120.9880352  66.4462852
 114.9458408 120.5226040  67.2600698 114.6055889 120.2946854  65.8029270
  93.1488705 112.6255035  75.9100628  93.6200237 113.0786324  75.2108335
  92.3145580 112.3749352  75.5133772 111.4506721  95.0431156   3.4322873
 111.4079380  94.1654015   3.8118020 112.1143150  94.9751854   2.7458421
  90.6046104 146.4588165 104.5789719  91.4875793 146.0943127 104.5177841
  90.5741024 146.8687630 105.4434109   4.5951586 119.6571732  47.8156328
   4.2885714 120.2073956  48.5363913   4.2384368 120.0711632  47.0297670
 120.7632828 119.8563004  86.7480278 121.0777664 119.4256401  85.9531307
 121.4981842 120.3994274  87.0329285  13.6551600 103.8736057  68.9844036
  13.5985785 104.0456200  69.9243164  12.8529959 104.2507839  68.6231661
 122.1231556  67.8465843  50.2213335 121.7885208  68.5511780  50.7761288
 121.7603970  67.0476723  50.6039238 100.2907848 122.4248409  96.1515808
 100.8433056 123.1785583  95.9445572 100.4223633 121.8229866  95.4189968
  97.7616405 131.3900089  57.9635811  98.3200359 131.9286823  58.5241652
  98.2212353 131.3612747  57.1244287  12.9399329 124.4469452  91.2971783
  12.3237925 123.7599659  91.5514851  12.4121600 125.0683498  90.7956314
 122.0611382 116.0319710  62.1895218 122.0113373 116.4415932  61.3258314
 122.7508545 115.3739071  62.1030951 122.5594902  15.0326138  70.7817650
 121.8766499  15.4767018  70.2790356 123.3096790  15.6258564  70.7428980
  89.3531513 142.1065426  80.2819729  90.2579212 142.3839664  80.4257298
  88.8852978 142.9147911  80.0720215   1.4578372   2.3987942  79.3892670
   0.8815222   2.7822476  80.0503635   2.3016577   2.8286057  79.5287752
 100.9412003 105.4125023  89.2092228 101.3010311 105.3586769  88.3238602
 100.6975555 104.5120621  89.4238853 111.6074848 108.5291100  70.0306749
 111.5151882 109.4372940  69.7427225 110.9069824 108.4087467  70.6717920
  98.0447769 138.9145756  62.6122856  97.6098537 138.5409737  61.8458033
  98.9033318 139.1892624  62.2903395  29.0615683   2.6138192  58.0163097
  29.4969302   2.1304589  57.3141336  28.2396632   2.1437435  58.1568050
  17.3520308  14.6287518  62.7889633  18.0817919  14.2756443  63.2978678
  16.9745665  13.8661366  62.3505926   1.4834338 124.2770100  71.8943071
   1.7732459 124.6794510  72.7130175   2.0216780 123.4899139  71.8106413
  84.5946598 107.9372692  86.8823338  84.3116474 108.0878448  85.9804058
  83.8572979 107.4852371  87.2924423  83.7319756 127.2660065  12.3369733
  83.5375977 127.5599003  13.2269613  83.1443882 126.5235996  12.1962110
 106.2130165 109.0109444   3.4959737 106.5654755 108.1229305   3.5545865
 105.9518433 109.1049957   2.5799123   7.6996260 119.2905998  76.9692850
   8.0983573 118.4206676  76.9476366   7.1519404 119.2835712  77.7542830
  32.5813609 133.8434219 101.0465240  32.8726225 134.3479538 101.8060398
  33.3892470 133.6139107 100.5873203  81.5527630  84.7843456 108.8949394
  81.4748764  84.3687820 109.7537041  82.4959087  84.8514080 108.7459660
 104.2989540  95.7831287  32.0188180 103.4600830  95.4161644  31.7397920
 104.0657234  96.5839100  32.4884931 118.6305618 131.7731476  82.4384594
 118.3942127 132.5115967  81.8771553 118.7300968 131.0363197  81.8356228
   6.1611109 111.2540722  92.6754761   6.6321211 111.2299728  91.8425274
   5.2421885 111.3570976  92.4281025   9.7969370  90.9904289  71.9128132
  10.5691557  90.5025196  72.1989298   9.8772460  91.8407917  72.3448658
   2.1090155 101.6731358  97.1495342   2.4754458 102.1125126  97.9169464
   1.6564780 100.9081554  97.5048542 114.8705959 132.3324680  92.7363300
 115.2796555 132.3471642  93.6015987 114.1428185 131.7172050  92.8258801
  13.0575686 124.5332718  82.2618103  13.8998442 124.6827888  82.6912975
  12.9325514 125.3021049  81.7054939   1.8332606 140.2423859  97.0065975
   1.9504672 139.3685150  96.6339874   1.1303549 140.6321239  96.4867306
  48.1609278  99.1869068  89.5051384  48.4987956  99.4149399  90.3712082
  47.2809916  99.5631313  89.4846344 105.8295727 107.6936817  59.1929865
 105.9135628 106.9289494  58.6234570 106.5506363 108.2667351  58.9323950
  56.3364344 133.0048084  93.7552834  57.1987467 133.0988312  94.1600418
  55.7329684 133.4043694  94.3817043   3.3932620  78.3142328  64.2362785
   3.0606680  78.0567884  65.0961256   3.0193835  79.1823006  64.0849400
 113.6376190 142.3364449  81.3924885 114.3379402 141.7033482  81.5505123
 113.9546871 142.8668499  80.6614780   4.9741774 114.7975159  86.9784260
   4.3140727 115.0706196  87.6155281   4.8074561 115.3449821  86.2111473
 123.6032009 113.3731079  80.7229710 124.5387459 113.4630871  80.9043312
 123.5052109 112.4736595  80.4105473 115.2101421 111.5297413  97.5143814
 116.0732174 111.1460304  97.3591232 114.6319866 111.0744286  96.9022942
  16.8044596  88.1290722  86.3239956  17.4507933  87.9435158  87.0052147
  17.1961051  88.8335896  85.8077717 120.6336975 106.8780231  91.9782925
 119.8253727 106.9358158  92.4877071 120.3471279 106.6167641  91.1031628
   0.8055335  96.4882755  86.6090679   0.7338839  96.7928791  87.5136757
   0.9490996  97.2852135  86.0986614 114.4594765 117.6432323  30.7008457
 115.3023529 117.1934414  30.7598805 114.3838024 118.1196404  31.5276098
 108.0589676 131.2865829  67.0854187 108.9513302 130.9416008  67.1152592
 107.5035286 130.5092716  67.0261145 123.0192089 117.9045677  94.9525261
 122.5354290 117.1093178  95.1756287 123.9054775 117.5993252  94.7586727
 104.1135406 110.3538990 105.7277679 103.3708763 110.9071636 105.4857349
 104.8620892 110.9503174 105.7414818 116.7835903 102.1534824  52.3500681
 117.3130989 101.3573456  52.3051167 117.0601654 102.6681995  51.5919113
   6.4969092  20.5408650  79.4404602   6.6474276  21.4818364  79.3501329
   5.8162909  20.4703312  80.1097965   9.0542536  93.0830765  47.2162151
   8.3763629  92.9902172  47.8855944   8.6343127  92.7894688  46.4077091
  21.3874751 131.0053349  94.7095013  21.9873458 131.0322762  93.9640713
  20.7745009 130.3011417  94.4983196   6.0075312 114.7418308  57.4496412
   5.2717715 115.3284168  57.2740936   5.6441718 114.0667534  58.0227661
   5.0970584  94.5902824  15.0683442   5.8201247  94.3461132  14.4905988
   5.4250556  94.4140244  15.9501497 102.9967308 103.7749672  92.4934578
 102.5251198 103.7185574  91.6624165 102.3150921 103.6998558  93.1612587
  80.6557560 105.6599045  80.6562901  80.2313137 105.1436710  79.9710226
  80.2933121 105.3174114  81.4733410  12.0986300 124.0601254  69.7293139
  11.2468176 124.4537449  69.5403528  11.9092589 123.3762836  70.3717518
 113.3125687 103.7131023  89.7933865 112.3906136 103.5975647  89.5634365
 113.7661362 103.0133247  89.3234730 101.5564823  92.6044083  87.2150517
 101.5926456  91.6913700  86.9299412 101.3493729  93.0955696  86.4200115
 117.8039074 114.7879887  69.9549437 117.1778870 115.4906654  70.1297855
 117.3612499 113.9932537  70.2527380   1.8947630 130.1872540  57.0619678
   1.8683653 129.7439671  57.9099274   2.2533255 129.5339584  56.4612436
 109.0784359 109.4501972  47.6352119 109.6623611 108.8068581  47.2334909
 109.2735767 110.2686501  47.1788406  36.2402468 134.4604969  82.1053600
  36.1005526 134.8814106  81.2570953  37.0147448 134.8943329  82.4633598
  12.3573332  91.0479927  27.4298898  13.1646281  91.1989975  26.9382516
  12.2416239  91.8429375  27.9503766  10.0084620   0.9794789  85.0674343
   9.3214732   1.1867504  85.7009411  10.2623587   0.0802307  85.2750874
 114.4415569 112.2542763   2.3795167 114.2263794 112.6176834   1.5205232
 113.7882519 112.6305962   2.9692689 104.9156284 115.9770966 108.2255077
 104.7838020 115.4351997 109.0034580 104.3132019 115.6143951 107.5760841
 115.8868313  77.5111771  83.5620594 115.1336288  78.0526352  83.7981510
 115.5048275  76.7350054  83.1523514 110.2560711 118.3667183  96.7182350
 110.4656124 118.5304070  97.6377678 111.0519981 118.6082458  96.2445354
  96.7216873  24.1887837  99.1539001  96.1464882  24.0587025  98.3999443
  96.6226578  25.1151448  99.3736935 116.7115402 119.7911835  60.4539490
 116.2143517 120.4719543  60.0005293 117.5988579 120.1445770  60.5172062
 114.4076920 115.0553989 102.7720928 115.3576088 115.0301552 102.8871536
 114.0733337 114.4142342 103.3992577 112.9276466 110.7574463  56.1645412
 113.1650734 111.1695671  56.9952154 113.6792660 110.2059650  55.9473324
  70.8044338 110.4239845  98.8661957  70.9846783 109.6257687  98.3696175
  69.8986530 110.6428242  98.6473370  93.8139820 138.0124664  94.3154335
  93.3081532 137.4641132  93.7156963  94.6829510 137.6113796  94.3315220
  12.6359969 143.0030441  79.8740053  12.1764975 143.4788895  79.1821575
  12.8588896 142.1606159  79.4779253  85.6704521 122.9629421  34.9065351
  84.9302292 123.2544136  35.4388380  85.7639503 123.6391830  34.2355728
   2.0319872 125.3407478   5.1537935   2.9370146 125.6463051   5.0922433
   1.9102316 125.1378632   6.0812799  98.8379574   6.7316323  66.2757015
  98.4289169   6.5573101  65.4280376  99.1200829   7.6447563  66.2222433
  93.1339931  95.2325821  88.0984306  93.7276173  95.5037689  87.3982143
  93.0270386  94.2900658  87.9701424 112.4234104  83.6531258  91.6122055
 112.8028297  82.8940487  92.0550156 112.5047779  83.4519672  90.6799221
 117.3419571  99.2373466   8.5236112 117.0796394  99.2518616   7.6031724
 117.2704983 100.1487064   8.8074151 116.6848660 102.5848675  66.5011263
 115.7661819 102.3729706  66.3357353 116.7158222 102.8061199  67.4318886
  18.2698565 124.5705891  90.2735519  17.8212672 123.7834263  89.9647331
  18.7607318 124.2804623  91.0423851 118.3977985  93.3078384  92.5070858
 118.7691116  92.4373055  92.3637962 117.5906563  93.1465054  92.9956722
 122.2462749 106.2763786 101.6284752 122.5546169 106.5492725 102.4925804
 121.2917805 106.3013458 101.6958618 120.6641293 121.4024353   6.6356603
 121.0996819 120.5905628   6.3760797 120.3863430 121.7996979   5.8102742
   6.2999468  98.0165768  76.2292814   5.9463339  97.3621273  75.6268787
   6.1598330  98.8523197  75.7841492   6.8621855 113.1195354  90.2365685
   6.7289286 113.9389515  89.7600937   7.6432639 113.2754707  90.7674503
  21.9845706 131.5242577  79.8625422  21.6174918 131.5175915  78.9785480
  21.8930274 132.4316978  80.1530647 110.6483173 102.7020454  35.3952980
 110.3286648 102.3030281  36.2045193 111.3321209 103.3079243  35.6808543
 111.1048508  98.3600044  71.1271811 111.5457916  98.0004787  70.3574181
 111.2795353  99.3002224  71.0859346  11.5398245 137.4059010  54.7219610
  11.4677268 137.9783249  53.9581776  10.8242159 136.7785072  54.6194696
 115.9063530   7.5927716  27.2467804 116.5903378   7.7650242  27.8938699
 116.2179375   6.8250065  26.7675185 116.8246460   7.4922543  59.9494743
 117.7144909   7.5882416  59.6100855 116.8621445   6.7119389  60.5025959
  95.5785561 114.7815132  76.9310808  95.6476498 114.4331169  76.0422182
  95.2615833 114.0445423  77.4532270  95.3711319 140.7144451  58.4016562
  94.5585251 140.2167892  58.4925079  95.4551601 140.8660603  57.4602842
  81.1576653 121.8965626  80.4265404  82.0352650 121.5576077  80.2499962
  80.6757259 121.1451721  80.7720566 111.2085056 104.2105579  54.4259882
 110.4984856 104.6389961  53.9479303 111.8646336 104.8970318  54.5463037
  87.3457146  87.5885201  29.8033428  87.6955700  87.0775414  30.5332327
  86.6119385  87.0679569  29.4765186  34.6061831  82.5621414  70.7225609
  34.6268206  83.4818172  70.4579782  34.6237879  82.0753956  69.8985434
  -0.2930135 103.9623547  75.4904604   0.2536040 104.0974140  76.2645435
   0.1256209 104.4860649  74.8073006   1.2408572 125.6619167  79.5050907
   1.5578299 126.4956951  79.1578674   0.3680354 125.8600712  79.8444271
 118.9046669 106.4626884  94.4115925 118.7925339 107.3745441  94.1429138
 118.0534744 106.2124538  94.7708797  98.2081509  75.5022717  40.8766031
  97.6761246  76.2976885  40.8985376  98.2086182  75.1894093  41.7812300
 110.5275059 105.9171677  61.9304228 110.9546757 106.7544937  62.1110582
 109.9316406 106.1038685  61.2049389   3.8152342   1.6136723  54.1597414
   3.9535933   1.5093975  55.1011324   3.1446200   2.2931176  54.0900230
 122.9774094  92.8097153  58.7705374 122.2498798  93.2616901  58.3431530
 122.5609493  92.2590446  59.4335318 124.2153645  93.0720901  78.3645916
 123.8167000  93.4533310  77.5823212 125.1482868  93.0200005  78.1568384
 122.7621555  91.3156796   1.2710134 122.5208092  91.3795090   0.3469316
 122.8599930  90.3766441   1.4286939 122.5387764  17.7527218  75.4839516
 121.6046524  17.5511532  75.4290771 122.7694321  18.0598812  74.6072054
 118.5579681 106.5018559  55.8140469 118.2254314 105.7494259  55.3246641
 119.4675732 106.2771702  56.0099125   5.6429225  14.2767315  39.5551014
   5.4453402  15.2087384  39.4626641   5.6039553  14.1159993  40.4979038
  38.4495288 132.8513050  78.7536097  38.1778842 132.6528072  79.6497393
  37.6673823 132.6917934  78.2253647 111.0936737 139.4789886  42.3388195
 111.9412518 139.5706177  42.7740669 110.9940720 138.5365105  42.2044516
 103.6993027  90.6418705  88.3833790 103.8847637  91.5638161  88.2049084
 102.7839375  90.5278587  88.1277752   7.5044184 123.5596848  40.6863117
   7.7116900 123.3662701  39.7720575   7.1115046 124.4322205  40.6634140
  79.4168234 104.4782543  70.3438377  80.1209545 104.6957779  70.9546661
  79.7515631 103.7304211  69.8489380 112.4629402 114.0215778  74.6677494
 113.0494881 114.5688248  75.1899624 111.7363834 113.8189983  75.2570868
 111.6731548  89.6694756  55.9778261 112.3301411  88.9803028  56.0760593
 111.4409542  89.9086761  56.8751001  19.8542147 141.8261814  79.3819237
  19.2012148 141.1281681  79.4329548  19.9903517 142.0937252  80.2908325
 119.3157196 113.7161255  18.4107935 119.4857407 114.6159458  18.6894488
 118.8221645 113.8070202  17.5956976 116.0483265  82.6181316  55.8305407
 115.9345818  83.2351303  55.1076269 115.4523754  82.9330158  56.5101910
  92.0492077 133.4762764  55.5675364  91.4020920 133.8219166  56.1823559
  92.2510338 132.6012707  55.8989859  10.2867823 123.6636925  79.1623068
  11.1114626 123.3593273  79.5411253   9.9748259 122.9235840  78.6415815
  12.6834231 128.4448242  74.7535324  12.9885989 128.4517670  75.6607580
  13.4829646 128.5105228  74.2313719   3.1834155 121.0047722  54.5478344
   2.6747828 120.8770752  55.3485966   4.0517836 121.2655354  54.8546886
 124.1856480 145.0970650  45.2027941 124.1807747 144.9714470  46.1517048
 124.1568661 144.2102623  44.8436499 123.0145645 110.6166840  80.2473736
 123.0965805 109.6918297  80.4800606 122.0940876 110.8236217  80.4090500
  94.9996662  93.5688877  64.7629690  94.5845985  93.6445808  65.6221676
  95.8124065  93.0919075  64.9307823 107.4137783 128.0847740  92.8082466
 107.5274181 127.4415016  93.5079002 108.0452633 127.8236961  92.1379566
  96.1851406 119.1429520  58.0561590  95.6021595 118.3926964  57.9400063
  95.6006145 119.9008560  58.0683041  81.1393738 128.3799648  56.7814541
  81.8120766 129.0206909  56.5508461  81.5185165 127.8856564  57.5081921
   4.5437461 127.4646473  52.0335388   5.4666739 127.4387264  51.7810345
   4.1594630 128.1346512  51.4681578 119.4495201 134.3539333  72.5281763
 119.7351742 135.2410698  72.7464104 118.5274029 134.4509029  72.2904396
 112.4488831 132.4616146  65.8702278 113.0142593 131.6898918  65.8383512
 112.9088879 133.1173611  65.3461790  76.8337965 144.1219997  69.4827652
  77.6580238 144.4243813  69.1013908  76.9831038 144.1488171  70.4278660
 104.9518490 134.6505928  49.1917753 104.4539928 135.4658413  49.1306162
 104.9269104 134.2877197  48.3063745  38.1941348 101.2017727  54.2636251
  37.8194552 100.7682419  53.4968710  37.6632624 101.9902802  54.3762016
 108.2452393  89.2567444  79.9046421 109.1787434  89.0473747  79.9356794
 108.0617809  89.6595669  80.7533550  79.7573376 109.9466419  73.0181599
  79.8402739 110.3273678  72.1438551  80.4263687 110.3922176  73.5378695
 105.1887703  98.1185818  86.1730289 104.3015671  98.4325981  85.9984112
 105.0758934  97.4392796  86.8378925   4.7419768  80.9560394  57.7896643
   4.2122202  80.1775837  57.6176214   5.6151419  80.7266426  57.4715471
 101.5531254 102.0450687  45.4965496 100.9868240 102.5843430  44.9445343
 101.9604588 102.6659489  46.1005497 122.5085354  69.2355919  85.4901981
 121.8869591  68.6869717  85.9686279 121.9839191  69.6509743  84.8057461
 120.2031136 127.5349140  48.5571957 120.3279495 128.3941936  48.1543636
 119.4680119 127.6565933  49.1580677  10.0996714 125.2470779  50.5298996
  10.0802165 125.0349140  51.4630890   9.3153506 124.8302174  50.1731014
  15.6554251 122.1174812  79.3505526  16.0904914 122.7025890  79.9707079
  16.1688643 122.1960449  78.5465384 122.6472664 114.0765190  54.2193460
 123.4149361 113.8402081  53.6986923 121.9562244 113.4932423  53.9055300
   5.3297263 116.0669041  63.6023712   6.0572939 115.4671860  63.4373808
   5.7495432 116.9040394  63.8003349   5.2126532  99.5951843  42.3886013
   5.2311640 100.5411530  42.5336409   5.5857783  99.2230129  43.1876612
  19.7703009 116.7148685  27.7211046  18.8555556 116.9676876  27.8458047
  19.8491984 116.5575981  26.7802167  15.5205088 120.5544949  65.9677649
  14.8208170 121.1486816  66.2390423  15.0656539 119.8259068  65.5452871
 104.3112564  89.5537758  26.9575310 104.2606354  88.6024284  27.0502877
 105.0494194  89.6977520  26.3653994  96.2003326 122.3994827  81.0577202
  96.3043308 123.2083893  81.5587997  95.5319405 121.9069386  81.5340328
 112.3180199 124.3187237  47.2709799 111.4781666 124.3718529  46.8148470
 112.2769547 123.4927654  47.7529907   5.8497553  87.3944092  53.2060909
   5.7973605  88.1793308  53.7514257   5.1629859  86.8205833  53.5456514
  92.6729202 138.2654953  21.8917584  91.9753551 137.6936436  21.5714145
  92.4592590 138.4107113  22.8134370 118.3456421  95.6167126  56.7653275
 117.7861786  95.9977913  57.4420929 117.7841377  94.9825573  56.3194752
 111.0270214 115.4122925  50.7504320 111.6648293 115.8911800  51.2796736
 111.4265156 114.5533657  50.6129932  10.3196173 107.7054024  80.1768017
   9.6522170 107.9115677  80.8312511  11.0673934 108.2526970  80.4166794
 118.6004543  98.2458591  88.5162735 117.6621723  98.3164120  88.6920261
 118.9061165  97.5658989  89.1166496 124.5355606 118.0285931  26.0687709
 124.7994804 117.9552269  25.1516032 123.7718964 117.4565125  26.1447477
 118.9046383 143.6461449  59.3240452 118.7618065 142.7722836  59.6876287
 118.5437775 143.5991287  58.4387159   2.9907160  56.8850660  37.1713543
   2.3149043  56.8629360  37.8488708   3.8139182  56.9452333  37.6560640
  90.4558086 117.1307659  65.7849836  91.3388157 116.9787979  66.1217690
  90.4105949 118.0773067  65.6498861 116.9460297 123.3595848  45.5933952
 116.9329357 122.7878475  44.8258209 117.5219250 124.0823174  45.3439093
 116.0439110  12.4611645  37.0821071 116.4482021  12.7146511  36.2523293
 115.1047134  12.4508171  36.8976378 110.6398487   2.1591645 101.2762547
 111.3819981   2.4763851 100.7616615 109.9414635   2.0295124 100.6346226
  98.0582142 102.1586514  70.5860949  97.2916603 102.0255375  71.1436749
  97.7419472 102.7125168  69.8723412 123.9951324  74.0908051  85.0684357
 124.6809673  74.3019342  85.7019138 124.0734100  73.1459522  84.9366856
   2.6942092  98.6307144 105.9311581   2.2386485  98.6547947 105.0896645
   3.1151610  99.4876099 106.0002327 122.2816181 109.3226147 107.4233627
 122.9550171 108.9959812 108.0200863 122.7608585 109.8593807 106.7921448
  25.1491194 131.3940430  42.8581762  25.1550227 132.3266602  43.0736065
  25.0197630 130.9548569  43.6987877  98.0941105 123.4502792  56.4546347
  97.2524166 123.6216354  56.0322475  97.8654861 123.1858921  57.3457384
  23.5068732 128.8108063  51.3288498  23.4914427 129.0452766  50.4009390
  24.1380339 129.4159126  51.7183352   7.9264289  11.4397889  74.5155573
   8.3134871  12.1586018  74.0158319   8.0964976  11.6651230  75.4301786
  89.4497204 127.1731949  51.2635994  88.6297321 127.6323795  51.0819483
  89.4826698 126.4743328  50.6103516 113.5127926 129.0976048  83.3980179
 114.0045357 129.8082066  83.8096714 113.3504009 129.4041634  82.5058937
   5.2513152 125.6960773  57.2481585   5.2711707 126.6182518  56.9923496
   5.0570803 125.2266121  56.4369202  98.6049938 121.0482025  80.3787804
  97.8635025 120.5790520  79.9962568  98.3292580 121.9647789  80.3884697
  98.1294250 117.5839424  33.4788108  97.5767040 117.7381229  32.7126718
  98.7184715 116.8785381  33.2111382 113.7907314 114.0919590  52.5777054
 113.2460785 113.4941006  53.0897141 114.5133209 113.5483170  52.2637987
   7.5005084   9.5281105  40.5742025   7.5586062  10.3948574  40.9762144
   8.3763629   9.3678360  40.2229023  60.3334236  20.8546048 106.6347218
  60.2285099  19.9031620 106.6322613  59.6084785  21.1768895 106.0991764
   2.7339678  87.8084183  61.1695099   1.9382697  87.4091721  61.5212059
   2.4529963  88.6691952  60.8591032   4.5939379 103.2612228  89.7022533
   4.0888053 102.5065517  90.0048161   5.1746970 103.4696674  90.4340363
 122.0509243 131.5820312  80.9566021 121.7817497 131.2205791  80.1121330
 122.6435757 132.2993946  80.7321167 115.5639839  68.6945152  97.1083069
 114.9947548  68.3391428  97.7908897 115.1565075  69.5259142  96.8654823
 123.6089039  82.1363640  54.4822550 123.6313629  81.5605640  53.7179375
 122.9393387  82.7873325  54.2721319 111.2583065 113.8880348  30.9546661
 111.3259315 113.9224339  31.9088531 111.8970299 114.5306492  30.6459546
  94.1823006   3.6573963  64.4505215  94.6004200   4.3282395  63.9107275
  93.2458878   3.7653714  64.2840719   8.0792075 101.6871834  22.7028966
   8.4687453 102.2623539  22.0443583   8.8257914 101.3493061  23.1975484
  31.2192088  96.0036373  65.9374428  30.4258662  96.4815331  65.6956768
  31.6217070  96.5382957  66.6218138 119.8318291 130.9992981  37.4911737
 119.5502472 130.2599525  36.9523740 119.0648079 131.5703201  37.5339675
  93.6829948 123.4143448  34.9692011  92.8063869 123.7300777  35.1885223
  94.1742516 123.4835243  35.7878041 123.9353943 102.3926449  31.7098975
 123.8995552 102.8101635  32.5704932 123.0193996 102.2317123  31.4834285
  87.5096703 130.4795551  41.5686083  87.6207829 130.3720951  40.6239748
  88.1823063 131.1131382  41.8183517   3.2576018 112.7795792  42.4803448
   3.8016730 112.1019936  42.8817129   3.0433970 113.3725548  43.2005739
  69.5422125 104.8677826  74.5161772  70.4143620 104.5174694  74.3348932
  69.7052383 105.6794453  74.9966621  91.8874550 113.7292862  84.3544102
  91.2937832 112.9883003  84.4757175  92.3947716 113.5045433  83.5744381
 101.3089085 131.7822456  91.8818378 101.8557262 132.2562122  92.5083923
 100.4115105 131.9727707  92.1550083  87.6109791 119.6082592  51.6680050
  86.7309475 119.6026897  52.0445061  88.0305481 120.3785706  52.0511723
   4.7655802  96.8232918 102.6992130   3.9016181  96.8156242 102.2872162
   4.6140700  96.4800072 103.5797977 124.5944405 110.2812576  85.9311581
 124.0570927 110.0144672  85.1852894 124.1475868 111.0500145  86.2854958
   1.6373187 121.5602875  60.9691429   1.6097003 120.8553982  61.6161346
   2.3627120 122.1169567  61.2522411  14.0449553 116.5318775  77.8436899
  14.2588454 117.4522114  77.6905251  14.6571570 116.0482121  77.2891569
 101.2056828 106.0221863  45.9537601 101.5098476 106.6753197  45.3235722
 102.0068645 105.6838036  46.3535547   7.8667193 128.9699173  60.5312109
   7.7306586 128.7816143  61.4597940   8.7852507 128.7509060  60.3744984
  17.3253184 108.5443115  31.2613797  17.5391036 107.6113415  31.2525415
  16.4207297 108.5857010  30.9511518  13.8720065 118.0547333  64.9970055
  14.3293791 117.5900459  64.2962170  13.8676673 117.4388313  65.7297230
 110.6752777 107.3932362  29.9146247 111.5270901 107.6378441  29.5529389
 110.7987118 107.4286938  30.8631706  18.7748557 111.4101887  64.3842173
  19.3256598 111.2739563  63.6133242  18.3507567 110.5642223  64.5280933
  10.6337100   2.4654560  53.7193060  10.0005084   1.9960289  54.2623806
  10.3046828   2.3643570  52.8261328  90.6456661  95.7686710  72.1002913
  90.4467010  94.9056435  71.7372084  89.9085617  95.9603214  72.6800919
  14.5876246  83.3850288  19.7363245  14.0698653  83.7430763  20.4574060
  15.4162245  83.1281662  20.1408839 119.7220135 123.8087559  88.0322075
 119.5646286 124.4752407  87.3634434 119.9387074 124.3068123  88.8203812
  15.1484805 128.6600780  99.8778343  15.9355383 128.7452221  99.3397617
  14.5969802 128.0411720  99.3992805   5.4510336 146.0455799  92.7332878
   5.3508788 146.0303783  91.7814636   4.6895152 146.5336800  93.0464840
 111.2360764 103.2646847  71.4234161 110.5629730 103.4938049  72.0642471
 112.0558548 103.2924557  71.9167948  36.1028796   8.6398774  76.7550611
  36.2084132   7.9941540  77.4537325  36.8632823   8.5068112  76.1890984
   7.2412520 131.8720627  63.6966228   6.9011622 131.1178875  64.1780710
   7.5720244 132.4602604  64.3754768 115.4388523  87.7683067  79.8142290
 115.6583691  88.6735535  79.5938635 114.5869827  87.6215363  79.4031191
   6.5131026  98.4614468  57.8725052   6.8972807  97.9427814  58.5793495
   5.7060652  98.8151932  58.2463694 122.5506020 131.9324207  51.3114882
 122.4500465 132.0140266  52.2598886 123.2054520 131.2434959  51.1984634
 103.1176758  94.2824268  64.4617128 103.2863235  93.3553505  64.2934465
 103.8850689  94.5807171  64.9499273  15.2516013 118.3595753  48.3736134
  15.3097754 117.9186535  49.2212152  15.9819441 118.0033684  47.8677082
 104.1471672 139.5614815 106.2611198 104.4769096 139.3964863 105.3777790
 104.9236774 139.8050594 106.7650318  10.8782321 101.5013027  54.7599363
  10.4469233 102.3158169  55.0183201  11.2083464 101.1344624  55.5801058
 123.0125141 138.7772465  30.5106616 122.4396896 138.1368446  30.9325695
 123.8577366 138.3333969  30.4411364 117.8884506  89.5241070  41.3026237
 117.6241493  89.7379780  42.1974087 118.6978912  90.0168896  41.1677074
  96.9800377 115.1664543  62.4562216  96.6890144 115.3040123  61.5547705
  97.8549671 115.5534744  62.4871445 120.9982777  77.9172850  40.3451109
 120.2522373  77.3634577  40.1150227 121.3718891  77.5044870  41.1237240
 102.2124386 126.6417694  45.8076477 102.5642395 126.4205933  44.9453545
 102.4460983 125.8958817  46.3601732 117.0259190 143.1499958  78.2895327
 117.2453880 142.2347260  78.4637547 117.3018074 143.2943344  77.3843908
 119.3182755 117.2062302  82.9665375 120.0651646 117.4415779  83.5170078
 118.5517979 117.4394798  83.4903049 116.0507393 127.5837898  46.4015245
 115.7811260 126.7564583  46.8003464 116.0292530 127.4139118  45.4597664
 112.9110146   5.2854805  84.8404503 112.0954132   4.9709111  84.4504833
 112.8012848   5.1349049  85.7793331  96.7656040 123.0153942  58.9754009
  96.1643887 122.2739792  58.9040518  97.1378517 122.9382133  59.8538685
  15.8893710 125.5514717  46.6621780  16.7233782 125.9838486  46.4785671
  16.1040431 124.6190739  46.6902065 102.7004528 104.9572468  29.5136094
 103.4867764 104.7453403  29.0106058 102.0787621 104.2648792  29.2892098
  20.6999045 146.5955162  85.7109928  20.4331427 145.6762409  85.7139587
  20.1720172 146.9958687  85.0201321 121.5471935  98.9777088  61.3108730
 121.6464615  99.5302486  60.5355835 121.0369110  99.5103836  61.9208765
 119.7586918 112.6410007  39.7899795 119.4437313 111.9376087  40.3576660
 120.5977249 112.3225403  39.4570541  80.7961464 130.6518459  50.3915739
  81.0573483 129.8289108  50.8048344  81.1721516 130.6082726  49.5123959
  31.4911872   2.2308998  52.5763178  32.3561888   1.8304425  52.4889517
  31.6239005   2.9571514  53.1855583   2.1925097  83.8076591  51.5875292
   1.9015532  83.4636211  50.7430077   1.8342238  84.6946430  51.6210938
  83.2129097 132.3751926 101.6170979  82.3749161 131.9663715 101.8335342
  83.8521671 131.6670513 101.6952801 117.9205227 128.1154346  95.0283718
 117.0102978 127.8199482  95.0079441 117.9692268 128.7882423  94.3492699
  18.7404948 131.6574669  68.4970427  19.5911151 131.8914604  68.8684082
  18.9378195 131.3803005  67.6023531 112.0430756 113.0344772  55.0012970
 112.3866463 113.7239742  55.5694437 112.3940372 112.2236443  55.3695631
  48.1145983 109.3862820  72.5724268  49.0170222 109.4341373  72.2569036
  47.9768305 110.2152634  73.0307293  35.9100657 112.2012138  67.9764938
  36.8409091 112.1557522  68.1948853  35.5500537 112.8380966  68.5937548
 118.8670826 130.8816528  76.5845060 118.6212254 131.2496090  75.7357454
 118.0939388 131.0097694  77.1341133   5.5166941   7.1376973  88.8210201
   4.9922782   6.7030697  89.4935703   4.8808699   7.4058800  88.1576729
  83.0590916   3.3856469  70.7520914  83.9843655   3.3223229  70.5152369
  82.6918030   2.5347500  70.5127001  18.0888205 110.0432110  45.8010197
  19.0108519 110.0580788  46.0576582  17.8972273 110.9450722  45.5437756
  12.2485667 104.3664646  88.7156487  12.7940779 104.5232487  87.9448891
  12.4935942 103.4885406  89.0079403 102.7790165 100.0208664  72.5186825
 102.7249527  99.6965122  71.6197348 103.5397720  99.5735645  72.8893566
 124.8063755 122.7847004  93.6573505 124.8745251 121.8947124  93.3116436
 124.3391800 123.2705212  92.9776955 120.6692505 103.1658173  84.7995472
 120.8526802 102.2741890  84.5035839 119.9572563 103.4642982  84.2336750
  24.9309855 135.5987453  58.8708067  24.6308547 135.7121944  57.9689837
  25.8539229 135.8516693  58.8496828  22.1299677 122.4550056  84.0717220
  22.6774912 122.6172924  84.8399067  21.9324236 121.5192699  84.1117477
  86.5837383 104.8003292  71.5793753  87.2302246 105.4236984  71.9105864
  86.5687084 104.9503708  70.6341314  11.9705515 132.4417877  79.7966957
  11.5421992 132.1982574  80.6173325  11.2919074 132.8968716  79.2981339
 117.7014065 127.6216698  75.5753231 118.5482121 127.6859474  75.1337194
 117.2491741 128.4333801  75.3454542  20.7707434  95.4019451  80.8654404
  21.6759902  95.2359581  81.1284924  20.8125716  96.2159729  80.3635883
  35.5712634  27.7100354  69.0622950  35.8464747  26.8234234  69.2955685
  34.6309977  27.6340657  68.8999891 112.7245522 113.0895329  57.8563881
 111.8983746 112.6956177  58.1365299 112.8140545 113.8713741  58.4013271
 112.9522514  90.5758953 105.7895374 112.0594025  90.3102016 105.5694008
 113.0126381  91.4832973 105.4908752 120.9275627 122.6288795  19.2719471
 121.1481953 123.4793758  18.8922000 120.1852512 122.8094101  19.8486829
 118.9814568 120.2608395  40.6161690 118.7623882 120.2253342  39.6850491
 119.1747665 121.1835861  40.7817268 116.2932682 139.3615055  39.8289323
 116.0012245 139.7558880  39.0071034 116.9176769 138.6868095  39.5622253
 109.6444225  93.9020538  64.0865231 108.8205719  94.0791607  64.5405483
 109.5741844  92.9881859  63.8105869 123.6654282  13.7799626  41.2060261
 123.5036278  14.7162228  41.3221645 123.2151699  13.5583859  40.3909159
 124.1805267   2.9880982  21.8564653 124.3112755   3.4010582  21.0028839
 124.2366886   3.7097626  22.4827933 118.1330013 127.8598213  50.5827999
 118.0662251 127.2203159  51.2918854 117.9232407 128.6976814  50.9953785
  96.7651844 130.4345226  50.4158068  97.5885582 130.7335186  50.8016729
  96.1046124 131.0299587  50.7698202 100.4035473 138.8785267  57.9640484
  99.5726299 139.3174267  57.7819204 100.9957981 139.5846844  58.2225466
 112.2605133  97.5869465  49.4459105 112.5367832  98.2608128  48.8247776
 112.5168324  97.9305172  50.3017664   2.3691302 135.0032520  56.8115377
   1.9071322 134.1822243  56.9809484   1.8597537 135.4265118  56.1204338
   7.5264960  96.7614746  59.8690939   8.2057314  96.9661045  60.5117416
   6.9686537  96.1184120  60.3067207  14.2757254 131.7300606  57.6742411
  14.4331866 132.6478958  57.8956509  13.4837943 131.7457867  57.1368027
  98.7537956 131.8601131  72.2535419  98.0731201 131.9587421  72.9192686
  99.2152119 132.6987457  72.2566938  97.3327827  93.5122871  25.7376289
  97.8938866  92.7555466  25.5681086  97.8635025  94.0846539  26.2916636
 124.2579556 131.9868469  29.2073035 125.1645851 132.2791576  29.1134930
 124.3277836 131.0965824  29.5519543  23.2991629   2.9253655  25.6033921
  23.9867049   3.4169178  25.1540565  22.4894076   3.1959801  25.1706290
 102.0738697 140.4318142  68.9153814 102.9521465 140.7034111  69.1820097
 101.6007519 141.2524986  68.7779999 120.5741978  19.4112950  54.1512012
 120.0622272  19.7032338  53.3969593 121.4849472  19.5447331  53.8886023
 117.9656506 144.2257595  75.8675003 118.6976624 143.9531898  75.3142452
 118.3790684 144.6426487  76.6234922 124.2073917 137.0498466  35.0481868
 123.9111900 137.1954632  35.9466791 125.1107121 137.3663712  35.0395226
 118.1375599 116.5417290  52.6689672 117.5518036 115.7847309  52.6598167
 118.6876678 116.4095879  53.4410715 113.9465141 120.2460289  55.6722879
 113.2080460 120.8547401  55.6914377 114.6004868 120.6800079  55.1243687
   9.3213778  97.3856544  92.4960518   8.6954051  97.6069927  91.8065643
   9.3753367  96.4302635  92.4728775  14.8137789 106.6163921  25.7990074
  15.0604945 106.2479687  26.6473150  14.6033221 105.8545399  25.2590799
  25.0012332  98.3003712  24.5077181  24.1794425  97.8264141  24.3802404
  25.6297236  97.6254368  24.7640133  99.1056824 132.6254654  43.1869936
  99.8858929 132.4409008  42.6640797  99.1625214 132.0180893  43.9246130
  85.6523418 125.1594830  25.4978657  84.9049473 125.4728985  26.0071945
  85.7316303 124.2350006  25.7329702  94.5020962 136.0395241  16.6066778
  95.4233265 136.1124420  16.3571763  94.3258572 136.8359184  17.1076035
 115.2434349 114.9592876  42.8299522 115.5255032 115.8588409  42.6642323
 115.8479595 114.6381187  43.4990072 107.4508381 144.6510410  63.4201479
 108.2741547 144.1628933  63.4107304 107.6996422 145.5448627  63.1847668
 122.6486969 136.7228889  60.3322744 123.4909916 136.5106583  59.9301195
 122.0947742 136.9927502  59.5997620   9.1180163 103.5331726  72.4201059
   9.6912318 103.4294510  73.1796455   9.5661860 103.0644798  71.7160368
   3.7272864   0.2596073  75.8039665   2.9840499   0.8088284  75.5545712
   4.4736224   0.8587723  75.8185291 101.7236710   2.1170979  45.8536720
 101.2886238   1.4143162  46.3364410 102.6516438   1.8833332  45.8747387
  16.3336688 137.1367741  19.2850482  16.3092070 137.1170521  20.2417326
  17.0162135 136.5082264  19.0499008 122.0302296  85.0348473  51.0325050
 122.6492214  84.3604279  50.7527781 121.8033695  84.7940254  51.9307137
   7.8687697   4.3085938 101.1242771   7.3891764   4.6489792 100.3690624
   7.8629428   3.3590489 101.0035801   9.8294097 133.6862373  78.2387877
   9.8914176 134.5901394  77.9300117   9.5645362 133.1868839  77.4663067
 100.2417946  88.0640602  37.2264457  99.6743965  87.6137829  36.6007137
 100.8824921  87.4026680  37.4878025 106.1446667  81.9144440  41.8514824
 106.9522762  81.4223862  41.7035437 106.4363003  82.7479935  42.2207785
  12.3123866 132.1567059  51.0989761  12.6321726 132.6591969  51.8482828
  12.5190478 132.7014351  50.3395081  86.7729378 129.5248699  33.8003707
  87.1578217 130.1930428  34.3675089  85.9153938 129.3476105  34.1869402
 114.7235966 114.8168087  18.4372377 114.7729874 113.9419270  18.0520451
 114.5087910 114.6617603  19.3570471  30.0970011   6.2329274  38.9274383
  30.9284716   6.6963463  39.0280700  29.8171359   6.0457688  39.8234725
  11.7233592 123.5365486  56.7226982  11.7488223 124.0331745  57.5405931
  12.6157027 123.5921288  56.3808584 107.4711323 119.8141193  68.8551998
 107.2236538 118.9067173  68.6774015 106.8511963 120.1047897  69.5240974
   5.5793887  98.7995243  52.1248102   5.3662901  97.8687382  52.0580912
   5.6470996  98.9628983  53.0655336  11.5930491   1.4778595  48.8299799
  11.8357401   0.5858307  48.5817480  11.1410742   1.3787155  49.6679115
  13.8509112 117.4687481  29.6256995  14.5476180 117.3597431  30.2729654
  14.2692690 117.9302311  28.8989019 113.3106709 114.9141502  45.7694530
 113.0512810 115.1746082  44.8856497 112.5057888 114.9771976  46.2836695
  31.0495215 106.0229874  27.3611355  31.8419486 105.9125423  27.8865838
  30.4003459 105.4623604  27.7859950 102.8282166  97.3836613  58.7410021
 103.5851574  97.7579308  59.1917753 102.2968483  97.0033455  59.4404602
 107.2786236  93.5523510  65.7801342 107.6717758  93.4891415  66.6505718
 106.5661526  94.1830349  65.8843565  94.8251534  95.4458714  33.3018208
  95.4967690  95.9957314  33.7053275  94.1334915  95.3899193  33.9611459
  16.6650897 103.7339783  53.0072784  16.2246256 104.4716263  52.5852680
  17.4242621 103.5584354  52.4513197 103.0579567 109.2701912  56.4077139
 102.9013729 110.1668358  56.1115217 102.1846294 108.9201641  56.5838051
  97.1656418 101.3213253  34.8389006  98.0789280 101.0457134  34.7602248
  97.0526218 101.5128899  35.7699013  17.9026251 112.7970982  73.2997274
  17.4395495 112.6407051  74.1227341  17.7271586 112.0166016  72.7741241
 108.6357498  99.2446327  79.3390179 107.7917862  99.0118980  78.9519835
 108.7701225 100.1587009  79.0886927  11.5222865  84.5804977  52.7678776
  12.2506457  85.1272202  53.0625200  11.5421038  83.8209820  53.3501005
  80.8014393 116.4657688  19.8197925  81.1254501 117.3644829  19.8794639
  80.8058262 116.2713146  18.8825619 123.0246449 131.9147968  86.0019588
 122.6200867 132.6819324  86.4070129 122.3667240 131.2246323  86.0859489
   5.2231627 130.9434509  45.4600954   5.7807093 131.7195225  45.5156517
   4.3716078 131.2798023  45.1809168  10.2546626 102.6177216  50.9479427
  10.7931357 101.9950485  51.4363718   9.7614890 102.0761013  50.3317785
 116.7935276  22.5783520  84.6325874 116.0810661  22.5159054  85.2687740
 117.4807644  22.0137768  84.9864292  16.7358618 112.7975559  32.6951075
  16.4842730 112.0366287  33.2184887  16.2352782 112.7066803  31.8843150
 107.7831936 115.7956314  45.7830477 108.3113670 116.3813877  45.2406979
 107.4092293 116.3644791  46.4559507 103.9663506 146.0488033  56.4691782
 103.3394146 146.7366409  56.6929293 104.6784019 146.1595726  57.0992088
 106.9504738 105.5416870  41.9294262 107.2879505 106.4330387  41.8408537
 106.5288544 105.3606415  41.0893726 124.7932434 131.8479824  45.0878143
 124.7929287 130.9240818  45.3380966 123.9192963 132.1600056  45.3225183
   3.1005126 111.6631603  57.6379919   3.3300906 112.1719933  58.4155655
   3.7228518 110.9358978  57.6353073 115.8773518 119.4737244  47.9815483
 116.2322140 119.8742008  48.7752247 115.0698471 119.0475082  48.2687998
 108.1387520 121.0954189  66.4951277 107.7554798 120.8127689  67.3254538
 107.3968601 121.1406994  65.8919859 103.5526276 136.5449715  24.7876263
 102.7442837 136.6669178  25.2855539 103.3196163 136.7837334  23.8904452
  19.8539382 119.9563026  17.8731430  20.0997286 119.1010761  18.2258523
  19.2031127 119.7594738  17.1994102  69.2816448 116.5832520  41.9131231
  69.0317917 116.2446880  41.0533667  69.9759674 115.9948730  42.2097015
  95.0266361 121.0711861  19.9530351  94.6546459 121.9488907  20.0396323
  94.3378544 120.5599689  19.5282352 104.1414833 124.3645763  30.6723285
 103.2902622 124.1021824  31.0227466 104.1913223 125.3050518  30.8433890
 104.9847984   5.8947926  98.7009621 105.4730701   6.1007386  99.4980907
 105.0811291   6.6737633  98.1530952  98.2432938 110.7992554  73.9941931
  98.7293434 110.9307766  74.8082495  98.2494450 111.6574383  73.5702467
 110.2140045 123.6225128  30.5666709 109.5123863 124.1021538  30.1263189
 110.3218079 122.8255939  30.0475121  96.3763428 107.5559425  38.0812764
  96.4661121 108.2112026  37.3893142  97.1847057 107.0454884  38.0340791
 113.4380531 127.2565269  33.7220025 113.9027309 126.6161919  33.1832290
 113.1113338 127.9035187  33.0967927 109.4783878  97.8232479  64.8197746
 108.8445091  97.5106812  64.1742325 109.9858284  98.4883404  64.3546057
   7.5483065 105.1562500  18.6343265   8.0680781 105.1686001  17.8306353
   7.1842127 104.2717361  18.6705291   5.5987673  94.6354675  40.7889366
   4.8389941  94.6802425  41.3694334   6.3501578  94.7660351  41.3673782
 123.9788914 139.9880886  40.9706116 123.3470345 140.1414967  41.6730738
 123.9181805 139.0491486  40.7946920 106.9648838 116.5307045  60.0388670
 107.3605537 117.2643661  60.5094242 107.1794319 115.7627964  60.5685091
 123.4886646 140.6245804  75.9178019 123.1081772 141.4838314  76.0998678
 124.2856693 140.8154774  75.4232645 124.2289162 116.3376331  34.4611478
 124.0160751 117.2484589  34.2578816 124.3427658 116.3246059  35.4114628
 113.7758636 107.8200054  77.1263075 114.5467186 108.3871365  77.1456051
 113.8173962 107.3313427  77.9483318 124.8301220  87.6066971  64.9229622
 124.8926258  87.7655983  63.9811134 124.3069267  86.8085670  64.9970055
 117.1217251 131.2111950  40.5530739 117.7046490 131.1024284  41.3044786
 117.3307323 132.0806694  40.2116728  97.3895836  95.6359577  21.1406660
  97.9569626  96.4038849  21.2084222  97.9324055  94.9741554  20.7121849
 111.3368130 107.2119808  51.7640781 110.5103874 107.1791935  52.2459269
 111.0863686 107.4669361  50.8760977 115.8675289 111.7846870  28.9237618
 116.4513206 112.5075531  28.6937833 116.4372635 111.1417198  29.3459272
   5.8831530 117.9001808  46.1297560   6.0012084 118.4748077  45.3733826
   5.4301863 118.4433079  46.7747879 123.8847828   2.6098328  89.5463943
 123.9985466   2.9154377  88.6464596 124.7587013   2.3268872  89.8155403
  98.6522579 132.9417992  32.8815389  98.4205914 132.8466415  31.9576836
  97.9031849 133.3927822  33.2710814 114.0693760 105.2060699  41.0207748
 114.8497391 105.7530403  41.1106968 113.9635086 104.7967815  41.8795586
 122.4193478 110.3341007  51.1408377 123.1556129 110.6286716  50.6047535
 122.6623821 109.4503021  51.4166355  89.0614700 139.4314289  42.5408030
  89.2475414 139.3111038  43.4719992  88.1330681 139.6624088  42.5099659
  33.6740618 103.7076855  58.4458876  33.8280230 103.9401054  59.3615866
  33.9807349 102.8038406  58.3733654   9.4569903 138.8514328 103.1523514
  10.1202708 138.8641739 103.8423729   8.6302882 138.9979267 103.6120605
 117.4770927 103.2633114  15.2619958 116.7987251 103.0952930  14.6079206
 117.1161556 103.9623070  15.8072996  94.3516827 126.9853592  70.5888224
  94.1484165 127.9201126  70.6227112  95.2928638 126.9509602  70.4178619
 124.3770504  74.8731756  18.6607516 125.2652359  75.0097656  18.9904451
 124.1612720  73.9768076  18.9180291 106.2574673 130.4634571  58.5468817
 106.0527515 131.2174129  57.9938364 105.6459713 129.7843742  58.2620049
  18.8054782   0.1651459  73.4855747  19.2366534  -0.6753750  73.6400032
  19.2108470   0.7615071  74.1150665  96.6819954 113.1413269  18.6430967
  96.7086315 112.2559261  19.0058541  97.0218468 113.0459499  17.7533591
  82.9001713   6.8711453  66.2245655  82.7769756   7.7922898  66.4538288
  82.8834534   6.4111405  67.0638180 122.8698444 129.4153118  20.3749013
 123.0740547 130.3123093  20.6393385 122.0541191 129.4913673  19.8798800
   2.2341662  15.6387120  55.7990313   2.1584921  14.8252468  56.2978220
   3.1542330  15.8880978  55.8857203   1.6269236 107.7876854  34.7582245
   2.2266799 108.5051441  34.5538402   0.8582812 108.2175159  35.1332760
 106.8307209 129.1825294  44.9488449 105.8998013 129.1246891  44.7337437
 106.8557644 129.6605015  45.7777929   2.9282599  92.9146671  63.7619877
   3.6961966  93.3564186  64.1244316   3.1048518  92.8592300  62.8228521
 118.4883308  99.7483730  26.6506672 118.4170914  98.9815140  27.2190785
 117.9740238 100.4233646  27.0935202  15.6144553  93.1343842  84.7043419
  14.7672015  92.7731133  84.4438171  15.9745627  93.5053730  83.8987923
  31.3146430 121.5481281  59.0337133  31.5925818 121.5073204  58.1186581
  32.1304732 121.5173149  59.5334196 111.5021801 122.0281219  71.9133902
 112.3906898 122.2395325  71.6268921 111.6206932 121.5820694  72.7519798
  96.3380527 115.3604221  70.0741196  95.5696774 114.9853706  70.5044222
  97.0808697 115.0281715  70.5781603 103.8203812 133.0071545  68.3506966
 103.6984921 132.6995182  67.4525118 103.1185436 133.6444759  68.4828949
  93.5803986 140.8906269  23.4856820  94.2821407 140.6463051  22.8822780
  93.9599895 140.7697105  24.3560410  89.5660591 118.0354691  47.8185415
  89.0570831 117.7644253  47.0545292  90.2425194 118.6121082  47.4633980
  76.4300680 123.2940674  48.3233356  77.1050596 122.6353455  48.1599045
  76.4832449 123.8832855  47.5708532  94.9639130  16.0969715  69.8669291
  95.8922386  16.2314778  70.0575829  94.7002220  16.8852215  69.3922186
 106.2950420  80.6097984  31.3660121 106.3568974  81.3407135  31.9809604
 106.5884781  79.8492289  31.8676758   9.1428023 117.7050114  46.4998293
   9.6451693 118.1132603  45.7947111   9.6440344 116.9223881  46.7289591
  10.7074671  16.5730267  57.0233965  10.4834204  17.4027424  57.4448204
  11.6073351  16.6936665  56.7202473   4.4996386  14.1185551  58.9235640
   5.3151541  14.5502262  59.1781569   4.6738177  13.7752705  58.0471754
 120.6043816 110.8979893  48.9360046 121.3970470 110.8875275  49.4724798
 120.1791382 111.7275906  49.1531467 107.5731373 107.2817326  70.2916718
 106.8267155 106.6889191  70.2041960 107.2411919 108.0086803  70.8185434
  71.1437082 131.0669994  78.5589409  70.2791452 131.1153698  78.9668894
  71.4243031 131.9790268  78.4834719 116.6205978   5.5627804 108.7823391
 116.0209370   6.2178688 108.4252739 117.0995617   5.2360897 108.0206966
 101.9505215 105.1126385  35.5106044 101.3056946 105.6766605  35.0836325
 102.6208019 105.7157135  35.8319259  85.2503204  43.2868862  46.4974165
  85.7303715  43.1266403  47.3098803  84.3696213  43.5293531  46.7834377
 114.0940380 113.2153130  24.7945070 113.3168507 113.2702446  24.2384601
 113.8366318 112.6327038  25.5090332  93.3549595  91.7804718  44.9514961
  94.0430832  91.7551327  44.2866039  93.3294773  90.8908367  45.3038263
  10.1239710 130.1077747  48.2602644  10.3760081 130.3543568  49.1501570
   9.1756468 129.9857044  48.3050442  64.2527628 134.1549587  37.1949267
  64.0996218 135.0986385  37.1474838  65.1224041 134.0339756  36.8137169
  19.7961455 109.0413094  30.0186658  20.0659209 109.9552631  29.9284220
  18.9341097 109.0857601  30.4323697 103.1301594   2.6247197   9.7006804
 103.9017010   2.6816731   9.1370159 102.9246140   1.6903572   9.7316486
  98.7973404 125.3788280  70.4798126  97.9642487 125.0010872  70.1978540
  98.6853600 125.5324459  71.4179468 109.0835953  90.8570099  38.0941439
 109.2970467  90.8195591  37.1617985 109.0752411  91.7916489  38.3005857
  18.3803492 132.0635414  29.0025043  18.3878165 132.4867630  28.1439829
  17.6538306 132.4782944  29.4676805  14.2759066 114.2440701  33.1732607
  14.2968684 113.3752918  33.5745168  15.1964312 114.4641495  33.0303240
  19.0755015 129.9599934  26.7162013  19.2039233 130.7605839  26.2074709
  18.5391932 130.2327347  27.4606633  98.1185341 113.7061310  55.4485989
  97.9453278 114.5223427  55.9176683  98.7644100 113.9444923  54.7835732
  94.0499020 135.8068752  62.4193287  93.1208611 135.6157112  62.2906256
  94.0795803 136.3169670  63.2287502  14.0683871 135.5326653  44.8990488
  14.7415095 136.0301399  44.4346619  14.1924506 134.6300316  44.6056271
  15.7664424   0.7434540  59.0087938  14.9214392   0.5793553  59.4274426
  16.3967829   0.2622109  59.5448112  15.7673293  94.2385483  80.0655365
  16.5827590  93.7372589  80.0639629  15.6269866  94.4647217  80.9849834
 114.0885067 118.7983227  61.8531466 113.4161282 118.9697456  61.1937904
 114.9048138 119.0834332  61.4425421 121.8692207  97.3552704  84.4051075
 121.1939049  96.8131256  83.9973545 122.4991989  97.5209332  83.7037468
  97.8881741  91.6761208  91.2716484  98.6795998  91.6382790  90.7345867
  97.3221493  90.9928036  90.9125900 112.7994728 140.9599590  31.4908195
 113.2965851 140.2825546  31.0322928 112.3363018 140.4893970  32.1838403
 102.8850746  19.0728169  65.6387043 102.7470684  20.0053196  65.8048296
 103.1473637  19.0295964  64.7191572 118.2460785  96.6864109  54.2685175
 119.1161728  97.0815754  54.2135811 118.1775093  96.3830757  55.1737881
   1.3383227 125.1395512  40.2035427   2.2399932 125.4269886  40.0599575
   1.2709838 125.0268173  41.1516905  81.3890457 135.4651451  74.6984100
  80.5223846 135.0634384  74.7596836  81.9808292 134.7328281  74.5259905
   5.6929331  43.7149811  50.4851866   5.3629714  43.4603310  51.3468790
   6.2830763  43.0040836  50.2350140 101.8514442 136.2215424  43.6796141
 102.5728798 135.7612133  43.2508135 102.0950699 136.2392616  44.6051216
  21.2230425 102.1767521  51.9767141  21.5481120 101.2767220  51.9541931
  21.1195498 102.3707962  52.9083061  91.4157677  88.6504269  23.2793021
  91.1048985  89.3387032  22.6911974  91.8838501  89.1191483  23.9702678
 118.9729595  37.0195942  39.0111780 118.1820774  37.4504071  39.3354487
 119.2332745  37.5382977  38.2499862  12.1643668 129.7554302  81.2792397
  12.6612788 128.9377689  81.2520313  12.7502089 130.4047871  80.8901978
 117.1699905 137.8379822  25.6120133 118.0570889 138.1827736  25.7140779
 116.7169762 138.4950542  25.0835538 103.7762737   1.7888241  33.0370474
 103.7497425   1.9222908  33.9845252 104.3377686   2.4924546  32.7116799
 110.6935024 111.6369247  44.7003984 111.0145473 111.4792728  45.5882645
 111.4862251 111.7256260  44.1712856  95.8749485 142.9760075  35.5820346
  94.9769211 143.0812454  35.2678776  96.0815716 143.8114643  36.0010338
  95.4348946  86.5378952  58.6143589  96.2158012  86.8999958  58.1956863
  95.7719040  86.0360909  59.3565464  24.6168547 134.5874119  69.0874720
  23.9721613 134.4670868  69.7846985  24.1005354 134.8562813  68.3276367
 113.2052040 109.2754078  43.5765028 113.6641979 108.7360287  44.2204237
 112.3029804 108.9562798  43.5962582 109.5256042  98.5079765  35.5492115
 109.3950367  97.7381229  36.1028433 110.4580116  98.7076569  35.6326699
  12.9348689 103.7273693  52.4260283  13.6407118 104.3646622  52.3171329
  13.3018714 102.9055023  52.1003342  69.9756527 133.9085770  46.3301802
  69.8928404 133.0228329  45.9768867  70.2062321 134.4476414  45.5735588
 110.3407288 130.6777000  44.0590000 111.2528038 130.4446697  43.8856506
 110.3257465 131.6338730  44.0173674 106.8221283 111.2421799  46.1823320
 106.0963821 111.7298985  45.7929039 106.4408779 110.8190632  46.9516468
 110.5568695  92.0796680  32.4650121 110.5896473  91.1793041  32.7882910
 111.0609913  92.0605659  31.6515422  13.3265906 113.7858868  20.2889371
  12.8780203 114.5111752  19.8542190  14.1311579 114.1737080  20.6331635
 122.5752449 130.8271503  24.8360062 122.5240231 129.9816322  24.3902397
 121.7541218 130.8908844  25.3237820 108.9220047  83.2566929  27.7406406
 108.7826252  83.9865971  27.1372867 109.8737526  83.1764889  27.8037238
 110.6310368  96.5589619   7.2743851 110.9615707  97.1921635   7.9115933
 111.0585785  95.7358265   7.5107849  97.0979214 112.1415329  31.0741496
  97.9242802 111.7134953  30.8502054  96.6657448 111.5305519  31.6709399
 122.2943592 102.5944901  36.8674326 121.8972111 103.1996727  37.4937296
 123.1888962 102.9167938  36.7571807  96.3869858 114.8054028  46.3628960
  96.4134502 113.9375019  45.9600687  96.1303616 114.6406078  47.2702122
   0.0860911 117.5025463  28.8232732   0.0323897 117.9224777  27.9647827
   1.0195189 117.5091743  29.0351725   4.6366721 114.8187923  68.8777542
   5.0120764 114.3876362  69.6454811   5.3911524 115.1828861  68.4146881
  -0.0902719  73.2647657  73.5723543   0.7638484  73.4218311  73.1698132
  -0.3555269  72.4057102  73.2438755 121.0612869 100.4081154  65.9388733
 121.5922642 101.0718918  65.4987717 121.5489197  99.5932007  65.8190536
  95.8041763 110.3307438  43.0866003  95.6756592 109.3866348  42.9951334
  95.0692177 110.6213093  43.6266327 122.2675800 121.5553093  42.0247316
 122.9213333 121.4380074  41.3354778 122.1431923 122.5028896  42.0780993
 116.0853767 106.1749554 109.0352646 117.0395947 106.0994816 109.0344127
 115.8481312 106.2026215 109.9621850 106.5049267 135.4977894  37.2469902
 106.5751457 134.7218513  36.6909122 107.0036697 135.2750587  38.0330420
 120.2058792 109.5671272  18.9423716 120.9451294 109.6293354  18.3374929
 119.4642639 109.3206024  18.3896816  16.0732775 111.2704182  10.1613009
  16.1112624 111.2351799   9.2055041  15.2880984 110.7722187  10.3883195
  25.8654814 144.2691231  49.7938347  25.6820899 144.6763515  50.6404495
  25.4296523 143.4180355  49.8380136 118.2989597  80.9281826  14.4514251
 118.7582397  80.8094406  13.6200428 118.3513832  80.0730324  14.8782778
 109.9853611 136.6907024  47.7061558 109.5043755 137.2016716  47.0551634
 110.7322025 137.2421455  47.9393435   2.7495795 117.3629475  54.3221807
   2.3151713 118.0458546  54.8332214   2.0347052 116.8153381  53.9976549
 118.2149315  50.3806353 102.1357878 117.5841522  50.6711388 102.7945425
 118.4165573  51.1697054 101.6328534   0.3165846 114.1648483  46.6360331
   1.2252074 114.1007900  46.3418722   0.1904135 113.3966446  47.1929741
  99.3194771   9.7401219  12.5354695  98.8093376  10.1828747  11.8572593
  99.6540737  10.4491024  13.0846632  25.7034236 106.5639114  19.1119993
  24.7624999 106.6748619  18.9756596  25.8094912 106.5660286  20.0633025
 112.0586872 142.9845905  14.8924458 112.7274323 142.3025131  14.9540114
 111.4407444 142.7781487  15.5936968   5.1107627 129.4670391  11.6797841
   5.1560908 130.4219913  11.6323066   5.4126959 129.1699600  10.8214104
  94.7618103 131.7177868  40.6088781  93.8997650 131.8023300  41.0162544
  95.3561783 132.1655655  41.2109232  83.2805347  97.2075462  89.4566759
  83.4804058  97.8275490  90.1580115  83.8522434  96.4592743  89.6283516
   3.4818774 118.9424610  19.3739605   3.9848357 118.2395267  18.9626920
   3.0281954 118.5179710  20.1021171  95.7340240 119.2316818  35.6773877
  96.5131855 118.9571476  36.1608815  95.5932140 118.5360432  35.0351334
 117.4273682 109.3198013  44.6877289 117.2447014 109.2258835  45.6226349
 117.9478645 108.5475159  44.4666195   4.4651442 141.6376019   2.2607967
   4.2352610 142.4048233   2.7849638   5.4158621 141.6905117   2.1629314
  99.8714733 102.9152203  19.2998683 100.2877998 103.5984612  19.8253059
 100.4521275 102.1592045  19.3865323 117.4270535 117.5500488   5.9438699
 117.6514339 117.2901726   5.0503647 117.1961403 118.4762764   5.8730781
 122.3697090   0.9411316  21.2985754 121.7971516   1.6367798  21.6218042
 123.2530308   1.2352639  21.5209532   0.6027155 111.7458725  43.1562138
   0.4719763 112.5933838  42.7309322   1.4444571 111.4370441  42.8210735
 111.3454723  86.3810444  16.8397474 111.1437798  86.5127563  15.9133530
 111.9560528  85.6439400  16.8494940   3.1972342 134.2096329  21.1988139
   4.0572196 133.8663197  21.4412713   3.3865290 134.9131298  20.5779386
 102.1929550 116.7438316  69.0955019 102.2330475 117.5616932  69.5912075
 101.3119507 116.4073753  69.2593670  76.4272165 111.9079208   9.0747535
  76.6837215 111.2175179   8.4633750  76.1468983 112.6317978   8.5146987
   5.6960517  98.3785725  26.5162897   5.1261645  97.8456497  25.9617996
   5.8528548  99.1726780  26.0053682 100.1986217   6.4574318  71.6835451
 100.2534103   6.0026436  72.5240183 100.5097675   5.8169251  71.0438919
  19.1012221 127.3889637  58.3862686  19.9354392 127.4172020  58.8547945
  18.5567980 126.7942524  58.9021540 123.3836079 120.9647751  39.5801449
 123.1829834 120.8483696  38.6514711 124.2309570 121.4099407  39.5881629
   9.8193770 137.6416111  15.1198542  10.0534850 138.5527802  15.2965176
  10.5212908 137.1313381  15.5237877  31.5734320  86.6986561   9.2660451
  31.0275584  87.0862770   8.5819316  32.4198180  86.5530968   8.8433450
  93.1797791 119.7088528  16.5309775  93.2498360 118.7644672  16.3915229
  92.7475643 119.7940731  17.3807740 109.1185188  96.0328388  20.2578950
 109.6628380  96.4214706  19.5731199 109.4554520  96.4061260  21.0723662
 123.4609890  94.6453285  22.9569745 122.5912285  94.6392632  23.3566117
 124.0435028  94.9433899  23.6555886  17.6212626 106.0579967  48.1638384
  17.4920016 106.9921303  48.3279037  18.0835848 106.0236359  47.3263931
  93.8631535 127.2408009  32.4941063  94.3382740 128.0713654  32.5196409
  94.2817783 126.7045975  33.1675029  28.1875353 127.5447083   6.4237005
  28.2915431 128.4436512   6.1117274  27.2676116 127.4855900   6.6815484
  24.9680358  97.6455402  38.4708142  24.3490630  96.9295597  38.6138844
  24.8996382  97.8380108  37.5356627  86.3062000 109.6786499  30.0162435
  87.0250988 109.3453503  30.5532002  85.5197620 109.2944336  30.4037070
  89.9204731 105.9877491  25.6640244  89.2833042 105.4920483  26.1783576
  90.7508469 105.8583355  26.1222458   2.0870524 120.5421638  67.5647593
   2.7232104 120.6820965  66.8633652   2.1966105 119.6227741  67.8075647
 114.0839386 111.0796547  20.0253105 113.7070370 111.6771221  20.6712294
 114.2969036 111.6383648  19.2778349   1.0356646 112.4271107  53.0123234
   1.0847979 112.3185349  53.9620781   1.6135722 113.1669712  52.8256226
   7.3692351 106.5695095  74.3902731   7.7112036 107.0717621  73.6506557
   7.1466857 107.2302914  75.0460672  98.9426041  94.3243217  56.9955587
  99.4753551  93.5291100  57.0025396  98.8456631  94.5395374  56.0679150
  12.0615225 132.5033855 106.9549715  12.0322924 132.4965382 107.9117008
  11.2371760 132.9133892 106.6930925   0.6565409 138.5026264  19.1321909
   0.5180674 138.6261463  18.1931496   1.2567645 137.7592468  19.1900373
   4.3764048 134.5937061  32.0514202   3.9367800 135.2489662  32.5932693
   4.7958212 135.1003265  31.3559628 106.1791325  92.6931763   6.0270292
 106.6550732  93.1965256   6.6876042 106.0949898  91.8186569   6.4069706
 112.8759861 132.9073524  14.7178674 113.1764603 131.9988823  14.7432232
 112.5415134 133.0736828  15.5991685 121.2991524  98.0279636  21.6801262
 122.2360229  97.8574657  21.5829206 121.0353661  98.4023285  20.8395910
  87.3836422  -0.0006027   7.6593333  86.6270256  -0.5446930   7.8778076
  87.1127510   0.8888321   7.8868526  34.7163420   4.5574169  15.7781291
  35.2915316   4.7734623  16.5121055  33.8699370   4.9346142  16.0180330
  10.9689551 111.9600201  13.3352602  11.0762148 111.7935467  12.3987687
  10.8338671 111.0934162  13.7186408 119.0818214   4.1800766  24.3310118
 118.8039780   3.2894974  24.1167855 118.9483070   4.6737843  23.5219002
 102.8609657 126.0300255  49.5740891 102.8091526 125.4474354  48.8163710
 102.8959370 125.4405975  50.3274679  93.2101154 115.0045872  21.9127202
  94.0638447 115.4356956  21.8737054  92.7743244 115.4039383  22.6656055
 122.1338367  11.5210133  11.8224275 122.2607803  10.6480389  11.4508963
 121.4335346  11.9060212  11.2955725   3.9461260 106.3759041  33.3915424
   4.1485148 106.7889786  32.5521159   3.5646945 107.0782375  33.9183021
  91.9441605 113.2153130  25.8178663  91.4577198 112.6819992  25.1892352
  92.1303654 112.6197624  26.5437269  37.9985934 125.1868153  52.0755243
  37.4477511 125.9474087  51.8903255  38.8942843 125.5173111  52.0066500
 117.5118923 123.3327198  36.5898705 118.0389500 124.1281700  36.5144062
 116.6159725 123.6491394  36.7058349 102.3029232  81.0234547  16.3215578
 103.0887794  80.8903599  16.8516052 102.6272869  81.0824013  15.4229224
  64.8668146  86.7223740   8.4509665  65.1460028  87.0222187   7.5858784
  64.1020727  86.1730576   8.2787770  12.5257521 126.6434956  21.8997312
  13.3361464 126.1491680  21.7767215  12.1081191 126.2340641  22.6574779
 109.5706463 128.5545349  26.2897611 109.9896717 128.6508179  25.4345560
 109.5350361 129.4444084  26.6405797   1.1435061 123.1570435   0.2002231
   1.7506247 123.8558960   0.4436217   1.6239863 122.3489380   0.3800627
   5.2991896 111.2701130 105.8084505   6.1493712 111.6950607 105.6950998
   5.4738646 110.5393219 106.4014664  83.4280968  90.1798248   2.7317941
  82.7235031  89.7790337   3.2408634  84.0885067  89.4913769   2.6534897
  14.5470934 128.0381489  23.5636187  13.9842349 128.6622334  23.1054282
  14.8614340 127.4501038  22.8768682 119.8349476 129.4764996  25.5498219
 119.0641785 129.8689461  25.1397777 119.8484993 129.8428059  26.4340544
  94.6266365 104.7059822  36.5618467  94.7182846 104.2240238  35.7399297
  94.0651226 105.4494286  36.3422251 117.6516151 102.8144264  37.3201680
 116.8644047 102.4514961  36.9141793 118.3633232 102.2597694  37.0007014
 124.4223118 134.1052914   2.7783036 124.2380142 134.9637604   3.1594986
 123.6187935 133.8722229   2.3132683  94.5840931  86.9154167  39.5480847
  95.0746441  86.9830990  40.3672314  94.2074871  87.7863121  39.4217896
  89.0688133 112.0382977  28.0106163  89.6223164 111.2699032  28.1500340
  88.4955978 112.0627785  28.7768149 124.1456318 132.1754551  54.7268391
 124.7589302 131.4742661  54.5068121 123.2807732 131.7898560  54.5869637
 101.0315323 128.1081867  42.1836472 101.7550182 128.7163067  42.0320272
 100.2846050 128.5089397  41.7389774 106.4752865 120.6068897  38.4667969
 105.9281158 121.3867378  38.3736324 105.8568096 119.9018192  38.6581302
 115.5980587 120.8458233  33.5723758 114.7271538 120.8360481  33.1753063
 115.5909157 121.6116524  34.1465545  18.6369925 121.4886856  34.4303870
  18.3938723 121.6340160  35.3447175  18.7460261 122.3682499  34.0688372
 103.8478565 118.7769222   4.4871971 104.5679474 119.2202759   4.0386945
 103.8868713 117.8748894   4.1693372 116.1604309  89.6534920  47.2530603
 117.0177746  89.5554829  46.8388176 115.6404591  88.9309025  46.9013023
 123.1523323 135.3337479  17.4409080 123.3857059 135.1760864  16.5260792
 123.2022572 134.4711971  17.8529012 118.4763908 120.0160789  26.5298223
 119.3798637 119.7371674  26.3809085 118.2530499 119.6562672  27.3882461
 117.6898670 118.5765362   0.4221575 117.5916767 117.6289654   0.3288909
 117.5601196 118.9189720  -0.4622265 115.2018833 126.5851593  27.8395462
 114.3930435 126.4442253  27.3474503 115.7430363 127.1233368  27.2618341
   2.0331412 136.4806175  11.6590142   2.1093779 135.6369495  12.1047044
   2.5322085 137.0867157  12.2065604  99.6468067 104.5527840  10.8691597
  98.7974548 104.2093086  10.5919242  99.4522095 105.0713158  11.6498601
 106.2796402  97.9333305  19.9169850 106.4678383  97.1229172  20.3903246
 107.0109081  98.5120583  20.1327300 105.5894089 108.0891514  15.2866471
 105.7972336 108.6980629  15.9953558 106.2516880 107.4018955  15.3594255
  99.2809200  96.6202927  23.8625574  98.8479710  96.9745922  23.0858636
  98.5974026  96.6066170  24.5325112  92.8574657 103.5874557  99.9635305
  92.5016403 103.8210583 100.8208784  93.7568474 103.3139420 100.1439210
 119.2805481 140.9144497  12.8231227 119.2209435 141.4087582  13.6406410
 120.1169682 140.4528522  12.8827763  99.9448967 123.6209297  26.6086960
 100.4476738 122.8835392  26.2627029 100.3419018 123.8028622  27.4604678
  19.6836787 118.5280037 103.1204339  20.3770857 118.5522366 102.4610158
  19.2663031 119.3873501 103.0608019 104.0751076 141.2672234  34.3402481
 103.8509750 140.9293747  35.2073479 104.8410606 141.8214607  34.4897819
  86.6061878 139.9474621   4.8102397  87.2832584 140.5859280   4.5862356
  86.9365215 139.1174507   4.4664520 118.2712364 137.5149250  39.5913887
 119.2275906 137.4797535  39.5719028 118.0019760 136.6136742  39.7688246
   4.0211993 132.3728848  30.6021309   3.8954859 133.1606293  31.1311650
   4.8826914 132.0455742  30.8608437 112.7616882 144.2186642  12.0100498
 113.0277538 144.9875450  12.5142980 111.9688416 143.9081097  12.4472809
  89.8907375 137.3220539  76.3183451  90.3368092 137.2173500  77.1587563
  90.5990982 137.3998260  75.6792688  88.2256985 112.6827145 103.6500015
  88.7852192 112.0806408 103.1594183  88.1328869 112.2754765 104.5112648
  11.7023402 101.4620972  37.1599555  11.8334227 100.6329632  36.6999841
  12.2507887 102.0878220  36.6867661 113.0603313 114.9171066  41.1448669
 113.7874985 114.8664093  41.7652607 113.0457592 114.0583897  40.7222271
 121.6378021 144.3598366  28.0236578 121.6285419 145.2827930  27.7700782
 121.7731571 143.8871574  27.2023892 124.4427872 144.6317577  26.5490341
 124.3011761 144.5436096  25.6064820 124.4351387 145.5761147  26.7051029
   7.8787928 123.8386726  36.0386109   7.4163561 123.6104965  35.2321863
   8.3562403 124.6396446  35.8224845  12.5278788 111.9737339  42.4400949
  12.6797419 112.9136658  42.3416233  11.7630797 111.9133663  43.0125284
 122.6492310  96.9736481  57.7654028 121.7470264  97.2782040  57.6678896
 122.8618813  96.5799046  56.9192457 121.7638016 121.7287159  53.4339762
 121.9346714 120.9314060  53.9352942 122.3969841 121.7009449  52.7166653
   8.8777476 124.2193794  19.9184656   9.3771678 125.0356483  19.9413526
   8.0712729 124.4186115  20.3940058   3.9984923   7.0745545  74.4821024
   3.6386901   7.4580460  73.6822844   3.4094172   7.3710232  75.1758862
 100.1117325 139.4424915  83.1183624  99.4502449 138.7709904  83.2849598
 100.8149052 138.9784813  82.6639843  98.6979485  95.3473949  54.4810867
  98.4273529  94.9467468  53.6549520  98.0143929  95.9900475  54.6708202
   0.2541762 125.8143330   2.9748151   0.7846766 125.5667686   3.7321222
  -0.4968709 125.2216434   3.0044514 104.0073204 115.4277325  26.0344291
 104.8474407 115.5323792  26.4810753 103.8792038 116.2540245  25.5685258
  94.8484325 122.3151684  30.3056240  94.6083164 123.1636810  30.6779242
  95.6226730 122.0469666  30.8004451 103.4672260 107.5345707  48.1531382
 103.4515858 107.9250526  47.2793484 102.6501083 107.8236294  48.5593176
 104.3062115 122.4942875  33.1015611 103.6300945 121.8172550  33.1284404
 103.8430309 123.2844162  32.8233552   4.6294528 111.6810703  32.5573325
   5.1598864 111.7948055  31.7687058   3.7508994 111.4890671  32.2294331
  13.6605101 136.8383121  95.5811700  14.3288165 136.2250614  95.8870014
  13.5493022 136.6285133  94.6538898   4.8113280 122.3095989  38.1653428
   4.5583563 123.1411934  37.7644753   5.7622367 122.2733498  38.0619717
  98.8523483  10.5614739  33.2259941  99.7415733  10.6878453  33.5569620
  98.7388515  11.2531643  32.5741339 101.5197945 129.2556953  21.9913077
 101.4187717 129.4058800  22.9312396 102.2159672 128.6019325  21.9266796
   6.4196520   6.0733586  24.2604995   6.8295031   5.9593850  25.1179767
   7.1084815   6.4519196  23.7142062 111.7528629 118.6273384  47.3605156
 112.5147343 118.3409214  46.8567801 111.9557667 119.5289421  47.6098728
 113.7944317 123.3499622  22.3147559 112.8935051 123.4898090  22.0231962
 113.7072182 122.8944397  23.1520867   6.3514834 105.0183010  28.5938549
   6.1621600 105.7119942  27.9620457   7.1601611 105.2987862  29.0223432
  92.2260571 125.5511570  62.7920246  91.4593792 125.9231949  62.3561001
  92.9557133 125.7517338  62.2058487   2.5681429 102.4126339  27.5553608
   2.1961146 102.1503448  28.3974004   1.8831568 102.2114086  26.9177675
 102.2630024  97.2652245  51.8101120 101.8259811  97.1932316  52.6586723
 101.9828796  96.4862251  51.3295746  10.1717311   0.3075390  34.8341846
  10.1491385  -0.4925174  35.3591824   9.3188124   0.3335934  34.4004965
  90.3654003 121.7465019 102.8015461  91.2016487 121.8487358 102.3471596
  90.2208710 120.8006191 102.8272881  82.6190662  12.9567604  51.1581230
  82.8211308  12.7458649  52.0696735  82.5189209  13.9086705  51.1490488
 120.7873154  98.7976265   1.6972061 121.3265228  98.6692905   2.4776033
 120.4940605  97.9175186   1.4613235 116.1607552 102.7503109  23.5283971
 117.0197678 102.3281479  23.5180664 116.1549377 103.2617283  24.3375015
  83.8095760 126.1635113  45.0420284  82.8787231 125.9428024  45.0739479
  83.8281250 127.0885658  44.7967339  93.9575005 107.9995918  69.3723965
  93.3434010 107.4944210  69.9052286  93.4552002 108.2442760  68.5951853
  92.3525620 144.5645237  45.0781155  92.2333908 143.8082600  45.6526566
  92.9930973 144.2736149  44.4290209 116.4180183  87.7238369  59.5134068
 115.5942726  88.1847668  59.6721840 116.1522961  86.8470192  59.2362595
  98.2869720  82.4564457  46.1374187  98.5065556  82.0303726  45.3088808
  98.6147499  83.3506107  46.0411692  21.0969763 115.9498215  31.0995531
  20.1701861 115.7104492  31.0986686  21.1890154 116.5484810  31.8407416
  67.0408821 126.1710739  33.9864039  67.3902750 126.8523979  33.4119868
  66.8191767 125.4507637  33.3962941  92.9284096 134.5287514  36.1394167
  92.9879284 134.6952057  37.0801520  93.7227249 134.0362930  35.9325981
 100.9550381  90.4494858  51.8351555 101.3291931  91.1337185  51.2801266
 101.6482353  89.7932720  51.9065428  12.7937441 140.6066799  60.8546972
  12.8964453 139.9508190  61.5442848  13.6132460 140.5662441  60.3617287
 111.6450691 141.6975784  26.6888070 112.3731422 141.1038685  26.8722773
 110.9741306 141.1394501  26.2956619 109.4625950 134.2638683  14.5883644
 108.5414600 134.2620468  14.8486209 109.9177456 134.6784306  15.3213084
 103.1890297 137.5830841  19.5152378 103.7099171 136.7817688  19.4623351
 103.7467480 138.2573414  19.1272151   9.1279440 128.5459709   8.9721388
   8.3411723 128.4010124   9.4976962   9.3239909 129.4759464   9.0859133
  24.9309855 127.6170826  28.7553930  24.7952967 127.7635002  27.8192401
  25.5951529 128.2597637  29.0045428 108.3274555 123.4570885  37.1341705
 108.1113338 123.8037205  36.2685084 108.4454155 122.5176716  36.9933963
 100.7185841  85.8024120  73.7162161 101.4488602  85.6813812  74.3230820
 101.0062695  86.5041161  73.1321955  18.7957984   2.9231720  17.3277307
  17.9113036   2.5759392  17.2122872  19.1874533   2.3629933  17.9978251
  97.5272560  93.7638187  11.5525997  97.7448559  94.1618824  10.7097328
  97.4502945  92.8287220  11.3631094 100.2722359  67.3534966  21.3144541
  99.9224186  66.8180323  22.0265865  99.5941925  68.0094767  21.1526871
 111.8023300 121.0354328  20.8098507 112.4044037 121.6537762  20.3958559
 111.6445827 121.4010429  21.6802979 106.7430496 144.9460793  28.9604616
 107.2579765 145.5187225  28.3919907 106.5079117 145.4977703  29.7065020
 103.2680321 118.3301926 108.0745610 103.5402870 118.5151100 108.9734014
 103.7550545 117.5419998 107.8341398   1.6253310  13.1045895  37.3417807
   2.4581652  13.5622006  37.4567485   1.3392191  12.9005986  38.2321525
 116.6029644   8.1291085  51.5746403 117.1212101   8.1683140  50.7708311
 116.1448765   7.2901993  51.5235901 111.4346409 136.9363880 109.1169857
 111.5210247 136.5742779 108.2351431 112.0218468 136.4036179 109.6532564
 110.3495312   6.6921025  52.3315763 111.2846756   6.8386917  52.4738550
 109.9501991   7.5527745  52.4581051  10.3515940 111.3088703   4.1305125
   9.5583468 111.6222000   3.6959743  10.7191115 110.6661892   3.5237867
 102.7689266   9.7308903  21.1600041 102.0267773   9.1265278  21.1735702
 103.4665394   9.2437344  20.7215405  95.3645420 126.6339302   2.6180026
  95.9710979 126.0787678   2.1279807  95.8205795 126.8208694   3.4385598
 119.1101170 127.6130676  17.4212205 120.0212669 127.8972816  17.3487854
 118.7034988 127.9017353  16.6041732   7.4948435 140.8936310 107.2724300
   7.2478228 140.7375622 108.1839436   8.4410315 140.7502174 107.2527760
 113.7812805 134.0192413 108.4377896 113.6658382 134.0376854 107.4877557
 113.4699726 133.1529236 108.7001202  99.9974728 145.1798439 107.1282970
 100.6106186 145.3532887 106.4140203 100.0735188 144.2387962 107.2860334
 101.5066051 136.5163517  38.0161762 100.9544182 135.9591007  38.5646224
 102.3932457 136.3763142  38.3485723 114.1904926 129.1260242   6.6906011
 115.0584221 129.4014454   6.9856870 113.7200546 128.9127064   7.4964637
  99.4874382 104.2136478  32.1696234  99.5594788 104.8654366  31.4723325
  98.6644268 104.4245625  32.6105309 120.3460121 127.7550888   2.5908095
 119.7155190 128.3232975   2.1482696 121.1799622 128.2190037   2.5163746
   8.4769946  99.6391487 103.6802181   7.9694396  99.0940952 104.2815020
   9.2791396  99.8431969 104.1610023  38.1273013 112.5243950  16.3240147
  38.7551814 112.9947853  16.8724060  37.8201800 113.1786156  15.6964064
 121.0068417 124.4931602  39.7205997 120.3273106 123.8203526  39.6781731
 121.2940693 124.6009827  38.8139009  27.4186545 142.6828003 100.5260220
  28.0716067 142.1693134 100.0504121  27.6842623 142.6174164 101.4433047
 114.0568542  37.8445625 101.6084697 113.9765358  37.7256632 100.6620845
 114.7793865  38.4638762 101.7115929 108.5271454  89.4051266  12.7038682
 108.8799953  90.2394581  12.3946333 107.6678276  89.3393993  12.2873545
  87.9500008 126.8627071  93.9167472  88.3604431 126.3870525  93.1945773
  87.8246307 126.2021255  94.5980366 120.1925755 102.8701973  25.0178909
 120.5475712 103.7015247  25.3327012 120.9203339 102.4608994  24.5498323
  97.4935341 115.1063347   3.5513192  98.3202267 115.3203583   3.9837486
  97.0067596 115.9304905   3.5438216 121.7048550 137.7265835  16.8331778
 122.3402977 137.0947838  16.4966309 122.2165203 138.5200310  16.9909227
  28.2029372 132.9374409   2.9550683  27.7748423 133.0247021   3.8067487
  29.1367369 133.0251980   3.1462544 121.4136600 128.0295849  12.3176837
 122.2975063 128.1546783  12.6632094 121.5481472 127.7313232  11.4181376
  19.3937331 137.7505589  47.3938179  19.4149047 138.2239342  46.5621328
  18.4938555 137.4322224  47.4653864  98.9854145 122.6272011  34.0120268
  99.7987747 122.5499535  33.5133266  98.6047840 123.4563828  33.7225127
  91.2473297 119.7414398  46.2543392  91.2359333 119.8851871  45.3080606
  92.1436596 119.9501324  46.5175200  85.2420902  91.0949516   7.9429030
  84.8264599  90.4144001   7.4134344  84.6128941  91.2720585   8.6421710
 104.8125172   3.1410389  89.2174848 105.0856304   3.6518078  88.4554156
 105.5115700   3.2736855  89.8577627  27.0046645 122.5576496  83.9274772
  27.7215129 123.0554771  84.3205770  27.2718363 122.4313259  83.0170425
 116.4489555  96.3478088  16.0801065 115.9927750  95.6622696  16.5681374
 116.1021519  96.2797356  15.1905453  87.7975845 145.0630569  65.8724555
  87.6617050 144.2206478  66.3061818  87.2340202 145.6719112  66.3498696
 102.7793598 135.5178642  11.9451737 102.2920322 135.6708908  11.1356461
 103.6954308 135.4813576  11.6700172  88.4485054 103.8607407 101.9771107
  87.8967667 103.1221867 101.7195269  88.7301731 104.2495441 101.1490258
 117.7673149 128.0678654  15.0805688 117.5613499 128.9652348  14.8187578
 118.1528759 127.6727486  14.2986178  17.1993189 122.7635384   8.4865725
  16.6354971 122.0135593   8.6759645  17.3681384 122.7048397   7.5462073
 124.4123936 127.6003933 105.2643441 123.7899303 127.2983932 104.6028581
 125.2588749 127.5935555 104.8175099   2.5249606  13.2696610  92.9056808
   1.6253119  13.3780461  92.5972756   2.7353793  12.3557453  92.7140590
 124.5179081 121.0424232  21.9601130 124.4907856 120.1761818  21.5537667
 124.2116928 121.6376400  21.2758756  17.9245978 142.1238995   3.3605722
  17.6830893 142.7718067   2.6986650  18.8801985 142.1644878   3.3980012
 124.1224003  72.4588728  15.4664576 123.4437561  73.1189346  15.6078660
 124.8679447  72.9515600  15.1234460 101.4006901 121.3721466  41.5828276
 100.8865738 121.5610027  40.7978106 102.2919559 121.2404823  41.2594986
 115.4275417 126.1305237  13.7164724 114.5637703 126.4878941  13.9224195
 116.0001278 126.4792252  14.3996918 114.0860462 135.0214577  24.1578555
 114.0388012 134.1684437  23.7261629 115.0229263 135.2086926  24.2164183
 121.9527912 133.3086014   1.7031604 121.5990639 133.1564903   2.5794965
 121.3535404 133.9429283   1.3097632  91.1779022 110.9022617   8.1655633
  91.6797733 111.0267544   7.3600477  90.7602119 111.7494011   8.3208579
 124.3863964 109.9533272  17.1359468 124.3151093 109.4210911  17.9283345
 123.4805775 110.1506042  16.8976283   2.8754836   6.1272507  35.9181833
   3.5897093   5.5960064  35.5661917   3.1248599   6.2914925  36.8276167
  92.3885822 118.1854153   5.3857368  93.2144642 118.4017563   4.9528974
  92.4130344 117.2338390   5.4864556 112.1573162 105.7778454  13.6115801
 112.8034019 106.4797688  13.5334992 111.3143730 106.2304020  13.6411405
 117.4812317 116.2029076  16.9879711 116.5795803 116.0041332  16.7354894
 117.5070381 117.1575928  17.0522738  17.6473933   5.2198582 106.3203790
  16.7042571   5.3580838 106.2330123  17.8002101   4.3584519 105.9319761
  84.4673920 120.2830601  77.6095589  83.7322712 120.8823586  77.4805006
  84.1370678 119.6276474  78.2240161 110.6569481 135.7438374  76.0924944
 109.9520969 136.3914108  76.0846814 111.1196899 135.8835030  75.2663001
 108.2983398  99.8700047  42.9296255 107.9296112 100.3341866  42.1780825
 107.5524139  99.7266674  43.5121107  89.5590019  94.0764332 102.3016711
  88.9215279  94.6414375 101.8650683  89.1616249  93.8774204 103.1494411
 112.5428104  92.7211857 103.7440225 113.1646919  92.7749062 103.0183413
 111.7240715  92.4375153 103.3373161  17.9362040  99.9755764 100.6416436
  17.5194960  99.1213799 100.5278929  17.7337962 100.2225494 101.5440121
 124.4256020 118.9951038   6.7885578 124.0579414 118.2767773   7.3034161
 125.3014660 118.6933327   6.5476930  31.3351470 113.9922810   5.1622587
  30.6498175 114.3430805   4.5934862  30.8917170 113.3281231   5.6899947
   5.5381518 126.4435673  12.6389337   5.5707102 127.3464108  12.3226225
   6.1370593 125.9667206  12.0643389 116.8920326 106.1665154  30.4415870
 116.7919827 106.1612988  31.3935304 116.9680214 105.2424812  30.2036715
 114.3174362 105.4497337  64.8805857 114.4254112 104.8665810  64.1292477
 113.6600685 106.0854626  64.5978260   3.6006384  99.6810818  14.2066741
   3.1593829 100.5229950  14.0939927   3.2255965  99.1212273  13.5268664
 116.6988564 119.4297028  80.1095303 117.0667171 120.3079891  80.0119885
 117.4573517 118.8469505  80.0731929 111.1377716 117.6851463  13.1893420
 111.2726116 118.2027149  12.3955107 110.6675053 116.9067287  12.8907454
 112.5286674 141.3065720  18.8739896 112.3482513 140.4489994  18.4889388
 112.0358181 141.3091564  19.6945572 108.9882088   0.9689980  99.1460236
 108.0450916   0.8161526  99.0876266 109.2733288   1.0571366  98.2365354
 107.0417976 106.4663506  25.0238752 106.7738056 105.5502892  25.0963664
 106.2307453 106.9626141  25.1340628   9.3369132 118.1699848  26.5883541
  10.1335555 118.0662060  27.1087742   9.6245604 118.0492020  25.6834221
 113.5398102 123.0283737  95.3317150 113.2474995 123.0246735  96.2431821
 113.5284901 123.9519024  95.0803086  98.8533783 100.3814125  61.4730271
  98.2724857 100.9902668  61.0168561  98.6252594  99.5218849  61.1188801
 106.8633461 135.6990051 104.9405696 106.6693687 136.2926388 105.6659656
 106.1981869 135.8999252 104.2822202 103.6735058 124.2483616   5.4883403
 104.1463470 124.7722912   6.1349916 103.7819195 124.7271538   4.6666098
  97.7130318  91.5065670   7.4641871  96.9744205  92.0267010   7.7806467
  98.3234024  92.1507740   7.1054786 116.2172318   1.2990551   2.7530521
 115.6547070   0.5599575   2.9844260 116.7952728   0.9559613   2.0715916
  36.1351519  14.6532421  61.2513646  36.2403994  15.0754719  62.1039303
  35.4481440  14.0013295  61.3901290  15.0476771 143.5781193  21.8864584
  15.3142386 144.0106678  22.6976776  14.0930777 143.6483669  21.8800640
 120.4634190 124.7933578   9.2737013 120.1174736 124.6095467  10.1470661
 121.1142540 124.1074753   9.1246426  75.3904581 132.9429245   5.9108698
  76.1919212 133.2779503   6.3129222  75.4784012 133.1615734   4.9831364
 112.3008919  84.8786449  72.6903137 112.6097870  84.3620396  71.9460448
 111.8157196  85.6026173  72.2944649 115.8701801 134.4579411 103.4339991
 116.0330200 134.2638397 104.3570580 115.3014660 135.2277470 103.4478375
 105.0972652 142.7435970  72.1575308 105.8015919 143.0923176  72.7039242
 104.3027592 143.1517792  72.5015879 107.1919060  31.1104756   9.0873259
 106.5834522  31.8455487   9.0120167 107.0310211  30.5851155   8.3035237
  12.2081595  23.6021214  17.7830243  12.8434020  23.8533383  17.1125162
  12.5462466  23.9895230  18.5903990  24.4075518 107.2054195  38.4806681
  24.4238883 107.5660992  37.5941730  24.6412879 107.9433060  39.0438056
 104.1617298  16.8446522  63.5080051 104.0495968  15.9366207  63.7892771
 105.0947285  17.0198994  63.6306286 111.4542675  86.4878750  26.9529223
 110.5988693  86.0842800  26.8058300 111.3979530  86.8535328  27.8357315
 112.5566006 134.4386578  99.8329910 112.2922993 134.7308826 100.7053342
 111.7328644 134.2459393  99.3851622   0.0154906 121.9551086   5.4875219
   0.1409941 121.2962246   6.1704189   0.5433970 121.6422272   4.7529092
 104.6064281 113.1739426   4.9640957 105.2047825 112.7568913   4.3441933
 103.8541412 113.4343624   4.4326040  10.8644229 115.7880688  59.9347782
  11.7738848 116.0244942  59.7525311  10.7606345 114.9189663  59.5473099
 119.4420338 133.2887650  14.7829509 118.8314438 133.2224560  15.5171275
 119.2977238 134.1667271  14.4299686 114.7368908   3.2745343  34.2873001
 114.2023277   3.0832463  33.5166621 115.0718212   2.4216538  34.5641685
  30.6572657 117.5585842  13.3407521  30.0862341 117.9864788  12.7027380
  30.1158267 116.8666553  13.7206268 111.9004917 111.6070461   4.9870378
 110.9724808 111.4461517   5.1577538 111.9309330 112.5044155   4.6553108
  97.9425430 104.6306324   4.2294270  98.8179111 104.7839546   4.5850363
  97.4675369 105.4431820   4.4036597 116.0551071  98.8667583  11.1112034
 116.4219475  98.8749218  10.2271235 116.7947960  98.6413288  11.6753638
  10.8584719 104.7160912  91.2956639  10.1603251 105.0020599  90.7065662
  11.6052275 104.5514393  90.7199176 101.1922169 143.5342216  24.4915080
 100.5091953 143.2335186  25.0909162 101.3701725 144.4345570  24.7634697
   0.4733306 138.2862568  45.3910208   1.2343722 137.7420616  45.1887846
   0.4715090 138.3500767  46.3460875  97.8603840 103.1097603   1.9046116
  98.1175423 103.5668468   2.7053449  96.9913864 103.4551716   1.7002159
 112.3849297 116.2724781  29.9189711 111.8231201 117.0474529  29.9137521
 113.1872559 116.5612125  30.3538847 106.5172482 146.1513615  82.3882350
 107.4181175 146.4705849  82.4408086 106.5643120 145.3971100  81.8007573
 113.6528969  12.0992928  99.2691394 113.2938766  11.3136654  99.6816047
 114.3595695  12.3747425  99.8530682 123.2896519  61.7528439  16.7506194
 122.6477242  61.0764599  16.5345848 123.7136269  61.4348269  17.5477028
 106.9098568 128.9914131  11.3450813 107.2916031 129.4929409  10.6246889
 106.2281227 128.4608936  10.9327281 112.6208782 139.8445034  83.4451898
 112.1023941 139.0798187  83.1948789 113.4646702 139.7138119  83.0125626
 110.3688240 107.6972389   2.7344590 110.8825111 108.1693840   2.0791426
 109.5215034 107.5501823   2.3141587  10.3669100   5.2237015  38.9465332
  11.0563403   4.8422413  39.4900417  10.8215743   5.8599549  38.3945394
 101.5710258 144.7932911   3.9955083 100.7681179 145.1308155   3.5984561
 102.2742844 145.2758694   3.5610345   8.9038592 109.1309643  18.8896942
   9.3321543 109.6621132  19.5610189   8.2111006 109.6941662  18.5445523
 117.6390839 127.8733349 104.6141770 117.7502441 127.3533249 103.8182684
 117.6955700 127.2362614 105.3263437  79.3280983  97.1536064  88.1702765
  78.9971590  96.3258457  87.8216823  80.2655506  97.1369267  87.9775771
 107.4789238 127.0448589  25.0755620 108.1663609 127.6205730  25.4105568
 106.7095852 127.2579479  25.6037164 113.4067154 133.7915039   4.4561779
 112.9429531 132.9849529   4.2311597 112.8521538 134.4910145   4.1106552
 106.4867687 121.9337940   6.9585562 106.1008930 122.4832058   6.2762994
 107.4190044 122.1503448   6.9417197 122.3998642 110.6723881 104.5357647
 122.2156334 109.7594452 104.3147703 123.1781197 110.8905888 104.0230008
  36.8148356 141.5147686  36.2849998  36.2416964 140.8516121  35.9003401
  36.2918025 142.3164177  36.2782502   6.7812377 141.4710426 102.4333372
   6.0640936 142.0309448 102.1359374   6.4628344 140.5793095 102.2931620
  84.4143391  99.0971375  14.8037028  85.3579044  99.1258621  14.9620795
  84.0920830  99.9399376  15.1232016  14.4832450 106.6421986 105.2415984
  15.4392367 106.6454506 105.1937064  14.2840033 106.1156750 106.0157474
  -0.2243108 127.5878716  16.6033554   0.4587298 128.2584476  16.6032529
   0.1965266 126.8172646  16.2221873 105.7800293 138.3263874  43.6600399
 105.0510979 138.2102871  44.2694712 106.2618923 139.0787411  44.0035439
  12.2712451 115.6834316  28.2890224  12.8609877 116.3227367  28.6886716
  12.4562579 115.7401657  27.3515892 113.4095097 122.9969025  28.6704659
 113.2463455 122.5439548  29.4977808 113.9645767 122.3957539  28.1737089
 109.3072319 105.1591873 108.5524762 109.3118382 104.4838619 107.8741329
 108.9358902 104.7248077 109.3203661 105.2873707  97.7997494  10.5673492
 105.2682495  98.4739780  11.2465310 106.2178993  97.6716900  10.3831184
 104.9092102  98.4772110 108.9619541 104.3136978  97.7941895 108.6536168
 105.4248714  98.0535221 109.6481137 116.4198208 123.6969852 102.8694930
 115.6676102 123.9785290 103.3902039 116.0371590 123.2095242 102.1399846
  87.2834969  15.7475071  16.7902780  86.5728283  15.4071408  17.3337197
  87.8116417  14.9781590  16.5772033  88.1613636 111.4959812   5.5311376
  88.6231422 112.3332691   5.4871082  88.8363171 110.8627605   5.7754886
  85.1096725 119.6219826   9.9420816  85.1926899 120.4096794  10.4795492
  84.3450260 119.1689873  10.2975416 117.7575779 143.5302925  86.1441549
 117.4812126 142.8395939  85.5418404 118.5238647 143.9214706  85.7246002
  18.1751376  93.3253479  71.8319114  18.8717394  93.9380264  72.0677193
  18.1405192  92.7089691  72.5634273 113.2143688 115.5740643  94.7665831
 113.6718178 114.7440910  94.9011525 113.9117527 116.2286854  94.7296520
 108.1771374 114.0332794  24.9645257 108.7479973 113.4476185  25.4618716
 107.4156666 113.4963322  24.7452784 115.0175667 120.5034065  37.2989011
 115.7352066 120.1358891  36.7829943 115.4270840 120.7727146  38.1210923
  97.7979469 121.9419003  15.0568390  97.0763111 121.3393974  15.2369905
  98.3478069 121.4755630  14.4272113  12.1039801   5.7552605  10.9007132
  11.5471011   5.1797943  10.3763485  12.3757487   5.2147656  11.6424918
 105.9428215 142.2868538  15.3908300 105.1231861 142.5800228  15.7889295
 105.7944775 142.3693180  14.4487965 115.8664513 102.7444077   6.7098820
 116.7557907 103.0185795   6.4859545 115.3674507 103.5602188   6.7507505
   6.2200003  91.9512558  49.1971540   5.5194979  92.5795937  49.0219069
   5.8306914  91.0984421  49.0037823   7.9493552  89.0478230   6.0829580
   7.1049338  88.9526367   5.6423593   8.0168658  89.9837971   6.2717074
 103.3812237 107.7629948  53.9075565 103.2976055 108.2938290  54.6996784
 102.8963184 106.9614506  54.1040850  96.0239410 116.8485451  99.9685469
  95.3308392 116.6128349  99.3518742  95.5597973 117.2079086 100.7246270
 124.4588852 108.6906433   3.9569676 124.0582752 109.1867828   4.6708226
 124.3489838 109.2481422   3.1866711 116.9424152  70.6450272  20.3539181
 116.5537643  71.5177965  20.4127359 116.2965584  70.1271248  19.8734128
 104.8304272 121.6285992  48.5140991 104.1149807 121.1849785  48.9696884
 104.5175457 121.7264175  47.6147842 110.4118729  98.8871002  12.8522849
 110.9764099  98.4142780  13.4638190 110.5680561  98.4654999  12.0072436
 106.4477921  85.9996128  27.9513645 105.5483055  86.1456299  27.6584029
 106.3605404  85.7209015  28.8629222 123.1037998 128.7316704 107.3002701
 122.9596996 129.6260643 106.9912201 123.3906460 128.2528591 106.5226512
  87.8692532 140.1650333  73.8308986  87.9777813 141.0879898  74.0602573
  87.7554226 139.7211742  74.6712979 108.4287548  14.2001133  91.1666747
 109.3290520  14.4704037  90.9860297 107.8928471  14.7645359  90.6094822
 108.4060860 118.3644104   8.6348885 107.6123714 118.8985634   8.6043644
 108.1996918 117.6638794   9.2536694 117.7132320  95.1690769  25.2028251
 117.1999550  95.2335644  24.3974543 118.1637573  94.3274307  25.1329684
  14.0444785 122.3537827  16.2315774  14.5267993 122.8555489  15.5744386
  13.6652690 123.0168629  16.8084264 101.1060524 129.3944931  19.0218830
 101.0440159 129.5079708  19.9703062 101.7045021 130.0849628  18.7366796
 105.0611115  93.7745094  29.8704672 104.8749065  94.1652107  30.7242322
 104.7646618  92.8680420  29.9521041 108.7015438 120.0478554  18.7509918
 108.3668613 120.3600693  19.5916653 108.6128139 120.7987690  18.1640685
 116.0992718 109.6291733   9.9990791 116.6827869 110.0833321   9.3912280
 115.4690838 110.2967453  10.2700734 108.3448792 130.6319332   8.8886541
 107.9298306 130.8916664   8.0661529 108.4446526 131.4500809   9.3753988
  89.0427494 103.4736252  15.4042649  89.9645996 103.2234478  15.4662704
  89.0403938 104.4188023  15.5554485  93.6994934  94.2759705  99.2074093
  94.2868328  94.6874619  98.5734256  93.8147449  93.3363342  99.0659198
  24.8065692   3.4868317  21.5212512  25.5494528   3.1804352  21.0011792
  24.3349677   2.6884537  21.7587709   7.8974372  77.2582817   2.9139695
   7.5543624  77.0023823   2.0577870   8.8484507  77.2232056   2.8111514
  98.2073402   2.7659970 101.6343560  97.4578381   2.7322941 101.0399290
  98.1348133   3.6187058 102.0631387 118.6307240 124.2760944   5.6922305
 118.0302715 125.0027180   5.8586872 119.3638229 124.4298553   6.2881768
 116.0558987  28.3411770   6.2658596 116.8655682  28.5556965   5.8025599
 116.1925602  27.4497776   6.5867740 112.7260303  78.1675291  71.2999010
 111.8627071  77.8572321  71.5730667 112.6197624  79.1134834  71.1993408
  14.3097334  90.3211689  15.5721799  14.3097811  91.1991215  15.1908151
  15.1205569  90.2802658  16.0792486   7.0739203 101.6600609  92.3979187
   7.2662573 101.0954666  93.1465721   6.1824923 101.4231777  92.1420574
  10.0061923 127.7941513  86.5370083  10.6862670 127.1279526  86.6366291
   9.9593382 128.2185459  87.3937035  83.9068413 125.8228874  75.0248957
  84.1280270 125.3458977  75.8247662  83.8175201 126.7335129  75.3059959
 104.6842861  93.8887119  97.9190636 104.6852207  94.5151711  97.1953392
 103.8521385  94.0412521  98.3668137  16.4054518  94.4618797 100.8412838
  17.3265582  94.5411873 101.0893059  15.9368449  94.9884892 101.4888287
 120.2623081  78.4572983  31.7413369 119.7898388  78.1620312  30.9629957
 119.7120571  78.1816673  32.4744645 110.9515285  72.3112822  11.3570157
 110.9546280  72.2942543  12.3140565 111.0625935  71.3957214  11.1008111
  15.7340270 127.3858452  49.6257440  15.2645712 127.3196316  50.4572812
  16.5916472 126.9996643  49.8034707 121.9036865  81.0027409  85.3175735
 121.9322014  80.0610352  85.4867458 122.7778149  81.2137222  84.9895000
 105.8401680  94.0180492 108.4927368 104.9503136  93.9027309 108.1594467
 105.9861279  93.2567787 109.0543365 104.5893192  81.2694740 101.9972515
 104.8827839  82.1145153 102.3378658 105.3978920  80.7888985 101.8198013
 116.0987473  77.4955082  30.2787725 115.4402542  78.1668949  30.4572717
 116.2503719  77.0773935  31.1263696 108.8177395 112.2106838 106.1385155
 109.4716454 112.3894119 106.8143082 108.7731361 111.2555122 106.0950470
 123.6008263  96.9721603  82.3419666 124.4459343  96.7028427  82.7017975
 123.4834003  96.4210987  81.5681648   5.6176215  85.9343624  96.9069386
   5.2171259  86.2096977  97.7315712   5.0043517  86.2277794  96.2331104
 117.1346760 109.3048954  60.0234739 117.1057701 108.5906792  59.3868581
 116.6011715 109.9964905  59.6319333  13.7829142  79.7194242 104.0428829
  12.8446417  79.8362255 103.8937664  14.1693812  80.5635643 103.8098335
 104.2619514 105.8675385  21.3731519 104.5827866 106.4195728  22.0862809
 104.7883797 105.0702667  21.4320031  94.8084068 118.6652565 101.7147732
  94.5209408 119.5707130 101.8320084  94.0972328 118.1389713 102.0801449
   1.5311080  97.2170353   7.6463548   2.0872622  97.6254368   8.3097974
   1.0222369  96.5653038   8.1285611 108.3936501  62.0810366  31.4732591
 108.4793472  62.9964352  31.2069074 107.6380539  62.0722818  32.0608274
 108.2059574  94.0522957 107.4059391 108.3939171  94.8547649 106.9191647
 107.4032593  94.2478466 107.8893280  92.7021027 122.1834660 100.9117985
  92.5144482 121.3181210 100.5482006  92.7440357 122.7599049 100.1487827
 112.2355461 119.7662354  86.7878437 112.0989704 119.8049927  87.7344608
 113.0163097 119.2229748  86.6805458   5.8033591  85.2673149 101.1337280
   5.3393870  85.3373814 101.9680309   5.3110533  85.8318233 100.5377388
  12.0221263 101.3062763  80.1420403  11.3174086 101.3224125  79.4944763
  11.6520434 101.7421532  80.9096813 108.5916996  72.9748440  56.2293673
 107.8760052  73.1383991  55.6151533 108.1573486  72.6848364  57.0315266
  14.0023738  98.0103683   0.2877466  14.8986655  97.9828072   0.6225911
  13.6438876  97.1465492   0.4915372  74.7982359  92.2603035 102.0224571
  74.5534372  92.7770138 101.2547970  74.6989441  92.8636646 102.7588940
 104.1476345 105.1317596  64.5871925 104.9420166 105.6414318  64.7466373
 103.4650135 105.7886791  64.4503546 101.7778587  92.6378727  81.1420250
 102.1932030  92.7842045  80.2921486 102.0935917  93.3565235  81.6898251
  14.1799479 111.2998199  85.9842300  14.3359786 110.3634644  85.8613110
  13.5270625 111.5229702  85.3207684  92.9560471 106.6934872  15.6962339
  92.7576351 106.3162613  16.5533105  93.8949299 106.5466881  15.5814782
 107.4369335  89.6869850  77.3267841 107.7093124  89.4447136  78.2118559
 106.8772125  90.4536629  77.4498653 100.8773899  96.7610550   9.4564477
 100.4724312  96.5045834   8.6279146 101.2905502  95.9601784   9.7791330
 110.7680702  88.4150791  18.4393064 111.1661816  88.9903831  17.7860299
 110.7376862  87.5570488  18.0161039 105.6347370  74.3854332 106.4503002
 105.9653568  75.2619457 106.2537003 106.2312603  74.0488482 107.1189594
 112.0582485  55.3253317  99.5266914 112.1568298  56.2154484  99.1887379
 112.8425503  55.1820040 100.0563622   5.6858569  76.4235163  92.6753712
   4.7884589  76.7366886  92.7885723   5.9846907  76.2268257  93.5632038
   5.0275164 130.5029011  79.4614887   5.3333788 131.0206509  80.2062130
   5.3263884 130.9889793  78.6929607 113.1849003 128.4672165  22.0066587
 114.0025425 128.3453846  22.4892083 113.1364250 127.7103996  21.4226095
  19.9694663   2.7491265  87.8739452  20.0369578   3.2878952  87.0856571
  19.1336279   2.2920304  87.7808094  92.5299549 136.1797619  92.4252415
  92.1351624 135.3772831  92.7663898  92.7515984 135.9706497  91.5178394
 116.3531494  95.8128357   8.8310376 116.4867973  96.0583782   7.9155675
 116.7018032  94.9236107   8.8938752  98.3753681  90.8123398 106.6860199
  97.8551102  91.5707302 106.4206982  99.1850090  90.8888435 106.1811829
 104.2989826 106.0393715   2.0628682 104.8871422 105.4530048   2.5387517
 104.1881752 105.6247997   1.2072412  95.2008152  90.3184700  96.7855072
  96.1448860  90.4085159  96.9153500  95.0710869  89.3865967  96.6093731
 103.8653374  83.3126736  79.2062902 103.2554436  83.9383602  79.5971441
 104.6198463  83.3137798  79.7953081   8.5907965  89.4077969 100.2623653
   8.5305338  88.6155701 100.7962036   8.5875445  90.1247597 100.8965397
  12.8144103 105.8440208  93.4346485  13.1845790 105.1262569  92.9208088
  11.9513064 105.9943581  93.0490589  93.6215401 109.9101353  80.8064747
  93.6481953 110.3060722  79.9354029  94.5411682 109.8128510  81.0535812
   7.2973757  51.0661459  82.1354866   7.6946765  51.3293505  82.9656029
   6.5636569  50.5057478  82.3881531 104.3223095 119.1728020  10.2710191
 104.9356270 118.8240719   9.6241418 104.8761082 119.4511986  11.0004178
 123.4486103 120.2325153  79.0411377 123.7586308 119.3269253  79.0466833
 122.7830219 120.2620316  79.7284126  22.5100928  80.6087303  96.0761833
  22.0742446  80.8944416  96.8790722  22.6861888  81.4189625  95.5979061
 109.5731544  94.1524887 103.2670975 110.4229832  94.2242336 103.7016964
 109.0180969  94.7872066 103.7201691 123.3548927  80.6918526 103.5499668
 123.9035606  81.1194992 104.2074776 122.5635529  80.4395485 104.0257263
 102.9194736  87.5008297  90.8492756 102.1542072  87.1769428  91.3243675
 103.6332512  86.9253063  91.1240959  97.4778938  68.5412264  87.3266697
  97.8144646  67.9341030  87.9857254  97.0667648  67.9785728  86.6704559
 122.3873711 108.6371422  26.1500303 123.1144810 109.1865444  26.4427701
 121.7835331 108.6233425  26.8925992 101.9181347 111.2224197 109.3040466
 100.9683228 111.2251472 109.4227123 102.2002220 110.3754139 109.6493530
  12.4767523  79.6586514  92.8254986  12.5232821  79.0655231  92.0756531
  12.0801001  79.1344500  93.5212803   7.6726466   0.8833390   3.6477605
   8.3439284   0.6607514   3.0027334   8.0775195   1.5592938   4.1912786
   8.9124423 129.8172474  76.6098404   8.7192278 129.4961643  77.4906397
   9.8452693 129.6396160  76.4894295 112.1557140  37.6140594  11.5449182
 112.9101849  37.1490622  11.1832849 112.5363541  38.3381724  12.0419160
  20.9178382  96.6608334  71.9891644  21.8590384  96.5079308  71.9055796
  20.6506568  96.1123943  72.7267694   6.7551356  88.1121826  12.8851262
   7.2418147  87.2903824  12.9484979   7.2012740  88.7022114  13.4926359
 103.8633728 116.2890720   8.7011949 104.7695351 116.5879345   8.6251394
 103.5627174 116.2033367   7.7964917  89.0022564  85.8663177   9.8823777
  89.7177792  85.5192947   9.3496171  88.5462093  86.4764881   9.3027631
   4.4037943 101.7637825  10.6445257   4.8785811 102.4751663  10.2147142
   3.8200121 102.2042751  11.2620965 100.3342819  69.3391848  84.1038227
 100.3499031  69.8036432  84.9406433 100.5707836  68.4385014  84.3253517
  86.5689087  51.7136526 100.3957176  87.4245834  51.4352798 100.7221508
  86.0649395  51.9132376 101.1846542  95.8491230 123.7009907  91.4065170
  95.9880257 123.3083439  92.2683620  96.2294960 123.0725098  90.7928753
   4.6258669 122.6800728  73.5689926   4.8117571 121.8904018  73.0609655
   5.4872351 123.0028915  73.8336706  73.4844446  74.4054556  22.6611749
  73.5783720  73.5517979  22.2384683  74.1234827  74.3915176  23.3736841
 120.2315903  72.7382755  72.4130106 119.8726273  71.9394112  72.0267582
 120.8822632  73.0394936  71.7788744  92.8623104 123.9440155  98.9794445
  93.2435226 124.8219490  98.9677525  92.7206898 123.7320900  98.0568027
  23.8389426  63.9149284 100.0726986  24.3240386  64.3387365 100.7807255
  24.3630915  63.1454706  99.8503590 103.9931488  95.5247593  93.2073784
 103.6584949  96.1672020  93.8330841 103.5911465  94.6982002  93.4746456
   2.4097567 101.8806076 102.8942394   1.5867262 101.8969917 102.4057865
   2.2378951 102.4128628 103.6710358 114.3533421  97.8242874  67.3001432
 115.0833225  98.3783817  67.5764513 114.4752502  97.7205181  66.3564253
 116.2052917  97.6129150  84.2045403 116.8615150  98.1903744  84.5945930
 116.7157555  96.9381714  83.7569046  73.0691910 107.8320885   5.3985349
  73.9632988 107.4913979   5.4256860  73.1755781 108.7731361   5.2594034
 118.2297325 123.4148788 100.1120853 117.8653336 124.2200661  99.7445011
 117.5654888 122.7487659  99.9351597 101.1916924  79.9447918   1.0417024
 100.6591797  79.4750786   0.3998033 101.5491962  79.2581797   1.6047136
 101.9633198 104.2418289  76.2729979 102.3341942 103.9089584  75.4557562
 102.5525761 104.9501228  76.5324497   8.6243754 130.7081985   5.6591359
   8.8451033 131.6337681   5.5550901   9.4409781 130.2977467   5.9436170
   6.0641032  92.0528412  26.4632360   5.3606730  91.4039707  26.4827958
   5.9893256  92.5124264  27.2995511  67.5277042  92.9422092 107.9263115
  66.8956089  93.3159161 108.5403442  67.7361870  93.6612988 107.3299217
 121.4581394  80.6632233  92.6631546 120.6751251  81.0430241  92.2645569
 122.0412922  80.4869843  91.9248390 109.6044350  81.8905449  86.8846989
 109.0015507  81.3247967  87.3670864 109.7750568  81.4188385  86.0694599
 121.9875145  71.8433094  10.9270803 122.4940395  72.4460030  11.4715234
 122.6411152  71.4080381  10.3797475  99.8610497  97.0603180  91.3574791
 100.4080582  97.7425385  91.7468357 100.4030991  96.2719917  91.3884354
  16.3382750 124.9941158 102.7542019  15.6778460 124.8323441 103.4279156
  16.1810904 124.3161297 102.0970345  86.4679337 104.1936016  25.4574624
  86.8194485 103.3068943  25.3773156  86.9972420 104.7164249  24.8551980
 121.2044716 113.1072235  89.6470547 120.3678894 113.4190369  89.9921894
 121.7815495 113.8695335  89.6928596   3.4595042 125.7491398  81.9335651
   3.8615637 126.3399220  81.2967300   3.6047679 124.8741817  81.5736008
  15.3148203 129.6539593  75.2566481  16.1578875 129.8813725  75.6487703
  14.9221831 129.0368176  75.8740664   5.9497290  91.9814587  97.8626728
   6.7145281  91.4791870  97.5815201   6.2663298  92.5098896  98.5953045
 114.9933147 127.5406933  81.5433121 115.7194901 128.1001282  81.2677670
 114.6420288 127.9708576  82.3229218 100.5890560  94.6334457   3.3448926
 100.8974457  94.4997215   4.2411367  99.6438217  94.4904518   3.3929960
   1.9826537 125.7452774  94.5945168   2.2290354 124.8935890  94.2337418
   1.0677462 125.6393719  94.8551941  19.1263991 102.8041363  12.5470773
  19.7608977 102.9554653  13.2476178  18.6809474 101.9949341  12.7980653
   1.3611346  79.6430063  76.9005632   2.2957640  79.4571781  76.9909048
   1.0924273  79.1487455  76.1261368  99.2878056 135.7112122  20.8075277
  99.9913597 135.1882839  20.4230920  98.6623669 135.8332443  20.0932733
 119.5205307 114.7547531  64.1468763 120.1700306 115.3705406  64.4862747
 118.7304974 115.2817631  64.0270805 118.5158825 107.6902485  41.4459745
 119.0649414 107.3012924  40.7651845 118.1849480 106.9422531  41.9431821
   7.9965811 105.3041172  13.8534681   8.0480223 106.2318325  13.6234037
   8.2595091 104.8446465  13.0559865 103.1080151 135.1064682  82.1615219
 102.2599125 135.2384281  82.5852489 103.7333679 135.5513573  82.7335739
  71.1701202 111.4100170  88.4547138  71.8814850 110.7696152  88.4453201
  70.4666376 110.9794521  88.9404583 124.4256783  89.0153313 105.5301571
 123.9125347  88.2554054 105.2555275 124.3601418  89.0161705 106.4851093
  29.1122466 101.7525482  70.7210732  28.4552508 101.1660576  70.3460741
  28.6377459 102.5663090  70.8910465  84.6271801  86.6466045   8.0448762
  85.2491951  87.0961666   8.6169092  83.7675762  86.8801022   8.3953039
 109.3260384 118.6069679  70.7353115 109.1357899 117.8835773  70.1380253
 108.9408588 119.3744183  70.3123617  86.5865517 106.4293003  84.3487835
  85.7001781 106.4667606  83.9893723  86.5235424 105.8121681  85.0777531
 103.8342953 100.1726151 102.3969555 102.9384518 100.3860283 102.6580048
 103.8106728  99.2353916 102.2038555 112.4853039 113.8504887   7.3467866
 111.6201782 113.4976196   7.1387521 112.3054695 114.6779060   7.7931920
 107.3030186  98.8836193  52.8099251 106.5049839  98.4751987  52.4743986
 106.9943523  99.6466541  53.2985306  87.2382641  89.5583057 107.3758602
  86.4830399  88.9758110 107.2947407  86.9764519  90.1992989 108.0367851
 117.3365974  84.3483639  98.1808472 116.6578770  84.8581409  98.6232376
 117.0845222  84.3642616  97.2575760 121.5535927 118.8928890   5.8974496
 121.3305283 117.9810524   6.0845987 122.4962997 118.9459801   6.0547010
 114.1943932 122.4412918 105.0688553 114.7131920 123.2419014 105.1469612
 113.4593773 122.5728035 105.6677628   6.2284403 110.4083633   4.3018571
   6.1074763 110.4185677   3.3523790   5.3394538 110.3937817   4.6564142
 107.5437450  76.2382317  67.2555685 107.8528786  75.3639698  67.4929047
 108.1732655  76.5460539  66.6035175 107.6553345 133.6929035  94.7036076
 108.5172462 134.0400410  94.9334621 107.8129673 133.1547165  93.9278984
   6.9832545 138.2120228  15.1138536   6.3652545 137.4836254  15.0527898
   7.8117495 137.8028965  15.3637449   3.5388022  59.6472692 109.0265083
   2.6694136  59.7707081 108.6454964   3.3708602  59.2629766 109.8869419
 102.9133511  93.7613392  16.7133561 103.3823204  94.3498611  17.3049203
 102.7909946  94.2730522  15.9137288  20.9054690 105.8296204   1.7474881
  21.7455512 106.0016441   1.3221685  20.2624446 105.8905506   1.0410539
   2.1923190  90.7957458  67.2665691   2.9614955  91.3386917  67.0938683
   1.5144759  91.4178085  67.5307703   2.2011309  98.7501144  12.3335878
   1.5960627  98.2402706  12.8722707   1.6415721  99.1816807  11.6879312
 109.0462875  79.5657825  70.0766230 109.3973446  79.1128874  69.3098879
 109.7845268  79.6162701  70.6838179   0.6769496 122.2077370  89.7691345
   0.1583987 121.7834759  90.4527569   1.3370925 121.5569305  89.5306206
 118.0271912 121.0462761 102.0710564 118.0280876 121.9348240 101.7150974
 118.9515209 120.8468533 102.2196388  16.9080954  10.6039887  12.6902143
  17.5458270  10.5356293  11.9796792  16.0929328  10.2730732  12.3130742
  74.3126678 120.2824020  84.7559166  75.2352095 120.1705742  84.5264816
  73.8716364 119.5394325  84.3439388 102.2051525  84.6383667  77.3568153
 102.9671001  84.9297905  77.8575516 102.4258518  83.7487793  77.0808601
  98.5720158 106.4764595  87.3394680  98.9764786 106.7517853  88.1621647
  99.1289139 105.7640839  87.0254230 113.1397343  93.3203506  18.0030290
 113.8422966  92.9580688  17.4632112 113.5410118  93.4512138  18.8621465
  24.8938208 142.5496006  89.5255089  24.8442584 143.4895611  89.6994019
  25.8311301 142.3676300  89.4578648 113.9345932 102.0968151  66.7637920
 113.5058117 102.8972149  67.0666885 113.2618618 101.4203930  66.8420362
   2.6556616  81.8476963   8.4495870   2.2792750  81.1009502   7.9838220
   3.5224753  81.9610119   8.0596677 107.3408222  89.5995808  68.4859180
 107.5825500  88.7211132  68.7793446 107.9912281  89.8164272  67.8179598
  94.8816395 115.1740742  82.2363091  94.1379738 115.7765388  82.2515297
  95.6293488 115.7224941  81.9987965  77.2503138  79.4196796 102.1378803
  78.1299639  79.3171644 102.5010967  77.0930099  80.3637218 102.1540833
  80.5349445  72.4713659  90.7726479  80.6468582  71.9456244  89.9806309
  79.8574829  72.0135164  91.2703037 119.1142559 126.7703152  64.7734404
 119.1778374 125.8335495  64.5872736 119.5843506 126.8827629  65.5996323
  17.5216227  95.5517197   8.5551301  18.3415919  95.0669575   8.6493627
  16.9055682  94.9128914   8.1965200 109.7130299  92.7953529  18.1407110
 110.4090405  93.2507801  17.6670209 109.4759560  92.0627880  17.5720445
  17.4440222 106.0345459  74.9196768  17.3469000 106.8573475  75.3990555
  18.3848410 105.8587742  74.9337387 101.9761276 115.7669067  80.8933830
 101.3407326 116.0848045  81.5348244 101.5708733 114.9827194  80.5231762
 108.6726761 125.4700756  38.8118020 109.3770885 124.9993896  39.2573205
 108.4797764 124.9378681  38.0399362 106.5697098  79.2019653 101.9853973
 107.3196030  78.9365292 102.5177765 106.6360092  78.6667967 101.1945534
 118.4286785  65.8776665   2.4274961 117.7528954  66.1642075   1.8131391
 119.1288853  66.5232182   2.3315469  15.1166087 118.9546585  97.4665642
  15.5934363 118.1385612  97.3154068  15.3201514 119.4958019  96.7037010
 115.7782459 104.1227627   9.8889867 116.1021805 103.4286022  10.4629556
 116.5670776 104.5792484   9.5964376 121.7533112 106.8546009  47.2882882
 120.8222198 107.0734310  47.3260156 122.1734715 107.6507378  46.9629136
  87.1951103 109.2152405  98.6002064  87.9220390 109.2652607  99.2209339
  87.5372982 109.6103001  97.7982903 104.4376755  83.9789009  44.5045129
 104.3922138  84.6038246  43.7808839 105.3746891  83.8431263  44.6452180
 118.0716991  59.4679976   5.6978837 118.9684677  59.1640186   5.8380071
 118.1323338  60.0529623   4.9426595  50.7584524  91.1788845   8.5909215
  50.0665426  90.9843636   7.9587404  50.9471512  92.1082783   8.4610788
 107.9495335  87.4182129  75.7960987 107.7179527  88.1711197  76.3399172
 108.9022255  87.4647522  75.7158089  79.1261196 131.8748856   8.5528985
  79.3530703 131.2760067   9.2642824  78.8141489 132.6645279   8.9949075
   5.8073264  90.1182079  93.3996487   6.6518622  90.5626488  93.4735584
   5.5838900  90.1813698  92.4710369  16.8158560 129.9537945  22.6743356
  17.0176440 129.0235519  22.5735418  17.6310568 130.4015923  22.4481622
 114.9974728  67.6314974  90.6924820 115.7097816  67.9619122  90.1450539
 114.2610550  67.5270033  90.0899887   1.6797858  89.5417213  72.3208761
   1.0528975  89.3533421  71.6224766   1.7052394  90.4973984  72.3685074
   2.9284697  97.2784710  58.9557743   2.0340090  97.1212196  59.2581654
   3.2875186  97.9040718  59.5850039   5.3597861  99.3116474  89.2526817
   4.6871119  98.6602974  89.4514084   5.3729659  99.3583393  88.2967091
 101.4768314  95.6373692  87.6249409 100.9866810  94.8671246  87.9125595
 101.9046593  95.9590721  88.4184837 107.8013611 123.2083607 101.7671299
 108.4087753 123.7627792 102.2569275 107.1997929 122.8686237 102.4296474
  83.9363766  86.5059376  92.6476765  84.2083740  86.3353157  93.5494232
  83.5185909  87.3664570  92.6822758   7.7408248  60.6829309   8.6660043
   7.0511180  60.0364351   8.5157052   7.6012354  61.3440800   7.9880372
  80.5268669  88.7492943  64.1650820  80.1368713  89.2218590  64.9004745
  79.8120975  88.6537933  63.5356283   3.0038863  89.9194431  85.3063488
   3.3554011  90.2944469  86.1138439   2.4714213  90.6196880  84.9290276
   6.8814498 134.8302650   6.1255494   6.6494017 134.5972252   7.0244829
   7.0078974 135.7787895   6.1490480   7.8148108 100.2298260  73.5065031
   8.7593775 100.1511288  73.3729982   7.5520926 100.9538937  72.9382277
  36.3204127 129.3020725  61.6054392  36.5198260 128.5437584  62.1544600
  36.7199259 129.0973854  60.7600260 105.1696396 142.3232365  62.6993799
 104.4056702 141.9409752  62.2675800 105.2965260 141.7860508  63.4813976
 118.8453293 111.4288807  77.4446726 117.9539776 111.5250874  77.7800322
 118.8815022 110.5310631  77.1147537 111.1942673 115.9437656  79.7539234
 111.7686367 115.1880646  79.8774147 110.5771637 115.8974457  80.4841805
 124.4047356  92.8180122 108.4481239 123.5658932  92.3597050 108.3977604
 124.4941521  93.2480335 107.5976467 107.4708939  94.6658516  18.5771314
 107.8064346  95.0918961  19.3658868 108.2370281  94.2435169  18.1886712
 110.1321602 113.3358002  75.7646370 110.0475216 112.3823547  75.7678699
 109.2900848 113.6498928  75.4352617  87.2794819  83.0849838  83.5312653
  86.7693996  83.7857628  83.1251240  86.6339493  82.5659943  84.0110302
 121.4800167  83.7756729  95.7717896 120.9566593  84.1122055  96.4991665
 121.4577293  82.8249168  95.8804607  13.1283122 108.1182003   4.0016500
  12.3847991 108.4775925   3.5176507  12.9453784 107.1804619   4.0600244
  50.0128298  77.3383379  93.9021301  49.2087489  77.1796513  93.4076786
  49.9970179  78.2767153  94.0903664  98.1973839  91.7679214  87.1978569
  97.2999001  91.7965317  87.5294304  98.4482956  92.6871014  87.1062946
 114.9065781  89.8536205  93.0811405 115.1056290  90.1272774  92.1857548
 114.2861652  90.5092716  93.3996487 102.9526901   2.1311455  69.5318460
 103.0094910   1.2524109  69.1565609 102.2328472   2.5478344  69.0581226
 120.9130383  81.7534447  63.1860399 121.2679672  81.9305992  62.3149061
 120.2826977  82.4580765  63.3356905   7.8399211  69.5446682  84.6026134
   8.4272318  70.2703094  84.3911076   8.3022910  69.0521574  85.2807522
 102.3164463  85.9429455  83.4868813 101.6423130  86.2189388  84.1078472
 102.4269581  85.0068951  83.6536789 108.1410217  71.3847494  71.2818289
 107.6140976  70.6506109  70.9661961 107.8154182  72.1407652  70.7933044
  31.9477587 104.2420483   0.7806722  31.2132578 103.8722801   1.2705747
  32.0855074 105.1052475   1.1707345   6.2908869  99.2048359  54.9310732
   6.3964968  98.6654568  55.7147503   5.5551367  99.7821522  55.1350260
   7.5230342 112.6425934 105.2501678   8.4580927 112.6494026 105.4547501
   7.2830039 113.5676098 105.1958466  98.1974316 128.5586548  89.5333195
  97.8340149 127.8603935  90.0779247  97.8952503 128.3540726  88.6484051
   8.6158019   5.7538300  97.2692108   8.1190520   5.9539204  96.4758396
   7.9548865   5.7060891  97.9599667  85.5750179  90.7376003  92.9795361
  86.4424229  91.0836029  92.7694607  85.7388973  90.0664234  93.6420345
 120.3836918  80.7078838  75.8721399 119.7167873  80.0718784  75.6133461
 119.9018669  81.3742065  76.3621235 121.0911846 130.4904366  83.1655884
 120.1661968 130.7354164  83.1407642 121.4220619 130.7158566  82.2961330
 116.1398602  91.1140442 102.2137928 115.8164597  91.9907475 102.4212265
 115.3999996  90.5357361 102.3992634  68.1355572 108.0807686  68.5944605
  68.6288691 108.9010525  68.5927200  68.7272882 107.4445724  68.1927824
  10.1332789  60.4963827  74.0577078  10.9686881  60.7323647  73.6544228
  10.1010733  61.0139132  74.8622942  18.2449084 108.2576847  77.1589994
  18.5519724 108.7201500  76.3792181  18.9057379 107.5824928  77.3127985
 107.4909019  99.5056152  88.8685226 107.0768261 100.3567123  88.7256622
 107.2179222  99.2514038  89.7500515  22.7623301  84.6757793  65.2697182
  22.7923422  85.6241703  65.3957367  21.8959742  84.5109081  64.8975801
 111.7713451 103.7668705  94.2246914 111.0673904 103.1402493  94.0572929
 112.1054363 103.9895535  93.3557701   3.4547263 106.1009121  71.1394691
   3.9138442 105.3081322  70.8621025   3.4013777 106.6362000  70.3477287
   2.4925643  95.1885986  11.9650785   1.9902545  95.4684639  11.1998407
   3.2590609  95.7618999  11.9712106   2.1308070  87.9898071 104.6877289
   1.3149291  88.3901215 104.9882507   1.8673163  87.1340084 104.3494797
 117.5614834  77.8440523  76.7964411 117.6873112  78.7876177  76.6960382
 118.4266376  77.5110817  77.0349407  14.7354727 116.9010830  53.5566759
  13.9607173 116.9642639  54.1152430  15.0574046 116.0100937  53.6935663
 109.6496868 107.0003510  86.0219574 109.1257477 106.1998844  85.9906006
 110.3317928 106.8150139  86.6674137  79.8511410  20.6922512  17.2106687
  79.6919727  20.3089123  16.3481466  80.3407955  20.0201779  17.6847974
 122.4423313  91.1814308 105.5583477 123.1679726  90.5948162 105.3449249
 121.7386627  90.9174919 104.9655437 111.9488811  92.2821999  75.1686430
 111.8646145  91.3544750  75.3887892 112.8930092  92.4317360  75.1187658
 106.8662453  86.4991474  96.1155510 106.5424538  85.7983208  95.5496597
 106.8754673  87.2748184  95.5547714 108.5044098  56.0457373  20.2151147
 109.1137409  55.5682468  19.6521322 108.2033539  55.3945541  20.8487932
 116.6659927 117.9162216  86.4224148 116.7374325 118.4969425  85.6648540
 116.3051701 118.4695244  87.1151543 124.0985584  87.9862690  76.0207510
 123.5131454  87.8915310  76.7721128 124.7491360  88.6289310  76.3035488
 112.5388718 113.5426712  79.5142555 113.3347607 113.6865807  79.0023136
 111.9740772 113.0266476  78.9389753  86.9587803  88.6987305  94.4183445
  87.8164959  88.9615822  94.7522259  86.5628910  88.2056141  95.1369095
 113.8314533 119.4494247  71.2286615 113.9183807 118.5002708  71.1404037
 113.0749130 119.5682907  71.8029070   6.1065512  76.6945219  45.5417919
   6.7702323  76.3286591  44.9570608   6.3500815  77.6156235  45.6339502
   5.0838023 126.1852455  78.3149052   4.5010214 126.6012001  78.9501858
   5.1395636 125.2737999  78.6019516 120.6054497  71.7986822  97.7919388
 120.9828377  71.6067553  96.9334602 120.4184341  70.9389734  98.1689835
 112.5819874 114.9951458  70.3784800 111.8954277 114.8234653  71.0229826
 113.0716038 114.1743374  70.3256893 115.8310127  87.3282242  83.3654118
 115.4183388  86.5067482  83.6320877 115.6971073  87.3671627  82.4184322
   6.0509616  84.1836166  78.6974049   6.5553408  84.9468994  78.4159136
   6.7010336  83.4867859  78.7871790 117.1727371  96.2534046  75.3169680
 117.5153923  96.3778973  76.2020206 116.3050556  95.8709335  75.4476595
  93.8657951  87.7310658  88.4215641  94.5595169  87.2530365  87.9671860
  93.6037254  87.1508884  89.1363811  15.3494387  82.7804089  60.0360012
  14.8435431  82.3756027  60.7405853  14.7288352  83.3649826  59.6008682
 102.6180553  91.1024952  96.2396526 103.5027027  91.1573505  96.6010857
 102.3101902  92.0086479  96.2213421 124.0198612  81.8955803  81.6370201
 123.8285065  81.1404514  81.0807800 124.2538834  81.5159893  82.4839973
  33.8136225  80.6121731  72.6932716  34.5578127  80.0133610  72.6312351
  33.9756041  81.2667179  72.0138836 116.1247444  91.3960743  49.6719217
 116.1812973  90.7867146  48.9359093 116.1997223  90.8413887  50.4484081
  88.9389801  92.3276138 100.2796936  89.1732311  92.9148483 100.9983921
  89.4003773  92.6829052  99.5200157 122.9602337 115.7606220  82.1242619
 123.1720638 114.9621105  81.6407871 123.0074024 115.5028343  83.0448914
  92.2672939  71.3282824  61.6212320  91.8263817  70.4834604  61.5311909
  92.2388935  71.5144491  62.5597239 104.3285561  94.6964931  75.9228277
 103.7241650  94.4351292  75.2281141 103.7672043  94.8538589  76.6820049
 116.3093662  84.1982555   4.9795095 117.0817852  83.7839127   5.3640977
 115.7757092  83.4673405   4.6677533 105.3131390  76.1011124 101.2551117
 105.8045578  76.7502928 100.7518196 105.7879925  75.2815342 101.1171436
  15.5880290  92.5928307  94.3862629  14.8294573  93.1177521  94.6417332
  15.9489756  93.0479527  93.6254597  82.8037262  89.2138290  79.9331856
  83.1358433  89.2090416  80.8309078  83.1223774  90.0376129  79.5643139
 114.0571022  90.9928703  25.5821371 114.3634892  90.2074623  26.0354495
 114.8376369  91.5404415  25.4975414 114.5997334  97.3223114  14.0070573
 114.8028088  98.2197762  14.2707959 114.8183727  97.2910881  13.0756894
 123.1825256 129.3101120  79.2641687 123.8090420 129.8958302  79.6891928
 123.5847092 128.4436989  79.3259192  44.5368891 119.3216896  13.0016557
  44.1662913 119.7119617  12.2100869  45.1621752 118.6729145  12.6786653
 110.0026989 117.1478748  74.3859434 109.1398239 117.5552177  74.3102026
 110.0872898 116.9371414  75.3158188 104.5824432 129.3427944  75.1296520
 104.3384838 129.6611595  75.9987640 105.4873753 129.6324730  75.0137711
   9.5151930 107.3412228  63.3181000   8.7505084 106.9804859  63.7668324
   9.1546946 107.9928303  62.7166986 104.5254230 111.2268066  99.3177795
 104.5768356 112.0558929  99.7933865 104.3343067 111.4801788  98.4147167
 106.3391685  98.4873390  78.3183193 105.9440231  97.8166008  78.8752651
 106.0649872  98.2541943  77.4313593 121.0394478 100.7674694  83.6151600
 121.4536476 100.0932884  84.1538143 121.1780643 100.4733849  82.7148628
  89.9958134  72.6334429  73.3146906  89.5637321  73.1637573  72.6451349
  89.6035385  72.9219723  74.1387653 119.7448063 105.5852795  89.7043991
 118.8544273 105.8590698  89.4842052 120.1708412 105.4523754  88.8576126
 122.8422260 110.6241608  83.6513042 122.9079056 109.8098373  83.1525040
 121.9931126 110.9894753  83.4027290   9.1889697  93.2841969  85.8721447
   8.9179545  93.5320282  86.7560959  10.0081091  92.8052902  85.9982014
  79.8272419  81.7101574  88.4932327  80.1304913  80.8583736  88.8074589
  79.9958229  82.3079967  89.2215157 117.7262402  67.8052235  98.9468002
 117.1721649  68.2487345  98.3045101 117.4848938  66.8817902  98.8742924
  22.1420794 143.5484695  94.3888760  21.7383509 142.7884102  94.8078442
  22.2739153 143.2790184  93.4798908   0.5558234 135.6672668  88.2012367
  -0.3338880 135.5469608  88.5331726   1.0922652 135.7733536  88.9868641
  85.4523563 137.0128727  75.7476521  84.9731541 137.6826096  75.2597523
  84.9493694 136.8980217  76.5539074  93.6998653  80.0388050  73.8383770
  93.8423634  80.1342297  72.8966665  92.9531860  80.6074333  74.0264606
 112.4618244 100.4453850  84.1998291 112.9845047  99.7997856  83.7241840
 111.6315365 100.0013447  84.3721390  19.7987872  80.1328278  56.7048883
  20.4297476  80.1177692  57.4245405  19.5835047  79.2121410  56.5558004
   8.6818820 112.7867889  68.0365658   9.5684558 113.0210400  67.7620745
   8.1244307 113.0675125  67.3108387 117.5812244 110.7411098  86.7976379
 116.6687679 110.4530525  86.7716217 117.7493477 111.0837078  85.9197998
  26.0033160 101.7170429  98.4495354  25.7421046 101.8284130  99.3636417
  25.4172354 101.0387516  98.1138897  11.0314017 126.4188385  91.3207245
  10.5303031 125.9520912  91.9895172  10.9368926 127.3428631  91.5520000
   1.2154704 125.9926891  83.5627460   1.0080176 126.8937969  83.8101482
   1.9364863 126.0756111  82.9386520 123.8843346  73.0927134  39.7033763
 124.4377327  73.7713623  40.0899172 122.9991436  73.4549379  39.7416091
 107.8918552 100.8212185  59.4220018 107.0097828 101.1797142  59.3236732
 107.7534771  99.8932648  59.6116829  42.4214869 110.1565170  77.6407385
  43.0100184 109.7640610  78.2855892  42.4481326 109.5562935  76.8955851
  11.5610533 103.2439709  98.9498997  10.9822398 102.5557804  99.2779350
  12.4438696 102.9179859  99.1248322   3.2469779  98.6608601  94.9347496
   3.7321787  98.4543991  94.1358852   2.3396044  98.4362984  94.7286701
  83.5640240 130.4763317  64.3580246  83.2736874 129.6822071  63.9093590
  84.2057705 130.8658981  63.7642002 117.5525856 102.4194527  11.5815107
 117.0914841 101.6403866  11.8924180 118.1452560 102.0927906  10.9045545
 117.6561260 132.8186798  43.6475992 117.7155685 132.8596115  42.6931238
 116.7380810 132.6110649  43.8217163 119.6430588  88.7571812  74.2070246
 119.0348816  88.8593197  73.4749556 120.4522228  88.4423733  73.8040495
 123.7054062 119.5112896  82.4329281 123.5428524 120.4529762  82.4880219
 124.6348763 119.4410133  82.2152424   5.4916888  63.5808563  94.0580750
   6.1630469  63.2415056  94.6499825   5.8856230  63.5180950  93.1879520
  94.5792103  84.3884087  69.0507841  93.9019871  84.9686623  68.7030649
  94.9207306  83.9313316  68.2822275 110.9070969 111.4960766 103.3743095
 111.2460613 110.6083584 103.2589722 109.9649620 111.3787651 103.4961414
 116.4193153 113.1913185  65.3811455 116.4577961 112.4491024  65.9843540
 117.2766113 113.6095428  65.4609919  28.9036780 119.6952438 107.9614544
  29.6042185 119.5553684 108.5985565  28.9120226 120.6386185 107.7995491
  87.8734970  67.5548601  59.6776152  87.1110439  67.7804470  60.2105379
  87.5614166  66.8637609  59.0934753   1.0488539  78.2928753  57.4369049
   1.8972235  78.4227610  57.0130634   1.2526160  78.2447481  58.3709240
  84.0896797 107.0775127  93.8578033  83.4729576 107.0470142  94.5892048
  83.7033176 107.7027988  93.2446384 113.4920216  62.1180677  44.8025894
 112.9076481  61.3733435  44.6607399 114.2424297  61.9453812  44.2339897
 115.9667683  84.2765427  71.5972137 115.8716869  85.0515747  72.1508551
 116.6677189  84.5032883  70.9860802   1.3003665  97.8090954  76.0524368
   1.4937907  98.1865406  76.9105434   0.3959208  97.5038433  76.1234045
 106.0071468 107.5484943  86.9918156 106.3363171 107.0219994  86.2633419
 106.3161469 108.4350586  86.8054008 105.9887314  87.2639561   0.2719632
 105.9506798  87.5606537   1.1812249 105.8187866  88.0518246  -0.2443751
 114.3003559 109.7332478 100.5497646 113.8017559 110.0858212  99.8126602
 114.5755863 108.8638783 100.2587700 115.0922203  69.7445726  80.0784588
 114.7921944  70.3847408  80.7237434 115.3394604  68.9792061  80.5974102
  90.2125168  82.3214054  70.9009838  91.1383438  82.4925518  70.7284307
  90.0994110  82.5288773  71.8285561   1.8890601 106.0017395  51.8321943
   2.4390154 106.3891888  52.5131178   1.4518195 105.2688313  52.2656775
 108.7163162 118.0078411 100.6828117 108.0915070 117.4982262 100.1669216
 109.5238400 117.9874992 100.1692772  86.4712524  84.4253254 106.0318661
  87.0514011  83.8309765 106.5076828  85.7607365  83.8660717 105.7178020
 102.7667427  85.5893421  80.2003384 101.9777489  86.0633945  79.9376726
 103.1928062  86.1661530  80.8343601 123.7684345 104.7707367  67.8094530
 123.3289719 105.1028538  67.0266342 123.6272717 105.4494381  68.4695053
 120.7672310  49.4432497  78.8419580 120.0937176  50.0729465  79.0990448
 120.2915001  48.6225367  78.7141132 118.2602787 100.4344654  74.1569757
 117.9019737 101.3139915  74.2765188 118.6003780 100.1951694  75.0191259
 109.2698193  77.2221613  65.5106115 109.6896172  76.8885088  64.7177172
 108.9384270  78.0848551  65.2612782 114.7063351  76.5387821  36.3098526
 114.6317482  77.3975086  36.7260933 114.9320221  76.7324257  35.4000163
 100.7776451 112.3902607  68.6955357 101.6028881 112.7887535  68.4191275
 100.1045990 113.0024815  68.3981609  97.3557949 127.2992802  62.4087286
  97.6839066 128.1942654  62.3217392  97.0779228 127.2337914  63.3223629
  72.6478195  69.4152164  74.4441891  71.7815161  69.3186617  74.0486860
  73.0930138  68.5903788  74.2500877 101.5194321 137.6561832  81.2741184
 101.1343193 137.8103256  80.4114723 101.4822197 136.7063713  81.3867760
  18.9252978  98.2328415  68.4291792  19.8271018  97.9660320  68.2508850
  18.5294085  98.3325863  67.5634098  26.8142253  98.8236809  86.6251659
  26.0896617  98.9144802  86.0063076  27.6010542  98.8890839  86.0840034
 121.5140438  81.7839718  73.5344362 122.2370911  82.2132587  73.9917564
 121.0906696  81.2483215  74.2053080 111.6836834 122.1615028  91.3878822
 110.8315659 122.2494221  91.8149662 112.1710682 121.5572929  91.9479084
  84.2354107  77.3337746  64.9905825  84.5950508  77.6269054  64.1533470
  83.3880138  76.9495106  64.7658730  94.0083790  93.8648319  67.2954798
  93.1365776  94.2446518  67.1862841  94.4603920  94.4682598  67.8852177
  10.7373839 132.0556927  68.7517023   9.8598891 132.4377441  68.7351990
  10.6147032 131.1602306  68.4365463 123.6710739  53.6944342  76.8917990
 124.2548275  52.9523993  76.7341375 123.9461994  54.0393448  77.7412558
  13.4966879  86.2841129  53.4425926  14.4424182  86.2301159  53.3050776
  13.2620078  87.1647739  53.1500244   2.6630526  63.9578199  67.5430536
   2.0568591  64.4406366  66.9812250   3.4989482  64.4127035  67.4401188
  99.1933727 117.3079967  94.6890545  99.3706608 117.8200531  93.9000130
  99.8320770 117.6239681  95.3281689 123.4347916   5.4384594  90.1784992
 123.0414295   5.5332260  91.0459709 124.2456818   4.9544602  90.3347969
   5.8838969  81.5188408  68.6249113   6.3505679  81.3101959  69.4341803
   6.0704165  80.7813454  68.0439281 120.8375072 133.6541653  83.0918980
 120.6687832 132.8130531  82.6672840 119.9732971 133.9624500  83.3645439
   5.2444678  69.8364210  79.0068865   4.3571787  69.9588203  79.3444729
   5.6048041  69.1229534  79.5335293  17.5758868  99.7954178   9.9905244
  17.1510153  98.9533138  10.1535741  18.5038786  99.5810032   9.8952142
  14.4528895  58.2895136  94.1345215  13.5141974  58.4546137  94.0460396
  14.8677569  59.0969515  93.8309288  19.8902159  72.0748806  90.5985641
  20.0832396  71.9300985  91.5248585  19.0054160  71.7290115  90.4813862
  10.4931574  96.0123253  83.8207722   9.7875434  95.3727818  83.9173222
  10.9706908  95.7263756  83.0420303 113.7818623 124.0907955  87.6774597
 113.6761570 124.6545124  88.4438038 114.3493652 124.5895290  87.0897102
  12.1719008  87.1380806  56.0209751  12.4590426  87.1006203  55.1086283
  11.2640315  87.4377823  55.9742212  -0.1861448 113.0016232  86.5890789
   0.2487975 112.6287556  87.3559093   0.0821906 113.9204311  86.5846634
   9.7234374  72.0603323  99.8754692  10.2866297  71.9628668  99.1076469
   8.9327937  72.4832726  99.5404339   7.7171832  87.1052456 104.0513611
   7.4743205  87.9878616 104.3310738   7.8974181  87.1917534 103.1152725
  72.4828529 119.6367741  58.7821674  73.3902979 119.3991280  58.5916281
  72.1892118 118.9767361  59.4101429 103.5515404  66.6175699  54.8597288
 102.7205467  66.1557102  54.7485113 103.8508129  66.3651657  55.7332039
 102.1321774 101.7754745  66.6627884 101.4395142 101.7730618  67.3234272
 102.8713608 102.2059631  67.0923567  23.6405783  49.8050737 107.4922085
  23.5268908  50.7544470 107.5368690  23.2224494  49.4760847 108.2879257
 106.1190605  80.1003742  54.5454597 106.5751362  80.9266090  54.3855858
 106.6830254  79.6304607  55.1597595  98.3166599  72.5000763  52.5662756
  98.4991550  73.3851576  52.8818083  97.3809910  72.3769379  52.7262688
 110.1959896  97.2851562  10.5517045 110.4113960  97.8924179   9.8438493
 109.2946053  97.0178699  10.3719941 102.1928120 104.9568653  61.9852304
 102.4998951 104.5659161  62.8032064 101.3530445 104.5297623  61.8160868
  92.5659275 103.4694481  13.0799905  91.9288158 102.7618790  13.1782571
  92.2297573 103.9953709  12.3543016   2.8418284 122.1321201 106.9998169
   3.4250575 122.7391243 107.4554920   3.3550673 121.3292408 106.9093132
  34.9189406  79.9998856  48.1551790  34.0423613  79.7298717  47.8814507
  35.4286128  79.1896725  48.1597996   7.5679141 129.0624809  94.5987797
   7.1368628 129.7990990  94.1653824   7.3945075 129.1978836  95.5303478
   2.3226863  82.8716183  25.5617189   1.5428572  83.3892059  25.3611851
   3.0350619  83.3288479  25.1148367   7.8439074  82.9793167  72.8252983
   8.2935172  83.1970978  72.0088100   7.0529204  83.5182476  72.8142786
 115.2184772 117.6939201  76.7112923 115.0903130 118.0212784  75.8209848
 116.1348629 117.4184608  76.7355967 111.5237999 105.6025887  39.5353270
 112.3420429 105.4467678  40.0069571 111.5508556 106.5323639  39.3094707
 106.3707638 144.1731071  91.6841602 105.4745483 144.5029926  91.6193104
 106.4344978 143.8262081  92.5740147   7.0592528  99.1933537  69.7107029
   7.6702529  98.5273933  70.0260019   6.5948706  99.4832993  70.4958868
   3.5798197 105.8575153  89.2074203   3.8733225 104.9505806  89.2943382
   3.0369502 106.0087585  89.9811459   9.7475463 104.5904922  60.4380798
  10.1063662 105.4310226  60.7226658   9.7606783 104.6358204  59.4820404
 113.9700508  82.8325558  58.0361462 113.5784912  83.1741238  58.8400412
 113.6518574  81.9316196  57.9787683  21.9241934 120.5424595  94.4616985
  21.8105918 121.4861107  94.3483067  22.1266394 120.4355621  95.3911209
  15.8400279  90.0756645  49.8799086  15.3846102  89.2517567  49.7066927
  15.1783019  90.7510376  49.7308207 105.0951004 104.5492172  55.7135582
 104.3175888 105.0731850  55.5207729 105.0774479 103.8464451  55.0639200
  48.4726840 137.5120258  38.7397885  48.6796694 137.0850277  39.5710850
  48.0258303 136.8372536  38.2286716 116.3478184  93.7754440  71.7393255
 116.9545269  94.4719601  71.9903278 116.7067146  93.4279060  70.9228420
 105.0189972  95.0235462  66.4137220 105.2507401  95.8753872  66.7837143
 104.2314339  94.7615719  66.8905258 122.9995251 107.6391983  80.5243111
 122.4674034 107.1588230  81.1585999 123.0747032 107.0460987  79.7767687
   2.9868537 128.5898685  25.5797148   3.2329970 129.5134926  25.6302309
   2.6112967 128.4895706  24.7049975   8.1954413 125.4419231  26.8599296
   8.4102374 124.8831558  26.1130238   8.5969668 125.0036716  27.6102185
  11.3827735 113.3561707  67.2221279  12.3223811 113.1798935  67.1742439
  11.3223105 114.3054771  67.3288250  99.9330044  73.1620169  72.3362207
  99.8413277  72.3934793  72.8994083 100.7161045  73.6056757  72.6620388
  82.0334148  11.1652832  69.2246675  82.2293282  10.9326344  70.1322651
  82.6411724  11.8768292  69.0232706  16.4256507  93.5255241  26.8812370
  17.3608618  93.6614704  27.0333362  15.9947424  94.1471100  27.4679089
 106.3520432 124.3254375  79.1022682 107.0873833 124.8925877  78.8702297
 106.1927891 124.5066643  80.0285625 105.2762222  45.4466486  66.4227962
 106.0082054  46.0563278  66.5161991 104.8421097  45.4611397  67.2757721
  18.5895663  70.9468508  50.6860924  19.4333201  70.4982662  50.6306362
  18.2574778  70.9442663  49.7883511 110.3898525  77.6088142  72.5633526
 110.4151249  78.5588312  72.6776171 109.9570084  77.2840405  73.3529139
 122.0598221  85.2586555  31.4362383 122.0145988  85.8881378  32.1559167
 122.7910137  84.6849918  31.6653800  26.8644171 121.6281223  57.7531433
  27.2688704 122.2292709  58.3786583  27.2713881 121.8455696  56.9145012
 107.0323467  93.0221558  42.8776598 107.7593040  92.4212456  43.0409670
 106.5541363  93.0503654  43.7063646 120.3680325  90.9436321  66.2097740
 119.4146156  90.8914661  66.1426783 120.6554031  90.0315857  66.2524176
   1.5476828 110.2171135  72.9138565   1.5151721 110.8179379  73.6582851
   0.6308013 110.0103664  72.7327108  88.2824802 128.8498878  62.0180893
  88.4992790 129.7730637  61.8878222  87.9080391 128.5715485  61.1822939
 119.1498566 121.8667889  50.8329296 119.7425365 121.1841488  51.1474943
 119.3954563 122.6458168  51.3319588 111.4045525  64.3584013  45.8479309
 110.5227089  64.6435547  46.0872602 111.3767052  63.4046173  45.9238100
 104.7894096  92.1160507  92.6811600 104.2973518  91.3190460  92.8783512
 104.4239712  92.4241447  91.8518448  15.6630545 143.0950737  73.7109232
  15.3007346 143.0332756  72.8271008  15.7189017 142.1877956  74.0108585
   4.3381243 104.8568916  81.0737705   4.8046713 104.5467854  81.8499088
   3.8156729 104.1058350  80.7923508  12.3294287 110.0761890  27.5877500
  11.5967208 110.5142689  28.0207133  13.0074053 110.0212002  28.2612157
 124.1758060  95.9024906 100.2617168 123.9702702  96.1221886 101.1704159
 125.1315308  95.9329319 100.2182388 121.4858627 131.1502934 107.4247265
 121.2008476 132.0568943 107.5391102 122.0372868 130.9745789 108.1871510
 100.7260036 100.6116581  74.2126274 101.2632561 100.2621555  73.5016823
 100.3215313  99.8398876  74.6088505  91.1642647  91.8733978  55.8282661
  91.7547321  91.6044426  55.1245403  90.6788540  92.6135540  55.4638767
   5.9811240 118.6570263  60.6893969   6.0234004 119.5998478  60.5295658
   6.8784171 118.4119129  60.9152412  31.0608130  83.4442139  83.0398750
  31.0892706  84.2789173  82.5722408  31.5580302  83.6022091  83.8424015
 104.0811157  79.1013479  56.5138245 104.3985844  79.4871283  55.6973553
 103.1280231  79.1680384  56.4555359   2.9402094 107.1111393  68.6699438
   3.7367468 107.6302719  68.5592318   2.2398882 107.6734638  68.3389425
 111.4550304  95.5734062  39.2595196 112.2322178  95.5720043  38.7007713
 110.9945774  96.3798237  39.0273309  62.2798300 117.5214577  56.6696024
  61.9859552 116.6438675  56.9139528  63.2272339 117.4358082  56.5631676
 117.1831799  87.1038246  43.1037378 116.3568497  87.5734997  43.2169867
 117.1687889  86.8100262  42.1928549 116.9710350  67.0813608  46.6946936
 116.1697674  67.5616121  46.9034147 117.0630836  66.4481688  47.4066114
 123.9068604 101.4871693  48.6768055 123.2975769 100.9713936  48.1486177
 124.4928741 101.8933868  48.0382109 112.0916367 121.3231945  47.6595879
 112.8969479 121.5479279  48.1256294 112.3227501 121.3953209  46.7335129
  11.2836009  81.2188339  33.0870938  11.1386996  81.1633778  34.0316367
  10.7936316  81.9947243  32.8147697 115.6551647 112.3480225  50.9857368
 115.8681870 111.4337349  50.7988691 115.8302784 112.8074360  50.1644516
 114.5881557  81.5290356  28.2137489 114.8439789  82.4512959  28.1990361
 113.8289928  81.4817619  27.6326537 123.0335522  78.7394571  61.0980320
 122.1099472  78.8930511  60.8990383 123.0272198  78.3290195  61.9627476
 114.1903114  98.6807823  82.6688766 114.7551537  98.4059429  83.3911228
 114.0835476  97.8933048  82.1352863 122.9972839  85.1254082  64.9681520
 122.4255848  85.8900356  65.0370359 122.6483154  84.5068455  65.6098986
  97.1159935 113.9865685  21.3355374  97.0902634 114.0043640  20.3788495
  96.5548706 114.7141743  21.6038036  24.3003874 127.9561520  74.1197681
  23.5952311 128.6031055  74.1406441  24.0472060 127.3047161  74.7738075
  93.7648678 105.2906227  86.3146877  93.6706734 105.9618759  85.6388283
  93.6536121 105.7637501  87.1393108  15.8314829  75.0878811  65.1866579
  15.6666785  75.9339571  65.6028748  16.6974097  75.1809597  64.7895050
   9.9973231 122.8929329  95.4607010  10.9491759 122.9447842  95.3739071
   9.8535567 122.2136593  96.1196041 120.6524754  97.8919601  54.0717506
 120.7451057  98.7867832  54.3987846 121.4132023  97.7641392  53.5050106
   2.8983908 124.6562576  74.0226841   2.9800063 125.0523949  74.8902369
   3.5588389 123.9634800  74.0126276  35.3787547  98.5150242  64.3360949
  36.1925822  98.2252598  63.9238453  34.8158198  97.7409363  64.3250370
 105.7808304  71.0491133  66.7885256 104.9905968  70.5511570  66.9978189
 105.6187153  71.3984776  65.9122276  17.9463606  94.1245842  37.9839563
  18.4503584  94.8472786  37.6098943  17.9061823  94.3199348  38.9201474
   4.8184138 129.7875500  23.5273210   3.9452868 130.1673508  23.6255304
   5.3755503 130.3172779  24.0976087 107.7057171 106.7884350  66.3576937
 107.0849419 107.0979786  67.0172739 107.3639297 107.1262646  65.5298805
  14.9761324 106.5690994  67.7525187  15.7601481 106.0877419  67.4882269
  15.0932341 106.7212296  68.6902714 122.2017479 132.7635479  45.4774046
 121.2922096 132.5378227  45.2824545 122.1734142 133.1301117  46.3611794
  24.6071272  88.5252953  68.3149529  24.5815020  87.5685978  68.3322954
  23.6874133  88.7890625  68.2868910  83.0731678  70.5510759  77.3118973
  83.4108925  69.7633028  76.8857670  83.5201645  70.5760813  78.1579447
  78.4219122 124.6100140  59.7341394  77.7390671 124.2984676  59.1400909
  78.7339687 123.8201141  60.1756287  90.3449917  98.8409138  77.6231575
  89.4517994  98.5832405  77.3950195  90.8447170  98.7122250  76.8169594
 121.2252045 137.1162128  65.0722122 121.1425209 136.7575550  65.9558153
 121.4621353 138.0337334  65.2073431  98.6448956  88.2944775  69.2965746
  99.0422821  87.8671551  68.5378170  97.7944183  87.8662968  69.3944454
   0.7463580 123.4904289  99.4553375  -0.0509042 123.5467052  99.9820614
   1.0208445 124.3999386  99.3383789  88.3781910 101.2314987  80.0714111
  88.8402653 101.6158772  79.3264484  88.6011696 101.7982197  80.8098793
   4.8452693  97.5468540  86.8478584   5.4291277  98.2514095  86.5668774
   4.8355418  96.9357300  86.1111927  10.8629065  80.1252460  48.3435965
  11.6742354  80.2881718  47.8625154  10.4948454  79.3421888  47.9342222
  12.3674803 100.5873966  62.1580744  11.8980532  99.9400616  62.6842165
  12.0973425 101.4314461  62.5197887 102.2007751 106.8915272  66.9997311
 102.1849060 106.8096828  66.0461712 101.4930153 107.5042725  67.1993446
  91.9956779  62.0254278  59.6078777  92.7230167  61.7924166  59.0308905
  92.3003387  61.7901754  60.4842758  10.6825667 118.6821842  44.4689608
  10.3878241 119.1149235  43.6676550  11.4412909 118.1657887  44.1971159
  26.9372397 130.3464508  49.4102764  26.6369372 130.1114273  48.5323143
  27.2748213 131.2373257  49.3174458  27.1368247 104.6316814  73.8029623
  26.4659529 104.6487617  74.4855070  27.4567919 103.7295437  73.8041449
  38.7486773 105.6423950  62.9391813  37.9825144 105.1165962  62.7095318
  38.5056048 106.0751724  63.7576199   2.1972590  91.9830704  30.0471663
   1.9829207  91.8204594  29.1285515   2.8390532  91.3076496  30.2665567
  19.1328459 101.3963699  57.7275658  20.0288325 101.5532112  58.0256271
  18.5843783 101.8453503  58.3708525 118.4197521 104.0129089  31.8536448
 118.8117409 103.8852692  32.7175236 118.8819981 103.3950615  31.2872267
  43.6308222 137.2428036  53.6335468  43.1363040 137.6102924  52.9009819
  43.0027896 136.6823483  54.0892935 122.7310467  90.8611774  34.2105651
 122.1271706  90.2607822  34.6476984 122.9480362  91.5112877  34.8787713
  94.7502136 106.5887451  99.5176029  95.0685120 107.0862007 100.2709103
  95.5136871 106.0966682  99.2156219 113.8043404  87.7956104 105.4712677
 113.3020782  88.5028744 105.8759117 114.1413975  88.1751156 104.6597290
 117.5324917 132.9250336  57.3652887 117.6891518 131.9918823  57.5098896
 116.9017315 133.1697559  58.0424070 103.4393883  92.0384598  52.5521851
 103.6961174  91.3203335  51.9737244 102.8257179  91.6407967  53.1698418
  32.6548510  64.6489477  86.6688728  31.7637377  64.2994881  86.6749668
  32.6889639  65.2312517  87.4278069  42.7392512 131.9539452  76.2438536
  42.0719081 132.3356628  76.8140793  43.0643969 132.6919746  75.7282734
   3.0533724 102.5390244  24.3515062   2.9741412 103.3636570  24.8310184
   3.4534865 102.7845192  23.5173178  97.6171875  98.8727570  80.7432747
  97.1437645  98.5401249  81.5058136  97.6010609  99.8241138  80.8476067
 106.5659428  79.0228891   7.1332971 107.0275497  79.7659445   6.7446748
 106.7755985  79.0718889   8.0659620   8.2468730  80.6571102  90.1697922
   8.9309817  80.0400257  90.4294682   8.5811358  81.5126133  90.4392624
   4.5364504 102.0404816  39.5024467   4.0298110 101.9525433  40.3097916
   5.3499251 102.4648571  39.7751975 107.5309753 116.2826443  77.6611519
 108.0980301 117.0537949  77.6584291 107.2176170 116.2189579  78.5633612
  29.6837645  61.2796307  76.6819382  29.1741114  60.5288839  76.9866848
  29.0287715  61.8989658  76.3600016 111.3228035 105.2794266  45.3185368
 111.1317062 104.4249725  44.9317122 111.9828510 105.0973034  45.9874153
 121.4982319  83.9641571  53.4597301 121.8138790  84.5759296  54.1248083
 120.5653286  83.8644695  53.6494780  96.7084980 111.9918919 107.3907661
  95.9226513 112.0920181 107.9280186  96.4010048 112.1106720 106.4921188
 121.0759735  98.0639458  68.6601686 121.6624546  97.6254654  69.2766142
 120.6007099  97.3510838  68.2333517   1.9248515 115.0477600  70.0353336
   2.4150401 114.5584869  69.3746090   2.5150138 115.0916195  70.7876778
 122.9946899 130.4517555  48.2601118 123.2210350 130.1579285  47.3776913
 122.0518684 130.6131554  48.2243395 119.2350101 110.7706738  68.5182524
 118.4932899 110.6850338  67.9193020 119.5156765 111.6808605  68.4233141
  14.4866210  98.5716915 104.0927887  14.4244319  99.0781307 104.9026585
  14.9319487  99.1555595 103.4787846 122.9198837  92.6790714  42.0118856
 122.6682281  91.8598938  42.4383259 123.2223225  92.4138641  41.1433029
 106.0528183  87.8341103  66.3576937 105.5014515  88.5995197  66.5200996
 106.8701267  88.1960011  66.0152340  12.2766715 113.8221550  78.4523392
  12.9131346 114.5129108  78.2679653  12.4072390 113.1829929  77.7518702
   0.8933764 114.9736595  54.7045135   0.0931769 115.4588318  54.9058008
   0.9161788 114.2697716  55.3527880 105.5971146  91.1036587  70.1817560
 106.0520077  90.8542347  70.9861755 106.1924171  90.8425331  69.4791508
 121.1263943  86.8627739  66.3528824 120.7660770  87.3862362  65.6370592
 120.4804993  86.9404125  67.0550442 110.1948929 121.5365982  69.7257614
 110.4994011 121.8487930  70.5778408 110.5823612 120.6658077  69.6372890
 120.2084064  59.0212727  65.8013201 119.8475266  59.9071121  65.7655048
 119.4918156  58.4586573  65.5077457  12.6929885  88.2615566  76.8396425
  11.7551928  88.1474495  76.9937658  13.1105548  87.6299095  77.4252129
 124.1690636 121.9342899  47.7168131 124.2847919 121.3032532  47.0064354
 124.0682602 122.7771187  47.2744322 105.1133728  94.2608929  61.4762306
 105.2019787  94.7254848  62.3084164 105.6134796  94.7880745  60.8531713
 117.5599480 112.7795601  94.3408203 118.1924629 113.4887505  94.2258358
 118.0340385 112.1143532  94.8398018  90.0734997 100.7612133  28.8312149
  90.7423306 100.6959343  28.1495714  89.6481228  99.9037266  28.8322806
 102.5148106  88.1835270  66.2021589 102.2816372  88.4321404  65.3077030
 103.0863190  88.8889027  66.5055513   1.8444758 100.5490971  71.8038797
   2.3272734 100.9936905  72.5006437   2.0123702 101.0757828  71.0224438
  98.0969238 126.9311428  99.3565369  98.1937313 125.9875774  99.2279530
  98.9850235 127.2772217  99.2685413 100.4930973 115.1481628  65.2271748
 100.2755451 115.3412056  64.3152332 101.3139153 115.6157207  65.3817320
  15.3437739  68.4719419  96.1051178  15.3371745  68.1784868  97.0162010
  15.9704714  67.8927803  95.6714725  88.7656403  78.7814379  62.6242781
  88.7530899  79.7178507  62.4262619  89.4487476  78.6861134  63.2879925
 121.5140247  78.7324858  47.6636553 122.2827053  78.2490396  47.9663849
 120.8145905  78.4690952  48.2616901  94.1250801 100.1249981  77.8891134
  94.4420242  99.4457054  77.2938585  93.8465881 100.8371258  77.3133087
  16.1611968  71.1152935  33.9616561  16.1757308  71.4570761  33.0676746
  15.2889567  70.7329369  34.0577388   3.0310755 130.4648972  47.8927183
   3.5398512 131.2328243  47.6326084   2.6521617 130.1406574  47.0756960
  72.7502632  79.7522593  38.7866116  73.6477947  79.5636415  38.5125828
  72.4328804  78.9264774  39.1521001 119.0984917  66.2400579  61.2550688
 118.6250973  65.4770422  60.9235144 118.5666466  66.5524340  61.9870424
 109.6548843  95.9091282  71.9440508 109.9399376  96.7749977  71.6520643
 110.4496384  95.4969025  72.2826576  97.3502922  91.8651104  61.5929699
  97.6533031  91.4134502  60.8053017  97.4032688  91.2042236  62.2833729
   8.7134104 116.9303703  82.6006889   8.7071734 116.9462967  83.5577393
   8.7612086 117.8518581  82.3461151  13.9073783  91.9628620  49.4086266
  13.3931571  92.7702045  49.4084358  13.4677153  91.3986969  48.7725067
  34.2531329  80.6192493  50.8307314  34.3199950  79.6924829  51.0606670
  34.6049719  80.6715298  49.9420786  95.6914520 116.6470242  64.4391203
  96.3181496 117.3203945  64.1744423  95.9416866 115.8744812  63.9323854
   0.3859931  91.1966801  44.9019384  -0.4016847  91.5812016  45.2865505
   0.9547453  91.9453049  44.7221947  91.5845585 100.8757687  78.9557314
  92.5075245 100.6674862  79.1005850  91.2673187 100.1747417  78.3863926
  24.8938971 112.6776600  87.9876137  24.2346793 111.9938087  87.8692150
  24.8435050 112.9005527  88.9171314 121.2492657 124.6228600  37.0057082
 121.6804314 124.0843010  36.3421798 121.4190102 125.5237389  36.7303085
 112.3877335 103.3691597  24.9563766 112.2355843 102.4917221  25.3073430
 113.1840611 103.2827473  24.4323230  96.8618774  81.4301205  81.1347675
  97.2448635  81.5729141  80.2692223  97.2425842  80.6036282  81.4317417
 109.3720531  96.0062981  36.9777536 109.8621559  95.2348709  37.2622371
 108.4683514  95.7005882  36.8997455 112.9285526  76.2013102  39.3352461
 113.8626480  76.2978506  39.5206714 112.7261448  75.3004169  39.5875478
 115.0116348 132.1028805  43.8033724 114.3771744 132.7985382  43.6308622
 115.3583431 132.3050308  44.6723700  36.6358309 125.3246880  64.4990063
  36.4042025 125.2856064  65.4269314  37.4141055 124.7726631  64.4229650
 121.6415024  78.4449673  83.8329124 120.8356380  78.5623884  83.3299065
 121.3714218  77.9485941  84.6055126 117.0667648 110.9570122  18.5105363
 117.1289253 111.0784912  19.4579641 116.3940239 111.5787983  18.2329694
 122.8160858  91.0565472  39.2823291 122.8812218  90.3730488  38.6153865
 123.7006474  91.1258411  39.6414566   9.5410281 111.5446377  51.5657902
   9.3541842 110.7438183  51.0758829   9.9655276 112.1207619  50.9300947
 122.5666046  50.1696634  11.6520063 122.9054070  49.3133068  11.9129697
 122.2931004  50.0519514  10.7422963   6.9026976 101.9160748  70.9938097
   6.8656951 102.2486782  70.0970173   7.5484973 102.4725151  71.4291811
   2.2089415 105.4453373  99.9719810   2.0738631 105.9204006 100.7919216
   2.6094180 106.0877228  99.3861580 121.4832497 119.4763756  50.9899807
 122.1360397 118.7859249  50.8742905 120.6424809 119.0210438  50.9450626
   0.7933932  99.9298573  74.4291878   1.1629515  99.0859699  74.6890211
   0.9232455  99.9666214  73.4815502  87.3446655 114.4145298  73.5827351
  87.4963474 115.3118229  73.8795328  87.7214813 114.3862247  72.7032804
 109.3529701  69.9808168 101.0782528 109.6740055  70.8287907 100.7714939
 109.5553303  69.3757153 100.3647232   1.6371947 104.9216557  61.0414124
   2.3942690 104.3455696  61.1471796   1.3177996 104.7376919  60.1580238
  97.8305626  96.5182400  46.1830664  97.5325966  97.3834801  46.4637947
  97.4724483  96.4160347  45.3012848  91.0690880 100.2803326  51.6270542
  91.6099262 100.3761578  50.8431292  91.4813042  99.5687675  52.1169281
 119.9659538  95.7528973  45.0705290 119.2979431  95.8584023  44.3931293
 120.7679081  95.5541801  44.5871878   5.4450732  73.2528830  93.9731598
   5.0454169  73.3522415  93.1090832   4.9353724  73.8310814  94.5407200
 108.6847019  86.8358612  42.6062489 108.9928532  87.2756767  43.3986092
 108.5948277  87.5381279  41.9620609  95.2641106 100.8426094  69.1949892
  94.8355961 101.6453457  68.8979816  95.6439209 101.0734272  70.0427532
   8.7551623  67.9737568  45.3720617   7.8019362  68.0276489  45.3035927
   8.9099055  67.3070431  46.0412264   3.2958251 104.1874599  58.5748053
   3.6844855 103.7048054  57.8452682   3.6640196 103.7766075  59.3570232
  99.3134212  83.6452675  98.4904575 100.2362633  83.6578369  98.7442780
  98.8368607  83.6336422  99.3205166  96.9613075  72.7756071  64.1465187
  96.7793179  73.6915207  64.3567944  96.2184238  72.2941113  64.5105600
 108.4283352 108.0110073  41.6941118 107.7880096 108.5276222  42.1833229
 109.2083454 108.5648632  41.6615486   5.7572013  89.9389172   4.4225637
   6.4349681  90.3911877   3.9202634   5.1885443  90.6393528   4.7423402
 116.5275478  83.5001564  64.4795847 116.6948223  83.0939674  63.6291409
 116.4989376  82.7666473  65.0938845   1.9205504  52.6208925  39.8943830
   1.1101752  52.2934437  40.2846336   2.1156912  52.0007753  39.1918135
   0.4685622  90.5059338  58.6971712  -0.3785676  90.5119228  59.1427851
   0.2566844  90.6671906  57.7777481 107.6532364 141.6020012  27.7837610
 107.6524544 140.6592464  27.9494286 107.6843643 141.9981766  28.6545682
 122.8800583  93.7133884  25.7764459 122.8922939  92.9540062  25.1938391
 123.7889385  94.0128613  25.7986903  96.1694050 123.9437294   3.1908625
  96.7973137 123.4567833   2.6571572  95.4813194 124.2002106   2.5768691
 112.7901649  94.5837879  24.4270515 112.8333378  93.8331985  23.8346148
 112.6269722  94.1998577  25.2885604  14.3379050 107.7778816  58.6388969
  15.2193289 107.8960514  58.2848120  14.4380980 107.1034336  59.3106937
 111.7838860 126.8262482  51.9140482 111.0035038 127.2881317  51.6076088
 112.0848179 127.3369598  52.6656055 103.8398552 107.2627640  40.9114742
 104.0671062 107.6621819  40.0717974 104.5024109 107.5904083  41.5196753
 100.0617981  88.5580063  49.7740030 100.0273991  89.2413044  50.4434443
  99.1655350  88.2255554  49.7248077  59.7087860  95.6352234  24.8837924
  59.0618801  95.6637287  24.1788530  59.1940784  95.4756355  25.6748915
 102.6931667 123.9976788  51.2726593 101.7669296 123.7564564  51.2611389
 103.0015659 123.7226868  52.1360874 121.7679310 105.0489616  70.7089424
 121.7209911 104.2129707  71.1727858 120.9941769 105.0539970  70.1454639
  80.9344769  84.8419285  29.7298265  80.3291225  84.3336964  30.2697253
  80.8807945  84.4372368  28.8640475  95.3290081  92.1046829  42.9023886
  95.8102417  91.7643070  42.1482038  94.4958305  92.4049377  42.5392199
 112.5320721 129.5260429  28.3581662 113.3609104 129.6032047  28.8307285
 112.7587032 129.0641975  27.5509644  11.2666922  86.6702557  42.8117609
  10.9095316  86.9422436  41.9663668  12.1502047  86.3618469  42.6104689
  36.9090396  80.4557991  56.9274807  36.4293223  81.1278248  57.4117327
  37.6501017  80.2366543  57.4922848 116.7987919 111.4318943  54.6311855
 116.2844849 111.8268585  55.3352594 117.6670456 111.8250847  54.7192335
  22.1944552 110.5484009  51.0743618  22.0821410 110.0303650  50.2773380
  22.8634101 110.0790596  51.5727997  88.6820221 110.6815243  69.8406124
  88.5217762 110.3375912  68.9618301  87.8671074 111.1247349  70.0766373
  10.2722102  77.0088148 108.8042988  10.2388411  76.2546825 108.2157431
  10.4011374  77.7595282 108.2246070  33.7259322 134.7622490  46.0999584
  34.5956832 134.9073696  45.7275248  33.1362658 135.2576256  45.5315065
   5.1929312 108.8080597  29.3703413   5.5302172 108.5631180  30.2320075
   5.6295519 109.6356487  29.1686201  99.5843124  72.8818369  33.7882423
  98.8966465  73.4422398  34.1478109  99.4184685  72.8740788  32.8455496
 102.9298592 123.1578064  54.0725040 103.5449123 122.7394104  54.6749020
 102.1047783 123.1899929  54.5566940  93.7838364 122.8285503  43.5456276
  93.5551262 122.9288578  42.6215839  93.2959843 123.5220718  43.9897680
 120.8126259   4.6571713  93.5662270 119.9152470   4.3546849  93.4267712
 121.3322067   4.1676693  92.9285240 100.2453518  71.1704779   9.4462782
  99.3129444  70.9840393   9.5561671 100.3392506  71.3833094   8.5177749
  98.5316849 110.4636955  43.8717079  97.6075935 110.5884266  43.6555243
  98.5673809 110.5423737  44.8250008   2.4947291  77.4413538  41.4043617
   2.4112826  77.7126122  42.3185253   3.4136420  77.6019526  41.1898041
  86.2339878  73.1053209  39.8231554  86.1949921  72.9406357  38.8810349
  87.1318817  73.3986330  39.9780631   6.3970118 114.0410709  77.1303368
   5.7384139 113.9798927  76.4384317   6.7571192 113.1567097  77.1971130
 115.7531929 136.9370079  28.1212711 116.3782406 137.0043755  27.3994589
 116.1893177 137.3673058  28.8567090  16.6052180  97.0399666  45.4471636
  16.0123759  96.3659382  45.1148129  17.0088511  97.4117851  44.6629095
 103.3164692  85.5234909  65.9661055 102.7406979  86.2878323  65.9883404
 103.8985825  85.6402016  66.7169476 114.4800854  72.4619913   0.2698516
 114.4541740  72.2273731  -0.6577876 113.7151623  72.0283079   0.6480539
  92.7896786 116.6235733  55.4164314  92.0443630 117.1668816  55.6724453
  92.5753593 116.3238907  54.5329762  94.4267654  63.6229706  54.6839571
  93.6943722  64.0382099  54.2285252  94.8611546  64.3413639  55.1437855
 122.9041672 106.1236000  65.7065344 122.6736069 106.9979095  66.0206079
 123.4482765 106.2819767  64.9351120  96.1187172  72.3909712  82.7108288
  97.0018005  72.7603102  82.7102089  95.8049679  72.5189018  81.8156052
 117.2097492 115.0672913  57.4483442 117.2808933 115.7816601  56.8152142
 117.1907711 115.5033016  58.3002663 115.2850246 116.9332886 105.8002307
 115.5145264 117.8609657 105.7457732 114.3321037 116.9166851 105.7113963
 103.2791996 109.9030399  68.4739637 103.6556435 109.2000389  69.0034056
 102.3389244 109.7238636  68.4715891   0.3631621 109.2903233  27.7045298
   1.2328654 109.4294548  28.0793452   0.1295500 108.3995342  27.9655910
 118.8843918  78.7278223  16.5908694 118.3803463  78.3166695  17.2930980
 118.8344288  78.1062889  15.8646238   7.6657038 115.9393024  44.9848509
   8.0787783 116.5049458  45.6372690   6.7850237 116.2991047  44.8791075
   4.0686827  80.6085587  52.2354984   4.6451312  81.3672447  52.1441555
   3.1849223  80.9692764  52.1641445 121.4737320  99.8970509  38.0563307
 121.6849136 100.8289719  38.0002308 120.8545494  99.8351383  38.7836647
  24.3184977 120.6061554  64.6491051  24.4787245 120.1965141  63.7989569
  23.4270125 120.9488678  64.5856190   8.0212432  92.4211311  44.6114731
   7.9365283  92.9301071  43.8052511   7.8739100  91.5152931  44.3394566
  33.9314776 120.6120110  26.0116458  33.3349829 120.4253769  25.2866721
  34.7943431 120.3598404  25.6828475 112.3500538  99.8780823  54.6531105
 113.1513596 100.1984119  55.0672674 111.7412186  99.7458458  55.3797960
 109.1218662 112.3184395  59.0600538 108.9145660 113.2491207  58.9758635
 108.9178658 111.9489479  58.2009363  80.3245258  86.0445786  26.8494821
  80.7487392  86.0171032  25.9918571  80.3912544  86.9601917  27.1204686
  26.0131388 105.3039360  59.7454023  25.3456812 105.4665852  59.0788507
  26.0025340 104.3547249  59.8683453  42.5093394  89.0883446  70.6764746
  43.1700450  88.7391472  71.2745905  41.7959529  88.4509563  70.7090902
  87.5472546  83.4257698  51.5032053  87.0633793  82.6374531  51.2569380
  87.1176434  83.7306213  52.3024130  37.6200038  97.5231075  63.1188583
  38.0402499  96.7620468  62.7183485  37.7775508  98.2366848  62.5006247
   0.8346110 121.8997002  27.8317428   1.2645274 121.2971115  27.2248745
   1.2518244 121.7276859  28.6758828  93.6589909  90.5320549  48.6854362
  94.4374371  90.6717682  49.2246342  93.9887238  90.1046848  47.8949547
   5.4827719 120.1885700  72.5947857   6.0248786 119.5523739  73.0612659
   5.2484351 119.7496700  71.7770529 121.8359375 103.2448387  58.1710243
 121.0346985 103.2665825  58.6942577 122.2574711 102.4201107  58.4126329
 104.7577000  82.8437519  55.2292299 105.6907368  82.9246807  55.4269934
 104.3204021  83.3075809  55.9432793  22.3048239 105.9904671  54.7879362
  22.8495055 106.7651939  54.9270535  22.8384238 105.4184437  54.2363119
  97.0096302 112.2712994  58.0593204  97.3761463 111.4502811  58.3876896
  96.6277313 112.0412731  57.2122860  96.6819096 113.3053112   6.6815674
  96.2916279 112.5675011   7.1501195  97.6118469 113.2660103   6.9049764
  26.7925196  86.3201141  83.4443951  27.7005797  86.6227341  83.4358311
  26.8315154  85.4352283  83.0815125  94.3900299 132.6705551  51.2306166
  95.0308228 132.8669643  50.5472136  93.5716248 133.0468941  50.9068632
  88.8751602 114.2809105  58.3690548  88.7125874 114.7493076  57.5502729
  89.6494102 113.7473106  58.1900740 108.0615425  72.6249886  19.7096157
 107.8561878  73.5047102  19.3931520 107.2803783  72.1096706  19.5084453
 118.2180119  92.8428364  46.5987253 117.7071190  93.4229183  47.1632767
 117.9858112  93.1089401  45.7090616  14.2930823 110.1269150  43.3379507
  13.5654765 110.7321167  43.1945944  14.7539359 110.1035118  42.4993181
  92.1804810  73.8812208  30.0152159  91.3176155  73.6601734  29.6647310
  92.7379513  73.9682579  29.2419910 100.9109402 102.2558212  71.0122204
 100.0000095 102.0124531  71.1771965 101.1531162 101.7608261  70.2295542
  99.8036671  80.0862312  27.2078490  99.2994595  80.3633595  27.9728341
  99.1588020  79.6755457  26.6318989  12.6379233 106.4333057  18.1665277
  12.1234923 106.5327930  17.3654711  12.2749930 107.0846939  18.7666976
  10.6571704 130.2716064  52.2443533  10.1526290 130.8407116  52.8255606
  10.9806185 130.8558655  51.5585995 100.2721405 102.7515793  61.0912228
 101.1770344 102.4511147  61.1755943  99.7478867 102.0376873  61.4541912
  99.1041756 115.7571888  38.8257599  98.9898396 115.4021454  39.7072935
  99.3299866 116.6768360  38.9653778 113.5667515  93.3361626  55.4993582
 112.7719402  93.4570694  56.0188675 113.3096981  93.5757923  54.6090031
   6.4924365 101.8539619  46.2191343   7.2690230 101.3021183  46.1263418
   5.8355551 101.2789822  46.6117573  52.9310923  88.7343311  40.4408836
  53.6161357  88.8272476  39.7788334  53.2660990  88.0674076  41.0402203
 107.4978161 124.6571159  11.0950351 107.8171158 125.5276585  11.3326108
 106.8077755 124.8222065  10.4525232 119.0991974 114.9280548  95.2980804
 119.9325371 114.5895863  94.9706459 119.1730690 115.8778000  95.2045059
  24.5216208  94.5957375  44.2019129  24.5025187  93.7439251  44.6381378
  23.6098700  94.7631741  43.9633799  82.4646854 129.8081017  17.4637640
  83.2542419 129.3419647  17.7386379  81.9089699 129.1310310  17.0777822
  24.6801978 116.1818409  41.3106012  25.1750784 116.3800240  42.1056223
  24.5722800 115.2308750  41.3264656 102.3471355 127.3263359  89.5848274
 102.6594067 127.8488541  88.8461113 101.6351604 127.8442001  89.9605179
  88.9475250  92.4880791  52.0147228  88.3823967  91.9651318  51.4460516
  88.7491417  93.3948898  51.7811251  71.7532206 122.4479389  47.3385763
  72.1967030 123.1762028  47.7735424  71.0108662 122.8530121  46.8901825
 103.9597511  89.0225029  73.6320448 103.9528465  88.0679512  73.5613203
 103.6856270  89.3287182  72.7675676 122.4504280  86.5057564  25.1003909
 121.5534496  86.5712070  25.4280829 122.3656464  86.0594845  24.2578435
 100.0244045  89.8300934  42.9552078  99.9445343  90.2129459  42.0815468
 100.1649475  90.5799198  43.5333490  41.6108065 120.9691143  37.1035910
  42.1668368 120.5096436  37.7328420  40.7833224 120.4882431  37.1193242
  15.6703692 123.6370087  13.9771283  16.5892439 123.4581947  13.7772787
  15.5073290 124.5018959  13.6008072  13.6943274  89.0211773  34.8535752
  14.0364485  89.6903706  35.4463315  13.0177909  89.4719982  34.3483162
   9.7253447  50.8553791  66.8392992   9.8071986  50.0312996  67.3193312
  10.3775435  51.4310122  67.2386885   7.4226122 111.6917610  39.8500752
   6.5101843 111.5328598  39.6082854   7.4194842 111.6959953  40.8072615
  94.6647835 100.5031967  37.6280236  95.1708984 101.3153172  37.6050353
  94.6465206 100.2584743  38.5532308   1.8329077 105.3663254  35.8365965
   1.6395503 106.2462711  35.5132723   2.4949103 105.0294209  35.2328753
   6.6869670  84.5684814  35.4744983   7.5314456  84.3924332  35.0596595
   6.0697871  84.0023613  35.0109935 121.1690712 101.8160057  12.7915788
 120.4733372 101.2732410  12.4206316 120.9144878 101.9398022  13.7059593
  21.0701113  79.7796392  30.6660748  20.5090933  80.5389977  30.8237410
  21.9395476  80.0609112  30.9510088  18.9748030 144.0902901  39.2979288
  18.3067923 144.0828896  39.9834514  18.7521391 143.3461952  38.7384892
   9.8332244 120.1132870  42.1657372  10.1957446 120.4738617  41.3565445
   9.0813571 120.6724358  42.3613739  91.9399643  54.2563105  40.9383965
  91.1481953  54.2674112  41.4761925  91.7504692  54.8605967  40.2206516
  69.6243382 121.0969162  60.3022099  69.7177839 121.9687271  59.9182367
  69.5566511 120.5096340  59.5493793  14.1796713 134.1826057  58.4633589
  14.8898726 134.6964073  58.8478851  13.5578948 134.8358822  58.1426334
 104.3242645  95.9414005  38.1070662 104.7342110  96.0667419  38.9629054
 105.0118446  95.5519581  37.5668740  20.1487380 139.6064281  74.6467781
  19.5978861 139.6595478  75.4277849  20.8727198 140.2072811  74.8229933
  81.1472893 102.6762199  20.2625132  81.7674255 103.1667805  19.7230613
  81.3384151 102.9527950  21.1587310 123.1034946 126.1374283  60.4144621
 123.2399750 126.2099838  61.3591003 123.8278580 125.5912876  60.1090622
 109.4267464   7.1072083  44.0390062 109.5398521   8.0143719  44.3227148
 110.0428104   6.6095429  44.5766163   9.6326285  84.6342373  75.8954096
   9.0990763  85.3291321  75.5098391   8.9984732  83.9792442  76.1870813
 102.1647930 112.9792595  65.6544065 101.4243984 113.5753250  65.5414581
 102.7297306 113.1537342  64.9016571  96.5734577  96.5215111  57.6686192
  96.6022396  95.5917931  57.8944969  96.2494183  96.5392876  56.7681122
  27.6780062 122.3924541  33.9251900  27.5649672 123.2953072  33.6280417
  26.8338042 122.1601200  34.3119407  28.6582404 107.8132343  70.1722622
  27.8890257 107.2568226  70.2944660  28.5682231 108.1542873  69.2824221
 113.2127190  65.2664995  26.4701700 113.9918900  64.7513723  26.2609911
 112.5136089  64.8629999  25.9557104 100.1320457 109.0110397  52.2476101
  99.7717094 109.1500950  53.1234264 100.8962345 109.5861435  52.2089434
 107.4059105 122.8989601  96.9577122 107.3021317 122.0186901  97.3190880
 106.7477894 122.9524803  96.2647057  13.1419688 133.5836124  76.1885500
  13.2477027 134.4468594  76.5883827  13.4718733 133.6908436  75.2964211
  23.3170348 103.5987759  30.4258728  22.7483397 103.0271053  30.9416366
  23.9614134 103.0075932  30.0366235   2.5407534  77.0933437  70.0025034
   3.2498389  77.6231480  70.3668308   1.9545680  77.7282715  69.5908117
  87.9357719  94.6804619  58.5617304  87.5255585  94.0036201  59.1001034
  88.5782146  94.2084122  58.0319452 114.5652676 120.4561520  69.0505219
 113.8381481 120.1525211  69.5939684 115.2716923 120.6319427  69.6720505
   2.0471984 110.8971977  23.6008120   1.1867934 111.2606144  23.8102436
   1.8800574 109.9709129  23.4267902 113.5568237 103.8395405  35.0147653
 112.9016113 104.4284153  35.3891516 114.2373276 103.7810230  35.6853819
 106.1174107  99.0642071  44.3897009 105.3002262  99.5571613  44.4633484
 105.8625603  98.2380199  43.9789724  17.5072699 121.5925312  36.9768977
  16.9237834 120.8435535  36.8552327  17.4839335 121.7638779  37.9183483
 113.7617397 107.4832439  48.6039734 114.2448330 107.3895264  49.4249868
 112.9585075 107.9422092  48.8497591   8.9529257  87.7782631  66.4463758
   9.2460089  87.3325729  67.2411728   9.4548731  88.5931301  66.4297724
  93.7242031  73.5663223  44.0310907  94.0936470  73.8507175  43.1951141
  92.8489494  73.2479334  43.8102102 122.2505856  73.6254787  70.6974983
 122.6356316  74.3620682  70.2227211 122.9587173  73.3036327  71.2553453
  98.2450008  93.6903858  43.0282021  99.1258621  93.4239864  43.2915545
  97.7395630  93.6832523  43.8410425  84.0693665  56.7803812  58.5008574
  83.9671612  57.6700068  58.1627035  84.5408440  56.8906927  59.3265533
 120.9050369  87.2759151  46.7829800 120.3227997  87.1024990  47.5226784
 120.3626156  87.1207619  46.0097122  93.0077839 132.8663445  47.3332405
  92.4184704 132.7264214  48.0744362  92.8469181 133.7715721  47.0669317
  95.4530144  76.7070055  42.8680563  94.8915386  77.4497318  42.6459265
  95.0727081  76.3510036  43.6710882 118.9020634  93.5503101  40.7960749
 119.0014172  94.4786167  41.0072470 118.6494541  93.5403919  39.8728609
  21.6520148 112.8135490  64.6207333  22.5473910 113.1300068  64.5007992
  21.4273196 113.0644035  65.5167341  93.1944942 125.3315353  41.6691494
  92.6971531 125.6697369  42.4137974  93.4615803 126.1127758  41.1848402
  97.8770161  83.4577942  25.0434661  97.1909618  83.4305477  24.3765140
  97.4605083  83.1055450  25.8300281   5.1774626  89.5518017  54.8718262
   4.9803191  89.7103596  55.7949877   5.6558257  90.3321075  54.5916224
 109.2719269 103.3772755  61.3090181 109.2769337 102.7572823  62.0382738
 109.7475147 104.1394615  61.6393709  65.3076601 127.4869537  63.6484766
  65.4064274 127.5558186  62.6988792  64.3740845 127.3221970  63.7808561
 122.1802807  72.5440884  27.2415686 121.9596863  73.2775640  26.6674733
 121.3588619  72.3311234  27.6844501  94.8873520  99.3537235  24.9761939
  95.6977272  99.8432446  24.8351836  94.9440765  99.0527058  25.8830595
  91.3937473 104.8041916  65.1089430  91.6604328 104.9077034  64.1954899
  90.7217503 104.1229153  65.0865364   4.3869238  60.6083727  10.6161666
   5.2283984  60.4724693  11.0516965   4.1706496  61.5238428  10.7932878
 123.5077000 116.3901520  47.7016783 122.5723171 116.1898613  47.6675558
 123.9291573 115.6370831  47.2875595   4.3709117  88.2282925  63.6578512
   3.9523058  88.1885910  62.7979517   4.6110755  87.3217297  63.8494110
 117.5284958  99.2696857  95.6809902 117.3168850  99.3742275  96.6086292
 118.0510712  98.4686089  95.6433296 114.6436214 122.6264477  75.9859610
 113.7558079 122.7546406  75.6519175 114.5827198 122.8415394  76.9166899
 118.6848259  86.5144444  37.4905705 119.4571877  86.4469528  36.9292021
 118.3126640  87.3717690  37.2838712   1.0126620  56.7011452  74.5213461
   1.6703253  56.6618776  75.2157307   0.4406386  57.4258661  74.7739315
 123.7065315  97.5120258  48.5556746 122.9897213  97.1351719  48.0453777
 123.2859421  98.1686306  49.1108418  18.2796603 115.6500340  30.9920740
  17.5255042 115.1405716  30.6955576  17.9008704 116.4545155  31.3464236
 109.4842720 105.2221775  64.4459295 109.5734310 105.3353310  63.4996319
 109.0665817 106.0296917  64.7454023  21.2815886 134.4222260  61.7542171
  21.1236506 133.8192844  61.0277557  22.1371298 134.8072052  61.5642786
  25.5257063  83.9804173  57.5191164  25.5271655  83.7088490  56.6012478
  24.9297648  84.7289753  57.5464678   3.3227377  88.4171391  20.3847146
   3.2904654  88.4109592  21.3413525   3.9956408  89.0637970  20.1719427
 110.7232761 121.1154556  81.2632847 110.3948021 121.5322971  80.4666805
 111.2376308 120.3715706  80.9497452 107.0829773 134.7676563  16.0471690
 106.7757130 135.5417061  15.5752933 106.5250492 134.0571308  15.7307839
   2.9877215  93.0058289  40.7273865   3.0804949  93.7161446  40.0925064
   2.8717642  93.4492874  41.5677023 117.1117306  71.0133266  39.2110085
 116.4611340  71.3833761  39.8076868 116.7242718  70.1895571  38.9151931
  95.0294685 124.8779488  50.0846577  94.3834686 125.5763149  49.9788332
  94.5105553 124.1014290  50.2943325  86.7166138  81.4503956  46.1247873
  87.4527168  80.8496857  46.2410927  86.5139389  81.7549610  47.0093203
 117.5686264 129.9612331  52.1410894 116.7522430 130.4609776  52.1429873
 117.8168678 129.9044991  53.0637980  95.8268070  83.7371540  63.3749962
  95.2574253  84.1129684  62.7035761  95.5106449  82.8400898  63.4824514
  89.1050720 115.4142380   6.8346429  89.5259857 116.0309982   7.4335384
  88.2429504 115.2569962   7.2196817 112.1591949  96.4938354  46.5175915
 111.3119698  96.0558510  46.4362097 111.9473171  97.3646641  46.8537521
 106.9796562  67.9886055  30.5616832 107.3485279  67.2133446  30.1384497
 106.1567402  68.1455660  30.0986362 115.4468918 105.2175140  67.2708988
 115.1011753 105.1828861  66.3789845 116.1587143 104.5775890  67.2768784
 103.9863777  81.6718197  73.7432003 104.6746254  82.2557926  73.4245825
 103.5728073  82.1564198  74.4575977 111.6550636 109.2188644  49.7013950
 111.2729740 109.6214581  48.9215517 111.1898232 109.6247387  50.4328632
 102.6992702 120.0799465  49.9751282 101.8240929 119.8542118  50.2903032
 103.2899666 119.7525406  50.6534481 121.5810394  58.5448408  89.9315166
 121.4327049  57.5993443  89.9153614 120.7806301  58.9191771  89.5634842
 111.4054203  58.0881548  35.1558423 110.4800606  58.2326031  34.9581695
 111.8703175  58.4409142  34.3971181  16.2236624 112.8225803  49.1423702
  15.9007388 111.9366074  49.3066835  16.7044764 113.0535030  49.9371815
 107.4113464 100.2824783  16.9750452 107.2234821 100.9824276  17.6003611
 108.2958603 100.4719639  16.6620517 115.8590031 127.1081448  41.5592051
 115.6233692 127.7032948  40.8475065 116.2800312 126.3675976  41.1226749
  22.8085452  78.2169580  58.4981251  22.8108817  77.3968220  58.9916849
  21.9606333  78.6139488  58.6973000  11.2790137 117.3998356  33.0151248
  11.2651568 116.6480827  32.4227476  11.8817454 117.1436214  33.7131953
  87.1950245  94.4090080  20.3554559  87.5987339  95.2409363  20.6027341
  86.2983418  94.6405220  20.1133704   7.8432112  89.5615387  45.9472656
   7.6338797  88.6835289  45.6286430   7.0701247  90.0842381  45.7343435
  95.4810810 110.3425789  15.8106089  95.6802559 110.9658337  15.1119566
  96.3293457 109.9657249  16.0444069 123.9708710  76.7539787  16.7902005
 123.8256931  77.6255608  17.1582961 123.8320827  76.1572266  17.5256324
  23.7306338 137.0632458   2.0259610  22.8936415 136.6002369   2.0621420
  24.3429785 136.4871979   2.4835965 100.6908798  69.3398809  29.7452307
  99.8999310  69.5236635  29.2384338 100.8772564  68.4171009  29.5721006
  82.7215891 109.2795849  14.9183953  81.9106799 108.9908028  14.4997239
  82.7954798 110.2048588  14.6846342 109.1769409 112.8080845  42.2133875
 109.5740318 113.1396294  43.0187607 109.8539543 112.2559357  41.8222189
   8.2935172  86.0579395  24.1002226   7.5942641  86.4640617  23.5880256
   8.5109549  86.7090893  24.7672701  13.0698996 114.3992138  35.5043936
  12.5068217 115.1277637  35.7658982  13.4525233 114.6787739  34.6727204
 109.8393250 118.2993126  39.0099454 110.5671692 118.4652996  38.4108377
 109.9745178 118.9175129  39.7281265  13.2711249 142.4453545 104.5077070
  13.9712363 142.0959377 103.9563670  13.2945185 143.3899403 104.3546107
  93.3722115 110.0454426   9.4265503  92.5108814 110.2843571   9.0841091
  93.2457256 109.1767406   9.8081112 109.7587681 111.9007301  39.1138887
 109.4883633 112.8083420  39.2530060 110.3437424 111.7100143  39.8471475
  15.9314185 105.4526711  21.7134190  16.6398745 105.8378887  22.2290993
  16.2474661 105.4850101  20.8104825 113.3274174  79.9860573  65.2443266
 113.4185600  79.1481447  64.7906446 112.4825954  80.3268719  64.9504805
 102.2098637 100.0343513  20.0235629 101.3329792 100.0163555  19.6401930
 102.7091217  99.3998241  19.5094228 103.3236122  70.5344820   5.2781194
 102.3679638  70.5116606   5.3275007 103.5554314  71.4271593   5.5342692
  99.8542500  89.7293377  13.0277050 100.6938171  90.1593876  13.1901836
  99.2382145  90.1809311  13.6045992 115.0424576  15.4695301  27.0561719
 114.8797798  16.1483746  26.4012432 115.4952908  15.9250241  27.7658820
   6.1968356  85.2503967  16.2294495   6.6735964  84.5132828  15.8479011
   6.8371420  85.6832790  16.7941272  99.1881275 114.2707253  41.2862396
  99.7486115 113.6450863  41.7452288  98.3886433 114.3062210  41.8113947
  21.4207202  99.8759747  35.3511047  21.8686610  99.0492821  35.5304360
  21.7336398 100.4707146  36.0327244 101.0803032 108.2004929  17.0608807
 101.9831753 108.2011127  17.3787570 100.6092644 108.7621117  17.6764572
 113.9971733 129.4578075  46.7507219 114.7784519 128.9677811  46.4943790
 113.3138275 128.7927055  46.8337965   2.3301249 101.3741302  58.5709620
   2.9996329 100.6900311  58.5714436   1.8997889 101.2887001  59.4216967
   4.0337973  84.2719269  30.3153491   3.6330824  85.0900650  30.6091142
   4.9198943  84.5202923  30.0519228 123.0921745 103.8882065  55.6839848
 124.0012169 103.6657619  55.8849525 122.6553917 103.9032650  56.5355873
 102.5246143 113.7131119  58.9208221 102.8628445 112.8516865  58.6762953
 103.3048153 114.2606544  59.0086555 107.4134827 128.9975548  20.7931209
 106.8126011 128.6270332  21.4395666 107.6338482 128.2619381  20.2216816
   6.1433058 100.0572014  24.2904162   5.3854399 100.2779293  23.7489748
   6.4684897 100.9015179  24.6028614 112.4873066 138.4550095  26.0662913
 112.8075504 138.8082123  26.8963051 111.5346146 138.4518433  26.1590004
 113.0174065 112.3040390  43.5336447 113.4228611 111.4375019  43.5029411
 113.5179806 112.7793312  44.1967821 112.3589230  67.3538303  42.3008871
 112.3786831  66.4157152  42.4900246 113.1589699  67.6955605  42.7001095
  94.9026966 103.1318188  26.0148048  95.1775074 104.0476227  25.9698749
  95.6207561 102.6460934  25.6089687 119.8268700 101.2394619   2.4081801
 120.7153702 101.5661907   2.5498018 119.9484730 100.3445053   2.0911750
   0.6955844  75.1873779  41.0726213   1.4640170  75.7544899  41.1368418
   0.5502921  74.8787212  41.9669676 106.6700459 123.8785648  20.8452916
 106.0014439 123.9997196  20.1711059 106.6072369 124.6640015  21.3887811
 118.7487030  57.0421696  23.4152770 119.5092487  57.3128843  22.9009652
 119.1198158  56.6881371  24.2234659   7.0853167 114.6729469   9.9407971
   6.3940554 114.5117188   9.2986095   6.7399722 114.3161011  10.7591105
 115.9867954 130.8103466  15.5711603 116.8100357 130.9269047  15.0968933
 115.3693676 130.5031967  14.9073327 106.6003799  88.0304432  10.7122028
 106.5636826  87.1314049  11.0387206 105.7487869  88.4031296  10.9404957
  98.7132931 114.9718952   9.3097067  98.9750767 114.2131424   8.7881666
  99.3868637 115.6284332   9.1322398  15.0551444  76.9918823  89.5457109
  15.9490042  77.1228266  89.8621031  14.8929148  76.0563135  89.6666392
   6.2709551 103.8453674   9.7551548   6.9331484 104.4882202  10.0090778
   6.7737036 103.0727100   9.4973099  99.9172115  82.2687912  38.1187534
 100.3115463  82.5684929  37.2996616 100.1230621  82.9582405  38.7500262
  99.0573883  79.3878937 108.1904753  98.9050865  79.2426443 107.2566991
  98.1816292  79.4913054 108.5627478 106.6308308  90.2139091  30.9253120
 105.6841755  90.3361225  30.8536410 106.7657471  89.2820454  30.7530928
   4.8820906 103.1835842  56.1322832   4.5738822 102.2959423  55.9497452
   5.2328234 103.4919071  55.2967215  91.4359474  97.9853725  31.5930629
  92.2167969  98.0209541  32.1455526  91.1388016  98.8937092  31.5395713
  24.3970900 119.9204445  17.1168041  24.0881377 119.6452808  17.9799783
  23.6342650 119.8225117  16.5469491  13.2240420  96.9911003  36.6450119
  12.9756194  96.0670471  36.6702724  13.8874274  97.0795727  37.3293519
  34.4148379  83.2357979  29.0848756  34.8497801  83.2145882  28.2324624
  34.1637068  82.3266983  29.2483044   0.1007300  80.8959484  25.4625845
   0.6587916  80.1193428  25.4214239   0.6520491  81.6048813  25.1313972
 112.8571510  64.2954969   5.1873338 113.4452057  64.4562674   5.9252852
 113.2170200  63.5187435   4.7591090  96.4979744 100.3645325  18.9519668
  95.7437611 100.8738518  18.6553311  96.3411617  99.4838238  18.6113906
  96.2561131 106.8608284   4.7167405  96.6219521 107.7451324   4.7367957
  95.3954697 106.9483280   5.1264691 119.9902439  72.3732567  15.7372987
 120.3224182  72.1968317  16.6175067 120.1494598  73.3076715  15.6040430
  91.4636993 104.8878002  28.2578707  91.9166946 104.2812634  27.6720977
  90.8765697 104.3321896  28.7705159  95.7187748  97.2682571  95.4745217
  95.9614658  98.1911373  95.5495318  96.2250519  96.9473553  94.7282370
 116.0712242 108.9328289   5.0908858 115.1242447 108.7943077   5.1074249
 116.1810017 109.8616982   5.2943301   7.2312384 106.6509438   4.6214288
   6.8197089 106.9551182   5.4303527   7.8189402 107.3631382   4.3691933
   3.7946063  74.5679045  27.4365425   3.2321292  74.0568972  28.0185437
   4.2242175  75.2000141  28.0128241 113.1274128  97.0899391  29.6330357
 112.6206779  97.6682568  29.0629506 113.8365555  97.6411343  29.9640059
 104.8119259  90.3404140  20.0092053 105.4736042  90.4009247  19.3201816
 104.1204166  90.9407711  19.7305954 124.8455238  84.2912006  25.2101874
 124.5539665  84.3468094  24.3001699 124.1579628  84.7320366  25.7093406
  15.7445937 127.8945541  18.7919009  16.2165957 127.0716095  18.6645699
  15.7962161 128.0570126  19.7338009  17.2430640  82.6052761 104.6968760
  17.7462035  82.2710037 105.4394039  17.6334220  82.1811581 103.9326879
   5.8477336 107.0480061  16.9152391   6.6974764 107.0927811  16.4768648
   6.0300665 107.3080635  17.8182089 124.5594597 102.4981403  24.8852086
 124.1337299 102.5274849  25.7420206 124.7955322 103.4078598  24.7037864
 119.7021389  74.9910402  94.1682204 118.8287449  74.6917152  93.9156028
 119.8373222  75.7910967  93.6604150 113.3210659 100.4307938  16.7620790
 113.6542130 101.3089848  16.5776169 112.3789120 100.5519104  16.8799722
  19.3624907 119.2972374  25.6335163  20.1583605 118.8105011  25.4192519
  19.6031123 119.8271561  26.3934684  19.9362975  79.3188906  24.6061039
  20.1511126  79.2127180  23.6793828  20.7311564  79.6827126  24.9960589
  23.1358176  85.2872944  58.1865644  22.2835665  85.7178211  58.1191730
  22.9291659  84.3542576  58.2411528 103.1815434  69.9154997  41.2282753
 102.8761101  69.1282845  40.7774591 102.4205971  70.2181625  41.7238426
  97.1435261  88.3029938 106.8441575  96.4827824  88.5831451 107.4775346
  97.7748489  89.0221596 106.8226829   9.8171454 104.6857166  26.8662858
   8.9355879 104.3954659  26.6321135  10.3902846 104.2354012  26.2458372
  97.9943943 101.2840366  26.5087414  97.9208946 101.9433689  27.1987534
  97.9127216 101.7798424  25.6940341  82.8761101 107.5859356  78.3483585
  83.1999588 106.8604755  78.8822707  82.0348072 107.2781944  78.0111011
  18.7319117 102.5702477  20.8161998  18.1377154 102.5968838  21.5661716
  18.1639605 102.6961803  20.0560594  88.2019234  97.1433449  20.1177430
  88.4466648  96.9731426  21.0273385  87.7959538  98.0099773  20.1370931
 108.2017040 107.6995850  33.6514115 108.2362652 107.0297909  32.9684639
 107.2772598 107.7453899  33.8953924  12.3385459  95.8133030  17.9111159
  11.4891558  95.7952595  18.3520734  12.1914130  95.3462029  17.0886827
  19.7556525 137.5941563  33.4868073  18.8759356 137.3314381  33.7575865
  19.8645049 137.2070312  32.6181817  76.5518236 142.7425480  31.8817282
  77.3429537 142.4706173  32.3469210  75.8428955 142.2705650  32.3186255
 106.9339657 116.0167503  56.1749029 106.4825153 115.2461720  55.8304882
 107.0546436 116.5839481  55.4133606  90.7600689 110.2357674  29.2318916
  91.4388561 110.6079006  29.7949171  91.2069702 109.5452499  28.7422991
  84.3908215 118.5558891  26.8692350  84.9132538 117.7624130  26.9862819
  83.6227894 118.4210396  27.4243736 108.7972641  94.9011898  25.3769541
 109.2285442  95.6258202  24.9240327 108.3352947  95.3153419  26.1058521
  31.9761401 131.6451550  32.1444249  32.4186926 132.3136425  32.6673985
  32.6543456 130.9941673  31.9642448  25.7052641  94.8816204  12.9480147
  25.0074416  95.5366802  12.9346406  25.6409484  94.4457817  12.0982265
  98.1900597 104.0824795  49.3437529  98.2861233 103.2827473  48.8266182
  99.0733910 104.2699623  49.6612501   9.9294215  63.0062819   6.4293408
   9.0201693  62.7481747   6.5806139  10.0291758  62.9852819   5.4775852
 116.8263721 102.0804691  33.0318093 117.0346069 101.9894886  33.9616442
 117.0890236 102.9747677  32.8139281  31.2203532 108.6014557  13.0001438
  31.3212615 109.4637871  12.5971282  31.6368418 108.6876202  13.8576651
   4.1754561  67.0810413  95.3289267   4.6625834  66.4995718  94.7451206
   4.1252070  67.9103947  94.8536631 122.4754810 106.0022831  29.6103430
 123.3120728 106.1808014  29.1808319 121.9242096 106.7505360  29.3813443
 118.9259148 118.5623264  19.9828577 119.6558094 119.0279675  19.5746100
 118.8513279 118.9510059  20.8544064   4.1552287 106.7077255  55.6381655
   4.3300753 107.0754814  54.7719049   5.0062209 106.3895607  55.9395218
 103.4985447  77.0819616  32.6840711 102.5969410  76.7632151  32.6422715
 103.5094357  77.6715469  33.4380627  39.0671092  86.7749596  92.7386602
  38.1705981  86.4470196  92.8090628  39.5029002  86.1567402  92.1520504
 123.2019711  78.4758091  32.1816421 122.5811672  78.1244707  31.5433645
 123.7231636  79.1075420  31.6861629  13.2477885 102.8442383  31.9302034
  13.1015711 102.8669167  30.9845090  12.5003462 102.3567677  32.2765064
 108.4774971 106.8542480  39.0675783 109.1967010 106.2288380  38.9790678
 108.6648178 107.3209858  39.8820138 120.6159019 107.4187374  71.7936707
 121.2445068 106.7739010  71.4692211 120.8030224 108.2104683  71.2892962
  23.5289889 113.7753677  38.1745172  23.7656050 112.9234600  37.8077602
  23.0823165 113.5671425  38.9950991 101.1394691 109.7807026  19.5383132
 100.9814930 108.8464260  19.6739519 101.2094784 110.1425076  20.4217315
 114.5392704 104.1853333  45.4379177 113.9977074 104.2300606  46.2259150
 114.7600269 105.0969505  45.2469587  82.2195625  77.4997997  13.4564471
  81.6715240  77.9162741  14.1216087  82.2075367  76.5701103  13.6839724
 107.4204731 101.4482975  23.6014962 106.5792751 101.0870838  23.8810444
 108.0312824 100.7146454  23.6714077  35.8957034 104.1706657  37.2012138
  35.9556895 103.7066460  36.3661551  35.8852320 103.4768295  37.8605485
  11.6492968  85.9557724  29.7158790  11.2418585  86.1051941  30.5690503
  11.3414603  86.6815662  29.1730356 124.0457058 129.3115330  46.1438084
 123.6223602 128.4586716  46.0456038 124.9331665 129.1781712  45.8108664
 109.3193054 120.5700397  36.9458055 108.4471130 120.2763748  37.2090125
 109.9172974 119.9538326  37.3688078 119.0740299 140.3635597  31.8152523
 119.6327019 140.8823395  31.2364769 119.5176792 139.5179844  31.8816829
 123.4308529 107.5675488  23.8441110 122.7297878 107.6261520  23.1950331
 123.0359173 107.8924751  24.6532321 100.2318478  91.7079544  89.3543800
 100.0111866  90.8210659  89.0698465 100.7968330  92.0484161  88.6607584
 120.2093506 109.0472698  58.4523535 119.6256828 108.8789368  57.7126074
 120.8983040 108.3880520  58.3686829 121.7876434 112.6827049  11.1872268
 122.5671482 112.1321392  11.2611461 122.1037769 113.4930611  10.7877064
  15.9511118 102.4562645  23.6588192  16.2965422 102.2428989  22.7919960
  16.6516715 102.9544163  24.0798664  24.3936759 125.5944538  38.6326766
  24.6366530 124.6687508  38.6162591  25.0226622 126.0175705  38.0482221
  30.9271079  98.1638145  86.0415840  30.0876265  97.9586697  85.6299877
  31.5574580  98.1467438  85.3214359   9.8422366 129.3479156  23.1917405
  10.6164198 129.8772049  23.0001307   9.3732195 129.2992306  22.3587418
 120.9079170  93.6971760  32.8015590 120.7766247  93.1620121  32.0188761
 120.1767445  93.4667206  33.3747077 111.2753582  87.8547478  30.4019165
 111.9683647  87.2807598  30.7282710 110.5258369  87.2741985  30.2699804
   6.7927771 120.1830482  39.6975684   7.5270682 119.6305370  39.4296694
   7.0992499 121.0775375  39.5486021 119.8264694 104.9234486  37.4748302
 120.0359344 105.6395531  38.0744576 119.5065975 104.2218971  38.0420542
   7.6856738 121.7600632  45.6567001   7.6430922 121.9646835  44.7225952
   7.2359210 122.4899006  46.0825062  19.0356761  89.4584942  15.0183690
  19.5192557  88.6441135  14.8798823  18.9285307  89.5149136  15.9678769
  16.5812712  94.6232605  13.8380969  17.5013857  94.4883156  13.6113596
  16.3170844  93.8071823  14.2628872   5.7276755  72.4401903  22.9091954
   4.9298411  72.7117634  22.4554014   5.4348593  71.7729902  23.5299444
 118.8322449 107.1835709  36.1800718 119.1882515 107.9007626  36.7045879
 118.9060974 106.4142418  36.7447948   8.9724570 104.3663979  21.2817049
   9.2377310 103.9598751  20.4567218   8.8069945 105.2816296  21.0554028
   3.8344508 102.7980423  93.8380738   4.1545897 102.1437645  93.2170578
   2.8811198 102.7489948  93.7674769 115.6778526 106.5179920  43.9167786
 115.5723763 107.1911526  44.5890570 115.8243847 107.0082664  43.1078339
   2.4018412 111.2507534  30.8965468   2.5078517 110.3494358  30.5922103
   1.5179091 111.2774658  31.2628484  14.4552832 103.5097027  58.5964537
  14.9582224 103.0379868  59.2603588  14.1784697 104.3152332  59.0331745
  57.0507431 120.6788635  63.3853340  56.4055252 120.8580780  62.7013683
  56.7447424 119.8709583  63.7975025 122.9336071 108.5162735  62.0741749
 123.4746552 107.8074741  62.4221706 122.2287941 108.0708694  61.6039801
  14.4248992 109.2609024  55.2304935  13.7024718 109.7473812  55.6275558
  14.6805220 108.6243534  55.8980942 118.9703178  79.8364162  70.2826405
 118.7809753  78.9659929  70.6329918 118.2707596  79.9970818  69.6493673
  95.9386826 120.1983929  16.5538228  96.2227917 119.8268795  17.3889804
  95.1158524 119.7495651  16.3595688   9.3087035  96.1358738  14.2268503
   9.3382388  96.3521767  15.1588213   8.8551169  96.8759918  13.8234556
 117.7822399 111.2729073  23.9717984 117.5456715 111.0488319  23.0717659
 118.6319828 110.8536911  24.1075444  24.6352988 111.0539436  20.2072835
  24.1469031 111.8771553  20.2027273  24.0709906 110.4432869  20.6815052
 100.8892441  74.4420099  38.9914393 100.4755497  73.5849714  39.0942454
 101.3642788  74.3807983  38.1626844 121.8943787  85.5777645  20.4230404
 121.1388397  84.9909115  20.4545116 121.6123676  86.3015079  19.8636734
 121.6767502 101.1728859  30.3948760 120.9538746 100.6289959  30.7077241
 121.2515545 101.8827724  29.9137330   5.0606948  90.6994629  37.8174162
   5.4184847  91.1234570  38.5974407   4.6848326  89.8807526  38.1409359
 104.7637558 131.1153793  40.3634119 104.4099522 131.9182014  39.9806261
 105.5378819 130.9193325  39.8356533  31.8098860  94.3125629  46.7147827
  31.9975024  94.8321152  45.9330559  32.5157862  93.6669636  46.7484045
  98.5842133  61.8491936  17.8776252  98.0123234  61.6141224  17.1469331
  98.0198574  62.3395967  18.4753215   0.7570391  83.5489464  37.6891303
   1.3115912  84.1643906  37.2096181   0.5638438  83.9935780  38.5144854
 112.0453739  92.2859287   4.2212066 111.2170219  91.9027901   4.5097598
 112.3170090  91.7408657   3.4827292   9.7782546  79.2361975  18.5062456
  10.7156592  79.3163395  18.3299541   9.5234423  78.4179735  18.0798483
 106.8274879 103.5291576  25.4001117 106.8602562 102.8124046  26.0336971
 107.0544529 103.1208611  24.5646405 106.8726063 111.5896511  91.4835700
 107.0691204 111.9534969  90.6203040 107.0145798 112.3178482  92.0883831
 110.6185436 137.5800323   9.2224473 111.2392616 137.0358086   9.7069687
 111.1445522 137.9898453   8.5357136  22.7995616  79.2637873 107.2675934
  22.7136069  80.0596809 107.7923755  23.2701331  78.6527443 107.8345249
  86.6848183  90.2553272  19.4955850  86.2804985  90.9014225  20.0746512
  87.3644066  89.8458481  20.0310493  17.8504019  83.8271523  53.3095026
  18.5179930  84.2748737  53.8292074  18.1263762  82.9106236  53.3034372
  90.2431488 139.2256355  19.7668004  90.5434418 139.2000866  18.8582838
  90.4784584 138.3680916  20.1210356 111.9121456 118.9402485  24.7491765
 112.3132610 118.1174564  24.4692612 111.6894150 118.7973499  25.6690693
 107.5839710  82.4278069  16.1018682 107.6889515  83.3259010  16.4159322
 107.3815060  81.9211674  16.8883491  15.7244521 106.2173271  15.3549337
  15.7865077 106.0529137  14.4140029  16.5284377 106.6906834  15.5688977
  89.9886036 108.0956268  47.6228809  90.8489799 108.0182934  48.0351973
  90.1786041 108.2085800  46.6915512 120.8971596  76.9811869   6.1345541
 121.1651134  77.6041031   6.8101329 121.6301441  76.3690948   6.0688555
 102.3864079 104.9554157  12.3495829 101.4495468 105.0987530  12.4836862
 102.6394463 105.6145477  11.7032480  90.0985909 127.2933865  41.7193842
  89.9975872 126.5449333  41.1313009  90.7036400 126.9872189  42.3949671
 119.5917606  93.4552860  14.8029077 119.9851799  94.3259430  14.8613155
 120.2616310  92.8660107  15.1496887 101.5260887 119.9643517  22.3049951
 101.1631203 119.1412354  22.6320648 102.4724197 119.8209667  22.2933888
  18.9726382  90.3008366  55.1712942  19.0271884  90.8795547  55.9317827
  18.2172328  90.6225109  54.6792316  15.5291682  93.1816769  60.1399708
  15.9518653  92.5348759  60.7049465  14.5951777  92.9824829  60.2049160
 104.9742985  94.5249462  79.2478832 104.7148800  95.3666019  79.6227916
 105.1740360  93.9762592  80.0063547 121.0704803 103.9049816  21.4261174
 120.7527351 104.5751762  22.0311856 121.3287258 103.1760502  21.9902182
  95.2305508  90.6172085  12.0610583  94.9846458  89.7115993  11.8723035
  96.1257362  90.6960011  11.7313969 108.0405235  87.2334003  86.2832650
 108.0707836  86.3750458  86.7058142 108.9021111  87.6143646  86.4528712
  89.6940136 146.3962746  13.4283721  89.7752094 146.3470840  14.3808532
  90.2608585 145.6968403  13.1032348 104.1356945  20.9197807   2.0006940
 103.4085464  20.9092855   1.3782993 103.8058090  21.4217210   2.7459890
  82.5717449  46.2164879  91.7655214  82.4672890  47.1295929  92.0330306
  82.8553772  46.2653065  90.8526143  89.9069405 108.4731197 107.4295122
  89.8837757 108.0216789 108.2732511  88.9919853 108.5059071 107.1502166
 107.1064949 130.6401539  81.4858540 107.2346210 130.0366879  80.7539805
 106.3766384 131.1960888  81.2129363   4.0346747  72.1533108   3.7623245
   4.5399027  72.9446316   3.5758051   3.1297045  72.4575424   3.8309115
   8.8553935  81.6389942  19.5693004   9.1735583  80.7721138  19.3172562
   9.5710593  82.2323895  19.3413842 122.0539951  71.5123558  87.0776852
 121.8158436  72.3477030  86.6755470 121.8317223  70.8564472  86.4169224
 107.0212746  80.3847218 104.7046503 107.1920681  80.2068710 105.6295457
 106.2156391  79.9045753 104.5132163   8.4060603  85.0762653  87.5325497
   8.3724814  85.9332848  87.9575547   7.8583842  84.5150757  88.0814990
   9.2580538 113.5782242  92.3966058   9.6217948 112.8617096  92.9167279
  10.0154715 113.9617920  91.9545313 113.5361099  90.0623131   5.2124584
 113.5296345  90.1051521   6.1686766 112.7670193  90.5654812   4.9449474
  32.6847010 113.0767632  71.1960276  31.9488459 113.6552334  70.9957560
  33.0014544 113.3781624  72.0475324 114.0296841 105.8029842  95.0416490
 113.8389874 105.4415989  94.1760441 114.9824333 105.8935928  95.0587853
  12.6886111  59.9610806  32.1294069  13.5062724  60.0178909  31.6350079
  12.8256255  59.2335033  32.7361131  91.3052464 110.8516884   2.2251654
  91.4974213 110.8797169   3.1624579  91.4315414 111.7527008   1.9277358
  28.4258013 108.4299183   9.4597906  28.1183844 107.5324440   9.5873129
  28.1717043 108.8863754  10.2618623  79.5600367 102.5952435  29.1867423
  79.3965435 103.5041237  28.9348936  78.7984657 102.3518467  29.7130537
   1.8471938  99.6467972   1.8339728   2.0388632  99.7648907   2.7643204
   1.7581111  98.6998749   1.7261003 124.1670132 109.5863533  14.3145454
 124.7602177 110.3375721  14.3177640 124.0595531 109.3620586  15.2388716
 117.4427700 115.1199341   7.3668563 116.5749454 114.7418880   7.2247648
 117.4872684 115.8543396   6.7545658  20.4052573  77.6205111  29.1671586
  20.5926829  78.2408285  29.8716521  20.8749800  76.8248940  29.4173169
  76.2437868  83.4898281   0.1437694  76.6633081  82.9373550  -0.5157827
  76.8800831  83.5360622   0.8573689 113.4918308 130.1257706  14.2086935
 112.9586697 129.3955517  14.5229340 113.3293247 130.1526070  13.2657707
 115.9710407  98.1824589  88.5295471 115.4742718  98.2093620  87.7117881
 115.5376148  98.8223743  89.0942415  97.5563240 101.9021606  21.1004758
  98.1375217 102.6080513  20.8173394  97.3922825 101.3938427  20.3061628
  98.6884594  73.1995583  30.9004092  99.1930580  72.4903727  30.5020833
  98.0864048  73.4813023  30.2116537 124.6133232   7.9998856   8.2513326
 123.7428761   7.6214485   8.3752024 125.1619530   7.5553017   8.8975370
 124.0072918  88.9049053 108.3509747 124.6555996  89.5889568 108.5182852
 123.8393021  88.5187244 109.2105538   9.6461325 122.9829693 101.2850037
   9.2902403 123.7595749 100.8531948   8.8792163 122.4438095 101.4783409
  18.9075022  89.0690899 106.2393554  19.4549494  89.7825813 105.9115320
  18.3944445  88.7925529 105.4800566  88.6201668 132.6821804  11.0408127
  89.4738579 132.2612858  10.9393680  88.7919521 133.6116791  10.8899641
  88.9351654 116.2391949  25.3980064  89.3814850 115.7134247  26.0617852
  88.5597706 116.9723034  25.8857155   1.2073069  97.0476818 107.9244007
   1.4787322  97.6316166 107.2161814   1.7969256  96.2968349 107.8550097
  96.8828964  76.1330938   9.7674292  96.9553661  75.1815176   9.8414791
  97.7132034  76.4639091  10.1100457 109.6869659  63.3460808   4.9333546
 109.2396736  62.5116920   5.0746220 110.0487423  63.5719872   5.7902765
 121.1034107  68.2009125  14.7439277 121.1126041  69.0743637  14.3524849
 120.9849072  68.3593893  15.6804490   6.3220244 130.9972954   8.6833417
   7.0939475 131.5402603   8.5235000   6.5949088 130.1140308   8.4351271
   4.8450499  95.3129101   8.0568892   5.7974654  95.3069782   7.9614311
   4.6933013  95.0392151   8.9614850 111.9765759  99.9390411   5.7817209
 111.8310642  99.4193077   4.9911907 112.9286480  99.9712276   5.8753192
  14.7553664 105.6576157  34.8007560  15.6037551 106.0835552  34.9233985
  14.1474562 106.3780689  34.6345425  10.2424937  84.0890312  18.8850367
  10.6814986  84.6442223  19.5294464  10.6074744  84.3638039  18.0438936
 114.7025394 106.7586136   9.5969361 114.9543667 105.9052658   9.9499601
 115.4199409 107.3416710   9.8451716   3.2602530  70.4331970  26.1418772
   2.9883605  71.3191319  25.9022403   3.9917689  70.2402925  25.5554390
  22.3773985  94.7085285  77.8332838  22.3792201  95.6657124  77.8386673
  23.1478148  94.4704533  77.3175152   1.9347220 109.0955734  11.0649645
   2.1183234 108.1574535  11.0155308   2.6921301 109.4642448  11.5195429
 102.9302692  89.6048164  12.9464769 103.3020782  88.9788055  13.5678542
 102.7339935  90.3786469  13.4745693  11.9246417  91.0623741  51.5260935
  12.7199870  90.8894062  51.0223770  11.2355357  90.5954361  51.0534954
  99.5015430  92.7860928  16.7708123  98.9963627  93.3024025  16.1427641
 100.1544857  93.3968353  17.1127260  95.6912231  64.9466658 108.0747282
  95.0929546  64.8563910 108.8164548  95.7192421  64.0741682 107.6820471
 103.0233097  97.0145798  89.8671015 102.9089355  97.9085732  90.1894709
 102.8367043  96.4608669  90.6252679   0.7567340  66.4460039  19.5508313
   1.6946440  66.4921808  19.3652976   0.7010871  66.4508486  20.5064011
  99.0628719  90.3881550  38.2237959  99.2170429  90.3449059  39.1675091
  99.3362427  89.5310307  37.8969264  11.1688262  89.8489380   3.9614022
  11.1461669  90.6784439   3.4842867  10.2528029  89.5755005   4.0100068
 108.1654644  67.7526236  10.0614107 107.9542542  68.1439924   9.2137939
 107.3211193  67.4672508  10.4105186  96.1496830 131.5360832  26.5946746
  96.5298843 131.1244202  25.8186483  96.1141586 132.4678612  26.3784146
 114.8564625  86.2266636   8.6052245 114.9091434  86.5598202   7.7094227
 114.0644741  86.6273594   8.9635986   5.5635005 113.5721588  12.2924638
   5.5827456 112.6391602  12.5054741   5.6178599 114.0126324  13.1405556
  29.2964202 113.2672882 101.5991893  29.0834647 114.1458511 101.9138589
  28.9147025 113.2278919 100.7222816  10.5176669 128.5216331  12.9662454
  11.0207396 128.3099365  12.1799016  10.6701975 129.4565582  13.1036806
 113.4146404 109.9798393  87.9570421 113.0730915 110.7582378  88.3971103
 112.8560257 109.8756790  87.1867593   0.8347636  97.9110146  46.2233973
   0.2108794  97.8701782  46.9481945   0.4320078  98.5093594  45.5941153
 123.6132336  96.9321156   5.2338332 123.4701443  96.5239716   6.0877490
 124.5542812  96.8455219   5.0816464   2.4195128  88.5154343  23.1151199
   2.2722178  89.4493389  22.9655480   1.5407019  88.1394958  23.1660461
 123.5194492 112.6948547  27.9379916 123.1180668 112.1257973  28.5947180
 123.4815598 112.1882248  27.1267414 106.1435223 109.2747593 104.0203323
 106.2225628 108.7562275 103.2196381 105.2097416 109.4750690 104.0847560
 119.1415310 105.3684521  27.9767752 118.3098030 104.9110985  28.1004381
 118.8955975 106.2867165  27.8648472   9.4054633  77.3168421  58.4865475
   8.6929541  77.3207188  59.1257286   9.8183661  76.4599085  58.5933399
 107.2579575  94.4489670  84.4553097 106.6925335  94.8690891  85.1034077
 106.9424152  93.5463428  84.4113859   5.0638896  81.2296104  99.1679164
   5.7174330  81.7423439  98.6922892   5.0533991  81.6104221 100.0460406
  33.6221247 133.5793304  26.6228867  33.5738974 132.7401733  26.1649370
  33.1775218 134.1956806  26.0409260   6.3411837 100.2827168  20.8963823
   7.0108824 100.3324604  21.5784836   5.5168086 100.1997375  21.3757086
   9.8884230  91.6645336  11.7343068   9.1168528  92.0933437  11.3641286
   9.8050814  90.7491875  11.4670503   7.7422457   4.8606663   7.9705417
   7.9039794   5.5079441   8.6569196   6.8530207   4.5493584   8.1396270
 109.8633099  74.1294384  38.2841301 109.7177505  73.9589405  39.2147064
 109.6089172  75.0445795  38.1656480 102.0134735  97.0166111  21.3420153
 102.7193165  96.4039612  21.1354351 101.4557838  97.0106125  20.5640793
  -0.1624460  93.0991554  31.3116527  -0.2618665  93.2738304  32.2475123
   0.7704096  92.9160023  31.1999702  85.7364750  99.4695854  17.2919679
  84.9033928  99.8658752  17.5472200  85.5988026  98.5290623  17.4046504
 103.9885235 100.5591679   2.6115474 103.6023998  99.6837616   2.5833517
 103.4265137 101.0496330   3.2113916  88.0131721  82.8157234  69.1852149
  88.7865067  82.5785446  69.6970185  87.9779434  83.7710667  69.2332276
 119.5742416 102.7435493 106.4909297 119.5748234 102.8622341 107.4407428
 118.8319874 102.1630955 106.3225355  22.4443942 140.9439278  74.6742614
  22.8501444 141.8099308  74.7148641  22.8732806 140.4456329  75.3699502
 112.6080513  69.7929144 108.1314872 111.9174862  69.3944454 108.6611746
 112.4924088  69.4117069 107.2611209  77.4070644  92.8654003  71.8779977
  77.6056385  93.7498093  71.5703901  76.4511061  92.8336906  71.9150265
   8.0530577  72.6433659   5.8930916   8.6022597  73.0060101   6.5881383
   7.3469477  72.1927309   6.3563114  89.6615028 117.1929169  87.0270404
  89.8013306 116.6343498  86.2623891  90.0769520 118.0237103  86.7959555
 107.6784515  28.9927530  10.7654881 107.6092052  29.4275975   9.9155784
 108.6168385  28.9835882  10.9540927   2.4801283  53.0016136   5.6054491
   3.3483534  52.9962873   6.0084081   2.4514514  53.8195610   5.1090914
  92.3390770  95.1097107  11.6846442  92.4794197  95.8685970  12.2508824
  91.6867447  94.5833588  12.1468663 106.3375950  64.0769100  25.5334449
 106.7936134  63.3468056  25.1148486 106.1694717  63.7742710  26.4258432
   1.4212638 117.8647518  95.7021531   1.4684611 118.1641102  96.6101106
   1.2831717 116.9198799  95.7683619  85.2619362 108.2312202  96.6640302
  84.9373341 108.0626011  97.5485822  86.2011433 108.0538750  96.7157086
  33.9918452 120.3513432   9.4813508  34.2804652 120.3971481   8.5698509
  34.3178969 119.5073223   9.7936988 124.3993950  68.0359125  92.3618170
 124.3354034  68.9264917  92.7067944 123.5930252  67.6086426  92.6506802
 105.6758022  92.7420044 101.1019787 106.1357784  92.7401543 100.2625462
 105.1893425  93.5663700 101.1067083 112.4801540  55.4911804  87.1279033
 113.0000019  55.8400726  86.4038428 113.0658054  54.8752356  87.5682076
 102.7347469  73.3964062  91.6549417 102.5270748  73.3475256  90.7218214
 102.1813679  74.1034460  91.9867572  28.0770808  96.3256836   8.7297690
  28.0499297  97.2723103   8.5905457  27.9079657  95.9514809   7.8651267
 109.0278339  90.3110218  95.4402646 108.8026810  91.2135601  95.6660434
 109.9847984  90.3002548  95.4222234  94.2510223  66.4737606  74.7741231
  94.6573734  66.0600328  74.0125855  93.4886169  65.9274387  74.9651631
  13.2738906  96.4803886  93.0086693  12.7538329  96.6513538  93.7938746
  13.1369525  95.5503178  92.8285035  47.2504740 118.8830948  33.5709763
  47.0491915 119.3903160  34.3573880  48.1958705 118.7395477  33.6139965
  13.2603579  72.3063278  19.3769753  13.8107520  73.0241203  19.0638173
  13.3172732  72.3595095  20.3310013  94.9006653 102.7688408  34.3519163
  95.3909683 102.0487690  34.7485542  94.4121933 102.3608112  33.6369753
  39.3714839 121.2792206   8.0082661  39.1459017 122.2066498   8.0804485
  38.5683947 120.8608150   7.6980728 122.5403404  89.8836327  17.5557542
 123.4907341  89.8452854  17.4484849 122.2730732  90.6514454  17.0505083
  30.2303439 132.7869225  15.0616622  29.6894579 132.9238510  15.8394361
  29.6791773 133.0730152  14.3332386 117.9059601 130.6780529 104.2052522
 117.0667076 130.8743382 104.6216043 117.9635715 129.7227192 104.2211279
 105.4143429  91.5573883  14.9218988 105.3936005  92.3896599  15.3942513
 105.8672047  91.7580700  14.1028309  15.9752303 109.7105694  24.3957353
  15.4348498 110.1835251  25.0286078  15.4969626 109.7844505  23.5698867
 122.9147434  61.1116123   8.4459567 123.0665302  61.4195681   9.3394661
 122.1179485  61.5638876   8.1688470  96.8453693 114.1287231  92.5760802
  96.8643570 114.6033573  91.7450603  96.2225914 114.6156120  93.1158134
 117.4177265 120.6727314  23.8091421 116.5368938 120.3218555  23.6778092
 117.6485062 120.4129314  24.7010350 116.2405014  80.8367252  36.7544079
 115.8902931  80.1454830  37.3163462 116.3391495  80.4217720  35.8974814
  88.1651783  78.4044886   3.4241596  88.3714867  77.4724197   3.3540052
  87.4403477  78.4430504   4.0481573  32.0567160 106.7290401  46.3137007
  32.0024996 106.0548687  45.6363630  32.5387221 107.4454308  45.9005594
  39.0384226  94.2776966  14.6172881  39.8047381  94.8143482  14.4148147
  38.4842425  94.3486023  13.8400578 120.2391624  93.6217690  95.7360777
 119.3370247  93.4238815  95.4846486 120.4005051  93.0712223  96.5023001
   2.1200972  74.7185230   4.6268320   2.8312712  75.1782942   4.1806605
   2.2997695  74.8459148   5.5583465   2.8643828 135.6044102   5.2869725
   3.5643416 136.2018776   5.0236797   2.0890360 136.1610222   5.3595036
 104.5562744 134.6295547  91.1437544 103.7488461 134.9975395  90.7847615
 104.6318436 133.7693691  90.7307013   7.8909331  75.4112291  82.8347644
   7.2302657  75.7694054  83.4276041   8.6829119  75.3482962  83.3686598
 115.3184032  75.2406597   9.4600797 115.2348042  75.2974081  10.4119325
 115.5185795  76.1348963   9.1834897 109.4187546  79.0101385  15.2151310
 109.9752998  79.4529819  15.8557403 110.0312901  78.5355759  14.6531534
 110.6849957  91.9768906  98.1367036 111.5059471  92.2950172  97.7610978
 110.1769638  91.6771889  97.3828431  12.0933371  92.6311779 108.4939943
  11.8089705  91.7445850 108.2718968  11.3561564  93.0053425 108.9764810
 111.0152912  87.6143837  98.1460937 110.2817249  87.1319199  98.5273346
 111.1195183  87.2398949  97.2713777  99.8504829  87.4368286  16.8791974
  99.0988731  87.6277924  16.3180840  99.5292759  87.5853348  17.7685797
  79.7366285 106.8159866  85.1541647  78.9717388 107.2780228  85.4972371
  79.8440838 107.1569824  84.2662414 121.1701202 127.9010010   5.3362304
 121.4726067 127.1106625   5.7835579 120.9831238 127.6136780   4.4425234
 117.6095676  99.9055004  98.9189466 117.9714012 100.6103992  99.4560023
 117.6922417  99.1227818  99.4636937  10.3280955 101.0474396 100.0491347
   9.4620734 100.7930374 100.3677603  10.5706626 100.3541374  99.4353446
  12.2973471  95.2281475  86.5449151  12.2057372  94.2833996  86.6685446
  12.3789149  95.3389454  85.5976542  19.6435481 108.4641552  40.5856371
  19.0693503 108.7798691  41.2833834  19.1941004 108.7085342  39.7766209
   6.8661147  89.5467377 105.0680640   6.1356478  89.1568089 105.5482807
   7.2342330  90.1904774 105.6733086 107.3988342  86.3408566 103.1292697
 107.1180058  86.1171722 102.2419521 107.8540802  87.1773148 103.0327048
 105.8760834 111.9385529  64.4254780 105.5795574 111.2292862  64.9957752
 105.0778008 112.2562790  64.0035582 112.0310116  67.7235222  15.9852433
 112.9106236  67.9290295  15.6685734 112.1480179  66.9440794  16.5283942
   3.8319426  98.4156418  18.8047802   4.6876078  98.5670280  18.4033453
   3.8767558  97.5174809  19.1327012   4.5181208  93.9747620  48.7834549
   3.6108714  93.7500000  48.5770369   4.4799262  94.3354511  49.6692753
 106.7950344 116.9027519  24.6012330 107.0617390 115.9864426  24.6752477
 107.0612717 117.2975254  25.4315996 122.5669670 101.1322784   3.0820119
 123.1368637 100.8705139   2.3588739 122.7244663 100.4759789   3.7607491
   9.6292620 107.5424290  43.0756426  10.3334551 107.1038914  42.5981236
   8.9123660 107.6016617  42.4441433  96.7551231 120.2503204  27.5544643
  97.4240685 119.6419621  27.2403741  96.9783783 121.0851669  27.1428537
  57.4150973  79.2781687   8.6221325  56.6268092  79.0646410   9.1213685
  58.1367236  79.0928125   9.2230737   0.1191645  82.9138184 105.0971969
   0.5158740  82.3875427 105.7913708  -0.6177492  83.3534336 105.5213644
  17.5616198  22.2165661 106.4219376  17.5244933  22.5509816 105.5258205
  17.7374964  21.2810498 106.3213804  14.1467410  82.2205925   5.3402507
  14.0125495  82.3570061   4.4023719  13.5286170  81.5275574   5.5723345
  98.1843376  90.6946754  14.9302602  98.6399746  91.3553524  15.4519248
  97.2935390  91.0331726  14.8401272 113.1608105   2.6816922  41.4014292
 112.9045010   3.5190468  41.0149431 112.9870224   2.0377999  40.7148218
   0.9010249  66.1738253  87.6566681   0.2729827  66.1506128  88.3786448
   0.6341010  66.9280338  87.1311673 109.6581650 118.5685921  22.8383970
 110.5141449 118.8026810  22.4795914 109.8240662 117.7842808  23.3614349
  98.0241489  80.3539276  72.9484829  97.6607895  79.6653652  73.5053381
  97.6004791  80.2242661  72.0999988 115.9954357  81.2751579  24.3353581
 115.1950264  81.2327766  24.8586035 116.0351658  82.1819592  24.0314412
  88.5627747 100.5139160   8.2882190  87.8446388 100.3003311   8.8839519
  88.2069683 101.1964130   7.7191639  12.0266181 109.5952034  98.8578924
  11.2328559 110.1262665  98.9222535  11.9006091 109.0710068  98.0669602
   6.4931899  98.0405235 105.4858648   6.1774283  98.9411545 105.5591901
   5.7066470  97.5027561 105.5774643 104.7734833  82.1088219  17.5703609
 105.3603268  82.3959732  18.2699275 104.5750332  82.9073906  17.0813370
 120.5265903  88.3867836  10.4379880 120.7806110  89.2186260  10.0383127
 120.4933834  87.7699852   9.7067636  94.8812675  94.0076637  10.4912508
  95.4449272  94.1063309  11.2585747  93.9975739  93.9323139  10.8513033
  33.1732588 106.7105961  12.0211375  32.5879412 107.4046993  12.3242056
  32.6942473 105.9003544  12.1951783 124.1799164 123.9615250  84.5614394
 124.9239731 124.4818497  84.2583378 123.4113312 124.4745445  84.3117913
 109.2365360 130.1869392  22.5680065 108.4968948 129.5797253  22.5895953
 109.7106934 129.9585056  21.7684937 106.6433811  58.0725193  12.9176700
 106.3049126  58.7727022  12.3596263 107.5804234  58.0440044  12.7243710
 111.2354469  59.8541975 107.8209877 110.7954025  60.6867790 107.6495075
 112.0040226  60.0918770 108.3396721  88.8397694  71.7139053 102.7198982
  89.7565746  71.6918945 102.4456310  88.4834099  70.8734369 102.4320602
  70.3424788  81.7541027  80.9971714  70.7962799  81.7491436  81.8399525
  70.4193926  82.6570797  80.6890392 115.9311199  92.3174667  98.4393787
 116.3633633  91.6047001  98.9098740 116.2847614  93.1143761  98.8344860
 114.5078564 106.4874268 106.7452526 113.5652542 106.4778137 106.9115067
 114.8562717 107.1154976 107.3779869   6.9874220 112.2636795  99.0014076
   7.1724444 113.1606865  98.7232494   7.8074580 111.7928505  98.8527584
 115.5508041  78.6048841  96.9173431 115.1533508  79.1036081  96.2035179
 115.9115982  77.8261328  96.4935398 108.2081890  92.7094269  96.4680195
 107.7455425  92.7980232  95.6347466 109.0424252  93.1572723  96.3275814
  22.9829436  81.3912392 109.0011311  22.3764639  81.0207176 109.6423340
  23.8424807  81.3221645 109.4166470 115.8520126  66.8132591  79.1707134
 115.3297997  66.0131979  79.2292261 115.3272915  67.4026966  78.6289883
   4.3446284  89.8181915  99.0155792   4.5806246  90.6920719  98.7043381
   3.5350257  89.6086311  98.5499001  95.4711056  84.2058563 107.2627258
  96.1940289  83.9466000 107.8340530  95.8388042  84.8942757 106.7085648
 103.0646229  61.6274023  67.2623348 102.9685497  62.5114393  66.9080973
 102.3267269  61.1407185  66.8950701 115.1905441  77.0876026   4.4110051
 115.1149654  76.9076824   5.3481046 116.1193562  77.2765923   4.2775575
 110.8057213  96.8702507  24.5778791 110.8903694  97.3044300  23.7290231
 111.6100407  96.3589668  24.6666566 113.6785889 102.9433537  84.2958736
 114.5329762 102.7988720  83.8892078 113.2102585 102.1182728  84.1688251
  86.3307095  97.4603939  97.0463848  86.8444920  97.9092407  96.3749695
  86.4361954  98.0004692  97.8295994  16.4688330  83.6346245  89.3755054
  16.9663935  84.4128132  89.1243553  16.6936141  83.4930897  90.2951145
 103.7451935  74.8177958  63.0913448 102.8854275  74.9525785  63.4899235
 104.2292213  74.3006039  63.7351370  26.1351519  89.4394493 109.1566944
  25.8938056  88.5879612 109.5213127  26.4832526  89.2380714 108.2880688
 121.3125992  27.0155811   0.9723703 120.9796524  27.9129028   0.9863797
 120.5278969  26.4684153   1.0054818 110.9842300 108.5691357  41.4895868
 111.1663723 107.8405666  42.0830917 111.1755848 108.2219124  40.6183481
 110.0647926  59.5161629   6.8661538 109.6047211  60.0849533   6.2488691
 110.3016090  60.0928879   7.5924722  73.1156778  76.1299467  89.1358089
  73.4400415  76.8548536  89.6701527  73.6801195  75.3917933  89.3655205
 122.3997688  75.9739923  86.9565964 121.6289902  76.4792490  86.6980553
 122.0495892  75.2556133  87.4834156  91.6957378  84.8780918   8.6430208
  92.5283718  84.5572567   8.9894525  91.9036293  85.7382965   8.2782594
   7.0970183  65.4378128  22.0337621   7.6059371  66.1514187  21.6490499
   7.3491507  65.4345465  22.9571477   6.1985045  69.4704914  68.1413412
   6.5570288  70.3579760  68.1495810   6.8635016  68.9476824  67.6933670
  87.7294731  90.9200191 104.6376991  88.0174637  90.0717640 104.3004131
  87.2628593  90.7102013 105.4466915  -0.0151700  80.0149822  98.1124210
   0.8790331  79.8818493  97.7979088   0.0558882  79.9626493  99.0655422
 120.2219296  79.2878532  19.4928113 121.0547447  79.3532610  19.0255014
 120.3683758  78.6065578  20.1490346   0.8120566  51.8727827  76.7345142
   1.3797217  51.2648392  76.2608147   0.3936415  51.3352299  77.4069691
 120.9635448  59.0689373  13.7414113 120.7956409  58.1273603  13.7796823
 121.8753815  59.1610479  14.0176336 115.1493835  89.5661640  77.0566177
 116.0028362  89.9715137  76.9032192 114.7203255  90.1430798  77.6885319
  93.7412834 123.4444332 105.3291512  94.4726562 123.9225006 104.9382877
  93.7497330 123.7049770 106.2501717 124.1168785  72.4886370  95.5217361
 124.1876793  72.4026871  96.4724350 123.4484959  73.1612873  95.3911781
 105.7556057  91.9994831  77.6339626 105.3537178  91.7042351  76.8169212
 106.1665726  92.8346157  77.4106264  12.9879027 111.7492104  76.8454790
  13.5506373 111.0818577  77.2381496  13.3883601 111.9300747  75.9950972
 109.0383816  36.7268491  33.3263341 108.3977032  36.4566469  33.9841787
 109.5800495  37.3776841  33.7726919  21.5734511  58.6418390  83.2719326
  20.9558898  58.4235477  82.5739384  22.2627574  59.1413927  82.8342915
  81.2584019 128.8923740   8.5603467  81.0569859 129.5596504   7.9043046
  81.9146442 129.3014812   9.1244546   9.7779017  89.1742325  88.7913418
  10.2893477  88.5466290  88.2806969   9.7470122  88.7984943  89.6711731
  11.4633494  88.7097549  20.7150976  10.6339007  88.5260296  21.1561052
  11.8850260  89.3710518  21.2638322  15.2645808 131.8183517  24.2501870
  15.6169539 131.2305546  23.5819379  15.8657199 132.5632286  24.2550508
   4.3972807 100.8627224  91.9731426   3.7475043 100.8722973  91.2703419
   4.4893866  99.9377537  92.2015858  93.4183598  92.0436764  86.7927170
  92.7353477  91.4014053  86.5998459  93.8591576  92.1835423  85.9546375
 121.2349033 102.6163864  87.4205208 120.7303524 101.8654919  87.7332783
 121.0172367 102.6806355  86.4906120  10.0620299  92.3517799 105.3625870
  10.3413802  93.2656765 105.3079605   9.1117983  92.3847675 105.2521038
  93.2277775  67.5513697  91.0655022  92.8635788  67.4351931  90.1879501
  93.8989067  66.8727303  91.1380577   5.1974516  59.9338961 100.9376526
   5.4074603  60.4542828 100.1622009   4.7954302  60.5572033 101.5427113
 106.0133743  72.6195431  27.2739259 106.6363811  72.4257421  27.9743043
 105.4268932  71.8631983  27.2589914   5.5412512  95.1258183  91.9089603
   4.7813445  94.6625614  91.5565968   6.2511759  94.9183464  91.3013458
   6.3746291  70.6106472  12.9442922   6.1142951  71.3703251  13.4651986
   5.7671671  70.6079197  12.2045556 114.9258995  53.5316801  96.2747288
 115.1822662  54.4378614  96.1034298 114.0083694  53.5886765  96.5414333
 108.1731796  97.7783966  33.4819555 108.9155674  97.9759884  34.0529585
 107.8700447  96.9181347  33.7722611   6.6301280  39.2955375  88.9945412
   7.4243098  38.8016844  88.7905407   6.7212325  39.5241475  89.9195671
 121.5855026  52.9766798  54.1192762 121.6084194  53.7627888  54.6649305
 122.0844078  53.2132244  53.3373777  75.6324387  86.0125828  90.3351116
  76.4277267  86.4067173  89.9767780  75.9483290  85.3094387  90.9025955
 117.1259689  82.5273132 107.3865509 117.6037407  83.3365345 107.2044945
 116.3026237  82.8183079 107.7785397 104.2161179  63.1255054 105.6900215
 104.9421787  63.1828642 105.0689220 104.2538834  62.2279215 106.0204029
 113.3582306  61.3801146  92.2387028 113.9412212  60.6223440  92.2850037
 113.4896564  61.8346167  93.0708027   5.5055552  94.8663998   1.0891191
   5.0759345  95.2042580   1.8749372   5.7813483  95.6488705   0.6117288
 106.3222599  96.3214684   0.2463094 106.6334057  95.8468151   1.0171071
 105.9230804  95.6481361  -0.3046187 111.7412758  83.1676197  13.5940496
 111.0677338  82.6414204  14.0249673 111.4812469  84.0734482  13.7617055
 109.4758511  27.0319414  98.8732624 110.3247833  26.6384363  99.0750122
 108.9025784  26.2864089  98.6950111  99.8494339  31.4935970  75.5000782
  99.4319439  32.3527789  75.5612659  99.8708344  31.3039589  74.5620918
  96.8103313  93.2387447  81.0912991  96.5075207  94.1251183  81.2884903
  96.2343693  92.9398727  80.3876209  30.9108573  98.1033421 103.4508896
  30.7131796  97.1965694 103.6852646  31.3877135  98.4474373 104.2061615
  26.7696314  67.5410795  98.7201500  27.2819548  67.2003984  97.9868793
  26.4852172  66.7610502  99.1964912  27.2621661 101.8614101 106.0681438
  26.5818911 101.2031746 105.9260654  27.1018820 102.5210285 105.3932858
   7.3118525  86.9474125   2.5844137   7.0497923  87.8209305   2.2936765
   6.5203124  86.4170265   2.4928991 102.3681545  83.5403919  97.6582718
 102.3676300  82.8354836  98.3058357 103.2877254  83.6377811  97.4110031
 101.7930889  62.7207708  85.5595398 101.5903568  62.1848059  86.3262749
 101.4893532  63.5978794  85.7933426  96.9544983  32.6934934  67.7474213
  96.7283058  33.4754801  68.2509756  97.8344631  32.4629974  68.0453539
   9.2822009  74.5102739  21.1360589  10.0689440  74.9736643  21.4233533
   8.5694342  74.9236393  21.6232053   6.0192710  94.2995739  86.7795467
   6.0402423  93.9325047  87.6633263   5.1208430  94.1563511  86.4819813
  56.9870472  81.1288071   3.5801069  56.2727976  81.7550182   3.6981622
  57.2657633  80.9128284   4.4699994 109.0750122 130.3473568  84.5584774
 108.9946270 131.0328102  83.8952160 108.7503815 129.5571041  84.1267872
 110.8915615  85.6722736  14.1951410 110.7832813  86.3115978  13.4910337
 109.9978638  85.4396057  14.4469301  77.0253372  74.2429447  37.0899049
  76.5582609  73.5470104  37.5522271  76.3557100  74.6634007  36.5504209
 123.2791710 105.4761219  97.5662804 123.8817596 106.1166763  97.9441833
 123.8062859 105.0015354  96.9235229  24.1069537  90.7799911  15.8903161
  24.5448618  90.8317184  16.7398969  24.5925742  91.3882065  15.3331128
  80.7135773  97.9735756 100.7060909  80.2960014  97.3762035 100.0855923
  81.6496372  97.7934647 100.6190300 123.5158539  86.1253166 105.8472443
 122.6029205  85.9757233 106.0930061 123.4870148  86.2837601 104.9036884
  72.9871941  68.6885118 102.2330189  73.6287832  68.1613159 101.7569256
  72.2462559  68.7645960 101.6318035  27.5483828  60.8943415  99.4665527
  27.0715552  60.0654364  99.5087051  26.8714171  61.5649557  99.5572758
 108.5717201  74.7581816   0.2534143 108.5685921  75.5294561   0.8202974
 109.4976997  74.5994043   0.0701371 105.9177017  83.5585117  72.8175783
 106.7820358  83.9283943  72.6376915 105.7380390  82.9931736  72.0663452
 106.4204407  69.7168779  99.7543335 106.5188408  68.9436769 100.3099632
 105.6782436  69.5106363  99.1861534  12.7620917  81.0117149   9.3890992
  13.1785613  81.5698051  10.0458471  11.9117289  81.4216995   9.2308656
  65.8307886 111.2286854 103.5650158  66.5625286 111.4451027 102.9871273
  65.3861380 110.5030060 103.1269455 118.5341263  89.2807102  86.9797897
 119.2582226  88.7006855  86.7442513 117.9497242  89.2540550  86.2221622
  95.6386185  93.7762928  60.6103897  95.8462238  93.4929180  59.7199774
  96.0650730  93.1298923  61.1730099  93.4296417 107.3836422  88.0197811
  93.9057350 107.8156567  87.3106003  94.0522385 107.3597145  88.7464428
  98.9606667  70.8869076 106.8119621  98.9993095  70.3779221 106.0022259
  98.6647415  71.7542934 106.5357399  88.9785862  83.7136459 103.7075615
  88.3577442  84.3147659 104.1191864  88.8592625  83.8523960 102.7680111
  11.4167338  95.3309822  50.9652424  11.1385375  94.9381161  51.7925835
  11.7679720  96.1864090  51.2124538 114.3220806  85.9321213  95.6675720
 114.1987514  85.8163071  94.7254467 115.2593327  85.7947350  95.8051109
  77.1468019  95.6016254  93.9509296  77.2649145  95.5108166  93.0053997
  78.0274582  95.7671165  94.2875099  90.0972939  79.9849224  11.6561166
  90.4472256  79.2598581  11.1383668  90.5911446  80.7500267  11.3612310
  67.0422077  49.4898748 101.0407066  67.9381371  49.2751837 101.3004112
  67.0224810  50.4465771 101.0168743 101.1741257  66.4635468  11.3332025
 101.0569954  67.2944736  11.7937032 101.2457657  65.8114386  12.0302335
 101.2323570 110.9201813  99.5179749 101.6070938 111.7913628  99.6478367
 100.3433037 110.9875393  99.8662186 115.1285934  62.1081066  63.9586544
 114.6020985  62.9072332  63.9378786 116.0227299  62.4142551  64.1103554
  10.9532481  90.8681393  97.5890732  10.1572257  91.1484623  98.0407333
  10.7266265  90.9040546  96.6597748  81.2838840  85.3302193  24.4109956
  81.2989616  85.8628273  23.6158029  81.7366219  84.5228767  24.1671411
 114.4382858  63.3053589  56.2548399 114.9022675  63.6451292  55.4896545
 113.5132790  63.3476639  56.0123348   5.2995806  65.2951956  10.9696142
   5.6989127  64.4930696  10.6329290   5.1202326  65.1052094  11.8904630
 111.5145111  73.7984037   1.6175596 112.2244358  74.4183969   1.4507047
 111.5828037  73.1594944   0.9080736  89.3087482  66.8224525  69.8568344
  89.8361588  66.3294649  70.4853439  88.8945389  66.1519003  69.3136787
 110.7752895  44.3066788  31.6863767 111.7299080  44.3091631  31.7567102
 110.5128765  45.1864052  31.9574014 114.1364574  72.1138811  12.3196355
 113.6126518  71.7911911  13.0529348 113.8827991  71.5593767  11.5817872
 121.8623829  86.2137985  69.9479103 121.7173481  85.4328346  69.4137907
 122.4049568  86.7811680  69.4002390 108.5795212  81.9642067  68.4511137
 108.7777042  81.0280609  68.4754181 109.1030788  82.3383427  69.1597366
 120.4520512  77.6876593  89.6065617 119.7621250  77.3051786  89.0644073
 120.8687115  78.3375931  89.0406990   8.1839781 138.6469173  75.2385044
   7.9870253 138.3712196  74.3432808   7.3407488 138.6138916  75.6902838
  92.4324226  67.7618074  88.2607269  91.8082809  68.4841490  88.3307362
  93.2669640  68.1850529  88.0591393 105.8205986  60.2247143   6.2399331
 106.0537243  59.4915915   6.8095151 104.9804020  59.9726248   5.8568517
 112.8360176  96.8924809  64.1378689 112.1927071  97.5977612  64.2083406
 113.6811733  97.3267651  64.2533302 104.6501160  77.2255850  94.0892410
 104.3562889  77.6754141  93.2970619 105.6019211  77.3269272  94.0831566
 120.0076675 116.2788105  19.1936532 120.5756569 116.0172272  19.9183599
 119.7047806 117.1552467  19.4310514  13.0868464 117.2278786  12.6839868
  12.1851473 116.9428253  12.8319970  13.5786372 116.8569279  13.4166375
  70.1777887  92.5118256 108.5626507  70.8101702  91.9388676 108.1290054
  69.4027138  92.4809647 108.0018139 119.1910267  79.2101574  94.8810291
 118.8841820  78.3928537  94.4884777 118.4603214  79.8183870  94.7698784
 103.1389999  61.5239859 100.5796528 103.7647057  61.2295580  99.9178123
 103.5242939  62.3254776 100.9337521  14.9665099  86.9922447  47.7471018
  14.8773795  87.3616409  48.6256456  14.0958052  86.6523933  47.5407028
  63.9755011  82.5672340  88.9972210  63.5894823  83.1760311  88.3674717
  63.3612967  82.5606060  89.7313499 119.2016220  91.4447212 102.5550175
 119.6434879  90.8911037 103.1988335 118.2691383  91.3187981 102.7306175
 100.8308125  47.4281788   4.3495122 100.4747677  47.0567131   5.1566545
 101.7642021  47.2182941   4.3806020  12.3711901 106.2792683 103.3984280
  12.9344397 106.5766525 104.1129494  11.5150958 106.6602421 103.5938549
 114.3380737  70.0639963  99.4826603 114.0400314  70.8634806  99.0487957
 114.8644066  70.3734922 100.2198315  12.9604083  78.2224560  51.6476250
  13.0930548  79.0543509  51.1931086  12.2033434  77.8300142  51.2128067
   3.5924082  84.9425316 105.6975269   2.9603510  85.4144478 106.2397766
   3.3470183  84.0219402 105.7898903 124.8337078  37.6097131  99.0908623
 124.1473866  36.9525838  98.9752007 124.8177147  38.1180310  98.2799435
  91.5091038  75.5822134   3.1543485  91.2508297  75.8662033   4.0312043
  92.4467087  75.7693291   3.1084577 116.6248035  67.3593140 104.0406704
 116.7404079  67.7311659 103.1662560 115.7195568  67.5675535 104.2717361
 106.1361217  75.7763767  69.5354271 106.5308762  76.0732889  68.7155247
 105.2615738  76.1654806  69.5348883 119.8822975 110.9327984   4.0156976
 119.5210266 111.2327290   3.1815759 119.7807407 109.9812889   3.9923993
 110.2583218 101.5867805   1.8515531 110.3433418 101.8235493   0.9279958
 109.4468784 102.0091248   2.1333638 110.3659344  96.6487122  76.2952328
 110.6621742  95.7385254  76.3016415 109.4626141  96.6043854  75.9817457
  92.5917244  88.9290810  13.7389509  92.5279522  89.8226261  13.4016839
  93.4660625  88.6374187  13.4806863  94.7364044  38.7458467  80.4357815
  93.9515495  38.4821606  79.9554777  95.0034237  37.9579949  80.9092999
 124.5882702 108.5994911 109.0764809 125.2342415 107.9094982 109.2276669
 124.2378330 108.7941265 109.9457073 120.3691673 110.8500195   0.6586782
 120.8908653 110.3198338   1.2611333 120.9902096 111.4819622   0.2964727
   8.4503966  63.9223051  61.6206360   7.8813296  63.2241440  61.2966585
   9.3379813  63.5975504  61.4690685 105.3392506  96.1122513  63.5489988
 105.0750160  96.5449429  62.7370977 104.7452927  96.4639568  64.2121267
  86.4043617 102.4495316  83.7063980  86.3123703 103.3986950  83.6235428
  86.2271500 102.2714424  84.6300411  16.0534983  80.1182270  99.2902851
  16.5497809  80.6497669  99.9127007  16.3088923  79.2171288  99.4878292
  98.1681061  88.0253696  96.0128021  98.6870480  87.2583675  95.7706451
  98.7362671  88.5230350  96.6008091 115.6940460 106.5424442 104.1533375
 115.0359631 106.5826797 104.8472691 116.1319733 107.3928356 104.1889477
   7.4012595  49.8423719  78.2300520   7.8343039  50.6417608  77.9305649
   6.4748889  49.9845076  78.0354691 117.3125172  80.8695984  10.1030580
 116.7044544  81.2318325   9.4586316 117.3798466  81.5469551  10.7760278
 110.9825134 100.2036572  95.5615711 110.4886913 100.9852219  95.3135109
 110.4858208  99.8270607  96.2880039   6.9351893  49.6834230  94.7288322
   7.8467589  49.7347975  94.4413853   6.4881354  50.3679228  94.2310047
 104.9339867  57.4488878  15.1530496 104.1205215  57.7685738  14.7627965
 105.6132030  57.6921415  14.5239869 119.9781990  78.3963728  61.4059067
 119.7858047  78.7618732  62.2694063 119.1362572  78.4017181  60.9505558
 111.6539764  73.2508898  67.2020578 112.0338440  73.4020090  68.0675602
 111.6548634  72.2988319  67.1030092 113.6644363  93.6600494 105.9140110
 113.2734203  93.4581852 105.0639534 112.9169273  93.8303089 106.4871311
   7.0228415  84.7303104   5.3530065   7.1635180  83.8742733   4.9484865
   7.1559458  85.3563404   4.6412507 106.7838669  74.4593096  95.0739956
 106.3734245  74.1110086  95.8654785 106.1029720  74.3975544  94.4040680
 123.5739613  84.6706963  82.2796726 124.1375542  84.9515915  83.0005741
 123.8156891  83.7569046  82.1287346   2.1201735  51.4400864 105.9156227
   2.7803546  51.9718313 106.3601875   2.5968962  50.6646967 105.6194210
 124.6835232 106.4805889  94.4834423 124.3883133 106.1950588  93.6188316
 123.8849545 106.5143585  95.0101185   3.9635020  92.3406601  91.4461327
   3.4639197  91.7066669  90.9316349   3.8142043  92.0819378  92.3555279
  85.8414078  71.2196779 109.5994377  85.3209305  71.9196320 109.2052269
  86.7488766  71.5003014 109.4811535  24.0374594  55.8672905   0.3281728
  24.4054633  55.0084209   0.1204530  24.4091063  56.4529943  -0.3314170
  17.1145373  80.2855110   1.6256181  17.1384364  79.8622990   0.7673875
  16.5393096  79.7293282   2.1509878  86.4251804  87.5243378  10.1300470
  87.2223568  88.0536461  10.1061956  85.9728432  87.8082561  10.9244100
 101.4166927  71.7306519  93.9485836 101.6529560  72.0977640  93.0967426
 100.8036137  71.0247517  93.7434673 118.2487297  92.5643063  76.0425663
 118.4150696  92.5943184  75.1004076 119.1189766  92.5901127  76.4403677
  25.3374701  94.2134666  94.3245602  25.3512126  93.2988262  94.0426350
  24.4271498  94.3738079  94.5732307  92.1128750  75.8706999  71.8271017
  92.9529572  75.4738569  72.0573282  91.5467072  75.1280308  71.6170502
  15.0528842  50.1159954  80.6703091  15.2896147  50.6876230  79.9399424
  15.8811503  49.9443483  81.1183357  29.6402007  74.7977209   1.7567865
  29.7767859  73.8620853   1.9056646  28.6892539  74.9061060   1.7704145
 102.7869892  50.5855560  62.9129696 102.1498108  50.0575066  62.4319363
 102.5877762  51.4878130  62.6630020 120.5727482  39.9768066  68.3095503
 119.7756863  39.9591279  68.8392782 121.2813473  39.8402548  68.9384174
 122.0817947  34.6406126  64.9833584 121.5062809  33.8769650  65.0264120
 121.4854050  35.3869343  64.9237394  94.8804188 137.6484871  74.4771481
  94.8123264 138.4476566  74.9995708  94.0486908 137.5987339  74.0059996
 117.5089836 104.1447449  68.9600563 117.6958656 103.9032745  69.8672485
 118.2931709 104.6106148  68.6698008 119.8135185  96.3241005  90.2279663
 120.0039482  96.5027714  91.1488533 120.6699753  96.3309574  89.8005676
  87.8619766  76.8181658  85.7827950  87.1057606  76.5705633  85.2507496
  88.6164570  76.6576052  85.2160454  32.0920878  73.0445147  97.0556831
  32.6183444  73.8439655  97.0686626  32.2349291  72.6778793  96.1830997
 120.0740147  60.3790092  72.2112083 119.3887138  59.9830389  72.7495432
 119.6595669  60.5174160  71.3595533  85.5973911  89.9725151  69.8966217
  85.7455349  89.0856647  70.2249289  85.0167847  90.3734779  70.5434275
   7.4351340 106.4215088  65.2114058   7.5508814 106.1685562  66.1272907
   7.3144942 107.3706913  65.2384853 108.3897591  63.6014938  61.9742537
 109.1729927  63.5929060  62.5244331 108.6034203  63.0203247  61.2443113
 104.5252609  50.7170391  99.8775673 105.3458977  50.8065796  99.3930340
 104.7127914  51.0926819 100.7377720   4.7280341  77.8818369 105.6848621
   4.6358710  77.8370237 104.7331619   4.7063857  78.8178921 105.8837795
  18.3473807  98.0310249  55.9970522  17.7240210  98.4818649  55.4274940
  19.0304022  98.6800575  56.1657953  26.1366397  54.2241096  80.1821899
  25.7849913  53.3338404  80.1812935  26.0356837  54.5205879  81.0867023
 102.8273964  37.8122234 101.7093849 102.2270107  37.9730988 100.9814453
 103.4836864  38.5051489 101.6361618   3.9110785 116.0177040  84.7539806
   4.0384894 116.9200706  85.0467873   4.5751982 115.8896542  84.0766525
  98.6887360  79.5237684  87.7965164  98.6622143  78.8074827  88.4309196
  98.2450676  80.2493191  88.2357883  15.8646517  69.0499640 102.5207996
  15.0004607  69.2770004 102.1774769  16.1353617  69.8220062 103.0176926
  97.9430199  55.5794764  71.2806225  98.4439468  55.0072813  71.8619108
  98.0032253  55.1606226  70.4220343  96.2233448  68.5473537  53.7652874
  96.7928886  68.2622004  53.0507660  95.4005051  68.0816174  53.6161232
 121.6365814  57.7757978 104.0376568 122.5092697  58.1588078 103.9484215
 121.5558624  57.5785398 104.9708271   2.5340872  82.2235489  87.7896690
   2.1076708  82.8952503  87.2574806   2.7340727  81.5199852  87.1722221
  45.2567416  64.4058323 104.6700382  46.1284762  64.1867924 104.3409252
  45.3992396  65.1597404 105.2423477  10.8188086  69.4162226  79.1984415
  11.5092497  69.2978954  79.8507643  10.7625895  70.3642082  79.0784454
  13.4116583  72.5022554  88.7536430  13.5781222  72.9977512  89.5555210
  13.4672003  73.1531477  88.0540085 118.4703350  65.3082085  81.9222069
 117.6471043  64.9446869  81.5960598 118.4477711  65.1441336  82.8649712
  28.1270629  81.0665894  66.3376760  28.0165892  80.1502991  66.5915251
  29.0123301  81.2897491  66.6253090   1.6784506  41.5001249  55.4026794
   1.5918284  41.1055136  56.2704420   1.1837512  40.9190655  54.8248672
  24.6251612  93.2538605 107.6222801  24.3547755  93.3438873 106.7084885
  25.2720194  92.5483799 107.6122761 107.8740597 100.7300186  82.0804501
 108.0885696 101.6573715  82.1816349 108.2867622 100.4774475  81.2545490
   2.0122080  89.6560287  82.6268578   1.7930251  89.1339588  81.8550873
   2.3594122  89.0219402  83.2542419 108.5339642  93.3762360  89.7961998
 108.0369473  94.0144157  90.3079891 108.5073853  92.5758362  90.3205013
  10.6393366  85.6690884  85.9548378  11.2744456  84.9658680  85.8193684
   9.9477988  85.2689838  86.4820194  25.8702307  73.0285740  96.5098476
  25.3323680  72.6176357  97.1866512  26.7383032  73.1031227  96.9062328
  99.9568653  81.0347557  50.2407217 100.0308990  80.9520435  49.2899799
  99.2965126  81.7152786  50.3712463  10.9571200  97.4642563   1.0423509
  10.1736670  97.2668648   1.5556375  11.6293459  97.6571083   1.6959134
   9.7737055  88.7142181  91.6061211  10.4206210  88.0117512  91.6715527
   9.9265223  89.2535782  92.3819828   5.7625895  91.4169216  83.4331989
   5.7405596  91.3977718  84.3899536   5.9647399  92.3270702  83.2164383
   5.6197482  78.1395340  35.7358551   6.1570674  78.9009285  35.9544635
   4.8709231  78.1964779  36.3293624   3.9031821  96.7002678   2.2051183
   3.4373789  97.0115757   1.4290086   3.3009844  96.8692398   2.9297105
   4.8452788  60.3435278  70.0131845   5.4821616  60.9800911  70.3378344
   4.7793799  59.6928549  70.7121181   3.2966261 122.7136421  64.7140360
   4.0206271 123.2979584  64.9390268   2.5283843 123.1179333  65.1172495
  84.4841766  72.8303814 105.0292206  84.4649506  71.8772411 105.1151752
  83.5638618  73.0920219 105.0574303  10.1270705  38.3780122  69.3958521
   9.5807677  39.0467000  69.8089314  10.5986147  38.8460708  68.7067890
  20.7743388  33.1209278  78.4045076  20.9978610  33.7753344  77.7426767
  20.4234629  33.6296821  79.1354561  18.4264498  61.6576290  89.3794155
  18.2967501  62.1779537  88.5865211  18.0939036  62.2110081  90.0861073
   2.1112567 103.4824467 105.1122475   1.7583781 102.8349018 105.7224941
   3.0016738 103.6448193 105.4237461 106.0731602  62.1626282  94.3219376
 106.2977219  61.7437363  93.4910774 105.2725315  62.6526070  94.1344547
  16.1289054  87.6007557  55.8967972  16.7865687  87.5938606  56.5922546
  15.8464747  86.6889858  55.8251905   6.1139517 118.5120678  79.3314171
   5.3537303 118.7890339  79.8428631   6.4987116 117.7990818  79.8411751
  36.4956790  79.4678593  72.2761488  37.3097544  79.0605545  71.9801378
  36.6198092  79.5952749  73.2166767  99.6199036  74.1448736 104.1104317
 100.0310516  74.9842215 103.9038372  98.9292336  74.0486574 103.4547329
 117.1684647  57.5765610  92.2246552 116.5619183  58.0282068  92.8114700
 117.4333286  58.2452631  91.5930653 114.5729637  65.5162525  86.9658947
 113.9896488  66.2745142  86.9342327 115.4200745  65.8533955  86.6743946
 118.1782341  94.7128487  85.2590275 118.5449314  95.5039787  85.6538486
 117.9685497  94.9685383  84.3607616  91.2724876  67.9353714  75.6285048
  90.8031654  68.5980558  75.1217413  91.8200302  68.4382629  76.2314367
 115.0004482  77.0166016  68.9230061 115.5575466  76.3039207  68.6100292
 115.2056599  77.0893669  69.8551130  19.5752841  88.3387852  87.7516270
  20.0706988  87.5358963  87.9133701  20.1211577  88.8389301  87.1449089
 123.3058167  88.5363388  90.7392216 124.2463970  88.5821056  90.9108162
 123.2397747  88.4499454  89.7882175 124.5342636  82.5094700   3.2880918
 124.8473835  82.5726700   2.3857633 124.6722698  81.5925980   3.5258428
 106.1676598  98.5179138  99.5980549 107.0693207  98.3171749  99.8489380
 105.8431625  99.0808773 100.3009033  16.8822604  54.5903540  79.2394733
  17.2978526  55.0839329  78.5324383  16.3349944  55.2330732  79.6907330
 108.5433865  99.3807507  20.1638261 108.5998249 100.1505566  19.5977537
 109.2837906  98.8345242  19.8998491  95.1571083  95.7726097  78.6987734
  95.8219624  95.3203297  78.1795025  94.9110889  96.5291023  78.1663895
   7.1552115  60.8235550   2.1567670   7.1324950  61.5928268   1.5876142
   6.7314940  61.1112928   2.9654065  95.0742245  95.9508801  69.1940641
  95.6054306  95.9395218  69.9902630  95.3588867  96.7366409  68.7274027
 108.3204556  82.4346542   9.0692750 107.9505157  82.1167278   9.8928586
 109.2354107  82.6256943   9.2756311  21.6918974  99.0270329  73.4640980
  21.5547305  99.6908760  72.7882814  21.6822749  98.1960869  72.9890537
   5.4537707  95.2869892  77.8257799   5.0536280  94.5301819  77.3975658
   4.7121268  95.8213425  78.1097889 118.7052059 102.3408127  59.0645981
 118.3245468 102.2659779  58.1895399 118.4413528 103.2098007  59.3670511
   8.7599402  78.0119991  64.5211172   8.9165240  78.4906530  65.3351259
   7.9033309  78.3187342  64.2238808 111.4412212 101.4891338  76.1862612
 110.5219460 101.7536068  76.2211418 111.4717484 100.8183479  75.5040979
 108.5887432  75.5659580 106.8995476 109.0912724  76.0915041 107.5220490
 107.9477882  76.1756611 106.5339470 110.0057983  85.0120640  89.4690990
 110.6412315  84.3598366  89.1740608 109.4294167  85.1426411  88.7161160
  18.2500010 112.7945614  91.8444061  18.0071002 113.2847977  91.0589790
  18.2283717 111.8776035  91.5706539 118.8493347  93.2478142  88.1769085
 118.2126904  93.7842178  88.6493301 118.6337662  92.3481560  88.4226036
 109.3967819  74.4919443  96.0653114 108.5026264  74.4686460  95.7244682
 109.9003696  74.9407101  95.3861618  21.2685137  55.9778786  86.5642834
  21.3155680  55.1051712  86.1738968  20.4286891  56.3281631  86.2672520
   3.2765799  53.5116434  60.9355545   3.4046107  53.1062937  60.0779247
   3.1685000  52.7736902  61.5355253 124.9233532  51.0181189  71.4027834
 124.2407036  50.4251528  71.7168188 124.4945621  51.8725109  71.3539076
  16.3835650 117.0907593  58.2077456  16.4244967 118.0212593  58.4285069
  16.2600737 116.6503143  59.0485716  39.0261012  70.9531355  95.6962204
  38.1248026  70.6433916  95.6070900  39.1915637  70.9405708  96.6389275
  11.6246443  58.8367605  93.8792801  11.5535861  59.7838783  93.7603283
  11.3597899  58.6888552  94.7871399  12.2098761 110.9453106  95.6510544
  11.5435343 110.2705193  95.7809925  12.1362143 111.1796570  94.7259140
 123.8047409  99.7210789 104.2017460 123.2943916 100.1668549 104.8778057
 123.2676888  98.9686871 103.9533329 117.0799065  67.2553015  95.4906940
 116.6645527  67.9293633  96.0286045 116.8319988  67.4784136  94.5934772
  11.9054061 114.9007225  73.8626957  12.6011973 114.8472500  73.2075214
  11.1039191 115.0153065  73.3520985 124.3068123  74.8877287  92.3580074
 124.1507149  75.3273201  93.1938457 123.7281036  75.3349018  91.7404556
   0.8134108 130.6672478  99.7955990   0.4702120 129.8583412  99.4159603
   1.6439372 130.4103088 100.1961422  13.4253436  85.9833813  88.1794643
  14.1316538  85.7882309  87.5636101  13.6705332  86.8237495  88.5666275
   4.5518427  43.9726162  80.7890701   4.8123007  44.4661951  80.0113964
   3.8353663  43.4133244  80.4889393 119.1193008  96.5212822  95.8868122
 118.4888744  96.2530136  96.5552616 119.5544434  95.7088852  95.6281757
  91.3519192  71.4279413  87.7654457  90.6874847  71.7042637  87.1342468
  91.4638996  72.1839571  88.3417511 122.5837612  74.4815111  15.9452764
 123.1629562  75.1937819  16.2162916 121.7125034  74.8771954  15.9214059
   4.7879916  39.2051220  86.8789959   5.3250342  39.3013310  87.6654911
   4.7270136  40.0906801  86.5208054  88.4511566  88.3897114  86.8119049
  87.7376747  87.7653217  86.9435024  89.1265297  88.1159592  87.4325180
  23.5930091  88.9942741  79.9273634  23.7856227  88.2386112  79.3722868
  23.3117991  89.6750355  79.3160439 100.5152512  80.5338478  91.3090897
 100.7800484  81.3559151  90.8963966  99.5703602  80.6220627  91.4340782
 105.6096554  65.5289650  59.5890951 106.0711575  64.7307777  59.8462725
 104.6951580  65.3606272  59.8162508 117.0055580 116.6221619  96.0961246
 117.4893761 115.8836746  95.7262802 116.7594051 116.3315392  96.9742966
  44.2646914  75.6672001  40.5389977  44.9365931  75.3534651  41.1442709
  43.7861186  74.8787975  40.2828074 114.4697666  78.1414747  73.6269569
 114.5192719  78.0355310  72.6769304 114.5682716  79.0830278  73.7684107
  94.3175030  37.2651076  96.3794422  93.4794426  37.2394705  96.8412209
  94.2727470  36.5356779  95.7612514 119.3929958 108.0842495   4.3876687
 119.9176311 107.4477768   3.9019815 118.5397434 108.0720329   3.9540330
 113.5375595 105.7294941  69.3714428 114.2958832 105.6386089  68.7944460
 112.9852200 106.3815212  68.9401484 105.5526543  82.4511623  70.2555847
 105.3787804  82.9565811  69.4615126 106.3785458  82.0013714  70.0771761
  65.0169563  79.6514273   1.4381639  64.7255993  80.4021740   0.9207383
  64.2671204  79.0564728   1.4402334  15.3021556 109.0404701  66.4368391
  15.2029830 108.1085873  66.6317606  14.4095927 109.3856812  66.4569044
  18.9192610  87.1803856  70.3923845  19.6204405  86.8611050  70.9603930
  19.2941981  87.1556854  69.5120239 120.1219749  83.9340687  12.5551549
 120.9579754  83.8554382  13.0146638 119.9944496  84.8768425  12.4495641
 125.0162220  58.0155325  95.5931282 124.3289661  57.3495245  95.5748463
 124.5467663  58.8408852  95.7141304  29.3716460 140.8605576  99.6197701
  29.3692713 139.9040222  99.6555042  30.2397471 141.1099148  99.9366951
  98.0989170  98.3491230  86.7796803  98.0805874  99.3054008  86.7418575
  98.6835861  98.1494999  87.5107956   5.4337817  71.7384720  64.8012781
   5.2516776  71.8735313  63.8713121   6.3890772  71.7169619  64.8576164
   9.0998393  79.8225594  98.3532238   8.5303336  79.9122858  99.1173172
   9.9759703  79.7041368  98.7200928   1.1710768  92.6321888  93.9353752
   1.9181567  92.0379734  94.0061855   0.4049712  92.0658875  94.0282345
 105.9843063  64.6286345  43.3625889 106.4795399  64.9782658  42.6218224
 106.2501907  65.1704407  44.1055489 104.8979855  69.6453524  70.8948851
 104.0353870  69.3190622  71.1511898 105.3075886  69.9116993  71.7179966
 123.8150692  61.0454464  73.6969948 124.5567417  61.4940739  73.2909250
 123.1673908  61.7354012  73.8408852  95.0846672  81.6411495 101.6268826
  94.6351814  82.1617508 102.2925949  95.5289745  80.9523106 102.1211815
 123.0310440  97.5748539  79.3467140 123.9158440  97.7794456  79.6492052
 122.8877735  98.1662750  78.6078501 117.8731060  65.2269363  50.4201508
 117.7067566  64.2910814  50.5330181 118.8230705  65.2911997  50.3218555
  89.3069553  75.2675343  93.9678288  88.4563351  75.6550074  94.1740894
  89.1919708  74.3326807  94.1382980 123.6811161  68.4742451 107.9380703
 122.7350044  68.6021280 107.8690434 123.8014793  68.0230141 108.7736130
 102.6841640 104.3980026  79.9846172 102.1099567 103.9798546  79.3429947
 103.3204365 103.7206554  80.2139282  17.6243907  84.1953278  66.9256067
  16.8092375  83.8681602  66.5451813  18.3129149  83.7137413  66.4670801
 118.4871769  84.1504955  70.5598927 119.1982174  84.1769981  71.2001657
 118.6866379  83.3915710  70.0117350  31.8093424  71.9475126  88.9252281
  31.0999613  71.6801500  88.3408260  31.9569998  72.8698921  88.7162971
 100.3807831  86.6913033 103.5142899 100.7018185  87.0012951 104.3610954
 100.6227875  87.3830795 102.8985691  40.9559565  78.0589914  98.0361843
  41.7708521  77.8020620  98.4676456  40.5350810  78.6557102  98.6550713
  13.2171374  33.8257217  62.4602699  13.4616118  34.0987706  63.3445215
  12.2942095  34.0670872  62.3816347  93.3216000  86.9338322 104.0559673
  92.7655315  86.4590454 103.4382248  93.5984612  87.7151775 103.5773373
 114.0972519  67.7196360 100.8458900 114.0882206  68.6338425 100.5623817
 114.9330711  67.6183462 101.3012886 105.9049225  80.6603813  92.7812290
 106.2957191  79.8035145  92.9523659 106.5533543  81.2875843  93.1012058
  11.8089514  87.6307774  48.1146002  11.2614947  87.7869606  47.3451042
  11.2672930  87.0883179  48.6878061 100.4253578  95.0683880  64.2158127
 100.1862144  94.7339249  63.3514214 101.3350964  94.7955894  64.3349123
 106.6189289 103.5201263   7.2192899 105.7167339 103.3567810   7.4942628
 106.7396450 102.9627609   6.4505235   9.3490916  92.3302841  29.4995522
   9.6457511  93.2343388  29.3950772   9.4329959  92.1575260  30.4372859
  11.7705851  45.0778055  86.2427044  10.9533148  45.0997734  86.7405224
  11.4995032  45.1936579  85.3320312  25.9971457 106.3571167  94.7319889
  25.3438597 105.9046173  94.1984272  26.3958579 105.6654644  95.2600765
 101.0867691  78.4956455 105.7994652 100.3294468  77.9120588 105.7534981
 101.7327785  78.0960321 105.2170467  93.0757332  36.1271620  42.9686499
  92.7465057  37.0252085  42.9319334  93.6048698  36.0334754  42.1765184
 124.5049858  55.6019640 100.5116367 123.7139034  56.0400915 100.8254051
 124.9748135  56.2773657 100.0224304  80.8959103  64.0076208  18.8760701
  81.4224052  63.2362890  19.0860120  80.5021763  63.8051081  18.0274240
  86.1248875  87.7424335  71.1837912  86.3838577  87.0859051  70.5371666
  86.0221195  87.2493935  71.9977808 120.9384823  87.8985119  85.1583385
 121.4049435  87.1063805  84.8915577 120.3695583  88.1028748  84.4161797
 111.9690323  87.4707890  24.1645288 112.0346546  88.3935738  23.9187479
 111.6965103  87.4860954  25.0819874  99.3898296  92.9606152  79.9744749
  98.6646748  93.1928158  80.5545330 100.0995541  92.7111816  80.5663395
 118.5653782  46.3894272  69.4335604 118.0885792  45.9930229  68.7043428
 117.9710865  47.0587969  69.7726679  21.9320422  70.7793236  64.0124941
  21.7739993  69.8354149  64.0295649  22.8183013  70.8800983  64.3598080
 113.0643463 104.6159744  60.7809353 112.4021053 104.7752762  61.4534712
 112.7310276 103.8650990  60.2896929  17.2953253  42.5176144 105.2592087
  16.5034037  42.2209024 104.8108292  16.9848471  42.8407288 106.1050510
 121.3727093  46.0697842  85.7638454 122.3277664  46.1195993  85.8041763
 121.1940384  45.2214241  85.3581429 118.9389515  87.6558685  92.8047371
 118.6587143  87.5992107  93.7182426 118.1230545  87.7026749  92.3063850
  87.8345203  98.0562782  77.1352243  87.4435043  97.8685856  76.2819290
  87.0905876  98.0948353  77.7363157  27.5671797 100.5276680  81.7257881
  27.0265036 100.9345436  81.0487652  28.0956393 101.2458134  82.0739746
   2.4039679  37.4419618  76.7494440   1.5197974  37.2070003  77.0310020
   2.5393324  36.9429994  75.9438753 104.7702503  77.2145891  43.9305496
 105.6124020  76.8756247  43.6270571 104.9867535  78.0391693  44.3657732
   5.6115466  76.0065651  14.3061677   5.5764609  76.8558311  14.7463266
   5.0817042  76.1234236  13.5175935 100.1905155  57.9100323   8.6463109
  99.3442631  57.7934647   9.0781728  99.9705029  58.2221174   7.7685682
   1.5577918  79.9367380  91.8534374   1.3393908  80.3039646  90.9968853
   1.6074305  80.6961441  92.4340153 103.4163094  97.5911617 100.8153343
 103.4532166  97.6370716  99.8599434 102.6416683  97.0600128 100.9998512
   1.9489508  95.1726818  99.0388775   2.6018649  95.6770706  98.5535526
   2.3688918  94.3272877  99.1975975 101.3809681  74.1336060  86.9991112
 101.0909271  73.5626745  86.2876797 102.1457005  74.5876646  86.6452026
  19.9318629  75.5730772  81.8108082  19.3106204  75.8771276  81.1491203
  19.4160395  75.5153847  82.6150703 109.5441341  54.3670273   6.6527311
 109.4654465  54.7084379   5.7619611 110.4868984  54.3383360   6.8158284
 117.8865051  42.4336624 100.0632477 118.0651474  43.1565666  99.4618130
 117.7830124  41.6698790  99.4956589   8.5270625  87.0614815  75.1168251
   7.7019339  87.2141838  74.6563101   9.1917163  87.0746517  74.4281292
  12.7353507  69.1447449  81.1429977  12.3711138  68.7403393  81.9304085
  13.6571150  69.2928553  81.3542938  99.2506313  62.5992775  83.0774689
  98.7758827  62.3905134  82.2729397  99.1078758  63.5373783  83.2032490
   2.9605609  80.2835751  18.4071580   2.3491793  80.9758568  18.1558076
   2.9067832  79.6463251  17.6949445 107.5893688  68.0912399  86.6220665
 107.5859928  67.2453356  86.1741161 106.8558598  68.0406284  87.2349644
   9.8573714  90.2087784  58.2432842  10.8054190  90.3404903  58.2336092
   9.4950610  91.0854340  58.3714914   1.9645720  53.2404518  92.0620346
   2.2969275  52.9056120  92.8948975   1.1529666  52.7546501  91.9153214
  15.8000212  67.9131174  79.8316526  15.2426558  67.3325109  80.3497982
  15.3581648  67.9764795  78.9849043 108.4069347  62.7929449  81.3840580
 107.8161526  62.7679586  82.1367741 109.2176533  63.1677866  81.7282295
 107.2810745  60.8978987  74.3751526 107.5146198  61.4804888  75.0978374
 106.8609715  61.4697313  73.7326956 121.7453003  75.9868336  42.9277372
 122.5590611  76.4893246  42.8886318 121.7387104  75.6097269  43.8074970
  22.7082949  66.7514801  50.6064081  22.9360037  67.6463413  50.3542137
  23.5362177  66.2728930  50.5648375 117.1609020  82.1939850  62.1716785
 116.5524960  81.9086075  61.4900351 117.9898548  82.3277283  61.7121363
  18.7903243  56.9415903  74.8178053  18.4198027  56.2856722  74.2272758
  19.6573573  57.1263695  74.4567823  92.5450516  65.3849983  69.3589544
  92.4241734  66.3081169  69.5813990  91.7832375  65.1662159  68.8222885
 118.3126163  68.0945635  66.0426283 118.2691956  68.7606430  66.7286968
 117.6537704  67.4476194  66.2948656   5.5383235  80.6187534  90.7306862
   6.4448672  80.7582951  90.4569435   5.1767951  80.0281429  90.0698376
 114.6147633  47.1717501  66.3920355 114.1789722  47.5875330  67.1359682
 114.5583820  47.8189898  65.6890869  17.2702723  84.9209499  43.8047028
  16.7894583  85.7037067  44.0736818  17.6008635  84.5499992  44.6228313
   1.5960055  78.4635782  33.2763362   1.3013487  78.8310194  34.1096401
   0.8057528  78.4282160  32.7373719 121.5020561  87.7563953  56.1809778
 121.3407135  88.4648323  55.5578327 122.3162270  87.3531818  55.8796787
  89.6154499  87.6641750   3.4993211  89.4312382  86.9968033   2.8383199
  88.8590813  87.6361179   4.0852777   7.7991324 114.8350620  62.8492069
   7.5415927 114.6300888  61.9503784   8.6639815 115.2365208  62.7649164
 117.7511978  74.9958372  73.3391428 117.3454952  75.5361891  74.0171194
 118.2920933  74.3712711  73.8224459  97.5502014  95.5685902  87.8584862
  98.1999588  95.0001526  88.2719326  97.7671528  96.4470196  88.1707668
   1.9346457  93.1578922  43.9747572   1.7189341  93.2324409  43.0451679
   1.8535071  94.0501213  44.3117666   7.3017912  81.2474251  52.5626183
   7.2039061  81.3374329  51.6146994   8.2442408  81.3189983  52.7139521
   7.8793746  91.6373825  66.6847754   7.2872000  90.9828472  66.3144445
   7.9972392  91.3659668  67.5950909 100.6394196  86.5108013  67.7713013
 101.1592865  86.6849804  68.5559225 101.1284065  86.9285965  67.0623732
 111.7981529  58.0317545   9.6078682 111.9905663  57.6809454   8.7383044
 111.5906048  58.9533901   9.4537753  87.8106213  48.2662916  84.5400143
  87.5428104  47.7123690  85.2732849  87.7999496  49.1551876  84.8949432
 105.8110332  84.9037933  82.8795242 106.3337994  85.6943989  82.7457809
 105.8742428  84.4315815  82.0493126  35.9125453  69.5880318  60.6264496
  35.8101779  69.6017790  59.6748400  36.8400698  69.3962383  60.7648230
  87.6405811 119.2339325  55.3489494  88.3306503 119.7587490  54.9432421
  87.8795242 119.1989422  56.2751913 115.0712299  44.3661404  60.9196758
 114.9970818  44.2159224  59.9772501 114.1917038  44.6297836  61.1901283
 117.2364616  72.7734804  35.4779792 117.2287941  73.7092257  35.2766085
 116.5036488  72.6524067  36.0817695 104.8346901  69.2300224  55.0178480
 104.2767334  68.4522629  55.0201797 104.6917343  69.6247721  54.1576338
 108.7785149  81.5192699  54.0565062 109.5214939  81.2314129  54.5869255
 109.1747665  82.0027065  53.3315897 114.3010712  68.5893297  73.3088493
 114.7572041  67.7798319  73.0788660 114.8563480  68.9965296  73.9737415
 105.1782513  35.4412651  71.2350130 105.8064938  35.3241920  70.5223846
 104.9355507  34.5508742  71.4890385  87.1916962 116.7134762  71.8005991
  87.1296787 116.7508888  72.7550554  87.8441906 117.3770905  71.5767860
  83.3113670  80.1853848  65.0430775  82.4948406  80.2809620  64.5527887
  83.4329796  79.2393684  65.1237249  91.9414616  94.0939808  60.2345085
  91.2686825  93.5067177  59.8899651  91.7781353  94.1183186  61.1773586
 101.9182777 126.8096542  57.2185135 101.5592575 126.0350895  56.7856216
 101.4117432 126.8886566  58.0268526 101.1494732  78.2851124  37.2966266
 100.4955864  77.6986361  37.6770401 101.2751770  78.9651537  37.9584241
 115.5696392  70.6993246  70.9313726 114.8493481  71.2526608  70.6293249
 116.1584663  71.3005018  71.3875532 109.7695732  77.0217276  51.7823315
 108.8799191  77.2326326  51.4990330 109.9377251  77.6209021  52.5096178
 111.3867378  74.6622801  62.2326517 111.2370777  74.1209555  63.0077648
 111.2267971  74.0736961  61.4949369 102.4589729 102.6477337  34.4895768
 102.1617413 102.5539112  33.5845447 102.1350861 103.5068512  34.7602034
   7.9842787  94.2616177  54.4493437   7.3825389  93.6305046  54.0545654
   7.4149066  94.9360085  54.8198128   3.1239825  99.2278671  46.8422174
   3.6984664  98.6266136  46.3681936   2.2570544  98.8261795  46.7847157
   5.3330165  82.0934963  35.3059316   4.6448927  81.4292622  35.2671742
   6.0750704  81.6461754  35.7127261   4.5349150 100.8510876  81.7916489
   4.9283438 100.8455849  80.9190559   4.9883204 101.5557480  82.2543716
  16.2233763  81.6976166  38.9174867  15.5050879  82.1066570  39.4001722
  16.5436965  81.0102940  39.5016241  36.4036875  44.7251606  50.1311016
  37.2082835  44.6438599  50.6432199  35.9560710  45.4831600  50.5070066
   8.5441237 108.8372993  56.6224718   8.2978755 107.9147720  56.5552187
   8.1442767 109.1329193  57.4403715   3.1933528  54.5224333  68.2920694
   4.1416388  54.6088266  68.3896065   2.8696375  55.4232359  68.2909298
  83.1060028  61.4037895  68.4165525  83.2433891  60.7480192  67.7329445
  82.1550369  61.4994669  68.4690285  65.8896542  94.1736317  79.8502302
  66.7508316  94.4638348  79.5495796  65.6063080  94.8555088  80.4593277
   3.9130812 106.3421822  63.5140038   3.1508189 105.9203815  63.9105749
   3.7992507 107.2728062  63.7069225   7.6969271  53.0653334  66.7269897
   8.5195189  52.7144814  67.0682573   7.0648985  52.9221916  67.4314642
 108.2234287  64.6355677  56.4186049 108.5742569  64.7728729  55.5386686
 108.4761906  63.7392998  56.6400719  90.2130318  68.1988287  67.4379301
  90.6770420  67.3717833  67.5680113  89.7860718  68.3685684  68.2776499
  17.4788409  85.4542923  17.8269148  17.5703078  84.7515869  17.1834409
  18.3784609  85.6934643  18.0498970  94.0648556  85.6738186  61.7677450
  93.4664822  85.1543617  61.2307692  93.6367416  85.7249069  62.6223421
  21.5457945  58.4276056  61.0237265  21.9183283  58.7661076  60.2095604
  22.3050910  58.1599236  61.5414524 112.4088287  82.4474430  54.6450138
 111.6182709  82.0006275  54.9476862 113.0833912  81.7683315  54.6469450
   8.6520510  42.5723696  84.3516350   8.6724597  43.4334373  84.7692204
   8.3525401  42.7459955  83.4592438   4.0151053  61.1414719  64.1943693
   4.3880015  60.3627062  63.7812042   4.2530184  61.0597992  65.1179266
  22.8492194  82.3161125  55.0873995  22.7146655  82.3113632  54.1397142
  23.6586218  81.8217945  55.2168703  98.4672832  49.6280575  55.6775141
  98.2823944  50.5355501  55.4356480  97.6052666  49.2169094  55.7417011
  46.3762408 100.3005886  74.0843105  46.4096003 101.2480640  74.2162323
  45.4561167 100.1174259  73.8944721  91.7689514 128.8481331  55.4839087
  91.0690403 129.1234779  54.8918486  92.3066235 129.6315193  55.5998373
   6.3517123  78.9833260  63.9424086   5.4062682  78.8537455  63.8678122
   6.4789897  79.9178791  63.7791777  10.4491263  96.5655136  65.5461359
  10.9977561  95.8622932  65.8935690   9.9165564  96.8441010  66.2911129
   9.6611624  57.3072958  54.9701118   8.7699252  56.9740629  54.8657846
  10.2031165  56.5219831  55.0462532 114.1748905  47.9041100 106.0632896
 114.3556213  48.3757544 106.8763828 113.6731529  48.5236311 105.5334949
 122.3167610 114.4909859  68.2237625 122.7299023 113.6543083  68.4370947
 122.9599762 115.1495075  68.4861708   9.9668246  86.4630604 105.5189705
   9.0949755  86.4248371 105.1257324  10.4027873  87.1844006 105.0652790
 113.3623791 100.9714508  49.7024488 113.4453106 100.6263733  50.5914211
 112.5197887 101.4256191  49.6994591 112.2653580 104.0557003  96.8248272
 112.1495533 104.1579723  95.8801746 112.9878521 104.6445656  97.0427036
 117.6364708  40.1072884  53.4119606 117.7272129  41.0433722  53.5901403
 116.7108440  39.9931049  53.1965637 103.3472729  47.9752636  73.0135012
 102.4876881  48.3563948  73.1926203 103.4852219  48.1244612  72.0781136
 110.8901215  74.6865606  99.5271301 110.5601215  75.3763247 100.1029396
 111.4447975  75.1459169  98.8965988 115.9354210  64.3848228  81.5191746
 115.5028343  64.8515558  82.2342014 115.2680492  64.3218660  80.8358860
 119.5371246 116.9315243  69.0182638 119.5208359 117.7087879  69.5766830
 118.9071941 116.3339329  69.4211245 103.2782269  66.8616581  88.5870838
 104.2289829  66.9138479  88.6849117 103.0758286  67.4770069  87.8823757
 100.1704407  59.2316580  99.4569874 100.6427097  58.4018087  99.5243263
  99.6100616  59.1266203  98.6881161  18.9312583  76.5542126  43.5485363
  18.4615355  77.2122192  44.0610027  19.8160964  76.5531015  43.9136314
  84.6223640  82.0386696  74.7603512  84.1650963  81.9676685  73.9224434
  83.9233303  82.0551491  75.4140472 106.5939713 120.1026726  76.7699671
 106.0797215 120.9085560  76.8183136 106.2833881 119.5758343  77.5063181
   2.7544242  72.4262381  78.5839081   2.9527503  73.3625031  78.6014462
   2.3207884  72.2575617  79.4204140  94.6507359  92.8874969  84.7105122
  94.6169376  93.6394978  85.3017616  95.5304146  92.9178905  84.3343735
 123.9088535  80.8402061  69.0868664 124.0083504  81.7046833  69.4856358
 123.1972694  80.4301167  69.5784998  24.2941409 101.7029190  91.4142323
  24.4444209 101.6733265  90.4693699  25.1717692 101.7072868  91.7963219
  13.6616641  96.9163513  67.2351170  14.3651324  96.5938473  67.7984667
  13.0754214  96.1668491  67.1311522   5.1727896  78.2362843  99.0875530
   5.2461367  79.1906404  99.0802288   4.9080210  78.0095673  98.1960773
 105.7331944  67.2095728  80.9200764 106.1126804  67.3794127  80.0578785
 106.3294983  66.5792656  81.3242722  16.4489012  91.1328983  63.3194494
  15.7460147  90.9484005  62.6964378  15.9959632  91.3465214  64.1351938
 112.6888466 134.2066765  20.2028418 112.5584602 134.6870708  21.0204291
 112.2286510 133.3779812  20.3359652 117.5504971  72.8014278  83.2661152
 118.0173111  73.2626343  82.5692558 117.6573944  71.8743610  83.0531502
  95.2631569  92.5844955  72.1424818  95.0211525  92.5214005  71.2185335
  95.2864838  93.5247517  72.3202944 104.4088364 108.7445354  51.5068054
 103.9715290 109.5809078  51.3471937 104.1112423 108.4809971  52.3775625
   5.6865912  55.1518536  68.8903236   6.1280566  55.4740429  69.6761560
   5.7518225  55.8742666  68.2657433 102.1807289  79.0186214  69.1623306
 102.8992748  79.3537474  69.6986294 101.4443779  79.5974636  69.3597078
  91.0763836  82.7530575  40.4093361  90.3052711  82.6514721  39.8514032
  90.7929802  82.4410725  41.2687445  22.8805953  55.3283787  81.6762638
  23.4091597  56.1203384  81.7744923  23.4394007  54.6249533  82.0066547
  38.0094653  40.0465059  51.0757160  37.3136454  40.6980753  51.1624718
  38.6633235  40.4672432  50.5174303  87.2045803  65.0131512  68.8513756
  86.6052151  64.2681932  68.8063145  87.6027203  65.0531769  67.9818249
 114.9383545  88.8428688  53.5801601 114.1239071  89.2944145  53.8015270
 115.2940178  88.5631371  54.4236565  17.6829177  36.6615057  94.9473572
  17.5655490  37.0692992  95.8053493  18.4628039  36.1154270  95.0463772
 104.5438957  99.6745110  74.5517826 104.3367290 100.0640202  75.4012489
 105.4925251  99.5482063  74.5711613  18.7985259  59.0820932  26.2162089
  19.4937926  59.5170784  26.7097831  18.7463694  58.2056904  26.5975618
 108.1233215  98.9217854  91.5637207 109.0216827  98.8158894  91.8767262
 107.7194977  99.5198345  92.1926022   3.7586051  40.6548595 107.0801926
   2.8950053  40.7595491 106.6808701   4.0465384  39.7849226 106.8035412
 119.3799305  91.7730331  42.6558161 119.1788387  92.2630024  41.8584871
 120.0926495  91.1862278  42.4029922  10.5070048  90.0269508  65.3868341
  10.9488326  89.3960381  64.8185301   9.6928530  90.2336216  64.9278355
 124.1471195 125.9008121  29.0990758 124.1606140 125.0571346  28.6471128
 123.5643291 125.7631779  29.8458314 116.9772720 119.9504852  50.5330849
 117.4523067 120.7776356  50.4531288 116.1094093 120.2022457  50.8487701
 104.8864079 102.5904942  36.1376762 105.0468731 101.8012619  35.6203961
 104.0696335 102.9451180  35.7864428 100.7155418  98.6678314  49.8087358
  99.9213409  98.4471703  50.2953482 101.4215374  98.5771179  50.4487228
  95.1415062  38.2851410  53.0358410  96.0910892  38.1900072  52.9618645
  94.8936749  38.8120437  52.2761154 112.6388931  80.5047798  57.3178005
 113.5239601  80.1506519  57.2313595 112.2015476  80.2580452  56.5028858
  98.2150555  59.6858406  67.3104095  98.4995937  59.5655060  66.4044380
  97.6024628  58.9670992  67.4665356 112.6408291  90.4457664  53.6681223
 112.6601791  91.3701344  53.4203529 112.2580147  90.4409122  54.5454216
 111.4151955  94.0179157  69.3211603 112.3168182  94.3251610  69.4155645
 110.9396172  94.4491673  70.0311518  81.9579506  91.8798733  63.8659048
  81.8974209  92.6862335  63.3536959  82.4375916  91.2732506  63.3018303
  42.6727610  90.3953743  51.6901636  41.9336634  89.7985458  51.5729046
  42.3005801  91.1511135  52.1446705  96.6220951  74.7731209  98.8080215
  96.8891430  74.3811607  97.9765892  95.6966400  74.5443916  98.8943481
   2.8782015  94.6803761  89.9922085   1.9351130  94.6500778  90.1531315
   3.2444125  94.0297604  90.5912209 121.7072964  58.0678225  72.6399517
 121.3034344  58.9354181  72.6199102 122.4659061  58.1433344  72.0611191
 119.9713039  83.7937546 100.7285023 120.7059193  83.5590076 101.2954903
 119.2077637  83.3995247 101.1502075 119.0312958  54.6144581  45.2428246
 119.9243927  54.7028732  44.9099779 118.9236450  55.3551292  45.8395243
  32.4267703  71.5929413  81.6765976  32.3950987  71.0978031  82.4951744
  33.1497603  72.2086096  81.7969036 102.0785999  46.0725021  68.4585047
 102.9128838  45.8651686  68.8794708 101.6230869  46.6286087  69.0905523
 113.4207344  54.6182299  68.2892132 112.6119900  54.7558784  68.7823915
 113.1664658  54.7373819  67.3741293 123.2476997  78.4499836  28.2579780
 122.7353859  78.2131386  27.4848890 123.1846428  77.6854992  28.8305306
 113.1135845  38.7970328  95.1140690 113.4449291  39.5696187  95.5718327
 112.2634125  38.6250567  95.5188656 120.8393955  65.3426456  50.0683594
 121.2762642  64.5688295  50.4241467 120.3247929  65.0102329  49.3328857
 124.5255280  55.5915833  68.2601833 125.2172184  56.2523842  68.2939196
 123.7132549  56.0967159  68.2243109 103.7618446  85.5235863  35.7202578
 104.2665291  84.9196434  36.2650299 103.3104992  84.9595547  35.0922585
   5.9631663  55.1296663  97.3269463   5.6047469  55.9906006  97.1111488
   5.2683001  54.5149994  97.0911884  10.5143862  75.0338984  86.7687511
  10.7875472  74.1167927  86.7918777  10.0981932  75.1813316  87.6180363
 123.8767624  42.8433418  76.8189573 124.2932796  42.0361996  77.1210670
 123.0093670  42.8312254  77.2235870 104.8355198 100.9329224  57.6234055
 105.0800896 100.2905178  56.9572735 104.4679356 101.6643333  57.1272659
  11.4050704  81.0213184  83.0871391  10.8037882  81.5772343  82.5915051
  11.1757498  81.1776161  84.0032196  98.8009930  36.6462731   1.9005433
  99.0321922  36.9758534   2.7689687  98.5992432  37.4318027   1.3921396
 106.3310623 101.1564827  38.0126309 105.9284496 101.9239998  37.6063681
 107.1570206 101.0422230  37.5425649 115.0721359  53.8013029  52.7352953
 114.9849319  52.8524303  52.8262568 116.0131836  53.9471436  52.6383972
 105.1894951 102.6384354  63.8467884 105.1845551 103.3509254  64.4859791
 105.4839611 103.0483437  63.0334663   0.7664710  93.5997581  67.6910353
   0.4943114  94.0316105  68.5007668   1.6900855  93.8318634  67.5945520
  99.7604465  71.9251585  22.5285482 100.6636429  72.1033430  22.2663999
  99.7828197  71.0325289  22.8734374   2.0160132  84.2677021  81.5571404
   2.8622180  84.6396923  81.3085842   1.5983515  84.9514580  82.0808601
 101.3084126 101.6984653  50.1205635 101.1320305 100.9334564  49.5729446
 101.3743019 101.3472843  51.0085726  14.9948531  92.9169655  38.1834221
  15.6734496  93.4197140  38.6339545  14.8992568  92.1211338  38.7066221
  24.8740035  59.4949102  71.3066769  24.5296126  59.2866802  70.4381943
  24.0956908  59.6438885  71.8435764 105.4965687  80.6307030  58.4764194
 104.8093414  80.1946163  57.9726648 105.0317478  81.0575771  59.1961098
  91.3727951  47.8869390  74.9845409  91.1616039  48.7591982  74.6516895
  90.9919071  47.2871256  74.3431473 117.0755291  87.0014000  45.8854866
 117.1445274  87.5741577  45.1216745 117.5825024  86.2246895  45.6490040
   8.1986456  84.0763760  59.1910553   7.5084429  83.4995651  59.5183849
   7.7677661  84.6109200  58.5240984 119.1658401  83.8904285  45.9657383
 118.3466625  84.2044449  45.5828714 119.5710087  83.3707714  45.2714539
 118.6922646  98.9956188  84.6434498 118.1983662  99.4862652  85.3003883
 119.2070007  99.6599579  84.1852760  26.6580802  96.3521481 108.7537670
  26.8248301  96.2020302 109.6843052  26.5409785  97.2993851 108.6811924
 103.4067631  74.9587297  77.2287035 102.6856041  74.9112225  76.6010857
 104.0358639  75.5571842  76.8258286   0.5608016  51.6060877  82.7123642
   0.8370047  51.4771175  81.8050003  -0.0266904  52.3610449  82.6788902
 102.7426338  40.1915073  49.6423483 103.0156136  39.2852116  49.4996929
 102.2118664  40.1593256  50.4382658   2.4766570  55.7742977  80.3026867
   1.6671401  56.2560940  80.1330662   2.3770934  55.4457331  81.1962032
   3.9222937  91.4975166  87.4932861   3.3890372  91.3257408  88.2694054
   3.7465125  92.4139309  87.2799492  90.4153824  61.2134933  55.6760740
  91.1844063  61.1068535  55.1162004  90.6085014  61.9888163  56.2031507
 111.5295887  94.1254902  72.8567648 111.2570286  93.6439705  73.6378479
 112.4621677  93.9291000  72.7676010  35.0891142  73.5408497  56.4107656
  35.6740504  72.8746891  56.0497808  34.2212420  73.1380463  56.3828850
  16.1592036  90.6522846  77.1188927  16.8130045  90.1251507  77.5781298
  15.5447417  90.9203339  77.8021431 116.6436768  93.2630157  44.3750095
 116.9673157  92.7071285  43.6661530 115.9627151  92.7398205  44.7978306
 104.3647671 128.6855793  47.0972872 103.4552097 128.5035515  47.3335171
 104.5336533 129.5591736  47.4502039 121.2051773  49.9821997  55.3105259
 120.7791328  50.2740908  56.1164522 121.4910889  50.7902908  54.8845243
 122.0446014  59.8071623  49.8422098 121.7103577  58.9272165  49.6684074
 122.9186630  59.6640015  50.2052021 101.0723877  52.0346737  64.7740221
 101.4658546  51.3234329  64.2685032 101.8075466  52.4317932  65.2410030
 114.5009422  81.6879559  43.6686468 113.8107300  81.0680103  43.4330225
 115.3152943  81.2064362  43.5230446   9.0177851  68.4348774  65.3712940
   9.3453055  68.1937122  66.2377787   8.1253272  68.0896187  65.3479528
 117.1463299  75.3041267  64.6949530 116.3912582  75.8909798  64.7360802
 117.8828907  75.8762503  64.4795656  21.4655142  90.1767921  54.2169428
  21.5652304  91.1269855  54.1585255  20.5724555  90.0488949  54.5368338
 108.4204006  82.0104694  83.8646603 107.8909206  82.4282169  84.5439053
 107.8340244  81.3679409  83.4652328 113.1684685  72.4182177  41.2432289
 114.1067505  72.4713421  41.0614443 113.0033684  73.1309128  41.8605137
 112.8762436  87.2258854  46.6204643 112.5959396  86.3698006  46.2967777
 112.6538944  87.2145081  47.5514078  79.4194746  73.7210798  99.9164391
  79.6486425  72.7980423  99.8081970  79.5416355  73.8902378 100.8506203
 106.0081196  58.4673119  35.9064841 105.3175735  58.9051533  36.4041471
 106.2252617  59.0824032  35.2059507 106.2714577  98.5728168  48.9700937
 106.8757820  98.6476421  48.2315636 106.4005566  99.3801022  49.4679499
 121.0663700  92.5501823  60.9407330 120.3712559  92.6624966  60.2923203
 121.3484383  91.6416645  60.8345604 100.1418018  59.0245914  33.3654094
  99.3953991  59.2578506  33.9174199 100.6801701  58.4576225  33.9176202
 104.4089413  44.9598026  69.3193388 105.0903511  44.2933273  69.2314339
 104.6387577  45.4333019  70.1188469 124.9437809  86.7469978  38.4042430
 124.0539837  86.4284515  38.2525373 125.0957394  86.5978146  39.3374538
 117.6319504  60.5908871  43.2713175 117.7558804  60.3508806  44.1896152
 117.3733997  61.5121412  43.2973337 121.6132832  57.6987553  93.1443596
 122.1916962  57.4466896  92.4245453 120.8001518  57.2225523  92.9762268
  91.2108040 114.8208809  51.1929703  91.0925579 115.0654125  52.1108246
  91.4422035 115.6398487  50.7548237   6.1636763 106.2897396  45.0419664
   6.7087966 105.6557751  44.5759583   5.8948832 105.8339310  45.8395958
   9.2085391  53.8247108  15.7429361   8.9272338  53.9843130  16.6438413
   9.6854144  54.6173668  15.4969358  22.7838545 115.9780502  34.3657994
  22.8326731 116.2685013  35.2765632  21.8470889 115.8788013  34.1959381
  90.9047127  86.9391441  59.6804667  91.5927505  86.8490124  59.0211344
  91.0363388  87.8139782  60.0459385  98.0235577  74.4398260  67.1528959
  98.6047363  74.8641396  66.5216875  97.8978729  73.5563946  66.8065119
   4.6077567  74.3401670  57.6583290   5.0419741  75.1845407  57.7796793
   4.8277312  74.0842676  56.7625856  35.2125483  66.2099314  45.0093794
  34.5607882  66.3938570  45.6858444  34.7454291  66.3422251  44.1844368
 108.1009293  80.3349209  58.3168936 107.1784306  80.3286648  58.5722208
 108.4235764  79.4681358  58.5634995  20.2893477  86.8795967  20.6966114
  20.9844142  87.3431969  21.1637139  19.9626380  86.2386894  21.3280582
  95.7013702  96.4791393  54.7096157  94.8961544  96.8764782  55.0412560
  95.4934311  95.5483150  54.6286774 107.3274422  91.7478085  48.5257339
 107.1690178  92.6904392  48.5764742 106.4820194  91.3760567  48.2741594
 123.8215160 104.7088242  21.5061331 123.8161278 105.4726315  22.0830178
 122.9869175 104.2728424  21.6781759 102.9480362  89.7224903  35.0035524
 103.7435341  90.1216602  34.6512961 103.0963039  89.6865749  35.9485173
  79.7934961  58.0416918  50.7172966  79.7675657  58.5130405  51.5499926
  80.3044224  57.2540188  50.9037447  91.3090420  88.3745289  30.8433104
  91.4064884  89.2909145  30.5845356  92.1834850  88.0006790  30.7346487
 122.4376202  81.1306667  28.4995699 122.7839756  80.2721024  28.2564163
 121.5479183  80.9524632  28.8043761 101.7474556  65.9117842  17.9323328
 101.7214966  65.1601648  18.5244703 102.3858738  65.6670141  17.2624528
 105.0280762  99.7827244  34.9364853 104.4005489  99.3337345  35.5029130
 104.6265888  99.7586918  34.0678883 115.6148243 108.8200092  87.0832443
 114.8478031 109.3299484  87.3437691 115.6159687 108.0689621  87.6766777
 119.4984341  86.4262962  11.9854081 119.8707485  87.1682930  11.5089095
 118.7031746  86.2051201  11.5007603  99.8260021  80.9101200  70.1939058
  99.8542595  81.0548019  71.1396837 100.2144909  81.7005157  69.8189783
  16.8948298  47.4968910  36.9676089  16.6329127  47.3963165  37.8827667
  16.2572890  48.1101751  36.6020250 124.1097355  98.2918549  21.5735960
 124.8468113  98.6494160  21.0785103 124.4589138  98.1489372  22.4533010
  30.8542090  72.4382448  32.0911765  31.7427950  72.3574114  31.7446232
  30.5773955  73.3187532  31.8375754  15.8346110  79.5548582  61.8830967
  15.4168158  79.6556187  61.0278082  16.6586905  80.0355434  61.8052292
 114.3558598  95.2151394  47.2632122 113.7804794  95.8861828  46.8959713
 113.8467789  94.4064713  47.2074556  96.9869423  78.6596727  66.2282419
  96.5711975  79.4837618  65.9747314  96.5562820  78.4162951  67.0477104
 117.9508591  77.3131800  71.5167522 117.6956749  76.9742966  72.3748159
 118.1044006  76.5312576  70.9864187 108.6765003 103.0827522  33.6232662
 109.4958591 102.9437065  34.0981913 108.0718899 102.4409008  33.9957070
 116.1703587 111.9707394  43.5730124 116.5854359 111.1842537  43.9270973
 115.8519173 112.4410534  44.3434906 114.7831249 101.0953140  26.6678476
 114.8346519 100.6668663  25.8134413 114.0806866 101.7383575  26.5713596
   6.0154849  90.8801842  35.2318764   5.7739287  90.6918716  36.1387491
   6.1542159  91.8270779  35.2126455 110.4956627 124.6600533  68.0928898
 110.6706905 123.7226868  68.0096292 110.3207588 124.7891808  69.0250731
 107.4277878  92.0632744  35.0785089 108.0514240  91.4307690  35.4352093
 107.9634190  92.6573849  34.5528078 102.2924900 117.8662872  38.4410048
 103.0537319 118.1299496  37.9240608 101.5801239 118.4171009  38.1164169
 115.2703762 106.7834187  54.3918991 115.9457684 106.8945122  53.7227726
 114.9312687 105.9003353  54.2456245  22.9234343  75.8317661  49.8041391
  23.2460623  76.4214325  50.4856396  22.5320368  75.1021004  50.2843666
   7.5069838  95.1877499  26.5727806   8.2070761  95.5621719  26.0380840
   7.9480391  94.5464706  27.1299744  92.8734493 119.0388107  19.4014013
  92.1763992 118.6432648  19.9247599  93.1136036 118.3602905  18.7703931
 122.6648808  69.9890947   0.6731813 122.4049950  70.8076429   0.2504940
 122.2211266  69.3074894   0.1684710  26.1954146  56.8784189  54.0579844
  26.4817648  57.5656843  53.4564018  25.8048087  56.2123775  53.4922552
 121.2418747  96.9671059  47.2624588 120.8927155  96.4405441  46.5433979
 120.4686069  97.2439766  47.7540302  25.6350642  64.5476294  31.7375231
  24.9753981  65.1424360  31.3807487  26.3809329  65.1117849  31.9415808
 110.4010963  66.9488716  60.2953529 110.5385780  66.1088753  60.7332373
 109.5632935  66.8490314  59.8433113 117.8456211  96.0896397  72.3661518
 117.6397228  96.8896675  71.8826246 117.8255749  96.3538265  73.2859516
  17.5763732  51.0772848  29.3151140  18.4763461  50.9264469  29.6041584
  17.4929457  50.5619669  28.5127902  18.3044463  64.6241045  38.7459373
  19.1287070  64.1559792  38.8789129  18.4358626  65.4680109  39.1781235
  98.2871628 123.3619404  22.7568007  98.2120705 122.5895786  23.3171964
  98.4691715 123.0091190  21.8858099  95.7612801  72.6508427  16.6795278
  95.0454617  73.2859707  16.6581643  96.2873650  72.8568077  15.9068418
   5.7798892  60.6259394  90.0029182   5.0671034  60.7134771  89.3700695
   5.3601008  60.2786922  90.7899570 111.8709469  30.8404374  79.0088940
 111.8577099  30.3835487  79.8499107 112.6511002  30.5056882  78.5667133
  96.2371063  76.3782692  61.1937857  96.4672852  76.6545963  62.0808554
  96.9780922  75.8429861  60.9098053 103.4326077  91.5630054  44.2288589
 104.3344688  91.8419838  44.3871355 103.3287430  90.7746601  44.7617292
 108.9909744  90.1731110  65.6330013 108.6485386  90.9036732  65.1179790
 109.3360424  89.5620918  64.9819851  84.1889095  88.6890507  26.5019155
  83.7583637  88.6015892  25.6514978  83.4758568  88.6342430  27.1381426
 113.1400585  78.8077116  93.8426074 112.5186634  79.0328741  94.5349952
 113.4760189  77.9470587  94.0928920   3.5310774  61.9619036  75.0817823
   3.3013564  61.3540840  74.3789244   2.8101092  62.5912905  75.0993252
  91.5419292  62.6127052  40.3662539  92.4381542  62.2790146  40.3254366
  91.4195156  63.0725574  39.5357227  98.7058926  89.7763157  35.2114153
  98.8443565  90.6344891  34.8106790  99.4365692  89.6762085  35.8215952
  22.5697356  71.9668198  16.3176417  22.5831252  72.6371384  15.6344676
  22.1345358  71.2180424  15.9100032 114.5418453  39.5526385  49.9014711
 114.2683315  40.3540850  50.3476858 114.2453671  39.6680307  48.9986897
 122.8063679  78.6396122 107.7829147 122.5773430  78.7327290 106.8581935
 123.4736824  79.3092394 107.9329959 104.3715477  82.4577618 105.7690525
 104.0260124  81.5702820 105.8651066 105.0652409  82.5170898 106.4259434
   7.5252562  78.4723520  84.7315311   8.0393820  78.8215542  84.0035439
   6.9360381  77.8366518  84.3254089 100.0829697 106.6122627  27.3418427
 100.8663940 106.2163448  26.9600868 100.0188637 107.4698162  26.9214535
 100.5194092  54.7219944  38.4857988 100.3050804  55.2866268  37.7431774
 100.5822849  55.3196859  39.2308092  97.4332142  82.6678658  51.0107327
  97.1719074  83.5837460  51.1061335  97.0427322  82.3925400  50.1813030
 113.0124950  70.2159691  64.1109657 113.1002426  69.2765856  63.9494419
 113.6775398  70.6182098  63.5522604  98.7700081  66.1825991   2.5216818
  98.6911201  66.5232277   1.6306275  99.3335342  66.8131351   2.9701218
 102.2323704  82.8269577  68.6410999 103.1681061  82.9433823  68.4765911
 102.1288681  83.0093384  69.5750475  24.5932322  87.6384449  40.3606606
  24.1371089  88.4222221  40.0542641  23.8938838  87.0126820  40.5492640
  94.6807289 100.1980877  62.9399586  95.3334713 100.8568287  63.1770468
  95.1929665  99.4149303  62.7386665   8.7425166  82.8483963  41.7900372
   8.1847983  82.2159195  41.3370991   8.1696349  83.5969734  41.9563198
  85.2639484 127.3055649  37.1014977  86.2076569 127.1483040  37.1316385
  85.0310898 127.1894741  36.1803389 110.6415462  86.9006348  76.9416952
 111.5862846  86.9578362  77.0846224 110.3346062  86.2893009  77.6112366
 116.5449810  80.4056072  69.0640974 116.5582943  81.3601494  68.9941645
 115.6514740  80.1602840  68.8239002  95.8020973 129.4697094  39.4450450
  95.2280140 130.0833988  39.9033523  96.4364529 130.0266075  38.9937162
 119.9283314  71.4139175  28.6313415 120.0637341  71.6314077  29.5536184
 119.9803638  70.4586315  28.6003947 121.9693184  56.6155958  15.6495118
 122.6827812  56.6930723  15.0161064 121.1766434  56.5794420  15.1141739
 105.0371933  55.3234863  37.4171925 104.6012974  55.3634596  38.2684445
 104.3567276  55.5633307  36.7881656 120.9704399  83.4804916  41.1641407
 120.5846405  83.6257744  40.3002644 121.8262672  83.0923653  40.9820509
 100.6673622  77.6321602  90.4146477 100.8596516  78.2072544  91.1552676
  99.7377300  77.7741766  90.2361854  22.5481349  88.5895634  21.3983202
  22.8801470  87.6924515  21.4328551  22.5468283  88.8797474  22.3104715
  40.2025920 126.7957306  51.7061949  40.0333338 127.3377132  52.4768066
  40.0013285 127.3654461  50.9637976  94.6926880  83.5926914   6.2675428
  95.5050659  84.0768719   6.1197662  94.9597454  82.8257561   6.7742187
 112.0936775 113.1077194  23.0003095 111.3576794 113.5890675  22.6223612
 111.8001938 112.1968079  23.0183125   1.8160849  75.7900190  45.6824064
   2.6250010  75.3844595  45.3702927   1.7652732  75.5432701  46.6058636
  40.8349734 108.0665398  61.9538021  40.1400118 107.6438332  61.4492512
  41.6361361 107.6214981  61.6775370 117.6801395 100.0039959  48.8702059
 118.3358860 100.6055260  49.2229080 116.9806385 100.5733585  48.5496569
  99.4691658 118.2665443  40.1477623  99.3064976 117.9105759  41.0212898
 100.1659107 118.9099789  40.2772617 113.1798553  70.0207186  57.1987820
 112.5293922  69.3325281  57.0590258 113.5867882  69.7991323  58.0363607
  25.1505118  53.4299088  59.9983072  24.8140746  54.1125154  60.5788994
  24.4135695  52.8303719  59.8812628 114.7757721  36.2248564  68.7002516
 113.9857388  35.9952950  68.2109928 114.6851826  35.7611203  69.5327044
 121.4334965  53.3409929  58.4639883 121.6314125  53.5195494  59.3833256
 120.6538391  53.8651514  58.2806444  37.4046641  90.2634907  61.1091852
  37.5612383  91.2010384  61.2220383  38.2710772  89.8645973  61.1895847
 117.8276443  46.6837025  41.5516329 117.5767708  46.4687538  40.6532526
 117.5915146  47.6058626  41.6521263 107.1645355  87.2729492  16.7008889
 107.7041817  87.3812103  15.9177625 106.4400959  87.8866482  16.5792751
 102.4683952  78.5484791 108.3535446 101.7618275  78.2529306 107.7793916
 102.8954697  77.7420092 108.6424197  43.0166941 127.6832294  47.2736835
  42.4772959 127.8304768  46.4967680  42.5558978 126.9988441  47.7589893
 118.3972454  73.5271788  51.6130781 118.8565350  74.2395830  51.1683655
 119.0588760  73.1341171  52.1822596 103.9419556  57.8795624  61.6780567
 104.0493965  56.9670296  61.4097691 103.5480690  58.3078718  60.9180355
  93.7736988 117.2306824  17.0204985  94.6090412 116.8730450  17.3213744
  93.1982613 116.4689445  16.9507229 108.5832214  97.1190357  41.4739561
 108.2972240  97.9273510  41.8994617 108.9121342  97.4010849  40.6204367
 122.9825878 112.2013283  45.0696611 122.9164886 111.2471771  45.0314426
 123.9157295 112.3815346  44.9556255  10.1657515  77.9372406  46.8754387
  10.5843287  78.3342886  46.1116457   9.6365290  77.2254515  46.5155602
 103.6067009  93.4208488  21.3388944 103.4924030  93.2752419  22.2780228
 104.5376587  93.2615852  21.1833835  95.6456470  97.7686691  65.6874037
  94.6908379  97.7018929  65.6763029  95.8856297  97.9224777  64.7736311
 111.5141582  95.3261662  62.4208879 110.8991241  94.8241901  62.9556608
 112.0686531  95.7797909  63.0557060  12.3792105 116.2541389  25.5237079
  11.5614348 116.6034698  25.1695275  12.9384547 117.0225716  25.6376815
   5.0591403  91.1215687  59.6216679   5.5720263  90.3560925  59.3623829
   5.5042201  91.8600655  59.2060232   0.9437209 141.9791412  23.7622547
   0.2225237 142.1668720  23.1615353   0.5160933 141.6674614  24.5598865
  11.7191058  94.6719265  22.0078683  11.5238028  93.8959026  22.5331068
  10.9707957  95.2517033  22.1497202 106.2907410  87.5199509  39.5014930
 105.3733921  87.4112225  39.2507529 106.2586117  88.0228615  40.3152990
 123.6747169  78.6332083  55.7658291 123.0513954  77.9073334  55.7941866
 124.4008923  78.3471251  56.3199615  90.2920151  70.6258011  50.0144053
  90.7281685  70.1492643  49.3080711  90.0875950  69.9546480  50.6655598
 124.8999214  72.0885754  26.7431736 124.0503597  72.5172472  26.6396856
 124.9339104  71.8444014  27.6680827  18.3154612  75.9807348  37.9625320
  18.4050780  76.4792156  38.7747622  18.4939128  75.0752068  38.2163215
 109.6161175  53.7218618  77.8184279 109.2268944  52.8511763  77.7369460
 109.6754169  54.0428686  76.9186124   3.1840354  62.8326035  52.1274519
   2.9596263  63.2102013  52.9779148   3.7611800  63.4801292  51.7226744
   9.8914176  61.2671423  58.9472818   9.7700816  60.4785252  59.4760466
   9.7994643  61.9889736  59.5691633  98.3697033  89.0896511  72.7750874
  99.0059853  88.7187195  72.1637106  98.5828590  88.6863613  73.6166048
 109.0445995  63.8232708  53.7195206 109.9356079  64.1102219  53.5195208
 108.4831333  64.4445181  53.2557964  19.8578768  98.9020061  89.0629768
  19.6590071  98.4639835  88.2354355  20.4742842  98.3159637  89.5020866
 117.8879642  96.4535332  77.9234934 118.6517620  95.9148598  78.1300879
 117.3506927  96.4208984  78.7150145  16.9018488 128.0438137  39.8042440
  17.6691752 128.1487942  40.3667498  16.3540106 128.8033581  40.0022507
  25.0351267  72.6565409  12.5433445  24.4876128  73.3907843  12.8214538
  24.6232539  71.8877697  12.9377830  91.9504642 126.7759609  43.7520266
  91.5222454 127.0550537  44.5613289  92.8572273 126.6059208  44.0071630
  21.8326979  61.5763426  33.6324024  20.9548407  61.1992264  33.5742736
  21.7160445  62.4938488  33.3858013 123.4978962  87.5977802  67.9089355
 122.9001808  87.1930599  67.2803164 123.6231232  88.4883595  67.5811863
  15.0544577 115.4026604  85.3286457  15.7359534 114.9807262  84.8054218
  15.1865988 116.3395119  85.1834393  29.1269713  82.1641922  16.6407633
  28.2325488  82.3938084  16.8927884  29.0215617  81.5749931  15.8937907
   1.7080718  71.0062075  33.1769753   0.7760077  71.1547565  33.0175233
   1.8419104  70.0811434  32.9706335 108.7906456  82.9687977  21.9518566
 109.6084881  82.5115108  22.1474481 109.0279102  83.6065197  21.2786150
  25.1383906 122.9538727  38.5284519  25.7703143 122.5224304  39.1035676
  24.4457942 122.3049831  38.4040356   4.0934210 120.5443192  45.3351402
   3.2059317 120.1891994  45.3850126   4.6210127 119.8231888  44.9918461
 112.8963566  84.9790478  36.8063784 112.9214287  85.8819008  37.1233106
 113.7500191  84.6176720  37.0449162 108.6057854  78.4947062  29.9173665
 109.2864609  78.6912107  30.5610347 109.0732288  78.0755997  29.1948199
 110.4421425  73.8321543  44.6732140 110.9652138  73.9066362  45.4713917
 110.5039883  72.9079914  44.4316959  97.4877739  58.2305431  71.9704628
  96.7787647  58.2048512  72.6130199  97.5744057  57.3248577  71.6730452
 120.2614117  75.8308935  38.6665511 119.5581341  76.4246559  38.4037304
 120.8032990  75.7396984  37.8827929 115.8823586  93.9589310  27.5434852
 116.0151958  93.2476425  28.1701136 116.7466736  94.3591976  27.4487567
 124.5975304  94.5738411  47.4024105 123.7953186  94.2605400  47.8201628
 124.7952366  95.3964233  47.8501940 118.6766529  72.4405909  86.7359257
 117.8414059  72.5502872  86.2814426 118.7361336  71.5001535  86.9040680
 122.4017334  90.2121544  60.8119726 122.6196957  90.1536179  61.7421865
 122.2063160  89.3111515  60.5545998 101.3262653  52.6545525  61.0135365
 101.1049652  53.4337425  60.5035162 102.2558498  52.5091553  60.8375740
 121.4044666  84.2947292  75.9113407 121.8744183  83.7295914  75.2981567
 121.7629528  85.1683521  75.7548046  98.3260822  66.8574572  55.3193045
  98.8993454  67.0967770  56.0475445  98.2835102  67.6462889  54.7787762
 100.1323891 109.5287323  57.4691868  99.5257378 110.0962257  57.9447412
 100.4096317 108.8794613  58.1155777  93.5489655  97.6958942  62.3675966
  92.7184105  97.9396057  62.7762699  93.7846184  96.8652916  62.7808714
 120.2450085  74.7067261  10.7304382 120.7581615  74.5552683  11.5241444
 119.9563026  73.8345337  10.4618084  24.1353064  49.2606640  58.6598253
  24.3023806  48.3611107  58.3785439  23.9839964  49.1926432  59.6025372
  87.6811218  82.1094894  43.2761335  86.9119358  82.3820686  42.7758598
  87.3475742  81.4565945  43.8915205 120.1198101  69.2578793  98.9305592
 119.9987793  69.6334696  99.8026371 119.3737602  68.6688852  98.8177967
   1.6304617  79.5657587  69.0615416   0.7795935  80.0040722  69.0492964
   2.2674780  80.2776051  69.0005970  22.3986178  60.6928253  79.3071175
  21.4541083  60.7809210  79.1792011  22.7681666  61.4843988  78.9158678
  88.9174652  73.4281826  39.8784065  89.6402740  74.0114975  40.1097536
  89.3313694  72.7151060  39.3921661 124.3617439  93.4808064  56.5712595
 123.7896442  93.3796787  57.3319864 125.0780964  92.8652668  56.7267847
 118.4901524  96.2125111  34.6305752 118.9572048  97.0430279  34.7218895
 117.6045227  96.4633846  34.3679976 108.7954140  70.6797504  34.0897512
 108.0090714  70.7850456  34.6252966 109.1363144  71.5683270  33.9875078
  94.0932751 119.8583984  46.5318155  94.4283104 119.1277122  46.0121250
  94.5906925 120.6171894  46.2267685 105.5439472  96.2957287  50.8251715
 106.4679432  96.3595486  51.0667849 105.4195976  96.9827461  50.1703644
 102.7892494  64.5388126  59.4596624 102.7031231  65.3513336  58.9610434
 102.0987988  64.5891190  60.1207018  26.4233714  85.1310539  41.4710712
  27.0856314  84.4403172  41.4936304  26.3494139  85.3618145  40.5450535
  17.6134520  78.8068724  26.2070251  18.1893187  79.2037487  25.5534983
  17.9052191  77.8969002  26.2623119  91.5725040 101.8546677  16.1774182
  91.2218857 101.0480976  16.5552366  91.3981438 101.7753983  15.2395773
   0.4906302  65.1447868  53.7261820   1.2829714  65.2442789  54.2539358
  -0.1978368  64.9501801  54.3620872 117.2948551  84.0031242  41.5427589
 117.2644520  84.0042210  42.4994755 118.0333805  84.5721626  41.3259459
 111.4649200  45.4851580  56.3627386 111.8279648  45.3628254  57.2399330
 111.6858196  44.6783495  55.8974457   7.1093302  77.4806833  89.8514652
   6.3966017  77.9056549  90.3285980   6.9957476  77.7679110  88.9454651
 121.8180656 118.0422497  84.3615627 122.5813103 117.5046062  84.5728588
 122.1400452 118.6724663  83.7170601 113.1007767  71.0090351  77.7043295
 112.2781563  70.6447744  78.0311918 113.7772942  70.5827951  78.2305241
 115.3634453 131.9888401  36.6145182 114.7200298 132.5044250  37.1007490
 115.0194550 131.9567585  35.7218409  96.6900826 101.8464661  51.5598249
  97.5506592 102.2348785  51.4024496  96.1287212 102.5895882  51.7809343
  93.6823463 102.1855259  59.4699478  94.2469311 102.1364594  58.6985397
  94.2446423 102.5456715  60.1557684 115.0312328 124.6653938  37.1263242
 114.2770672 125.1585484  37.4492311 115.0115108 123.8463020  37.6212358
 116.3413143  95.0606632  22.6964116 116.8206406  95.6678772  22.1327043
 115.4539204  95.4176235  22.7330494   6.2450915  90.1155281  10.6714344
   6.1212187  89.3564415  11.2412333   6.8081694  89.7963333   9.9662524
  16.0421401  58.7579584  72.6257420  16.9521838  58.4689999  72.5581408
  15.5274516  57.9631329  72.4858379  74.6258545  76.1406469  40.7626867
  74.1936588  75.6911993  40.0364351  73.9147186  76.5780592  41.2308645
  97.6530933  78.5578442  58.6215878  98.2244301  78.0491972  59.1969824
  97.0011139  78.9404535  59.2087507   0.5366545  71.1613560   9.9598151
   0.4385596  70.3308296  10.4254711   0.0592642  71.0341167   9.1399735
 110.5702972  99.7435093  57.1008635 109.6535778  99.8025894  56.8318367
 110.8663845 100.6527519  57.1437788 116.4877224  81.2604427   5.3305334
 117.3218536  81.7201614   5.4260236 116.7307854  80.3805256   5.0425971
 121.9098473 108.4964657  67.3952246 121.9709587 109.0645313  66.6272402
 120.9805393 108.2753086  67.4562073 114.0132427  80.5750561  21.8001866
 113.5109615  81.3345432  22.0953679 113.5716724  79.8257875  22.1999955
  76.7356253  66.1223364   0.3220572  76.8514204  65.3658819   0.8970306
  75.8003235  66.3198185   0.3715057  37.6838427  84.7608566  16.1055410
  38.6112338  84.5244122  16.0892594  37.5442057  85.2390766  15.2882063
   0.4933959  72.0619154   3.1363338   0.4359656  71.3460827   2.5034699
   0.9408503  72.7639437   2.6639244  48.8615923 105.9167480  18.8095701
  48.9468699 104.9975395  19.0626013  48.1888514 105.9163094  18.1286502
  86.6708088  76.0955667  48.3760643  86.6325474  76.2233591  47.4282026
  86.7199230  76.9814062  48.7353802  13.9986640 118.3327007  26.4885235
  14.8050147 117.9438019  26.1497045  13.8693839 119.1177845  25.9563923
  11.8221789  85.4465008  23.7913299  11.5016013  84.6038437  24.1128755
  11.8348246  86.0091972  24.5655680  48.5778170  90.9703255  59.4495344
  49.1476756  90.5187225  60.0720739  48.9042216  91.8700409  59.4351768
   4.4661456  74.1494989  17.9441750   4.9152690  74.9943876  17.9179025
   3.8569861  74.1790199  17.2064209 118.6394978 119.8316765  55.6541967
 118.7083817 120.0519085  56.5831661 119.0567207 120.5652905  55.2025557
  74.8661375  80.7482338  33.7819982  74.8441219  81.2400723  32.9611230
  74.2331505  81.1936665  34.3451548  98.7858486  53.2187843  35.1701617
  98.0941868  53.6414433  35.6792688  99.0990162  53.9023542  34.5777988
   5.9016924  96.6917992 108.6501806   5.4437380  97.5323009 108.6427186
   6.8299800  96.9249249 108.6626022 112.8475189  87.2704411  49.3145275
 113.5391140  86.7650795  49.7417736 112.2998238  87.5832844  50.0345230
  10.2839404 119.8133278  31.5595078  10.7210284 119.0606308  31.9577909
   9.9426776 120.3124142  32.3015928  97.1000862  88.4617043  41.1702728
  97.9505920  88.0323124  41.2624550  96.4782524  87.8478241  41.5610695
  90.6796741  67.7284050 106.4230075  91.0235119  66.8751335 106.6874596
  91.3125134  68.0536699 105.7827386  27.3765021  88.6882305  22.2244477
  26.5814715  88.2306099  22.4978304  28.0257445  87.9939556  22.1117568
  16.6866618  56.2593842  21.5286255  16.2792903  57.1233273  21.5908909
  17.6089316  56.4418602  21.3487387  25.0179797  50.9358549  69.8387146
  24.2928153  50.5336189  70.3168011  25.6152468  51.2408400  70.5217171
  96.1284542 129.2281246  34.6487856  96.8319130 129.6908283  35.1040792
  96.5482712 128.8589096  33.8718224  98.9519691 100.1002979  53.5590172
  98.2230186 100.6458092  53.2635784  98.9874077  99.3840218  52.9250383
 111.4252472  63.5787058  60.1932764 111.7563438  63.6882257  61.0846853
 112.1767521  63.7728262  59.6331024 107.5143242  72.8365088  11.0227907
 108.1968689  72.6262808  10.3854775 107.7200413  72.2917843  11.7825210
 102.1160889  74.6500826  13.1337941 102.0468712  73.9859486  12.4479628
 102.1431828  74.1500521  13.9495540 124.5819283 103.2076645  50.9726191
 124.6319771 102.7437401  50.1368523 124.3437004 104.1038322  50.7352114
 114.6775627 113.0864620  30.9889054 114.8015118 112.4951935  31.7313838
 115.0893211 112.6351738  30.2520061 122.6716709  95.1069355  34.3543029
 122.1237659  94.7890854  33.6366606 122.1481991  94.9543285  35.1410174
   2.1130496  95.7139301  40.0020409   2.6844054  96.1868000  40.6071615
   1.2612753  95.6997013  40.4385281 114.9672985  99.9568939  14.5085502
 114.4143391 100.3799820  13.8516939 114.3850136  99.8117638  15.2542818
 109.3706799 130.2372456  34.7657037 108.4140968 130.2445507  34.7319341
 109.6240425 129.4949436  34.2170405   1.7949229 129.0473557  45.1281595
   2.0286780 128.4790134  44.3942833   2.1402484 129.9064159  44.8852634
 122.9981613 121.6726494  44.9922085 123.1824207 122.5979519  45.1537275
 122.0449352 121.6277313  44.9175453   1.4352923  60.9294748  80.4288960
   1.5479785  61.7941475  80.0340748   1.8026858  60.3228998  79.7859907
  88.4030437  77.7408218  28.0059004  87.6544094  78.3357763  28.0483627
  88.6352539  77.7139235  27.0776820   5.2669840 107.0362091  38.5316300
   5.0624304 107.2700024  39.4370198   4.8177462 107.6981258  38.0059934
 125.0283241  80.9316158  43.8682556 124.6910095  81.7713928  43.5564327
 124.3999577  80.6536770  44.5346928  81.8971634  72.9624939  35.8627033
  81.1282158  73.5308313  35.8185482  81.7843246  72.3499727  35.1358509
  87.3751259  84.6487236  40.8086777  86.9590855  85.5078983  40.7382727
  87.7684116  84.6438408  41.6813374  12.8345137  73.9856911  32.1039653
  13.4355193  73.9987040  32.8488493  13.2841712  73.4597731  31.4425659
 112.0124817 117.8745174  34.6320748 112.2830200 116.9639111  34.5144343
 112.8069210 118.3832550  34.4699311 111.2703228  63.6088943  25.6122851
 111.7428112  62.9642582  26.1390042 110.3518391  63.3487606  25.6825662
 121.9500065  79.9954367  41.4954615 121.4130020  79.2575741  41.2066460
 122.7314091  79.5902348  41.8715525 100.5225182  86.9849777  13.5349965
 100.6529045  87.3247051  12.6496601 100.5253029  87.7628231  14.0928340
  18.1427889  68.1532955  33.3162904  17.2281485  68.3679581  33.1330252
  18.4346705  67.6693630  32.5437284  22.3931532  84.7543812  33.3622360
  22.2038489  83.8514042  33.6172557  21.5362292  85.1318550  33.1636977
 119.1336346  73.9183521  26.9078970 119.5824337  74.7458267  27.0813990
 119.3801308  73.3539629  27.6406550 102.6982307  80.5263329  64.7082663
 102.2042179  80.7659245  65.4923534 102.7811813  81.3443565  64.2181826
 120.0779533  63.9729023  28.2468987 120.9689903  63.6816025  28.0534029
 119.6214485  63.9213562  27.4071503  99.4786453  91.4537525 109.1801735
  99.9456787  90.7643604 109.6522304  98.8915825  90.9833336 108.5883140
  73.8568878  83.9060974  15.1212847  74.4278860  84.3050480  15.7778144
  73.1631851  84.5510960  14.9834728   7.9125052  96.3929272  33.6996412
   8.7101489  95.9329033  33.4381580   7.3768740  96.4133358  32.9065967
 100.8388233  74.5690346   4.5619670 101.6851139  74.8356867   4.2029229
 100.8031273  74.9833775   5.4241019  12.6597624  71.6765070  45.2830267
  12.8516131  70.7544851  45.4542017  11.7977648  71.8184185  45.6742382
 123.6961746  42.5543356  10.1699269 124.3566513  42.6181889   9.4800556
 123.1906700  43.3635426  10.0931835 123.5005283  72.2047567  19.7518551
 123.3438492  72.0155382  20.6769919 124.2670155  71.6777468  19.5260656
 104.2569160  84.9975681  17.7188098 103.7503052  85.7258892  17.3594618
 105.0897503  85.3907776  17.9795933   3.2594519  63.6322403  27.1920466
   3.0108672  63.6495066  28.1162429   2.5957423  64.1662216  26.7554855
 109.1194344  87.6400471  45.6160641 108.2551384  87.9708195  45.8606291
 109.1280746  86.7363358  45.9314299 106.2943077  95.9270763  34.2299581
 105.7305622  95.9695053  33.4575462 106.9512844  95.2662754  34.0109754
  11.0194426  71.8592548  29.7641301  10.3204375  71.2519312  30.0065804
  10.6472617  72.7272797  29.9198508  96.7615700  81.8993473   9.6811247
  96.7598152  81.1501980  10.2769578  95.9202290  82.3293018   9.8344529
 115.9883595  98.9694214  20.9439635 116.3987732  99.0015984  20.0798130
 115.3170490  98.2916546  20.8652020 123.8267708  80.9533310  19.6997261
 124.4221306  80.3344059  20.1224661 124.3942738  81.6611481  19.3944740
 124.0895081 109.5558071  44.1786432 124.4647312 109.4299889  45.0502014
 124.6231747 110.2463722  43.7855291   3.3489161  61.3861561  18.9104807
   3.8896590  62.1597672  19.0697193   3.9708453  60.6587553  18.8926291
 121.0635185  76.9387388  52.2179222 120.9557056  77.8821707  52.0973063
 120.4503632  76.7151880  52.9181385 102.2019100 100.3691578  25.6474447
 101.5061378  99.9351406  26.1411738 102.4466991  99.7366142  24.9720216
 114.0231133  79.7121668  10.5264843 113.4200573  79.0737247  10.9071946
 113.5172653  80.5236626  10.4838645 110.1944828  84.6274090  39.9578285
 109.3279362  84.5325184  39.5624375 110.6303024  85.2911186  39.4232345
  24.1769343  70.4414749  41.8767643  24.3985110  70.3431892  42.8027678
  24.7282630  69.7996712  41.4291430  10.7138091  74.1287899  43.5191441
  11.4488631  74.7271967  43.6526585  10.9790545  73.5854101  42.7771091
 105.2677059  68.3996487  42.7077198 104.7015667  69.1412306  42.4937630
 105.8243370  68.2928944  41.9363642 100.7143497  99.9334049 102.4235430
 100.5533314 100.4971790 103.1801566  99.8461151  99.7774410 102.0519736
  29.3294364  83.8805485  10.4153013  28.4258586  83.7380409  10.6971884
  29.7212725  84.3973637  11.1192894   0.5599433 100.4515266  41.7959976
   0.6340247 100.1482201  40.8911514  -0.1073141  99.8857117  42.1844006
  86.0195160  84.1765881  17.5006950  86.6617680  84.8789692  17.3986411
  86.3087082  83.4972382  16.8915248  18.1133872 103.7681580  60.4078817
  17.9995471 104.3047333  61.1923313  18.1274348 104.3977451  59.6870184
  94.7712803 115.5493832 107.1779936  93.9890385 115.4687023 107.7237273
  94.7035217 114.8267460 106.5539446  16.0885459  84.7067356  55.6476259
  16.5530806  84.1663361  55.0085640  15.8464938  84.0977859  56.3453531
 106.4498043  75.6110334  21.2406659 107.2038364  75.1109076  21.5529633
 106.6670704  76.5216351  21.4402461   4.6171694  70.1195335  49.1165972
   5.4893427  70.4316616  48.8755131   4.3475848  70.6926537  49.8342943
 105.2377319 110.1848316  16.9654262 104.4899845 110.7559395  17.1413016
 105.9847546 110.7802200  16.9045722 102.4870682  83.5346317  29.0334225
 102.0177650  83.4322262  29.8613739 103.2730198  82.9979134  29.1356325
   0.5512648 122.0792675  50.1785135   0.0825339 121.9667912  49.3515491
   0.7431059 123.0161476  50.2195883   6.4507895 109.8688030  51.3492346
   5.8024054 109.3382263  50.8862972   7.2905474 109.5992470  50.9772396
 108.8202190 122.5513744  43.9559984 108.5950565 123.4815025  43.9762640
 109.7242737 122.5305843  43.6421776  38.9968615  80.2008724  58.7060404
  39.5049792  79.3935108  58.6271715  39.4324427  80.6908512  59.4034719
  37.2499781  68.1483364  31.8863487  36.9031268  69.0395260  31.8451047
  37.4502688  68.0118895  32.8123641  24.9799948 116.1899567  38.4511232
  25.0077563 116.1981106  39.4078875  24.8357421 115.2714729  38.2235146
   5.2214842  75.9926224  29.2614174   6.0765009  75.5658150  29.2065358
   5.0289755  76.0236311  30.1985478  17.5776606  96.2372398  42.8723812
  17.7071028  95.4688454  42.3164606  16.7150241  96.5697479  42.6243305
 108.4866714  39.1786122 107.7215465 109.3589783  39.3322682 108.0844497
 108.3477020  38.2369542 107.8225333 123.5069180  62.2013903  10.7692468
 124.1242313  62.8927803  10.5302024 122.8670406  62.6360464  11.3330317
 105.7482052  43.6244869  27.6902127 105.8996201  44.2932034  27.0222926
 105.5113029  44.1189575  28.4748173   6.6961604 103.0900002  32.4661398
   6.7992907 103.4942245  33.3276463   7.3211413 103.5527897  31.9080567
 102.4910355  80.1347542  21.3409495 102.2395706  79.4874048  21.9996858
 103.0147171  79.6423197  20.7088971 112.7113724  49.1064835  99.0264305
 112.2898769  49.8208189  98.5486206 111.9869232  48.5523701  99.3168863
 111.4607906  84.6404934 106.1206984 110.7702160  85.2451611 105.8492055
 112.2539234  85.1760101 106.1404293  96.8828011  80.6049252  33.1421757
  97.3055172  81.1292267  32.4619937  96.1463451  81.1415672  33.4352064
 104.7746944  90.5186081  47.5479555 104.2817974  89.9026775  47.0058107
 104.1713047  90.7530308  48.2530785  23.3301573  91.0671234  10.8609378
  24.1934901  90.7197475  11.0850155  22.7354651  90.3267956  10.9813511
   0.6978922  85.5854702  44.0832615   0.4356700  86.5037918  44.1477537
   1.4486151  85.5088329  44.6721363 110.3164005 102.2229385  85.0444698
 110.4759121 102.4814892  85.9521866 110.9462261 101.5208721  84.8811913
 112.3587418  70.6971121  73.2268095 111.6567993  70.5450010  73.8595533
 113.0191994  70.0374269  73.4385729  16.8987876 100.7906723  53.3141279
  16.5345316 100.7260132  54.1969490  16.8225413 101.7183495  53.0909204
  21.8844443  96.0629177  61.1310768  22.0324736  95.7643318  62.0283842
  20.9873324  95.7935429  60.9339333 123.3928394  88.1020451  96.7675670
 123.5288715  88.7696362  97.4399170 122.8325844  87.4495506  97.1878060
  93.7226963 102.0438576  31.9736958  93.0169868 101.3972569  31.9848180
  93.2996178 102.8553486  31.6931224  25.7358103  78.2489395  38.7441945
  26.6296511  78.3363819  39.0753293  25.8115988  78.4123898  37.8041029
   8.3339530  72.3016787  89.3471011   7.4031668  72.5240564  89.3674143
   8.4729701  71.7803764  90.1377639 108.8673115  89.4345093 107.7587915
 108.4595490  90.1917744 107.3386457 109.2158985  88.9168072 107.0330509
  97.8535271  75.3560925  85.2619362  97.3640442  74.9359369  85.9691238
  98.3306694  76.0668039  85.6902504  16.6485148 111.8133736  54.9005985
  16.3045912 111.2193680  54.2334366  15.9795123 111.8177891  55.5851746
  13.5154944  65.3830099  37.4334574  14.0573149  65.1003408  38.1701803
  12.6159411  65.2701378  37.7405357 102.1727085  67.6329708  24.3788719
 102.8359604  66.9739103  24.5837092 101.4139080  67.1269274  24.0883970
 107.3833942  79.7822952  34.1420960 106.4477158  79.7908878  34.3437505
 107.7033329  78.9652109  34.5245218  17.8094035  87.0588017  47.3939085
  16.9590026  87.0629501  46.9545412  18.3010321  87.7627373  46.9708157
  19.0508013  91.8164349  37.3599243  19.0557223  91.5391254  38.2760572
  18.7623816  92.7287388  37.3873830 113.6081028  80.8874798  33.0834126
 114.4623566  80.6958103  32.6964283 113.3533859  81.7259407  32.6982808
 109.3702602  76.4275217   7.1632987 109.0979671  76.8272257   6.3372707
 108.6010933  75.9402990   7.4586350  19.1293078 105.3580093 109.4595754
  18.4560996 105.7596111 108.9102710  19.5419913 104.7053051 108.8939761
  11.5742999  93.7581444 102.7485707  11.3029795  94.6158314 103.0756839
  10.8872538  93.1607819 103.0441352 105.1724815 120.9387493  52.6774883
 105.0856781 121.6756058  52.0727158 105.5912018 120.2515411  52.1591806
   9.1179686  88.9486885  22.2050619   8.5442858  89.3865776  22.8338480
   8.5692244  88.8162327  21.4320397  97.3849297  68.2320499   9.0160233
  97.3970032  67.4626875   9.5853812  98.2545090  68.2478428   8.6162597
  95.9074020  90.5474472  18.2668304  95.1770496  90.6029987  18.8830471
  95.8038807  89.6924305  17.8491545  75.6116104  52.7708626  61.2919903
  75.5524969  52.8657103  60.3413391  74.7123241  52.8827000  61.6002321
 106.2230206  96.1213207  22.0457768 107.0729160  96.3441944  22.4255633
 106.1814022  95.1663303  22.0956707  14.0753203 107.8993416  31.7149591
  13.2804804 108.0770588  31.2120914  14.2057639 106.9548035  31.6308761
  96.0866356  97.7564526  18.3123279  96.6127396  97.0834160  17.8805172
  95.2255154  97.3532581  18.4225380 108.5086632  64.7599936 106.5499806
 108.2570648  65.6722927 106.4063235 108.1231689  64.5357466 107.3969408
  90.3842640 109.7219276  52.2930956  90.2088070 109.8903275  53.2188845
  90.4322720 108.7681484  52.2280455 104.8736572  49.6941566  26.0203481
 105.7557678  49.5578384  26.3660622 104.6115494  50.5486679  26.3629031
  16.8737155  71.6626740  10.9687936  16.0223132  71.2252712  10.9645820
  17.3009520  71.3475227  11.7652762 114.9923134  84.7896004  54.1694593
 114.6668434  84.3552876  53.3809996 114.3722725  85.5023670  54.3235588
 122.0718956  53.0899286  37.4880528 122.5641251  53.4247017  38.2376313
 121.3734055  53.7306833  37.3547125  86.0524750  71.2494087  63.5421991
  86.0991383  70.4038715  63.9884329  85.5832577  71.0652161  62.7284765
  87.4985123  71.9329596  14.9060237  86.8117619  72.5467300  15.1666081
  87.4371815  71.8960714  13.9515018  99.0055943  50.6990910  29.9349928
  98.2728004  50.1792240  30.2651310  99.6918583  50.5908966  30.5934477
  80.6563854  72.3815393   1.9075118  80.9288406  72.4963570   2.8179038
  80.4313564  73.2636595   1.6117775  16.1323863  76.0627365  33.3413815
  15.7954722  75.2399588  33.6960125  15.5394488  76.7317009  33.6836553
 101.4643383  90.2664375   7.0467961 100.8289146  90.0618553   6.3607872
 100.9916592  90.1123714   7.8647637 101.0528660  79.9408531   8.5066426
 100.7147121  80.2749729   9.3374515 101.9560242  79.6891689   8.6995137
 124.8476791  87.9752064  25.8663607 124.4236183  88.2513332  25.0538611
 124.4382858  87.1360016  26.0769916 121.8849087  80.2040577  70.8148003
 121.4441872  81.0529995  70.7789850 121.6645527  79.8560476  71.6788387
 121.0650826  36.1008358  55.8087444 121.6162205  35.3343582  55.9668398
 120.4669762  35.8264923  55.1135921  30.4021102  62.6815701  43.3410740
  31.2387782  62.8529787  42.9088306  30.3715067  61.7294502  43.4346771
 100.9914780  93.3557701  54.3587971 100.3160000  94.0204906  54.2242002
 100.6451321  92.5723934  53.9314795  23.8312178  64.0293884  21.1838222
  24.3620520  63.7761068  20.4286432  22.9757815  63.6327362  21.0191321
  81.8910885  67.2731113  21.0612011  81.8717003  67.6881933  21.9235015
  82.3225212  66.4317179  21.2100482 109.6120930 110.6663132  51.1766338
 108.8346386 110.3174686  51.6126490 109.2760849 111.3542557  50.6021214
 115.1830959  64.3333817  53.6504841 115.5488300  65.2080822  53.7822723
 115.2742100  64.1747379  52.7109289  86.5355968  92.9411983  60.0886965
  86.7523479  92.9934311  61.0195684  85.7252121  93.4433460  60.0029325
 108.4265900 120.8277035  27.6841950 108.4745693 119.8756218  27.7705860
 107.5044727 121.0051918  27.4986410  21.7467337  49.9490595  37.0325089
  21.6881018  50.0551271  37.9820061  21.7241698  49.0019894  36.8954611
  17.8254824  40.8130836  59.5514488  17.0785266  41.3944817  59.6937895
  18.2700472  40.7825136  60.3985977  28.5057574  78.0312490  39.2521667
  28.9032202  78.6771297  38.6681414  28.7645751  78.3109856  40.1302290
 102.7535343  86.8120480  24.6225619 101.8802738  86.4614201  24.4473171
 103.2132721  86.7389393  23.7861824  81.2958717  73.0033112  38.6604881
  81.4911652  73.1626129  37.7370620  82.1460342  73.0543137  39.0973568
  31.3111525  93.1586075  16.7529690  30.7821112  93.9518452  16.8373024
  32.1885806  93.4772778  16.5413082  84.3614388  66.6653919   6.6325808
  85.2220345  66.9238043   6.3026810  83.9849949  67.4743414   6.9791681
   2.6342803  48.8038492  38.0527186   3.3134585  48.9477921  37.3937607
   3.1113654  48.5063171  38.8273740 121.2371731 105.5980206  39.8474574
 121.6482544 106.1274719  40.5307770 121.8486500 104.8757553  39.7037029
  98.5571671  55.2091789  21.2987661  98.7872696  55.9600115  20.7514668
  97.6031971  55.1548004  21.2419772 116.7085075  34.9097443  53.3899117
 116.4044380  34.4013810  54.1418028 116.0144520  35.5511856  53.2380104
   1.8199759  82.1485901  15.2730370   2.6115733  82.6867294  15.2755392
   1.4087706  82.3313713  14.4282103  93.0369854  89.4999409  35.6140232
  92.7388191  89.0281868  34.8363447  93.9462662  89.7287369  35.4214191
  18.0469733  48.5684490  42.0268822  18.7681513  47.9461765  42.1213007
  17.5227480  48.4495068  42.8188896 116.7482185  73.6178780   5.5876887
 115.8159828  73.8253450   5.6519246 116.9289303  73.6158705   4.6477032
   4.7261458  14.5593154   2.1900427   5.2849227  15.1936471   2.6390705
   4.0369635  15.0888693   1.7890163 116.1983013  49.3083572  15.5673647
 116.1941910  49.2885447  16.5243506 116.3222218  48.3949327  15.3094232
 121.6821861  82.0665169  37.5128746 121.6993141  81.1767292  37.8653097
 122.4128056  82.0935249  36.8950486 105.2490807  78.9777422  12.5715530
 105.7791901  78.1823683  12.5205004 105.3386021  79.2673731  13.4794807
 108.2141113  49.2276525  15.3299427 109.0508652  48.7655497  15.3801250
 108.3638859  49.9257660  14.6924186  70.5279112  58.6769295  97.1691593
  70.0386429  58.1607723  96.5285119  71.4131832  58.3137989  97.1435007
  32.7717715  94.4679832   3.1884474  32.3333579  94.4593620   2.3375945
  32.3869544  93.7315559   3.6636466  18.0683070 109.3038368   1.1409413
  18.0887251 109.3771744   2.0951095  17.1488791 109.4365597   0.9101424
  30.6544524  75.7018948   6.5284210  29.7932177  76.0813475   6.7031246
  31.0936575  76.3487720   5.9762597  79.7967720 109.0457916  10.5276048
  79.1238689 109.6473122  10.8463502  79.3210888 108.4249210   9.9758053
 117.1767616  78.9145327  89.2742356 117.6289082  79.4477177  88.6203917
 117.3504353  78.0114841  89.0085682   7.0835047  65.1661491  18.9034474
   7.2038584  65.9654903  19.4160926   7.7763682  65.1980877  18.2437813
  96.6265869  85.7101917   4.7355708  97.0438194  85.0119591   4.2309815
  97.1772766  86.4780521   4.5827389   7.4611121  61.9503927  95.3998693
   8.0043631  61.4695549  94.7754439   8.0395632  62.1131611  96.1449393
 111.5725899  71.0483789   3.0126736 111.3811874  71.8641567   2.5499618
 112.4304676  71.1947060   3.4112677 113.3122730  91.9503403  94.5783552
 113.6755657  92.1155357  95.4483875 113.0450916  92.8135204  94.2625102
  19.2201262  67.3629141 103.1696125  18.8409358  66.5692329 103.5471340
  19.5176917  67.0959187 102.2998997   6.6938716  82.4694443 101.3177421
   6.5058451  83.3469486 101.6506925   7.5748568  82.5366592 100.9495392
 107.3897171  77.9183197  13.6803305 106.8952370  77.3219490  14.2425251
 107.9691696  78.3878899  14.2803073  16.9223528 100.7074547  56.0408068
  17.6723319 100.7246017  56.6353416  16.1623221 100.6221867  56.6163969
  59.9533701  71.8386650  22.6049066  60.2921534  71.0973787  23.1068540
  59.0154791  71.8486500  22.7959323  97.6126385 109.9307632  10.9020233
  98.0133438 109.6160221  11.7123294  96.7205143 110.1700497  11.1532080
   7.7159434  94.0019989  21.5254903   8.0826026  94.8624802  21.7288876
   7.7659159  93.5192585  22.3505306 108.2224560  90.2381706   9.5725507
 109.1784382  90.1900673   9.5777208 107.9384708  89.3993568   9.9358332
   3.9764910  96.7027664  96.7767736   3.9552909  95.8924007  96.2677666
   4.0035945  97.3979282  96.1193176   4.9409800  61.7464256  99.0819021
   4.9597865  62.5476360  99.6052953   4.1508990  61.8277931  98.5476919
 115.1754093  88.4269810  86.8714698 115.9356213  88.7707424  86.4022692
 114.4965076  89.0899563  86.7458495  86.3325691  79.0797567   7.8820473
  86.4367199  79.7608805   7.2176272  86.3412476  78.2599354   7.3880315
   9.9508601  59.7353125  89.6038302  10.8370810  59.5423985  89.9098357
  10.0565463  59.9331331  88.6732777 112.7578354  73.6001062  20.4086351
 113.2876110  74.3612957  20.6455922 113.0688286  73.3536339  19.5375609
 102.3874092  54.7763252   9.3939751 102.4803734  55.2445650  10.2236390
 102.7409744  55.3777504   8.7386000 113.2520771  83.4034729  97.1015938
 113.6099625  84.2734432  96.9246765 112.3415661  83.4553909  96.8109068
   1.3005190  90.6177425 109.1385414   0.8948260  91.4414597 108.8681361
   2.0347052  90.8828735 109.6925328 123.2487869  87.2004128 102.8804597
 122.5666237  86.8600845 102.3016282 123.1206989  88.1489468 102.8697928
 105.3217125  71.5536928  13.3403158 104.9086094  70.9320068  13.9395547
 106.1757374  71.1675882  13.1458986   3.7948733  67.7847242  56.7687893
   4.4273024  67.5936890  57.4614382   3.1263476  68.3203173  57.1959257
   7.3336821  58.1161690  19.8859227   7.4728137  58.3608532  20.8008027
   8.1360846  57.6581097  19.6358109  18.9217597  67.6517200  27.1793175
  18.3233958  68.3931160  27.0869970  18.8527136  67.1831846  26.3474894
 107.9283810 117.1662235  21.3334084 107.2167969 116.8298244  21.8781090
 108.5704231 117.5022507  21.9587922  98.6247444 103.2218742  91.0687300
  99.0722084 103.5594749  91.8446335  97.7062798 103.4569359  91.2006577
  34.5187979  95.0606441   0.2895293  34.8673564  94.1824341   0.4428158
  33.6951571  95.0798607   0.7768366   4.0211897  75.1068449  43.9758778
   4.4290190  74.8132372  43.1611919   4.7225695  75.5578804  44.4458389
  93.5369492  57.1011639  92.5007542  93.3184433  57.4889755  93.3481535
  93.5036945  56.1568594  92.6537939 124.4032669  99.2968178   7.1157598
 123.6846733  98.9010143   6.6226161 124.9915028  98.5669231   7.3093176
 112.0609570  90.6381512   2.0256525 112.5012016  90.8455181   1.2013852
 111.6968632  89.7634697   1.8892738 104.3089676  80.9003162  83.8165339
 104.1805840  81.2709999  84.6896585 105.2581501  80.8104324  83.7316879
  86.0377979  76.3637829  45.8431005  85.1150990  76.5645123  45.6863546
  86.4989471  76.7671156  45.1076508   7.6671534  52.4458933  13.4552050
   7.7699595  52.9192114  14.2808175   7.5110179  53.1303740  12.8045571
  94.9018574  82.4593544  53.2598209  95.4225826  83.2565594  53.1621647
  95.5468178  81.7522049  53.2738495  94.6685028  47.1566057  21.7019176
  94.8909855  46.5995312  22.4478412  95.5106258  47.4903774  21.3926506
  36.9686633  89.0607166   0.3180888  36.2709361  89.4506264   0.8447525
  36.9594699  89.5596313  -0.4987524  79.7517586  40.4603386  76.1175188
  79.0009594  41.0482931  76.2002119  79.9182320  40.4154158  75.1759776
 116.3459301  66.5521479   0.8973312 116.1937809  67.4349785   0.5601446
 115.4731560  66.1628962   0.9519307 115.5398083  52.8950787  90.3109809
 116.0218525  52.1347713  90.6362423 116.0706425  53.6463690  90.5755850
   3.5073119  80.3570652 105.7571700   3.8544875  80.7970047 104.9811792
   3.2744341  81.0696125 106.3523912 117.2712231  70.0950003  13.1195295
 118.0342102  70.1026344  12.5415814 116.7132473  69.4000196  12.7704012
 106.1685562  83.1318760   7.5375164 107.0842838  83.3823109   7.6598442
 105.6896305  83.6528111   8.1821018  84.9433804  79.2555285  21.7898107
  84.2777157  78.7092066  22.2077322  85.7161713  78.6931801  21.7369986
  98.2489967  95.0092697 109.3313520  99.0882206  94.7706795 108.9376476
  97.8328991  94.1715050 109.5344171  38.5885024  20.3499150  25.9229898
  39.5056963  20.5223036  25.7102203  38.3893585  20.9581065  26.6348028
   1.3314372  98.2774639  29.6274734   0.5135947  98.7684917  29.5483422
   1.9100791  98.6688709  28.9731073   2.6986342  81.1270428  97.8689941
   2.7108794  81.5203953  96.9964358   3.5734492  81.2945652  98.2195302
  83.9935112  54.8086405  97.5580379  84.7915363  54.3132973  97.7424952
  84.2351913  55.7207441  97.7189454 123.8467312 107.7952480  36.4596438
 123.0478668 107.5927162  36.9464922 124.3198776 106.9641304  36.4193702
 103.2642555  96.3970566 107.8300918 102.7290344  95.8337784 108.3891022
 102.6626873  97.0789146 107.5310751 120.1976013  86.4019775  35.0099111
 120.8627033  85.7170773  34.9407911 119.6816444  86.3165760  34.2082143
   3.5419493  68.2083893   9.4232816   2.8957396  67.6840496   9.8962641
   3.9919787  67.5808239   8.8577145 107.6714420 101.4111710  29.9003506
 107.8907204 100.5187988  30.1683354 107.1536636 101.7588997  30.6264496
 121.6754818  74.1395044  13.1433618 121.3096428  75.0046778  13.3273923
 122.0221615  73.8421679  13.9845765  24.3564444  58.1331491 103.6857673
  25.0029212  57.9986572 104.3787374  23.6677867  58.6543083 104.0985342
 110.5071926  66.4067936  30.7931542 109.8603821  66.5381813  30.0998974
 110.5861378  67.2635794  31.2125778  26.9582778  81.7088413  22.5668621
  26.0960227  81.6491032  22.9781842  26.8061381  82.2051430  21.7626429
 122.1348953  32.7700591  98.4692391 122.3529530  31.8389082  98.4287282
 121.3578892  32.8100538  99.0268155 115.6686211 127.9815388  35.1203537
 114.9663544 127.6573467  34.5564866 115.5141258 127.5562763  35.9638667
  87.1630287  78.7620449  38.0510163  87.1251965  78.9594221  37.1151519
  87.2657490  77.8112268  38.0913043   0.3470927  68.9942837 101.5640911
  -0.3057355  68.2942486 101.5635737   1.1867362  68.5387087 101.6247084
   7.0436984  80.1039314  15.4016471   7.0603686  79.9321651  14.4601321
   7.6620131  80.8241844  15.5246997 117.6327515 102.0930576  70.9857591
 116.7396832 102.2433472  70.6758078 117.5413895 101.9744778  71.9311818
  18.8769274  82.5717163  56.6879654  17.9327326  82.5047779  56.8302727
  19.1563349  81.6739655  56.5084982  12.1358138  74.5895338  17.3295557
  12.4906188  73.8033438  16.9145238  11.4060050  74.2712831  17.8609073
   7.2350817 100.3803730  32.1282125   7.7239256 100.5125999  32.9404831
   7.0446044 101.2651539  31.8165755 102.2449589 106.0908413  32.3824883
 102.9097939 105.4359055  32.5953031 101.9852161 105.8853912  31.4844012
  14.0090972  87.3858070 103.9573684  14.2290049  86.8280983 104.7035851
  13.6432105  88.1782722 104.3502375  39.5096713  81.3145161  39.7717738
  39.0125018  80.8918190  40.4720449  40.4203921  81.0789108  39.9487472
   8.6249762  40.0702858  18.9924610   9.4644290  40.2117443  19.4301271
   8.7838202  39.3338370  18.4020007 115.6356049  57.6158667  19.0980113
 114.9829769  58.3143806  19.0491545 115.5122852  57.1159935  18.2910705
 120.6321239  72.4863100   4.2062926 121.0479069  72.6905298   5.0439352
 120.3825378  71.5652514   4.2810398  83.8958549 104.0326500  19.8530567
  83.8979626 104.9897671  19.8407936  83.5033226 103.8047791  20.6958055
  20.8638220  86.7949867  96.1655148  21.5913706  87.2884560  96.5441915
  20.3505068  87.4500656  95.6926414  74.5371628  79.0682983   8.2109135
  74.7812653  78.4418297   7.5296044  74.0468788  78.5495901   8.8487136
 121.1255550  69.2891121  45.3558016 121.6944218  68.8804770  44.7033882
 120.4690361  68.6210823  45.5531693  29.9899703  82.0041561   6.3493705
  30.5346709  82.7261734   6.6627729  30.3509074  81.2282085   6.7781693
 119.2539692 112.6715469  65.6254530 119.4682884 113.4451103  65.1040030
 119.3997574 112.9452324  66.5310335   8.6160880  96.3710022   2.2578874
   8.2943087  95.5330086   2.5902411   7.8821211  96.9737339   2.3772235
 105.4787827 129.5422363 109.8976558 104.9310875 128.7574959 109.9183072
 104.9989700 130.1545906 109.3399439  97.5827122  32.1519256 103.8777312
  96.7447090  32.4414563 104.2384937  98.2138348  32.8019571 104.1865655
   4.9276667  54.6463442  20.0965738   4.3252688  54.2077827  20.6974196
   5.7353526  54.7491884  20.5998540 115.8911037  93.9312744  77.2286614
 115.5332851  94.1379642  76.3652500 116.6989994  93.4520340  77.0446571
   3.1969576  83.0026150  95.6563040   2.8849440  83.8946533  95.8084186
   4.0455371  83.1154442  95.2280422  44.5785075  63.1339645  94.1337665
  43.7946253  63.6827898  94.1576418  44.6618205  62.7964211  95.0255927
   4.5340758  70.6103516   6.1065102   4.4079810  71.1063814   5.2976286
   3.6930399  70.6727123   6.5592819 101.4354420 109.4285011  31.7553329
 101.7756462 108.6104393  31.3930249 101.7227745 109.4238663  32.6683784
   9.6175891  24.9031258  15.0058663   8.7399893  24.5216250  15.0282323
   9.9612361  24.7652984  15.8885574   9.2097979  75.5425882  67.3525866
   9.7775775  75.4760456  66.5848454   9.6853858  75.0806093  68.0429658
 120.6217003  92.2383213  30.5804181 121.3404179  92.4771500  29.9950647
 120.7064438  91.2911701  30.6896901   1.4328890 112.8521919   8.9244872
   2.1867209 113.2730865   9.3377781   1.7388182 112.6206684   8.0475414
 121.2705898  70.9666491  31.1145306 121.2276173  70.0107002  31.0911798
 121.1522198  71.1892414  32.0379353  19.7436839  76.5016890  14.1382051
  20.4467040  76.1770487  13.5755360  19.0959673  75.7969379  14.1429985
 119.3481159 100.0601959  11.7345226 119.3040085  99.3287468  11.1186707
 118.6769772  99.8637581  12.3881495   4.5839911  48.9054871  31.4868331
   4.1263991  48.5218430  32.2349381   5.3340750  49.3588209  31.8716574
  35.3659182 107.6702213  32.7805257  35.2193766 106.9200706  32.2043061
  36.2627154 107.9461479  32.5910997 104.2861843 100.5947018 105.2667495
 104.4777203 101.0854244 104.4675382 103.6807346  99.9081421 104.9869519
  28.0245238  94.1353416  98.1144627  28.3177500  94.1102314  97.2036263
  28.6932688  94.6491051  98.5672876  75.3039265  77.6183987  20.2152252
  75.7702303  77.8237391  21.0255527  74.3923950  77.5066853  20.4851532
 124.0493774  51.7274714  17.9656398 124.3901348  52.6066637  17.8009140
 123.8491821  51.3813591  17.0959520 100.1529217 114.4261742  20.0281835
 100.7179451 114.3000031  19.2659092  99.4837666 115.0426865  19.7309029
 107.1920300  84.4717693  42.7125788 107.3597527  85.2787781  42.2259188
 108.0579281  84.1792011  42.9969406  88.1968689  84.9925518  94.2957553
  87.4881363  85.2137566  93.6915990  88.8133240  85.7207489  94.2186888
  15.8840113  80.3658485  18.7946415  15.2807837  79.6422195  18.9640784
  15.8461886  80.8999729  19.5880580  21.3952475 108.8024712   7.1630770
  21.8863803 109.3635559   7.7632427  22.0251494 108.5735035   6.4796764
  93.3647251  65.6539679 104.7477134  92.8314209  65.6506157 105.5425748
  92.7369404  65.7931566 104.0386661  99.4184208  87.3607254   8.9601272
  99.5040703  86.4180565   9.1024786  99.0802860  87.6984406   9.7894901
  15.4531603  57.3077440  27.8542137  14.7005015  57.2036791  27.2720647
  16.0964137  56.6779232  27.5289583   9.7851687  96.9017601  55.0368118
   8.9001399  96.5405464  55.0867319  10.2142935  96.5954399  55.8357191
   1.0807734  56.0490751  39.1778946   0.9455138  55.1773214  38.8064432
   1.6760951  55.9061718  39.9137020   5.1211005  79.2903900   4.1873828
   5.5717211  80.0259876   3.7725681   5.8246165  78.7531805   4.5516700
  98.0465794  77.1895838  99.1994973  97.5452805  76.3792658  99.1082939
  98.1453705  77.5122118  98.3037397 121.9777870  55.7514811   3.3449858
 121.4340496  56.2859392   3.9237174 122.8613949  55.8327627   3.7039590
  90.7688999  36.3579583  40.7875061  90.6295490  36.0022974  41.6651821
  89.8872089  36.4751172  40.4337835  26.1970549  78.4322214   7.2460335
  26.6814929  79.2177439   6.9920504  25.8606558  78.6303997   8.1199855
  89.8235607  92.3064232  44.6251440  90.6943130  92.6083088  44.3665028
  89.2587185  93.0689907  44.4999743  13.1226664  94.9776554  83.5510453
  13.8896685  95.4565048  83.8651069  13.4443789  94.0912056  83.3869346
 120.0877666  81.0640144  29.5234418 119.1368675  80.9562492  29.5030355
 120.2999115  81.1433601  30.4534578 103.3701611  74.9556971   9.0022266
 103.7092972  75.8237314   9.2207122 103.7838173  74.3702936   9.6365929
   2.9389983  80.8699608  45.7560635   2.7089816  80.5668545  44.8777390
   3.4424811  80.1489544  46.1340523  14.5760375  76.8158436  21.1425471
  15.0512343  77.4490833  21.6805363  14.6469813  77.1577406  20.2513099
  11.6531401  81.2186337 102.1480390  11.8638640  80.7901192 101.3184615
  12.3960047  81.7992592 102.3131719 112.1786594  80.9308910  97.8951415
 112.4000359  81.8580437  97.9823729 112.9040146  80.4706860  98.3174010
   3.3965045  57.9815722  20.2625942   3.8860159  58.1182718  19.4514704
   2.6861411  57.3890018  20.0166678   8.5952883  50.6780767   5.9977931
   7.8781252  50.3620577   6.5473783   8.9507800  51.4275265   6.4754742
   6.1275797  20.2997637   1.6240470   6.9331389  20.3650665   2.1369313
   6.2134963  19.4742441   1.1472154 115.2415371  88.4999657  99.3775567
 114.8067379  88.9947128 100.0721070 114.7033978  88.6537552  98.6010369
   7.5025015 108.9840031  45.2640247   8.0927210 108.7642956  45.9848595
   7.2480040 108.1376457  44.8963976 105.4739571  69.8040390  48.7165117
 105.7349586  70.6109953  48.2727432 104.7618866  70.0701380  49.2982101
 120.8390522 101.7394447  42.9326773 120.9549522 102.6663494  43.1416178
 120.3521919 101.3852406  43.6768103  82.3354816  76.1913109  82.8056225
  81.4751244  75.7988787  82.9539951  82.9557323  75.5380964  83.1293973
  10.6418830 112.0980167  28.8241315  10.7953578 112.5492764  27.9940438
  10.1530963 112.7287388  29.3528199 115.1131344  99.4727516   2.0119569
 114.5515442 100.2043056   2.2682329 114.5822525  98.9675426   1.3961899
 116.8167973 105.0353336  38.7420583 117.2543430 104.2569923  38.3971477
 117.3455811 105.2924252  39.4973922 116.2331009  93.6006451  34.0909410
 115.9548187  93.6117840  33.1751513 117.1873093  93.6655426  34.0521216
  12.7714949  78.2157755   0.5371034  12.3212939  79.0143824   0.2618408
  12.2004061  77.5057220   0.2439885  18.1004458  94.8427773 108.7920930
  17.1583300  94.9836826 108.8859088  18.1732874  93.9962959 108.3511909
   3.0487090 106.5582848  10.3712416   3.2257872 105.8769417  11.0198116
   2.5618868 106.1099625   9.6796948 106.6040134  69.8497295  80.8359560
 106.0677147  70.3529119  81.4486726 106.2787342  68.9528465  80.9136232
  94.7047043  68.2815647  27.9052544  94.6838188  69.2255116  28.0625963
  95.0955391  67.9151201  28.6984730 115.3791714  63.3185196  32.1112704
 114.8763371  63.4722662  31.3114214 114.9197865  63.8218927  32.7834463
 112.4341202  56.9279051  28.0654907 112.6313305  57.0063972  27.1321201
 111.6780472  57.4994278  28.1994367  85.4411507  84.5599747  24.2679358
  86.1101818  83.8972950  24.4396353  85.7123280  85.3150082  24.7900701
 105.7418156  81.6958714  13.7438309 104.9753284  82.2254658  13.9635265
 106.4072514  81.9630337  14.3779004  92.5655937 105.1508522   6.1429161
  93.5109615 105.2717876   6.2316209  92.3529816 104.4582844   6.7685229
 120.7494259  70.0608206   8.2770222 121.4622784  70.6661463   8.0729383
 121.1474419  69.4072247   8.8520259 112.1875572  39.8846507 102.2327580
 112.7429295  39.1830492 101.8928357 112.5078392  40.0339460 103.1223448
  60.7284098  86.1250305  20.9166384  61.0831576  86.7210674  20.2570033
  60.1530581  86.6732788  21.4501429 108.5680103  82.3955727  48.3152199
 109.5206356  82.3042297  48.2954216 108.2694626  81.9655895  47.5138378
 121.5867043  58.3042336  81.7545446 122.3463154  58.8746977  81.6370758
 120.8515167  58.8099718  81.4081916 107.8266907  81.1921215  11.3988411
 106.9915104  81.1655617  11.8657458 108.4470081  81.5437698  12.0374227
   6.5202551  70.7209063  26.9416356   6.0377436  71.4695120  26.5909100
   7.2191649  70.5672836  26.3058949  99.2104435  93.7719059  97.6633835
  99.0568352  93.9020443  96.7275906  98.6403847  94.4110775  98.0908394
  22.9480486  98.7494278  90.0522327  22.6957923  98.8193798  90.9729481
  23.9011794  98.8374329  90.0576878 119.5119762  34.9133730  82.6115131
 118.6783695  34.8600936  83.0789471 120.1735878  34.9314046  83.3030128
  22.5064021  64.7390747  84.8592281  22.7672892  64.8749161  85.7701206
  22.4855357  63.7877512  84.7553921 106.5329742  82.6588535 108.2127953
 105.8024788  83.0487728 108.6929798 106.7953014  83.3335686 107.5865555
 120.6280613  39.3537664  16.6149274 120.8890247  39.2853832  15.6965295
 120.1182842  38.5603523  16.7787877   8.7538748  75.2830839 101.1851597
   7.9678565  75.1066780 101.7021465   9.4728594  75.2224874 101.8141460
   6.5314608  79.5334864   1.4705888   6.7566710  78.6535883   1.7727319
   7.1177035  79.6898746   0.7302514 108.9548302  83.9791203  36.7537061
 108.1065273  84.2501831  37.1046201 108.9505577  83.0247593  36.8272439
 114.4270420  69.8394632   7.6833574 114.3402958  70.7373857   8.0034295
 113.8596535  69.8038292   6.9132654 108.8677216  51.9276524   8.3108655
 108.9295578  52.8585482   8.0967466 108.4838104  51.9085169   9.1874925
 108.0596066  74.9926662  72.1590614 107.3834610  75.2487183  71.5317678
 108.2298279  75.7870054  72.6653004  28.7710314  48.7919331   7.0653192
  28.6303835  48.8359451   6.1195318  28.7536555  47.8563309   7.2667638
 102.9597855  52.4568558  23.1532136 102.2408867  52.2808123  23.7601987
 103.3458424  51.5975523  22.9835168   6.6072684  58.8914967  29.6871320
   7.1203166  58.3534765  30.2900831   6.9087535  59.7855902  29.8481885
  86.6286278  58.6008024  80.7818890  86.4074230  59.5038128  81.0096455
  86.0931396  58.0675697  81.3693810 114.5694256  81.2302685  61.5713739
 113.8216114  80.6333828  61.5984678 114.1799068  82.1039486  61.6059542
 107.3151302  89.9675846  18.4219400 107.2953892  89.0148163  18.5117761
 107.7096272  90.1190567  17.5630609 103.8060570  77.8901958   8.3894960
 103.6809635  77.5563049   7.5011865 104.6562958  78.3290815   8.3628885
 120.7303619  84.5690060  79.2739296 121.5939617  84.4743538  78.8720989
 120.6591225  83.8214302  79.8674583  -0.1143045  69.0478516  11.6166631
   0.5398017  68.3762026  11.8096963  -0.1544923  69.5786858  12.4121705
 118.4403229  58.2090712  85.9992981 117.7332592  57.5638676  85.9979916
 118.2174110  58.8101244  85.2884674   6.2110930  40.1715994  95.2043724
   6.3193636  39.2215323  95.1610088   5.9430914  40.3411484  96.1075115
 108.4899902  85.8835411  91.2946129 109.0789032  85.5148125  90.6362438
 108.9317799  85.7223129  92.1283150 122.5913143  36.2759399  78.7387466
 122.9630661  35.5253220  78.2754898 121.8824863  35.9056759  79.2647648
  21.1785441  86.7749500  11.6275636  21.3725787  85.8867741  11.3279954
  21.7821913  87.3310661  11.1350576   4.7251349  35.8702922  86.8326759
   4.7772055  36.7978024  87.0634270   3.8616686  35.5949640  87.1406460
 109.7300148  48.7033367  85.6133080 109.2718410  48.2984591  84.8768425
 109.0403461  48.8930178  86.2493992   0.9785681  50.8088636  89.3099403
   0.4359179  50.2793264  89.8941898   0.5381899  50.7571363  88.4616375
 100.3380871  47.3554134  15.8217565 100.2049446  46.7585802  16.5581552
 100.7176590  48.1408978  16.2156717 123.8239098  73.1134367 105.3953743
 123.5009575  73.6930799 104.7054863 124.3567085  72.4657154 104.9340534
 108.6691284  74.2580318  92.2859287 108.3549690  73.8869476  93.1104469
 107.8773403  74.5653582  91.8445110 121.1412239  46.3504887  88.5836697
 122.0459080  46.0444355  88.6477566 120.8994102  46.1936522  87.6708984
 103.4108162  68.1933641 102.5275803 103.9653397  68.8144684 102.9997730
 102.6487732  68.7074757 102.2607231   6.1503821  52.2934437  94.0644073
   6.9340830  52.8324986  94.1714764   5.5656844  52.5787449  94.7665215
 108.0770016  30.6375408 104.2860508 107.6561069  30.6074047 103.4268856
 107.5942802  29.9996901 104.8117447   6.1409407  57.1730757  11.0221902
   6.7439395  56.5516806  10.6141511   5.9364920  57.7995157  10.3279249
 112.4220657  73.1901646  93.0737400 112.5081730  72.8868675  92.1699524
 111.7028236  72.6708031  93.4331608  76.9846869  61.7334032  93.4494591
  77.2618103  60.8177328  93.4180164  77.7044201  62.2155809  93.0423641
  96.9913006  17.6726592 106.7376423  96.5900993  17.4435878 105.8993053
  97.3993301  18.5246229 106.5830421  67.5288725  71.0731745  77.6094770
  67.3060036  70.1593447  77.7869034  67.1327448  71.5608692  78.3316088
  66.8111658  57.5922298  96.7665863  66.9239902  58.5373592  96.6654015
  67.3045206  57.3754597  97.5576878  30.8278590  81.0312271  67.1902609
  31.1407118  80.9966373  68.0942297  31.5772467  80.7478905  66.6664553
  11.1221819  57.9189491  96.2959671  11.3285475  58.1903172  97.1903992
  10.1768141  57.7690983  96.3032246  99.9535465  60.0546885  72.1482563
 100.2592564  59.2176390  72.4977160  99.1722012  59.8319340  71.6421795
   6.0184031  93.9860439  72.0193529   5.8119135  93.0789280  72.2445679
   6.9302779  94.0979195  72.2880363 108.1483746  72.7892017   4.2015878
 108.0322742  72.9581308   5.1365796 108.9313316  73.2858896   3.9638749
  86.9073677  60.1946545  98.4040070  85.9742832  60.1543140  98.1943512
  87.1332932  61.1204338  98.3138943 123.0940056  18.3665895  78.0154896
 122.6703548  17.9499316  77.2650528 124.0113544  18.1011391  77.9504967
  93.2955360  74.3958426  86.0428619  92.7031612  74.4881773  85.2966690
  93.0465031  75.1050138  86.6355610  10.5064326  79.9792957 104.3011093
   9.6713858  80.4454517 104.2608356  10.6874114  79.7333193 103.3939266
 109.8462296  28.5971689 101.9732285 109.2127323  28.3007455 101.3197422
 110.6818390  28.2353520 101.6781235 115.2664089  32.2206783  11.2556974
 115.9068680  32.8756475  11.5332929 115.6842041  31.7742229  10.5192510
 109.2795372  74.0717793  28.8894883 108.7609100  74.8041630  28.5565034
 108.8308525  73.8059568  29.6921483  96.8334103  43.2840681 103.0575275
  97.0681572  44.1610050 103.3610249  97.6073647  42.7517557 103.2415962
 113.2517147  47.5610065  96.7280674 113.9023399  47.9554558  97.3088646
 112.6042366  48.2521868  96.5892315  55.6879568  13.1907439  85.3400421
  56.4752531  12.9750252  85.8399010  55.0581694  13.4824443  85.9992218
   2.2224455  67.1928883   6.1512033   2.8967696  66.6486263   6.5577737
   2.4806052  67.2465992   5.2310411  94.5713902  50.2282524  12.2166673
  94.2039204  49.8644924  11.4111368  94.4222355  51.1709356  12.1436254
 111.1246681  56.6765356  15.5114690 112.0650101  56.5146828  15.5875818
 110.8995342  56.3716507  14.6325055  83.4700680  29.3347335  29.3017045
  84.1163731  29.5354247  29.9786416  82.6509666  29.6992683  29.6369973
 114.5368099  59.0203810  93.3793354 113.8928032  59.2238379  94.0576458
 114.1636944  58.2735157  92.9111290  94.0300369  65.3186178   6.4038602
  94.4814587  66.1267185   6.6476289  94.3974400  65.0869942   5.5508653
 110.8147335  46.3483286   8.5017816 110.0868702  45.9188938   8.0523053
 111.1565208  45.6805706   9.0963498  36.8370371  69.5565319  97.1054173
  36.1534052  69.4875908  97.7718449  37.6506930  69.3803549  97.5778294
 114.1193867  77.2449589 101.7604828 113.3647060  76.9228554 102.2533703
 114.6336746  76.4604282 101.5700817 122.0190525  66.9594526  92.8516197
 122.0046139  66.0305119  93.0820465 121.2970257  67.3412800  93.3507347
   6.2252741  36.0407329  92.3694992   6.4881259  36.6794634  93.0321980
   6.7980414  35.2889204  92.5209999 103.3966160  55.3497744   3.9626542
 103.4342289  54.9338484   3.1013624 104.2593288  55.7493639   4.0735475
  13.9155703  34.2022276  76.2320709  14.0774851  34.4806886  77.1334457
  13.7032347  33.2716036  76.3033628  91.8878174  76.3987064 100.7045269
  91.1850166  75.9025812 100.2847958  92.6080513  75.7732725 100.7840347
  99.7450733  52.5634718  89.0351963  99.1995811  51.9787788  88.5090828
  99.5263100  53.4412289  88.7222862 102.1879673  48.8455153  64.9240780
 102.9446983  48.7324333  65.4992437 102.4882030  49.4556904  64.2504454
 113.4326077  29.0338063   5.8036462 114.1909027  28.4636450   5.6765882
 113.7944984  29.8309398   6.1907522 117.1900654  60.9748745   3.6302797
 116.2756443  61.0648060   3.8985864 117.1972942  60.2080011   3.0574933
  13.7264090  68.0244446  10.0329820  13.7641268  68.9472008  10.2846376
  13.9643603  67.5491667  10.8290521  98.4362698  74.8699427  69.6868181
  98.2476997  74.6418190  68.7765265  98.0817127  74.1403437  70.1949596
 119.6494770  56.2827873  13.8497773 118.7759686  56.5657568  14.1202489
 119.4912815  55.6736517  13.1285516   8.5722762  71.1325407  24.8810426
   8.5171538  70.5926466  24.0925638   9.5108538  71.2142038  25.0502721
  86.3200760  97.9985237   3.1228772  85.7746601  98.2693958   2.3843805
  87.2170067  98.1595898   2.8299753 101.2857723  99.2863178  78.2669640
 101.7480087  99.8521042  77.6485300 100.3587151  99.4340611  78.0799294
  11.3851958  56.8430138 103.2908154  11.7293673  55.9792995 103.0632877
  11.2715369  56.8129206 104.2407608 116.9869709  82.6988602 101.3761234
 117.1308517  82.1442604 100.6093407 116.0790539  82.9906368 101.2937164
  97.0666027  21.7557263 101.0440063  96.9793510  22.6559806 100.7306957
  96.3992596  21.2682939 100.5609894  12.9177981  86.5182877  96.1825085
  12.2584372  86.8130016  96.8106937  12.6489573  85.6288433  95.9526539
 107.6947021  60.2292824  80.2510548 107.6718426  59.6127415  80.9828949
 108.0927181  61.0196018  80.6160355  99.5005608  67.3372173 109.6879578
 100.2488232  67.6050758 109.1545010  99.2120266  66.5117836 109.2985439
  17.0601779  63.9635754  93.8908958  16.6815978  64.4771099  94.6044731
  17.9792624  63.8550472  94.1353130 101.2668896  55.6345177  23.2012979
 101.7986298  56.1304903  23.8237897 100.4042625  56.0474968  23.2408181
  90.7623386  97.7905369  63.6669636  91.2275600  97.1374416  64.1897106
  89.8738956  97.4436855  63.5857296  62.8440237  83.1632710  75.1154852
  63.5537338  82.9353619  75.7159901  63.2473516  83.7572956  74.4824791
 116.8770123  31.6509509   9.0417615 117.1133327  31.6647482   8.1142942
 117.7127743  31.7218685   9.5029584  20.5196028  75.8109856 104.4589329
  20.7625514  75.1075268 105.0608921  19.7810965  76.2462664 104.8848057
 105.4651833  73.7783718  91.9808197 105.5149746  74.5645666  91.4370918
 104.5352745  73.5516167  91.9894409 122.2006321  75.2000856 109.3945980
 122.1103096  74.6062326 110.1398563 122.9735565  75.7261133 109.5998096
  88.3126926  21.8997931  84.3445778  88.3397675  21.3053608  83.5948086
  87.4026108  22.1937156  84.3844604 110.5414104   9.5007271   5.3562204
 110.9889507   8.7970316   5.8260576 109.6103859   9.3271828   5.4951803
   1.7058306  25.4928803 103.4230900   2.5820380  25.4809642 103.0379391
   1.1670714  25.9516358 102.7784920  92.6638794  93.6527729  91.0464382
  92.9832745  94.5409584  91.2056065  91.7239571  93.7013912  91.2208462
 106.3213158  97.4626637  36.5582982 106.3833427  96.8822861  35.7996408
 106.9066238  98.1911469  36.3510553   7.7713805  42.6948738 104.4751263
   7.1875983  42.1537304 105.0067234   8.6242896  42.6185989 104.9028587
   7.7472239  24.7262073  84.3022442   7.5929099  25.4512525  84.9078274
   7.5876742  25.0999188  83.4355736 117.1088123 109.0636635 100.3457355
 116.8742943 108.1501198 100.5090618 116.2707901 109.5256424 100.3227806
  21.1264735  44.0927362  25.2503053  20.9761839  43.2727003  25.7206193
  21.5210562  44.6732426  25.9011117 121.5649796  38.5381365 108.7635422
 121.4036751  38.2653975 109.6667767 121.1264324  37.8745604 108.2310295
 122.0120907  43.4445190  91.9703293 121.4273739  43.6028957  91.2292194
 121.4289856  43.1889534  92.6851177 103.9642143  47.0275688  93.2484341
 104.6432877  46.3942814  93.4808922 104.3646240  47.8806114  93.4164143
 111.8706322  94.5575237 107.9174328 111.1657429  93.9829063 108.2160378
 112.0237923  95.1507854 108.6528301 110.5715656 103.9673138  82.8371239
 111.3838482 104.4726944  82.8689575 110.6909943 103.2804012  83.4929562
  24.4979125  69.4048691 101.9334888  25.0827437  70.1620436 101.9632339
  24.3082648  69.2851257 101.0029316  96.8170261  67.1656942 102.3933220
  96.0334015  67.6882172 102.5640011  96.7911530  66.9957256 101.4516830
 106.2811852  73.7524605 109.0482235 106.8953323  74.3969631 109.3998814
 105.8959484  73.3415508 109.8221588  15.4645281  80.9802055  69.8482943
  15.3428488  80.0489616  69.6633530  16.3291388  81.0325241  70.2556515
  20.4298335  87.2554493 108.3693027  20.2100783  88.0324268 107.8552628
  20.0945502  86.5232468 107.8519058 101.4316750  70.2961874  91.3299465
 102.1479130  70.8542919  91.0270309 101.3456059  69.6272182  90.6507492
 106.5486431  85.1346684 100.3179741 107.2388363  84.6217251 100.7384109
 105.7343769  84.7220135 100.6059361 115.6260300  46.0507298  83.2193279
 116.2577438  46.6508389  83.6156082 114.7747517  46.4565086  83.3833408
 114.7329617  41.9424582  65.3389597 114.2594910  42.7675581  65.4450941
 114.6113682  41.4876223  66.1723709   8.6543208  98.3261585  66.8458557
   7.8818541  98.0179214  67.3196936   9.2684870  98.5862350  67.5324392
 102.6518345  37.1432495  79.0888405 102.9219055  37.5302243  78.2560492
 102.7373314  37.8553486  79.7227478 108.8822842  66.0561228  84.1374111
 108.5863209  65.2968597  84.6395588 109.8173428  65.9034204  84.0010929
  20.8875495  67.6881504  13.8218442  20.7494670  68.5787487  13.4993497
  20.8723479  67.1434164  13.0349103 109.9454212  83.6336327 102.8601551
 110.5143833  82.8790760 103.0123520 109.2279339  83.5222626 103.4838867
  90.5352688  79.9304676  76.8133020  89.8071289  80.3809643  77.2411966
  90.1378727  79.1543818  76.4183474  11.0153514  53.8398552  32.3453370
  11.1623412  54.5276642  32.9946081  11.3026362  54.2261171  31.5179960
 105.9654427  76.3907099  11.2478296 106.6389084  76.0782433  11.8520204
 105.1548767  76.3600826  11.7560521  15.9937029 119.2702675  91.8351841
  15.5093985 120.0203323  92.1802711  15.7311087 119.2178631  90.9162045
   6.1474829  52.1027422  98.3365059   6.9854289  51.8549728  97.9457474
   5.6373435  52.4538517  97.6066399 119.9024391  74.8179054  60.2099371
 120.0967121  74.1687441  59.5338583 120.7603359  75.1411867  60.4851389
   7.4604636  56.9307280   6.6143075   8.3355551  56.9353390   6.2264577
   6.9208270  57.4204350   5.9936563  89.4785404  43.4956312 107.9724979
  90.2504253  43.2522726 108.4835720  89.6627045  43.1708860 107.0911121
  90.8577919  23.1253505  74.2609262  91.5990353  22.5635099  74.4870281
  90.0923157  22.5565410  74.3430233   3.7821417  86.3753700  94.8489952
   3.8595610  87.2284698  95.2761555   3.0121165  85.9745693  95.2522945
  14.8248702  51.8194771  91.3878536  14.3132239  51.0682821  91.0875893
  15.0116187  51.6299438  92.3073292 101.2906265 105.2764034  86.5658379
 102.2117901 105.5287933  86.5026474 101.1720943 104.6270943  85.8725929
   3.2106619  60.6254911  29.7509996   3.4165030  59.6927738  29.8134462
   3.8583689  61.0518122  30.3122083 103.0047131  37.0090485  91.3420296
 103.2045174  36.5233397  90.5417824 103.6126614  37.7483177  91.3316154
 111.2576389  79.7361374  95.6480789 110.3637409  79.4974709  95.8934689
 111.6489029  80.0638962  96.4578438 111.4407349   8.8467407 104.5674515
 111.9117928   9.1776991 103.8027287 110.7500744   8.2935899 104.2024231
  25.4564982 100.4491711   0.3459302  25.6233531  99.7758198   1.0054723
  25.0193339  99.9831963  -0.3668078   3.4170466  82.2419930  69.1305017
   4.2744093  81.9352531  68.8354158   3.4106856  82.0664406  70.0714445
 120.1603222  75.1728964  75.8391762 120.7339001  75.5397272  75.1663589
 120.6168652  75.3446627  76.6627693 102.4912453  90.5659199   2.0549241
 101.7336655  90.0578499   1.7648069 102.3090267  90.7643795   2.9734174
 105.9932995  67.2004890  88.9001942 105.4779911  67.4733210  89.6593094
 106.8832397  67.1005774  89.2382050  97.9595566  65.3850222  72.1599150
  97.9355907  65.2958202  71.2071800  98.2383060  66.2885237  72.3089409
 106.1923313  49.1528988  91.0966682 107.0470428  48.7421894  91.2270832
 105.6464672  48.4581804  90.7283783  98.0791664  45.2378750 100.2752590
  97.9962921  44.2937040 100.4090786  97.3657894  45.4584312  99.6763611
  89.3122387  59.0497923  14.2357293  88.7811184  59.6500206  14.7590486
  89.2408657  58.2096434  14.6888200 113.0002594  83.3269596  60.7089567
 113.0628204  84.0902805  61.2831068 112.2574139  82.8298664  61.0514688
 121.0966492  67.3278570  72.2702980 122.0534229  67.3445225  72.2472620
 120.8337593  67.3946142  71.3523293  15.8303958  70.1817846  85.9870529
  15.4553824  70.9612513  85.5771351  16.5063124  70.5213308  86.5736294
   3.6046439  70.8817530  97.4605942   3.4697562  71.4989662  98.1796837
   3.2695799  71.3370371  96.6881466  80.9893417  50.1086187  44.1154901
  81.3570976  50.9381056  44.4203512  81.4549828  49.4407749  44.6188775
 111.0699177  54.1685629   1.9064275 111.4686584  53.9415359   1.0663644
 111.4922905  54.9899149   2.1578447  37.9380160  45.7347298  88.0661201
  37.9073077  46.2305880  87.2479439  37.0253306  45.5058718  88.2418728
  22.3739844  72.0084667  94.4952106  22.1231490  72.8312874  94.0753555
  22.7173262  71.4704895  93.7818146   0.6415778  45.3321505  71.4421749
  -0.0084562  45.9481287  71.7801952   0.1738482  44.4991446  71.3824701
  98.4251785  35.7606101   9.8999730  98.0194092  34.9001598   9.7940961
  98.2544041  36.2094736   9.0719739  11.3926058  35.6714153 101.0288811
  11.9794970  35.9571791 100.3287888  11.9658595  35.5433893 101.7846680
 115.7441139  93.6657524  85.8838940 116.5188885  94.2181396  85.9879589
 115.4065895  93.5566521  86.7729473 117.4554443 106.5000343   6.8121377
 117.5961494 107.1996307   6.1741773 117.3033619 105.7184601   6.2808744
  73.9674950  56.7886448  88.8897133  73.5036087  57.4063063  89.4549942
  74.8745632  57.0943213  88.8945103  96.4140224 101.1844254  75.4729080
  96.2767220 100.2625084  75.2550697  97.1106052 101.4691353  74.8813438
   9.9391394  12.1395648 104.4394112   9.2866068  11.4415622 104.4962025
  10.6092387  11.8934584 105.0770855  35.7434207  36.1123896  75.7862425
  35.6385165  37.0535445  75.6467724  35.1649314  35.7084560  75.1393890
 110.7873154  98.7842941   1.5773145 110.3276730  99.5717716   1.8685857
 111.0579586  98.3516121   2.3871080  76.6032457  71.3808107 108.4454823
  76.7822981  70.9125519 107.6300716  77.4411869  71.3851213 108.9081669
  96.2030029  52.3428249 100.7882977  95.3694916  52.2230959 100.3331470
  96.7865276  52.7130985 100.1260090  -0.2027959  49.8209667  22.5402585
   0.3336363  49.1597748  22.9776231   0.1397162  50.6561756  22.8586046
 100.1597977 106.1649036 103.6140442 100.6085205 105.8515549 102.8287506
  99.4384193 105.5484390 103.7397766  81.9766521  64.5948839  99.4401836
  81.9821072  65.3623056 100.0122452  81.1891174  64.1131783  99.6931267
   4.4479018  76.3235855  53.7602520   4.4005995  76.7664242  52.9129696
   4.0896922  76.9571352  54.3819666  75.2454519 100.7197952  82.5309563
  74.9191523  99.8855400  82.8682613  75.6659651 101.1346626  83.2841396
  89.3178844  43.7383080  65.7415533  89.3694401  44.4212294  65.0728321
  90.2071095  43.3881521  65.7953644  25.8207827  40.0820112  84.3480301
  26.7438346  39.9977899  84.1090298  25.8079177  40.7675219  85.0159740
 117.6158237  74.1622305  89.0285492 118.0317402  73.4959173  88.4815025
 116.6939735  74.1418219  88.7716293 108.8973713  50.2959681  64.5359945
 109.2997169  51.1202383  64.2622805 109.0754223  50.2427244  65.4749823
  26.3747531  61.1778069  78.5059547  26.5288954  61.4903927  77.6144600
  27.2399932  60.9165096  78.8211012  90.1746273  44.7155190  76.7973661
  89.3586445  44.8602772  77.2763729  90.0835991  43.8366222  76.4292765
 124.0525913  58.9797020 104.8936749 124.2019463  58.5195827 105.7196426
 124.9149799  59.0150070 104.4798374 120.0518227  25.9307861  95.1679802
 120.6739616  26.6364336  95.3446960 120.6001663  25.1638317  95.0026608
 103.8604164  70.6887245  85.5460167 102.9938316  71.0263681  85.3195858
 103.9600849  70.8895779  86.4765835  96.8976784  75.9633446  92.9874420
  97.1859837  76.8678999  93.1094742  97.4795818  75.6156015  92.3116398
 115.0345135  24.0305805  81.9620419 115.5097485  24.5207644  82.6329422
 115.0086308  23.1332588  82.2942734   2.5001460  84.1084671  48.3325720
   1.9196635  84.8633575  48.4295845   2.1483450  83.6307812  47.5813866
 113.9449787  64.8302412  70.6659985 113.6670780  65.2609110  69.8575878
 113.4826756  65.3011274  71.3593769 121.9799805  24.5757937  61.0807991
 122.2890186  23.8111377  61.5666294 121.9623184  25.2801418  61.7287302
 121.8805313  45.4055214 100.6158066 122.4207401  46.1895323 100.7144833
 122.5103951  44.6914148 100.5180645   6.4541941  24.0108514 102.9078007
   6.3569861  23.0955243 103.1704044   7.3728400  24.0900397 102.6508141
   6.7532664  83.2251072  88.9066315   5.8513671  82.9999542  88.6783314
   7.2893839  82.6710796  88.3393097  17.5430327  25.9525156  11.5880815
  16.9182616  26.6776729  11.5817109  17.4339038  25.5348372  10.7337610
   5.0975638  33.6590314  97.8248978   4.4480639  33.2365203  98.3869076
   5.3114825  34.4748735  98.2775307  88.2615471  84.9386024  61.2149191
  88.6723232  84.2008305  60.7641602  88.3215714  85.6631660  60.5923223
 102.9759884 103.4266853  73.5312366 102.3490810 102.7384186  73.3087254
 103.8331604 103.0234337  73.3938599 119.0315723  74.6652842  85.4032898
 119.0112114  73.9470720  86.0357380 118.2512569  74.5326090  84.8650074
  22.9148417  80.2543449  51.4159536  22.4613410  81.0820103  51.5757561
  22.3030215  79.7446680  50.8847809  91.0345745  80.9306622  74.0785122
  91.0497761  80.8697605  75.0336504  90.8159161  81.8453503  73.9002895
  19.2658740  52.4152470  83.7336063  18.4385520  52.7226830  84.1040802
  19.1541224  52.5088263  82.7875614  13.1615000  77.4204016  71.5440559
  12.7417307  78.1048393  72.0651722  12.6035529  76.6519356  71.6639805
 116.5671825 101.3850117 102.8046608 115.7399654 101.8567085 102.7074814
 116.9624233 101.4126015 101.9333172 113.1118870  43.9478779  83.3994675
 112.7825832  43.1602764  82.9664803 113.1572628  44.6028996  82.7029705
 111.2794781  87.0766258   2.7135984 111.0563660  86.7831898   3.5969678
 111.5745640  86.2840366   2.2653142   7.9990035  82.4698162  76.8832874
   7.1579962  82.0127392  76.8867588   8.5772639  81.9113731  77.4028921
 108.4266376  82.9531956  77.8378010 107.7541637  83.5779095  77.5662661
 109.1595840  83.1172657  77.2444105 108.1484222  87.4980927  33.6500978
 108.5813999  86.6447163  33.6729336 107.6844597  87.5536919  34.4854879
  88.3486366  85.5158138  72.2499752  88.4177113  86.4351749  72.5073338
  88.9271832  85.0532627  72.8562450  26.0478144  81.2911701  58.9817953
  26.1152011  82.0052052  58.3478832  26.0632926  81.7257023  59.8345470
 106.7271519  44.8288965  99.5551205 107.0045948  45.1357555 100.4183006
 107.5323105  44.5180178  99.1412354 107.9538727  42.7131367  89.9536228
 107.9043007  42.8464651  89.0070534 108.8821507  42.5543785  90.1248550
 109.8276329  92.2811413  71.1677313 110.2414989  92.1092510  70.3219175
 110.3450012  92.9912472  71.5476179 121.3301468  73.1429291  84.9133492
 122.0398998  73.7789059  84.8238277 120.5549717  73.6020231  84.5899677
 111.3929653  38.5113263  70.7073164 111.4841652  39.1629577  70.0121260
 111.0493469  37.7353144  70.2646351  98.4875202  83.0489063  93.1599808
  98.7676525  83.0564976  94.0752411  99.2780113  83.2659245  92.6657486
 115.9119034  47.6629543 101.8587685 116.6431427  47.5253487 102.4609184
 115.5305958  48.4974051 102.1317673 113.2812214  77.7523804  81.4696980
 113.7319183  78.0511570  80.6798649 112.4060154  77.5085926  81.1683369
 121.5147209  80.4813766  88.4599018 121.9779968  80.5592537  89.2938900
 121.3846207  81.3852119  88.1728745 103.1951618  92.7265835  47.7129459
 102.2947121  92.9904938  47.5237799 103.4498787  93.2643795  48.4626961
  13.5979395  74.8489618  73.5239649  12.7994090  74.9919367  73.0158949
  14.0209609  75.7071590  73.5518408 104.5225143  58.3298302  94.1509151
 105.2094841  58.3897686  93.4870625 104.9453163  58.6181974  94.9598122
 117.0793343  98.4999275  71.2651014 117.8592014  99.0170956  71.0636568
 116.4357376  98.7723827  70.6110525   0.8884936 108.2809353  81.3855934
  -0.0246400 108.0118370  81.2856197   0.8773451 109.2263126  81.2360096
 116.3141823  53.8250494  39.9425927 116.7258358  52.9756165  40.1014654
 115.3759480  53.6565208  40.0294725   4.0542155  97.0926380  89.7763348
   3.4242468  96.4348984  90.0708675   4.4024973  96.7407799  88.9571095
 124.4622421  14.4453371  45.5813456 124.1483688  13.5718811  45.3472757
 123.7211609  15.0230253  45.3988552  13.0076628  35.5979514  93.3832455
  13.4253340  34.8058510  93.0450821  13.1828433  36.2636971  92.7181721
  81.3218784  12.5643039  94.2379475  81.6314125  12.9695380  95.0480080
  81.4329815  13.2435215  93.5726929 118.9977741  84.9449635  74.5467997
 119.4903088  84.9919605  73.7273884 119.6074104  84.5503807  75.1703978
   0.3629523  56.0905743  87.8600597  -0.5321092  55.9646368  88.1750965
   0.8915454  56.1456537  88.6561680  93.8172913  51.7347479  70.3755283
  94.5332146  52.3700714  70.3683758  94.0943909  51.0687208  71.0047054
 113.7622929  64.4861317  33.9754558 112.9994202  64.4192934  33.4011793
 113.3938599  64.6247578  34.8479652 118.2665539  42.9008198 107.0863152
 117.5354958  43.1710100 107.6419926 117.9582882  43.0548143 106.1932945
  96.7581272  44.6485138  75.3950262  96.7965317  43.9828539  74.7082567
  97.3001957  45.3649616  75.0647402 112.2505951  76.2733173  98.0513668
 112.3837090  76.3650227  97.1079159 113.1341076  76.1966181  98.4115791
  96.9206524  61.8139362  81.2038803  97.5919628  61.8434858  80.5221844
  96.5507507  60.9335756  81.1377621 119.3417072  44.0352583  74.7570133
 120.0354862  44.3218279  75.3509617 118.8517666  43.3831310  75.2579355
  96.0949135  47.6280212  82.6057243  95.6935787  48.4560776  82.8693199
  95.9708405  47.5929499  81.6572475 110.5571461  72.4624205  97.5794506
 109.9817371  72.9077959  96.9575405 110.6858540  73.0975914  98.2838821
  15.4167872  39.2097664  17.8316156  14.9283629  38.4273219  18.0874482
  14.8812895  39.6137786  17.1487943 119.4541359 107.8277969  66.9420624
 119.6988201 107.9152107  66.0208035 118.5046101 107.7077103  66.9273376
 112.4164200  54.7792482  77.2713709 111.8900585  54.0827847  77.6639366
 113.2282257  54.3461561  77.0074940  34.2739611  51.3547516  77.5381756
  33.4642630  51.2556696  77.0373631  34.8254710  51.9160938  76.9932365
  14.0703135  53.7559986  77.8902626  13.4649878  54.0792990  78.5575628
  14.3168765  54.5356178  77.3926353  11.0625582  33.8441992  79.2675018
  10.3996115  33.8061166  79.9569082  11.5524798  33.0272102  79.3609428
 122.0861149  62.8927040  77.9300833 121.8872261  62.1508121  78.5012865
 121.7694664  63.6571407  78.4113407  88.0105877  65.5239820  92.4786377
  87.7475357  64.6860647  92.8593445  88.6988544  65.2973604  91.8532085
  39.0701228  78.9370489  77.2923517  39.1200572  78.3177376  76.5642071
  39.8874026  79.4327688  77.2416162  95.5706120  29.6577573   5.5085317
  96.0868168  28.9118266   5.8140699  94.6668625  29.4283414   5.7249681
  20.1616412  35.7883525  44.4809532  20.7088786  35.0643635  44.7852612
  19.2663222  35.5081511  44.6709967  84.2488289  84.8543167  69.8017311
  84.7128201  84.4680977  69.0589142  84.8215199  84.6935654  70.5516720
 123.3641338  60.9388447  60.7292271 124.0785503  60.7049131  61.3217783
 123.2779694  60.1832676  60.1479244  66.5034723  55.4176569  77.8228807
  66.8112230  56.2256336  77.4121571  66.4464045  54.7896004  77.1027946
  98.4186172  66.7091417  89.6156025  98.8941765  65.8785629  89.6304607
  97.4969578  66.4564896  89.5613861 118.7001038  17.0148385  10.1545278
 119.6165180  16.8166101   9.9618474 118.2298756  16.7731047   9.3566076
 106.6731167  78.3746910  70.8637285 107.4637127  78.9124203  70.9086657
 106.5532398  78.2026386  69.9297810 109.8261261  92.5127602  47.8937626
 108.9000511  92.2870636  47.9813623 110.2345371  92.1595001  48.6841011
 104.0173244 111.6662407  49.1358566 103.2242966 111.1312771  49.1020393
 104.6689892 111.1594009  48.6514139 118.8595676  20.2946138  92.1242714
 118.1304455  20.1556420  92.7286720 118.7830639  21.2124825  91.8637085
   4.3198424  73.6876535   0.6872789   4.5940238  72.7843285   0.5289880
   4.7218161  73.9166212   1.5252630 115.2551842  76.2838030  12.1390001
 115.1280117  77.0872974  12.6434461 114.9228859  75.5890274  12.7074186
  20.3417235  65.9022141  75.0906229  20.2938681  66.1285973  74.1618109
  19.6031790  65.3097248  75.2310991 123.3943462 103.4974194 104.3799973
 123.6549091 104.1431999 103.7232685 124.0747166 103.5504627 105.0512028
 108.1571865  38.2431889  72.4631310 108.3304501  37.6957011  71.6973162
 108.4650040  37.7220678  73.2046938  77.1917391  89.1054821  94.3688297
  77.4765825  88.3420181  94.8710537  76.9938755  89.7676182  95.0311375
 104.3245220  66.6378736   4.3145505 104.3493938  67.2683716   3.5947648
 104.2772675  67.1772480   5.1038972 117.4494839  58.1198215  61.9020176
 117.3252487  57.8669024  60.9872341 116.5875149  58.4246922  62.1854067
   5.6347590  87.9909229  87.3751831   6.1785155  87.4275017  87.9257298
   4.8884802  88.2191944  87.9294395   8.7323981  79.4561672  82.6165771
   9.1463404  80.2796268  82.3581219   9.0221243  78.8252783  81.9575787
 110.2163601  84.5690632  93.3173466 109.8924732  83.7196064  93.6169147
 110.7571411  84.3638039  92.5546837  22.6532965  29.0278888  85.7286549
  22.7409964  29.9809194  85.7120609  23.2407122  28.7212491  85.0378990
 107.8109074  72.5948524  73.6298800 108.1203556  72.1404076  72.8463268
 107.9718018  73.5209179  73.4489155  44.0931826  72.7913904  64.7813320
  43.6585932  72.3617172  64.0446186  44.6120768  73.4884119  64.3799067
  13.7414198  66.1424828  89.9588013  13.8083582  66.9334221  90.4937458
  13.9453154  65.4275656  90.5617523 120.0947475  43.2362270  95.3752899
 119.5653725  42.6239586  95.8862782 120.2339268  43.9798021  95.9617615
 107.0055485  54.2670107 100.5358219 106.5278339  55.0821161 100.6894970
 107.5250530  54.1405249 101.3297653 106.6277027  88.6994362  63.5979748
 105.8844948  88.1159782  63.7511063 106.3587666  89.5350933  63.9795351
 104.5843983 128.0141068  53.8549280 104.4679260 127.0649910  53.8980341
 103.8634300 128.3677864  54.3758297 100.8743858  42.8568077  61.1151695
 100.1109314  42.8206825  61.6914129 100.7594013  42.1171331  60.5186033
 105.3005219  73.2837105  81.7671680 105.0036240  72.7112627  82.4745464
 105.2302265  72.7459860  80.9784126 101.4107800  79.9204779  86.9342136
 101.1127281  79.9704027  86.0259724 100.6106281  79.9995947  87.4535751
  92.8152847  34.6151233  70.8459187  93.7520885  34.5528650  71.0323048
  92.7188778  34.2340589  69.9731445 121.4480877  83.7105274  68.7086630
 121.7937088  83.5466576  67.8312063 120.6323338  83.2108498  68.7419415
 103.1007004  66.2710619  42.3044014 103.8160610  66.7362499  42.7380943
 103.0821991  66.6327286  41.4183474  29.6154910  46.8710804  75.7996607
  29.4465952  47.8128338  75.8281326  29.8050910  46.6894722  74.8791742
  99.4839764  77.4990416  71.7074680 100.3031063  77.5587034  72.1990919
  99.6839905  77.8959322  70.8597040 112.8534698  92.2992420 109.6912766
 113.0673981  91.6123772 109.0598583 112.0169640  92.6517010 109.3875408
  97.4642467  73.7077379 102.5054836  96.7489815  74.3423605 102.4619961
  97.8082371  73.6730099 101.6129112 113.2732868  47.3830175  84.7042370
 112.8897190  48.2483006  84.8470497 113.8314629  47.2393608  85.4684544
  97.5685692  82.9481220  72.4094009  96.8130016  83.0111408  72.9936886
  98.0749702  82.2113323  72.7513313   4.9386817  67.2436857  24.9416486
   4.8443156  68.0979109  24.5201913   5.5337935  67.4025440  25.6743375
 116.5471172  78.2342768  67.0418978 116.0772610  78.1445646  66.2127924
 116.0483742  77.6988506  67.6589918  16.6773062  41.1965322  12.0804731
  15.8770304  41.5929317  11.7360059  16.9501334  40.5791807  11.4017431
 107.5995636  94.2202950   1.6233293 107.9784489  93.6323071   2.2767392
 106.8556213  93.7347603   1.2669126 110.1052189  84.9935436  78.9639330
 109.3192673  84.4874001  78.7581778 110.7539272  84.3365288  79.2164087
 115.0757504  26.7176008  71.1415529 115.8969593  26.6429543  70.6554699
 114.3954754  26.5470433  70.4901218 103.7838745  57.6587963  82.0316410
 103.5669327  56.7410660  81.8674946 103.0985069  57.9643345  82.6259041
  94.1152477  31.0376024  87.8196812  93.2094574  30.8536506  88.0685425
  94.1261101  30.9420037  86.8673325 110.5930233  68.8854885  92.1291542
 110.6404877  68.6912107  91.1930847 111.5065098  68.9224815  92.4127197
  36.4615565  45.4943657  67.8578281  35.6064921  45.0726032  67.7729368
  36.3848239  46.2972546  67.3423529   6.9468337  63.9483261  98.1604671
   6.4359694  63.3562994  97.6084328   7.7681285  63.4819126  98.3159351
 111.8826771  67.1459961 102.5852394 112.3454094  67.4358511 101.7990494
 112.5333977  67.2118759 103.2841301   1.0562258  67.2947884  22.6159135
   1.1653071  68.2450628  22.5796262   0.7148963  67.1262550  23.4941617
 118.2084656  63.8354826  71.4336348 118.3408260  64.7671270  71.6089964
 118.3523369  63.4098673  72.2788525 115.7656956  56.3011265  76.2357903
 116.5496540  56.5314341  76.7343855 116.0284901  55.5439138  75.7125330
 101.2399006  48.0839634  93.4734535 102.0844269  47.6939154  93.2478905
 101.4521503  48.9798355  93.7353611   3.9859992  80.4833031   1.1680166
   4.8580390  80.1087952   1.0434476   4.0481883  80.9661388   1.9921628
  17.5980025  83.6804008  73.4401417  17.2773867  83.1101799  74.1389179
  18.2667761  84.2212296  73.8602352 112.3495770  46.5553331  47.3608112
 111.9770336  45.9982014  48.0442190 112.1477318  46.0994768  46.5436888
 122.3739243  64.8552608  64.4924593 122.4822521  65.7852793  64.6913624
 123.0490017  64.6697187  63.8397169   8.4732752  57.5678825  90.9666920
   8.2022601  58.1118298  91.7062187   8.7785655  58.1927299  90.3089714
  90.0269032  63.6127520  97.2170258  90.8902264  63.2047033  97.2834206
  89.7913265  63.5258865  96.2933445  31.3153773  54.4645452  99.8007965
  30.4027396  54.5711136  99.5325089  31.8232089  54.7525120  99.0422440
  86.0139847  83.2921028  96.2190056  86.8919754  83.1363678  96.5670204
  85.4360294  82.7902603  96.7937756  80.6613731  75.0300360  86.2689972
  81.1737061  75.8023691  86.0297298  80.7271385  74.9850750  87.2228718
   4.8080283  49.5633459  82.8835487   4.1309577  49.3052006  82.2581100
   4.4846755  49.2515850  83.7288189  97.0605087  84.4190025 103.9192009
  97.4106693  84.9587727 103.2104969  96.2885475  84.8956585 104.2243195
 113.9393997  84.0950489  78.0225468 113.8601303  85.0474739  77.9693317
 114.8638535  83.9213657  77.8452110  98.5065556  71.5975428  68.7652445
  98.5485458  71.6116428  67.8090715  97.5733280  71.6708183  68.9651203
   7.8209906  34.4157314  45.3408289   7.3011809  35.1751876  45.0776720
   7.1883326  33.8197875  45.7418537 106.2853718  61.6726351  88.8936710
 105.6655693  62.2760820  88.4838867 106.6935825  61.2135220  88.1596279
  82.4902058  49.9377584  64.6931887  81.5565014  49.7275639  64.6774101
  82.7253532  49.9142838  65.6207561  21.9735556  50.4997444  83.0388165
  22.7175456  50.7810736  83.5713291  22.1976595  49.6103239  82.7650738
 110.8868694  65.5133820  89.6128559 110.5035591  64.6382141  89.6710777
 110.1554489  66.0792589  89.3657780 115.7588673  52.1464920  68.8117266
 116.3676167  52.7268171  68.3547020 115.4508686  51.5424347  68.1360865
 120.0928593  19.4778848  99.7789574 120.9515190  19.0921283  99.6053886
 119.6415615  18.8262284 100.3155231 101.9968891  61.8944502  82.9687119
 102.2112751  62.1790266  83.8571358 101.0678196  62.1018410  82.8684235
 103.7057400 103.8728523  69.9351835 104.0503597 103.2882118  69.2601538
 103.7405586 103.3560848  70.7401514  19.7950869  67.9077673 106.8610382
  19.3340712  68.5797358 107.3631859  19.1204959  67.5208044 106.3029766
  95.6312847  36.5154934  82.3621082  95.3430462  35.6721520  82.0129204
  96.5814114  36.5106583  82.2460556   8.3467894  45.4511547  80.7933331
   7.8529864  46.2172079  80.5008221   7.7063876  44.9196339  81.2662029
 116.0838890  53.6710215  99.7441864 115.7698059  52.8513813  99.3623734
 115.7502556  54.3511391  99.1590691  99.8917294  80.4010105  84.5022869
  99.1414928  80.7267857  84.9995232  99.6804714  80.6022167  83.5906315
   8.0684596  71.0672235  79.0567636   7.1848612  70.7013845  79.0974712
   8.4343367  70.9070015  79.9266434 113.7438107  33.7767577  64.5214081
 114.5722485  34.1694260  64.7966051 113.1365395  34.5144224  64.4638777
   7.4851542  50.9119892 108.3338642   7.4865370  51.1951160 109.2482281
   6.7154151  50.3479624 108.2589436 119.2792225  96.9081020  86.1166382
 119.1862011  97.4866676  85.3597736 119.2389965  97.4940968  86.8724346
  10.5554801  80.7041740   1.3899843  10.1893263  81.5358734   1.0892526
  10.3328543  80.0805759   0.6987611 106.0868263  59.6525574   3.0394117
 105.9685993  58.8923168   3.6088697 105.2003098  59.9828148   2.8936616
 109.2835617  26.7144108  47.9437637 109.1992092  26.6067314  46.9963884
 110.1039124  27.1941590  48.0581856  15.8397704  58.4502125  78.3778524
  15.7240038  59.3599367  78.6521244  16.7435771  58.4073687  78.0655575
  83.0387974  50.9347439  73.6516190  82.9578400  50.6003475  72.7583885
  82.6321220  51.8007183  73.6209440   2.5081091  29.5467687  77.1638966
   2.2134142  29.0938878  77.9540110   3.1831294  28.9752436  76.7979097
 115.0262547  36.6316605  80.4539394 115.2661324  35.8130121  80.8881092
 114.6571350  37.1734476  81.1513996 106.3035774  65.9756231  65.4284620
 106.4091206  66.6032791  64.7135210 106.1496162  66.5176392  66.2022495
 118.0567074  62.9784727  88.5823059 117.2984123  63.3938837  88.9929676
 117.7010536  62.1986485  88.1561375   8.4631281  53.7985945  93.8682652
   9.2512923  53.7287998  94.4069290   8.6395865  54.5324278  93.2795525
  10.9893923  42.2064877   5.3489534  11.7572337  41.6786814   5.1297132
  11.3386946  43.0836964   5.5061952 117.7940655  41.2866974  75.5275965
 117.8061962  41.5704012  76.4417076 117.0922184  41.7996359  75.1269150
  21.3791781  57.4243450  95.7390881  20.7664424  56.8439770  95.2874660
  21.7444354  56.8868542  96.4418888  71.8701077  84.3338490  85.9902000
  71.2534952  84.5842934  85.3022385  72.0093393  83.3961964  85.8573055
  77.7082682  57.4274588  75.4907131  77.7976036  57.8261948  74.6251154
  77.6528597  58.1701803  76.0919857  91.0053635  51.5968180  94.7112465
  90.3474998  50.9094000  94.8156548  91.1114883  51.9621658  95.5895901
 117.7987003  56.9474077  35.1458216 118.3786488  56.6077089  34.4642901
 117.6747322  56.2105083  35.7440257   6.8133479  57.4405193  42.7211905
   6.8655043  56.5114355  42.9454994   6.2445002  57.8174067  43.3924532
 123.0629921  94.6139050  73.3387089 122.5289726  93.9504147  72.9018450
 122.6847839  95.4477024  73.0594778  28.4263354  39.9865103  83.3177185
  27.9316741  39.3719506  82.7756214  29.3331175  39.8847795  83.0285358
 119.6609497  50.6798649  57.6631975 119.7681522  51.5507793  58.0456209
 119.5838737  50.0950813  58.4170675  83.6703205  27.6249981  44.3861961
  83.4816074  27.8005624  43.4643507  84.2998505  28.3017993  44.6349192
   6.8516093  49.6088552  85.9991932   7.1269160  49.7101498  86.9103336
   7.4754553  50.1363802  85.5004311   4.6794062  33.0447698  57.9286814
   5.5294924  32.6796913  58.1742287   4.7933417  33.9917994  58.0085850
  93.2474613  47.7517986  78.2477713  92.3428726  48.0297327  78.1038618
  93.1782532  46.8296671  78.4949732   1.3112574  69.0801525  64.8180008
   2.2376566  69.1253233  65.0546026   1.0706931  69.9848366  64.6182108
  82.4845219  29.4560862  69.4100094  83.1676292  28.9304614  69.8263168
  82.9612637  30.1442122  68.9458609  89.6035099  35.3620052  20.1856279
  89.9910164  35.4140759  19.3119276  88.9085388  36.0201907  20.1790166
  92.8360271  34.5885110  48.7615252  92.8177166  34.0047526  48.0031538
  93.0063820  34.0101123  49.5049381 106.3505077  37.7203178  37.9278278
 105.4289722  37.4950027  38.0552125 106.6060638  37.2454977  37.1369600
 107.7520752  73.9371443 100.0489330 107.2904110  73.6852837 100.8487320
 108.6660290  74.0280581 100.3184700 122.7031231  50.9101915  58.4978628
 123.5316277  51.3529778  58.3141327 122.0323181  51.5205765  58.1918001
  12.5095683  53.0125284  28.3499241  12.9906493  52.4149227  28.9223456
  11.8841773  52.4523735  27.8902102  62.4156713  81.6804981  93.4734631
  63.0591822  81.0194111  93.2183266  62.8707123  82.2210121  94.1192245
  47.8777056  55.2114010  77.2926712  48.3961802  56.0089540  77.3990726
  48.1763774  54.6358490  77.9967785  11.0676509  64.8910666  93.2472515
  11.9682818  64.6972466  93.5070992  10.5779009  64.9007273  94.0696144
   0.6479006  54.2686605  49.4339132  -0.0449247  53.6203337  49.5600128
   1.1851340  54.2017174  50.2233028 118.5603714  64.2089844  84.5496941
 119.4174385  64.5580721  84.7942448 118.7373543  63.3086157  84.2772102
 115.6470394  63.4463978  51.0481787 115.7219696  62.5015640  51.1819601
 116.2230492  63.6296368  50.3059769 112.9535770  96.6911793  41.1170149
 112.2296047  96.4946365  40.5224800 112.5326157  96.8562126  41.9606876
 113.5128307  10.3188050  43.3558416 113.1589031  10.9859669  42.7677441
 114.3885612  10.6352603  43.5776472  98.5398579 130.6436729  79.9196911
  98.7839508 130.2286339  80.7469749  99.2412376 131.2729073  79.7513056
  12.3026305  56.3387966  57.8619385  12.4946242  57.1238613  57.3490572
  12.4336367  56.6085768  58.7709427  95.9403515  56.0833883  51.6216326
  95.5720234  56.4048815  52.4445581  95.7924843  56.7950630  50.9988260
   6.4931422  52.7262735  46.2679243   6.0724383  52.7043438  47.1274328
   6.3512641  51.8501711  45.9093904   8.2214575  62.0217562  80.1481247
   9.1383200  62.1824408  79.9250031   8.1942778  61.0984087  80.3989792
 110.3326416  82.2582912  24.6132231 109.4424915  82.4139881  24.9288535
 110.6622410  81.5497017  25.1659346 115.7666016  58.0347395  83.5265923
 116.2374401  57.4058676  82.9797173 116.3521576  58.7899590  83.5814857
 109.6065903  86.6766834  72.7153683 110.1783371  87.4437809  72.6854277
 108.7586403  86.9978523  72.4086714 107.6490688  36.1968684  58.8363791
 106.9183064  35.6806040  59.1765308 107.5029945  36.2246943  57.8908014
  90.1008415  79.3845797  69.8943615  90.9025002  79.1140175  70.3420019
  89.7742271  80.1205444  70.4119635 115.7814980  59.8567724  39.7833467
 115.4548454  59.2384195  40.4369354 115.3628445  60.6874084  40.0091982
 121.2855339  20.0276637  61.2262392 121.3687515  19.5950067  60.3764677
 120.7952309  19.4062161  61.7644215   9.4047289  69.7750664  68.8187885
  10.1341277  69.1723013  68.9632893   9.0244227  69.9035215  69.6877480
 101.5589619 105.1871872  69.1110659 102.2677135 104.5653057  69.2759085
 101.8013096 105.6142426  68.2894087 104.4290543  86.9619560  63.5085249
 104.3900299  86.4400768  64.3099976 104.6597958  86.3334370  62.8244543
 114.0447330  55.1936579  54.7976828 113.7586689  54.4194889  55.2825165
 114.5431614  54.8432732  54.0594196  78.6150026 111.5176678  61.7334509
  79.5109367 111.4564514  61.4021158  78.3658695 110.6122780  61.9190073
   5.6371718  59.2237806  78.8254166   6.5913420  59.2290640  78.7494612
   5.4636412  59.5966768  79.6897459  15.1954299  60.5164957  50.4571390
  14.8901301  59.6994829  50.8514929  15.4707556  61.0530186  51.2004852
   6.3743716  93.3557224  63.5293961   5.8290225  93.8088799  64.1724157
   6.0668021  92.4495411  63.5506105   6.2740260 107.3289967  82.0335102
   6.2547141 107.3832703  82.9889774   5.3602820 107.1931076  81.7828274
  26.5833502  83.6328316  67.8969812  26.3583594  82.7075958  67.7992964
  27.4653559  83.7046719  67.5320959  91.2676525  57.6026917  43.9138603
  91.9432449  56.9331884  43.8062859  91.7384243  58.3666611  44.2469549
   5.3337508  70.0993586  61.7104197   4.8383456  70.8533049  61.3904667
   5.8221274  69.7920752  60.9466839  18.3690577  35.4830003  59.9427891
  19.1875105  35.3197789  59.4740295  18.0237227  36.2845850  59.5498085
 103.3932590 109.2657566  96.3208485 103.7441349 110.0788689  96.6841316
 104.0378857 108.9983368  95.6657314 117.5670242  68.6274958  63.3052015
 117.5242710  68.0573034  64.0728521 118.5034752  68.7543011  63.1528902
 111.3337135  63.7585783  80.4769707 110.9573841  62.9814720  80.0637913
 110.9358406  63.7835789  81.3472080   3.0406123  78.4571457  30.7083440
   3.3426123  77.5573063  30.5845642   2.9535513  78.5522366  31.6568208
   7.2081500  68.6522913  51.2993574   7.8933840  68.0324888  51.0492849
   7.5779276  69.5120335  51.0984898  21.0153609  60.6503677  26.7861652
  20.7504969  61.5647125  26.6859221  20.9733325  60.4908276  27.7290392
  20.3940135  27.9060078  86.7874432  20.5878668  27.0234394  86.4716530
  20.9406882  28.4784365  86.2492085  96.5188980  47.6201153  66.4240074
  95.8406258  47.2986126  67.0179844  96.3142967  47.2112131  65.5830717
   5.3284007  52.2966290  77.8142738   4.4290095  52.6239491  77.8003311
   5.4085761  51.7822933  77.0109892  27.2059851  87.1065426  98.6472511
  27.8160220  86.5376377  98.1777477  26.3973742  87.0637131  98.1368065
   5.4023867  80.4883766  83.6111641   5.5720072  80.7873726  82.7178192
   6.2641650  80.4769802  84.0276146  84.1697025  77.4877930  36.3186669
  83.5937786  77.1209478  35.6478739  83.5762501  77.7772331  37.0116782
 112.1584988  48.4879446  74.1235209 111.8013859  48.7305880  74.9778175
 112.3955917  49.3216944  73.7174606  75.6063843  60.5350304  80.1913834
  75.5317020  61.3627434  80.6662941  75.3984642  59.8654127  80.8430099
   2.1763449  55.0200510  83.0049229   2.7934199  55.4130650  83.6221600
   1.4532691  54.7130346  83.5518551 102.0080662  85.3713226  59.6900320
 102.0752525  84.7002220  60.3692532 102.1823406  84.9036884  58.8732195
  86.9916916  46.9737530  73.0409813  87.6349354  46.3588238  73.3935785
  86.2701416  46.4203787  72.7420282  93.8980770  83.8869476  24.7851920
  93.4272003  84.7052002  24.9431872  94.4598675  84.0752125  24.0334058
 107.3272896  87.9415035  71.9593477 107.2933483  87.8087997  71.0120010
 107.4031734  88.8897324  72.0658112 113.1759834  73.0988073  87.0962620
 112.4098396  73.2474279  87.6504993 113.2337093  73.8839912  86.5518475
   3.7411337  62.5838614  54.9782372   4.2677718  61.8954897  54.5720005
   3.1505519  62.1164656  55.5689859 120.6563473  16.3174224  46.5689087
 120.7077503  15.5817187  47.1790934 120.6620502  15.9107673  45.7024002
 105.6457901  55.2292776  47.2551155 106.3909340  54.8107147  46.8240738
 104.9562836  54.5655107  47.2395849  88.2241344  55.8687592  70.1343632
  87.6700974  55.1450062  70.4266930  88.4861374  56.3110828  70.9417868
 120.4236126  43.9033842  63.2087994 121.2567902  43.5538483  63.5248280
 119.7804642  43.6095953  63.8539982  87.6672268  62.8293896  86.4345741
  88.3138275  63.4426117  86.0851383  87.7949333  62.8611422  87.3826790
 119.8137188  67.1029663  58.6707640 119.5519352  66.5826464  59.4303465
 118.9957333  67.2734165  58.2037878 114.2277050  50.6573153  95.8657455
 114.8588181  50.1901340  96.4131641 114.5505047  51.5581703  95.8436012
 114.0608788  50.8551550  74.6775150 113.5850143  51.5177727  74.1767931
 114.9629307  50.9200239  74.3639469 116.4366341  84.9642467  36.1551476
 117.2242451  85.3326702  36.5553403 115.9786320  84.5356846  36.8781972
  25.6304770  78.7238741  78.0147409  24.9877863  78.4738970  77.3508930
  25.1221114  78.8049555  78.8217211  20.0334292  45.2108574  65.6439924
  19.3313056  45.7157230  65.2336740  19.8691111  45.2917957  66.5834999
   7.2357970  80.7829762  71.0932732   7.4738150  79.8766088  71.2883806
   7.3446494  81.2436008  71.9252682 124.0524769  11.2143672  58.9185810
 124.9332905  11.2577629  59.2907524 123.9877510  11.9925773  58.3650208
  79.6637678  45.0454664  51.7675018  79.6014452  45.1785803  50.8216572
  80.2859974  45.7103443  52.0624590  95.8120060  76.2599468  25.7796884
  95.9744549  75.3264999  25.6435704  95.1597977  76.4886189  25.1174498
 121.4414501  71.8220949  33.6978722 120.7859993  72.4873066  33.9079142
 121.4546585  71.2485409  34.4640923 108.4301662  62.6728392  67.4464273
 109.1320992  62.0258379  67.3763990 107.6375675  62.1933937  67.2052860
 113.9133644  69.0147018  59.4381571 114.7008991  69.2194080  59.9422503
 113.7425041  68.0916262  59.6251440   0.9042388  63.2130718  39.0449166
   0.5174094  63.6478138  39.8049140   1.6211348  63.7888098  38.7788057
   1.6476470  67.3179579  62.6248217   1.3122492  67.8885603  63.3163071
   0.8662825  66.9127989  62.2486019 117.9722309  75.9427166  43.1515884
 118.5146046  75.3810740  42.5978565 118.5057545  76.0976362  43.9310646
 116.3326645  47.0713711  45.2022648 116.3586426  47.6435471  44.4353390
 115.8663845  47.5805330  45.8652687   6.4964896  67.2822142  64.9416447
   5.5652457  67.0883417  65.0485134   6.6842585  67.0601416  64.0296888
 100.3798103  84.0637016  80.8612919 101.1669636  84.5650291  80.6484795
  99.8349571  84.1289806  80.0769997 122.5580788  53.2374811  85.1635742
 121.9200897  52.5958586  85.4758453 122.2226048  54.0789175  85.4728889
 121.8764782  58.1888390 108.7260532 121.0825443  57.9736376 108.2365608
 121.8818760  59.1452217 108.7652016 111.9765568  85.4918480  55.3245115
 111.9285202  84.5466137  55.4675627 111.0928726  85.7379150  55.0510502
  11.5879946  39.5726871  53.3578444  10.6467372  39.7084165  53.4666872
  11.9890147  40.1293468  54.0253353  36.4538317  98.6562920  98.2080078
  36.0854464  99.0559864  97.4201298  36.4410525  99.3567085  98.8603020
 117.0665646  38.4902406  47.9703712 116.2494087  37.9928780  47.9369974
 117.1231270  38.7975478  48.8751316 118.6578274  41.1243010  96.2033653
 118.3310509  40.9817696  97.0916939 118.9877987  40.2685738  95.9293652
  13.9436656  64.3413782  49.1095829  13.6409503  65.2493382  49.0952778
  13.7292224  64.0312481  49.9893951   1.4662867  25.1216030  18.8534204
   1.3003760  25.8070540  18.2062284   1.6378432  24.3369842  18.3326761
 120.2161503  67.6974154  87.4334335 119.6768665  66.9995832  87.8055096
 121.0068703  67.7024937  87.9728508  96.6941929  62.5846052  53.9135265
  95.7885551  62.8838205  53.8328266  96.7848492  62.3412657  54.8348284
  97.3366356  50.0708771  43.4942293  97.0970535  49.8043585  44.3818140
  96.6198921  50.6397200  43.2132769 118.0702686 115.6702900  87.4810505
 117.8688622 116.6055679  87.4504375 117.6772308 115.3144455  86.6841030
 121.5707111  68.4545803  37.0972800 122.3544312  67.9084539  37.1585941
 121.4517689  68.8028908  37.9808879 108.1208038  65.4584455  73.8682270
 108.9160538  65.5324602  73.3406591 107.4919415  66.0362673  73.4359217
  16.3346224  99.8172855  39.2668724  15.3894835  99.9687386  39.2628598
  16.6963320 100.5730724  39.7296762 105.0341129  59.5095110  97.0873547
 105.1931763  60.1141119  97.8121948 104.5975399  58.7599564  97.4920845
 121.0715866  79.6496296  52.0225143 121.7814922  80.2915573  52.0366716
 120.6885338  79.7353601  51.1495018  64.3941402  73.5791540  78.3331394
  65.0452995  73.4849787  79.0283823  64.4368649  72.7530813  77.8514719
 122.7792358  99.5026875  42.7473736 122.3106289  99.1597748  43.5083294
 122.4716759 100.4052258  42.6634073  98.1018353  85.5333519  72.7152157
  98.9283466  85.6565380  73.1820583  98.1175613  84.6173096  72.4380016
   0.7523280  47.2263241  34.3690348   1.6845637  47.3140574  34.1703844
   0.3861647  46.7779112  33.6067438 122.1961403  47.3981810  54.1026545
 122.2783756  47.2514296  55.0449562 122.7945614  48.1225729  53.9199448
 100.3351784  71.7815161  38.9662886 101.1781979  71.5011740  38.6099815
 100.4204178  71.6546726  39.9112082  96.1991787  58.3695841  88.3747864
  97.1169186  58.6387634  88.3356667  96.1869526  57.5011015  87.9725170
 110.0951672  88.6977959  63.6200094 109.9816608  89.0258980  62.7279949
 109.6994972  87.8262997  63.6068106 116.5510654  52.2765446  93.2609367
 117.4163055  51.9821835  92.9764366 116.6953087  52.6316071  94.1380692
  96.2953758  61.1777496  42.8780079  96.1435604  60.9731054  43.8006687
  97.0870972  61.7157078  42.8791189 104.0739441 104.0849400  82.6449871
 103.5695076 104.8984241  82.6493168 104.5357037 104.0849781  83.4834480
   6.6867095  12.8514719  63.6656141   6.2030821  12.9185975  62.8423119
   7.4549227  12.3228240  63.4497118 100.0342464  34.4532108  85.1793480
  99.6059322  34.2799735  84.3410397  99.6646786  35.2872229  85.4693031
  97.2262955  21.1566734  65.5221462  98.1585693  20.9545660  65.6011868
  96.8063354  20.6152511  66.1905241  97.1169376  32.6951933  80.6426525
  97.0605087  31.7489934  80.5094147  97.7255535  32.9961967  79.9679565
  85.8380890  85.5237579  79.8018122  85.4586220  85.2137280  80.6240749
  86.5113449  86.1492825  80.0695419 104.0026379  29.4831491  27.4178576
 103.8938713  29.9847651  26.6099072 103.5162067  29.9800944  28.0756259
  16.1949759  38.5093331  69.9943876  17.1178942  38.3478212  69.7985220
  15.8629065  37.6641631  70.2971315 121.5502167  81.0362816  21.6804743
 122.0901775  81.2478542  22.4419951 122.1781349  80.9112644  20.9689188
 120.0513840  62.1227598  59.8695278 119.9479866  62.0712423  60.8197308
 120.8990669  62.5491476  59.7436094  13.3978491  57.7950287  12.2110188
  13.3716994  57.2648335  11.4145017  13.4154826  57.1561193  12.9235578
 118.9281273  66.8008995  54.0436697 119.2952633  66.3254547  54.7889185
 118.8079357  66.1326742  53.3689404 116.9163227  44.9080324  78.7921953
 116.4059830  45.1484871  79.5654726 116.3125420  44.3924332  78.2575607
 120.2855682  13.8089156  60.4202414 119.6935081  14.2238867  61.0475349
 121.1174393  13.7360358  60.8881235  99.4522476  51.5254116  62.3049784
 100.1115894  51.8836784  61.7107153  99.6319962  51.9478798  63.1448841
  80.7490349  88.5022831  37.5930500  80.9700871  88.3418179  38.5104489
  81.5878582  88.4609604  37.1338058 107.9095650  59.5822573  56.8246269
 107.4640942  58.9089918  57.3389244 108.7109089  59.1581202  56.5177202
  99.8148155 112.6204109  96.0961914  99.2697620 113.0591488  95.4430008
  99.2593479 112.5655079  96.8737984 114.6757603  34.8879647  55.4179859
 114.1478729  35.4435158  54.8444605 114.0347672  34.3914557  55.9267521
 112.4653912  86.8589878  69.2703295 111.9082069  86.1194992  69.0275383
 112.2947025  87.5184155  68.5978317  97.0709896  39.7052956  60.0741339
  96.2333870  39.8132491  60.5246925  96.8409348  39.6720338  59.1455841
  97.6814079  47.6676273  76.6903687  97.8189468  48.5941172  76.4930534
  97.9099655  47.2135210  75.8793306 114.9181461  15.1688397  91.6585445
 114.1724300  15.6830430  91.9679451 114.5316792  14.5088220  91.0830021
  95.9467125  25.9599972  89.3254089  95.6687260  25.5430174  88.5098839
  96.2045288  26.8446636  89.0663242  95.5557156 101.0673809  57.7653885
  96.2400341 100.4225159  57.5862646  94.7913361 100.7442570  57.2883844
  99.7409725  59.2369699  93.1067371  99.9431229  58.6381769  93.8256359
 100.4556370  59.8736572  93.1171894 121.9783783  56.0138035  76.5698767
 122.1757317  56.3648319  77.4382401 122.4230194  55.1664400  76.5473461
 119.7286224  39.6342111  74.1159916 119.4148827  40.3331804  74.6897840
 119.4882107  39.9214196  73.2351160 107.8944492  74.3094254  53.5868788
 108.3012009  75.1655626  53.4533882 106.9697475  74.5046377  53.7387085
  97.7963448  91.3929653  47.0309877  98.0135727  90.5551243  46.6222382
  97.5413799  91.9567776  46.3006878 116.7967796  76.9232798  86.2471104
 116.9497108  77.1078873  85.3204155 115.9577370  77.3418951  86.4394379
 105.1775551  73.0247068  45.7392645 105.3381634  73.6704874  46.4273024
 105.2702808  73.5161829  44.9231195  50.5009966  84.3692398  92.3876667
  49.9851542  85.1377201  92.1435738  50.2097064  84.1570568  93.2744312
   6.5490466  40.0552940  73.5155058   7.3987799  39.6377850  73.3745289
   5.9992247  39.3620729  73.8807106  12.3212557  32.6719022  85.2368641
  11.7307311  32.3708057  85.9274101  13.1341296  32.8874946  85.6940079
  26.3686114   2.3917635  50.7770157  26.4381724   2.1482195  49.8539352
  26.5299254   1.5768501  51.2525415 108.6162281  91.6604137  63.0955601
 109.2047596  90.9466267  62.8498650 107.9623318  91.6829395  62.3968887
 117.5384045  80.3242207  58.2903957 117.4756527  81.2712097  58.1659126
 118.2619858  80.0556564  57.7242374 107.6534462  33.4147739  70.5799246
 108.2720470  33.9429474  71.0844994 107.3678207  33.9918518  69.8716640
   5.9069377  40.7618332  33.5563445   4.9546652  40.8578110  33.5700083
   6.0864096  40.2677107  32.7564287 116.7529297  72.9704905  54.7235680
 116.4927101  73.8620377  54.9552155 116.0267830  72.4235392  55.0232267
  91.0469532  70.6283331  69.0170479  91.4923477  70.3253412  68.2258081
  90.7122231  71.4949560  68.7865162  11.4754515  97.4116802  53.1535864
  10.8560305  97.2419834  53.8633394  12.2760039  96.9603920  53.4213448
  97.1885109  59.2179441  62.7776527  96.9684219  60.1065683  62.4981213
  96.3995552  58.9033937  63.2190561  97.9649448  53.4276247  40.3462982
  97.7826881  53.6090040  41.2683153  97.2724247  52.8230047  40.0796890
   6.6202956  39.0531516  81.2331486   6.3595896  38.3172321  80.6793594
   6.6655093  39.7989249  80.6348133  99.5465565  67.5240135  73.5644150
  99.4536591  68.4744883  73.4995461 100.0137520  67.3846865  74.3881512
  95.8244705  55.3336239  95.6134987  96.1100960  56.2411737  95.5085945
  96.5719795  54.8923922  96.0169601  96.4626408  50.7460594  79.2829847
  96.1059284  50.1270628  79.9200344  97.0437145  51.3085508  79.7950315
 117.8350353  65.7135725  35.2038312 117.2636700  65.7249832  35.9717155
 118.4486675  66.4332771  35.3511643  95.2988720  80.4868412  89.6799660
  95.3511524  79.7811556  89.0353680  94.6973133  80.1572990  90.3476143
  84.1765404  46.3652039  94.5207977  83.8439846  47.2262239  94.2672729
  83.5046387  46.0109377  95.1032829 100.4745197  84.6667576  85.9164333
  99.6646786  84.8522949  85.4410744 100.9724331  84.0985489  85.3286743
 116.4293098  33.2529426 106.1246967 116.3217258  33.0199099 105.2025509
 117.2196484  32.7876282 106.3986874  21.9591551  65.7679892  56.2702751
  21.1206751  65.7697821  55.8085680  21.8137961  65.2022696  57.0286036
 109.3892765  61.3236189  71.0809278 108.5946941  60.9593630  71.4710522
 109.1179371  62.1735620  70.7342196 118.8236904  44.4188166  86.8074036
 118.3287811  44.2691278  87.6129436 118.2269096  44.1548634  86.1071014
   0.5302554  52.4892187  58.1875944   1.2747222  52.1877766  58.7083054
   0.9218627  52.8217888  57.3799610  32.6659804  55.5942440  36.9064140
  32.9378825  56.0135412  37.7228045  31.7312174  55.7883120  36.8372393
   2.3287039  54.9516296  32.4705768   1.7732268  55.5356884  32.9868650
   2.7028304  54.3477821  33.1121612   1.3086539  35.0934815  58.7305689
   0.4063635  35.3334856  58.5196161   1.4780360  34.3122530  58.2040501
 120.0602436  75.2922297  56.7196655 120.2832222  74.5616961  57.2965813
 120.0292492  76.0538340  57.2986555   3.5521060  54.5967817  94.2473221
   2.9927378  55.3731966  94.2700577   4.0718489  54.6992874  93.4500790
  26.0265284  75.9361935  35.6866193  26.0897379  75.7554007  36.6244626
  26.1856585  76.8771839  35.6128359 113.6994171  54.9827337  42.3987341
 113.5471916  54.5769739  41.5452576 113.5018063  55.9092951  42.2620964
  93.3816147  35.8644152  59.3781042  93.0544758  36.3761592  58.6382818
  94.1278553  35.3809929  59.0236282  98.9930058  46.2537098  58.9186192
  99.1345692  47.0579147  58.4191704  99.7383118  46.2094164  59.5175982
  13.5351401  47.6910639  30.2303314  12.6037531  47.5927925  30.4280472
  13.9225417  46.8517017  30.4785514  94.9703217  53.2492781  36.3847423
  95.6732845  53.6962366  36.8562317  94.6766758  52.5644016  36.9855380
  98.6229515  79.4314814  56.0800934  97.8125954  79.9119091  55.9105301
  98.5434532  79.1408682  56.9886446  90.3135395  84.1500282  37.0218015
  89.7003365  84.6721935  36.5045500  89.7950840  83.8359547  37.7626061
 114.9542046  70.4769993  53.3774710 114.0301800  70.3187752  53.1841469
 114.9444675  71.0182381  54.1668987 102.2908974  44.9212646  66.0208845
 102.2979641  45.2730465  66.9110727 103.1029129  44.4186831  65.9555054
 102.7952766  53.3545399  34.4189763 103.5787868  52.9047108  34.1027451
 102.2461796  52.6566267  34.7762418   4.7276908  45.8764267  39.1856790
   3.8752108  45.4682732  39.3371034   4.6783953  46.7128134  39.6485639
  98.3899879  78.3873653  32.1547699  97.9859924  77.5295877  32.2860575
  97.8772736  78.9802122  32.7042150  13.2981330  61.8441725  25.8144665
  13.3764105  62.3848534  25.0284815  13.6206751  60.9837484  25.5463862
 122.3972416  90.0143528  63.4937525 123.3452320  90.0109196  63.3613539
 122.2858524  89.8597240  64.4317913 103.8252354  74.5976114  40.8197546
 104.2152691  74.1519260  41.5717268 102.9520988  74.8518610  41.1184502
   2.3813754  58.7461185  50.8393860   2.1503668  58.6199951  49.9190807
   3.0958300  59.3828869  50.8218908 108.7906075  86.6525078  30.0537968
 108.5634136  85.7322121  29.9208641 107.9695511  87.0657444  30.3208685
 123.7254429  60.7163286  31.6056752 123.5382080  61.1635542  30.7803512
 123.0858135  61.0731697  32.2219324 124.5420361  67.0890141  41.0499763
 124.3623734  67.3478460  40.1461172 125.1059437  67.7835226  41.3904142
  88.5555649  72.6358271  36.6739035  89.3038750  73.1522799  36.3746524
  88.5035610  71.9081783  36.0541844   5.2046328  53.1347895  57.0186615
   5.3147631  52.8177977  56.1222124   5.6378966  53.9882898  57.0258236
 115.7664204  35.2181363  50.0329113 116.2859917  34.9668169  50.7965279
 115.5368233  34.3878365  49.6156359 117.8763866  56.8629980  82.0493984
 117.7131844  56.6409063  81.1327267 118.5600185  56.2526178  82.3256683
   2.4083357  72.4567509  47.0172501   2.4373084  71.5027428  46.9447327
   3.3273821  72.7240372  47.0295572  10.2684241  87.9596329  35.2979231
   9.3360072  87.8229046  35.4656816  10.2944117  88.6622334  34.6483827
  16.1708193  70.9431791  54.5377111  16.1581069  71.4334679  55.3597116
  17.0988112  70.7764053  54.3726349   7.6747733  63.6821222  27.3131824
   7.0064765  63.3141518  26.7350721   8.4879046  63.6147404  26.8126655
  17.3824244  14.7614539  67.2190189  18.3231764  14.5949948  67.1598387
  17.2062998  14.8092937  68.1586599  12.0137530  62.7931070  57.2501612
  11.7111998  63.0553341  56.3807154  11.2528258  62.3741627  57.6522827
  95.9438515  80.7621002  55.7538080  95.7448196  80.1372528  55.0565434
  95.2492237  80.6302452  56.3990545 108.9140797  62.5468969  36.9910955
 108.8105202  61.6196203  37.2047901 108.2244205  62.9859018  37.4889755
  20.7521372  48.6769962  60.5730581  21.6997653  48.8055754  60.5318689
  20.5753451  48.4924126  61.4954996  86.0225677  71.3340855  32.6589823
  85.3198147  71.4742517  32.0243788  86.7179775  70.9097385  32.1564293
  85.7867241  79.2864323  84.3252563  86.0028076  78.6381435  83.6549854
  86.5522099  79.8601103  84.3592167  97.9984379  68.7334061  21.7250633
  97.2895145  69.2765999  21.3806939  97.6374245  68.3455610  22.5222301
 121.3616371  43.3182812  71.4891052 121.7490196  43.7611198  72.2441339
 120.5460358  42.9447412  71.8230057 115.9655476  46.4044476   8.1562907
 115.6383133  47.1216965   7.6134276 116.6685581  46.7971992   8.6737454
 102.1060848  74.5212555  45.0060272 102.4355984  74.8893118  45.8258963
 101.2964916  74.0740156  45.2525568 107.1600533  50.7451534  27.0629930
 107.2644806  51.1130476  27.9404783 107.3355675  51.4784908  26.4733791
  30.5290537  22.9460502  63.9784384  30.1461249  23.7958026  64.1964340
  31.4712554  23.1105423  63.9406157 115.4862595  77.3921442  24.5252967
 116.1900139  78.0409527  24.5220399 115.9377575  76.5488768  24.4895720
   9.6328002  61.3131523  40.0809002   9.0880614  62.0701885  40.2962875
  10.4766017  61.5004730  40.4921675 120.1047134  45.5423832  66.0683870
 120.9856796  45.6346512  65.7056093 120.1387978  44.7322655  66.5770864
 107.9532719  60.1745796  44.1296482 107.4777985  60.8912182  44.5498657
 108.5531902  59.8569727  44.8045206 113.0728626 116.2033367  62.2739315
 113.1895542 117.1325016  62.0757866 113.9573860 115.8833408  62.4512720
 107.7609539  50.3045797  20.8946371 108.1964302  49.4579887  20.7952976
 107.4964714  50.5435801  20.0062895 112.0965576  90.4435444  17.0769083
 112.4515820  90.9591866  17.8009999 112.8681850  90.0995541  16.6269195
 114.6662426  77.8182125  54.0141869 114.2359734  77.0781565  53.5859156
 114.9631500  77.4690676  54.8545361  13.7191039  49.9976397  64.9029446
  14.6093112  50.1885796  64.6074915  13.2148676  49.8982477  64.0954161
 114.9835587 107.6545715  73.6227560 114.7562122 106.7639828  73.3555460
 114.4472694 108.2166672  73.0635834   4.7423964  39.7236395  36.4499450
   4.4769888  40.5851078  36.7719078   5.5729418  39.5480967  36.8922257
 109.5399094 108.5210896  64.1780424 109.3057442 108.2276440  65.0585508
 109.9056625 109.3962574  64.3066120 107.0049000  53.5106325  76.4782667
 107.0443153  53.9650822  77.3197842 106.1910439  53.0081367  76.5153170
  20.4351073  74.0719080   2.0447823  20.4594927  74.1106558   3.0008870
  19.8438483  73.3449173   1.8495341 105.3864956  49.6069622  15.9783828
 105.0327015  49.9366760  15.1523387 106.3238525  49.5047140  15.8136404
  93.3835793  39.9448347   9.6296906  93.3492374  39.1802335  10.2045250
  93.8007832  39.6246552   8.8299060 120.9835339  80.3606892  16.5293145
 121.0522842  80.5821609  15.6006300 120.1704407  79.8600960  16.5966046
 110.2395535  93.0994987  56.4578629 109.9835300  92.7483082  55.6050110
 110.3438377  92.3270512  57.0134497   2.2524481  28.9744782 105.1911806
   3.1220275  28.5872626 105.0906047   2.3940878  29.7400069 105.7480791
  10.1959639  42.1888447  21.9195485   9.3241339  41.8064499  21.8199992
  10.7083445  41.8055105  21.2076855 101.5811348  67.8411436  33.0947733
 102.0442104  68.6672211  33.2340240 102.2102928  67.2892237  32.6302671
   2.1970778  68.3976173  59.5755863   2.6205950  67.5396633  59.6033621
   1.6089182  68.3989525  60.3307676  12.1088820  50.8221340  39.2665696
  12.7699786  50.1318264  39.2151403  12.6129180  51.6356945  39.2836189
 112.9590797  64.7797441  58.3355951 112.2124100  65.1208210  57.8432751
 113.7129021  64.9372482  57.7671099 120.9118938  34.4603443  74.2769289
 121.2448311  33.7853456  73.6855221 120.3201485  33.9921212  74.8658562
 115.1609516  66.5676832  16.7106092 114.8783684  65.9631634  16.0243630
 114.7595215  66.2270784  17.5100315  23.8199359  31.5477300  50.3602982
  23.8064604  32.5021696  50.4316950  24.5413333  31.2752914  50.9273958
   8.9198332  81.1599541  27.0940924   8.0556040  80.9210873  26.7590094
   9.1326171  81.9785500  26.6459250   8.1300574  61.9982910  31.1447835
   9.0524989  61.7469931  31.1913514   8.1427031  62.8950500  30.8102775
   4.1040068  46.4893532  64.9243832   4.7081118  46.1663818  65.5929518
   3.2960253  45.9985590  65.0744581 119.6484947  71.8375683  38.2305813
 118.7900352  71.6253567  38.5969830 119.7183132  71.2878752  37.4500704
  13.2990008 103.9234829  47.7237654  12.4782210 103.9628506  48.2146978
  13.9141017 104.4407749  48.2436657  93.6714649  61.1572933  51.6451406
  93.6540699  62.0042562  51.1995125  93.2376194  61.3185406  52.4830008
  91.0560608  70.1610661  73.7145567  90.6465530  71.0241652  73.7745619
  90.6718826  69.7676373  72.9310703 110.7149601  73.0255079  60.1215172
 111.5876102  73.1756020  59.7579622 110.7308197  72.1142197  60.4139662
 122.6025581  62.3572969  55.0595665 122.9829788  61.9185019  54.2986631
 121.7068768  62.0228672  55.1059198  91.1132240  58.6073732  56.3969517
  90.6437492  59.4084978  56.1645222  91.2630749  58.6824417  57.3393631
 100.0238037  28.6264253  51.5405703 100.1868153  29.0478277  52.3844147
 100.7975006  28.0831289  51.3907337 104.5923424  69.7676516  37.7286267
 103.8075638  70.3096199  37.6472640 105.0332165  70.1003885  38.5103869
  19.3934088 110.3823566  14.0338910  19.9815875 111.0162449  14.4443297
  19.0544825 110.8351707  13.2616758 115.2616405  75.9947968  51.2055492
 115.5357742  76.8501139  50.8746147 114.3257427  76.0942173  51.3800240
  15.9425860  56.1337376  48.8729858  15.1867133  56.4872932  49.3419123
  16.0127860  56.6767359  48.0878353  89.5396709  78.1039858  13.8225341
  89.7722340  78.7764359  13.1822574  90.3592491  77.9144955  14.2792797
  98.1417656  78.8451099  40.3154278  98.0588245  79.4171429  39.5524502
  99.0293312  79.0024996  40.6374216 102.5782585  46.7016411  53.0140924
 102.4112034  47.5408411  53.4431314 102.5569916  46.9025612  52.0784616
 115.3746223  77.3835659  64.6528912 115.3656006  77.8051758  63.7935925
 114.4756985  77.0803881  64.7803831  25.6243640  52.5723982 104.2177989
  25.6498843  53.5203457 104.3481030  26.4215594  52.3767662 103.7254187
 103.6006927  28.2547498  50.0579691 102.9035759  27.5988054  50.0595951
 103.1844521  29.0474677  50.3964520  21.3590556  69.7101927  54.0623999
  21.8358927  70.0955629  53.3273172  21.5245753  68.7702799  53.9889050
 102.4633884  69.8310566  64.5322704 101.5629005  69.5631790  64.7155428
 102.9328537  69.0095806  64.3873024  92.5059223  83.8157845  98.9728650
  93.1201172  84.3318176  99.4950839  92.6983643  82.9073620  99.2051848
 121.6340828  46.5594864  42.8485060 120.8392811  46.1676502  43.2104397
 121.4089584  47.4806309  42.7179527   4.6964388  55.8874130  48.0958652
   4.6348029  56.8411541  48.0428410   4.8148852  55.7065344  49.0283298
   4.2055064  48.0160379  40.4782152   4.3428069  48.9618921  40.5305624
   4.6330481  47.6682758  41.2608385 122.4736881  60.3488588  65.3529072
 122.1770859  60.6242752  64.4854927 121.7972469  59.7433519  65.6562519
 121.2488079  64.8554182  39.0630078 120.9813023  64.0036678  38.7177682
 120.4365826  65.2519846  39.3780494 109.9835777  35.8620501  16.7586803
 110.1997375  34.9571013  16.9835663 109.5036602  36.1897683  17.5192809
 107.6625347  81.2555218  18.9417875 106.9489956  81.8316936  19.2158711
 108.4471321  81.8004704  19.0023589  10.8262473  72.2884750  21.5716267
  10.0300246  72.8178501  21.6166806  11.5348273  72.9275799  21.4961147
   1.3223200  68.6752224  44.6139956   1.9771510  68.4678650  45.2806520
   0.6545382  67.9969168  44.7150517 121.5670586  69.0425062  39.7593713
 122.2781086  69.6589327  39.9344683 120.8034611  69.4298458  40.1873064
 102.5797749  38.6087561  57.3288345 101.8061638  38.1892085  56.9523573
 102.5575447  38.3656716  58.2543850  77.0458698  55.2476454  79.0006924
  77.2761583  55.0060892  79.8978281  77.5817680  56.0187721  78.8152075
  98.2427883  72.4169397  45.0071764  98.7805939  72.3765802  45.7979727
  97.8788090  71.5359592  44.9198437  14.1375475  73.8324785  52.2770357
  14.8704558  74.1653395  51.7590761  14.5248442  73.6071920  53.1228971
   9.6815806  60.0755024  16.7532170   8.9665919  60.7076120  16.8270516
   9.8026305  59.9598169  15.8107758 121.3069057  42.9783630  78.5210180
 120.3821278  43.1838131  78.3838701 121.3176250  42.4381399  79.3111277
 113.7343502  71.0013628  48.0107832 114.4504929  71.6351366  47.9696417
 113.0256462  71.4691019  48.4525919 101.2872791  56.2177324  47.4007607
 100.8134270  55.4132080  47.1899605 100.9492874  56.8641567  46.7809820
 107.2467232  83.7937737  60.5299759 107.1360779  84.2735481  59.7091150
 106.9493961  82.9060650  60.3305054 123.7956047  42.5246525  69.8389053
 123.0171013  42.8618383  70.2821636 123.5228252  42.4119329  68.9283466
  10.8589869  19.4453192  19.7495258  10.8909731  19.7255313  20.6642342
  11.5597659  19.9386919  19.3232381  88.5699368  72.9414892  33.2185531
  89.4828320  72.6698828  33.1232405  88.0661392  72.2325659  32.8187490
 117.1440697  99.3467617  58.4014130 117.0436001  98.4637928  58.7570906
 116.3402271  99.4975471  57.9041004  80.7315350  15.6183946  29.2318201
  80.9957790  15.3052557  30.0968909  80.3390026  14.8540378  28.8100219
 114.8923302  57.4995136  16.3214815 114.2694569  58.2226706  16.2486041
 114.3454933  56.7244005  16.4495730 123.6382771  48.0484390  45.3524351
 124.3262863  47.7906370  44.7389078 123.5191441  48.9856672  45.1986933
 105.4012203  41.2558794  62.2834778 106.2448311  41.6627455  62.0859814
 104.7536278  41.8543959  61.9111347  18.3610945  57.6691008  39.4823718
  19.0390902  58.3436680  39.4434214  18.4935217  57.2450924  40.3302622
 108.5215950  70.2263975  25.3492451 108.3567619  70.0116873  26.2673759
 108.8153267  71.1372709  25.3652883 106.1492729  52.0595789  70.3619051
 105.5137444  52.1592474  71.0707045 106.8889809  52.6073217  70.6246758
  99.0089607  74.6466208  59.8404408  99.8489666  74.1880560  59.8219299
  98.4479618  74.0968513  60.3874874   9.1115790  98.0433083  35.7400131
   8.4550982  98.0249214  36.4363790   8.6135989  97.8889370  34.9372554
 108.5886288  55.1293468  58.1353617 108.0160141  55.8963776  58.1376410
 109.1918564  55.2829361  57.4081993  78.8733721  40.6886387  67.0266008
  78.9759207  41.4871550  67.5443792  79.2252541  40.9146404  66.1655951
   8.6636763  54.4596624  70.9330225   7.7608615  54.7357655  70.7751369
   8.8853674  54.8401976  71.7828894 108.8852119  90.7003689  74.8202467
 108.8333702  90.1997662  75.6344604 108.3881092  91.4988327  74.9979401
 105.0773144  36.8121362  81.8332100 105.3885078  37.2891450  81.0638905
 104.7645950  37.4941492  82.4275970  46.4879733  67.2643852  55.8325434
  46.5905696  67.2318888  56.7836714  47.2055560  67.8226757  55.5331707
 119.5238018  67.8698730  35.2740526 120.3234673  67.8921604  35.7996631
 119.2335320  68.7813997  35.2408338 106.0550117  76.7370796  29.3403029
 106.9210434  77.0974779  29.5308948 105.8838844  76.1309624  30.0611186
  11.7137652  70.8138275  41.5216494  11.9619017  70.1974106  42.2106266
  10.9670096  70.4006672  41.0881901 119.9213600  97.4105930  58.1829357
 119.5065594  96.8861008  57.4980402 119.7192287  96.9466209  58.9954042
 109.4971371  95.5829048  60.2671242 109.7954559  96.4520264  59.9990129
 110.1847076  95.2633667  60.8513975 104.3313980  98.0570507  22.5898099
 104.9853230  97.4547577  22.2350240 103.6118793  98.0279732  21.9591904
  98.1339359  85.3382206  49.7506332  97.6704311  86.1510563  49.5489168
  98.1897354  84.8799038  48.9121437 100.2855492  68.2721901  14.9388075
 100.8827972  67.5458241  14.7601545  99.6368790  67.9065228  15.5402553
  90.4879856  67.8914547  20.2548265  90.8393383  67.0010996  20.2619147
  89.5705795  67.7889347  20.5079865  10.4110079  73.2885170  50.2652121
  11.2574416  72.8569651  50.1487827  10.5839377  73.9893293  50.8938503
  14.6176844  81.7600632  33.9713955  15.2472907  82.4288654  34.2407036
  14.2642527  82.0836449  33.1427765  83.3126736  46.8225384  28.3371782
  84.1507244  47.2756243  28.2443857  83.5406303  45.8929253  28.3276081
  31.6660624  49.9973154  73.5981035  32.1966677  49.4921637  72.9820538
  30.8166438  50.0860929  73.1658554  98.7924004  33.7631202  63.0388498
  97.9894352  33.2699323  63.2069302  99.2971516  33.6819887  63.8480949
  18.8870459 103.6598682  51.2126875  19.4956236 102.9701519  51.4775515
  19.3893176 104.2017651  50.6041574   9.0301161  52.6566505  54.6668530
   9.8422175  52.6946831  54.1616106   9.0287619  51.7805672  55.0524807
  95.9937572  45.3457737  47.2554636  95.6881237  45.3826571  46.3491201
  96.7960167  44.8250914  47.2166920   4.9874526 102.8631306  83.4884644
   5.7764750 103.3214855  83.7775517   4.2712145 103.4611034  83.7021637
  90.0592709  53.9689350  57.1842289  89.5296669  53.5828972  56.4865732
  90.9245110  54.0851974  56.7916965 104.4053078  76.7846107  61.4237261
 104.7293949  76.4392996  60.5918837 104.2467499  76.0077810  61.9600344
  28.3270960  52.7229071  47.2133541  28.9615851  52.3229599  46.6186333
  28.3240634  52.1505070  47.9805470 100.6735229  56.3471222  50.2133608
 100.8708572  56.3313866  49.2768574 101.4160347  56.8053913  50.6069279
   6.7096072  34.3725896  33.9683175   6.5691882  34.6629167  33.0670834
   6.5133029  33.4358859  33.9515376 109.9476433  66.7486334  63.5815287
 110.2607822  67.6192617  63.8268709 109.4646168  66.4427090  64.3492031
  98.0072117  51.5614080  51.6387844  98.3178329  52.1177483  50.9244776
  97.2763157  52.0475197  52.0205116   9.7215968  38.5833526  65.3887606
  10.4976206  39.0335369  65.7224655   8.9917498  38.9790630  65.8651638
 100.0698853  54.5799875  75.5740261  99.5923233  55.1628685  76.1642885
 100.9755898  54.8869658  75.6152534 103.2700443  49.5956373  89.8770809
 103.9077759  48.8887644  89.9763775 102.5894451  49.2268562  89.3140411
 114.0299606  64.6723080  29.0186572 114.8987770  65.0078154  29.2396021
 113.8291931  65.0675535  28.1703043  95.1160622  77.7773952  68.1761169
  95.0261879  76.8377590  68.3349705  95.4118633  78.1346464  69.0134335
 102.0925713  61.6859865  29.8227572 102.0565128  60.9033394  30.3726602
 102.0477581  62.4153709  30.4410005  13.7525683  45.5194521  51.1640835
  13.0187827  45.0429487  51.5523338  13.8887148  45.0990915  50.3149700
  19.3268614  97.2929382  39.8382878  20.0337439  97.9361057  39.7845507
  18.7511283  97.6267242  40.5262852  85.2950191  51.5578127  58.3022642
  86.1775208  51.5223551  57.9332399  85.1332569  50.6702042  58.6219645
 103.9233780  86.4536381  31.1063385 104.3921566  85.6828117  30.7864952
 103.1708622  86.5364647  30.5205941  14.6631938  60.2904701  36.4888883
  14.3390685  60.6351423  35.6567979  14.8520308  61.0687065  37.0132184
 113.1313705  59.6348667  51.8398285 113.6051846  60.3389025  52.2826242
 112.2096920  59.8818398  51.9156313 113.6064625  61.0246849 109.6929125
 113.8957977  61.3918924 108.8576429 113.4248066  61.7886162 110.2403049
 114.4247627  58.5428715  32.4438977 113.8736916  59.2363214  32.8067803
 113.8165855  57.9790974  31.9658756  10.6186228  89.6570492  49.7509193
   9.6659308  89.5642567  49.7524309  10.9291010  88.9313412  49.2094564
  11.0403758  68.2712603  48.5015392  10.6848174  69.1519117  48.6209679
  10.3477126  67.6889515  48.8135719  91.5327740  69.7959375  47.5835037
  92.3493671  69.6958780  47.0942211  90.8775616  69.3453693  47.0506763
   8.9134150 122.2215176  25.5413461   8.3920127 121.5417576  25.9683037
   8.3821707 122.4970531  24.7942924 117.6971245  58.9916563  52.6978779
 118.2028675  59.7172022  53.0639839 117.3288345  58.5471249  53.4614134
  92.5196838  79.8290062  39.2357183  92.1399307  80.6815243  39.4483852
  92.7052689  79.8766994  38.2978940   6.8939143  59.5280409  54.7208834
   6.9510489  59.1680002  55.6059456   7.6242858  60.1442480  54.6653748
 106.8533993  54.2957592  17.6027310 107.3411942  53.4841299  17.4629319
 106.0684109  54.0244818  18.0785787  28.1679850 105.2948952  33.9094996
  27.9244071 105.4709816  34.8182893  27.9019862 104.3873405  33.7617850
  78.2768869  61.7650032  61.6788626  78.3739996  62.1798038  60.8216906
  77.3788023  61.4338732  61.6843367  32.5945502  66.3652611  19.1857851
  32.8081446  65.4913235  18.8589144  32.5396853  66.2589741  20.1354814
  13.6121970  67.0756245  66.0160828  13.4616404  66.7973948  65.1126719
  13.6007433  68.0319643  65.9772348 115.6911850  75.2522802  15.1235092
 116.0590458  74.4216824  14.8218179 114.7875214  75.0424433  15.3592849
  97.6316071  79.2808437  19.3382788  96.8519306  79.0268469  18.8444948
  97.2946644  79.5676613  20.1870632   1.1082106  38.5481429  41.7079353
   1.2153845  39.4913578  41.5850782   0.4039984  38.4689045  42.3513889
 113.9708710  39.7146749   7.2186929 113.9568424  40.0107574   6.3085449
 114.4497013  40.3992558   7.6859128 116.5809345  68.8852787   3.7805843
 117.1315670  69.3555164   3.1545624 117.1959496  68.3625507   4.2951158
  20.5586081  74.3972588   8.6531466  19.7585040  73.8858938   8.7739009
  20.4838496  74.7534943   7.7678561  86.3185787  46.8955469  37.5438380
  85.4681683  47.1440172  37.9061770  86.9357681  47.0389986  38.2612872
  97.4514675  88.2301426  15.8385134  97.4427605  89.0388393  15.3265011
  96.5515041  88.1342316  16.1501122 115.4117966  60.9029436  31.0615849
 115.3317547  59.9815416  31.3082504 115.8371258  61.3159895  31.8130660
  90.7555962  64.4698238  25.9084797  90.0345230  64.5042467  26.5370512
  91.4851189  64.8971987  26.3572264 113.0297375  72.7983093  32.1324968
 113.6587143  72.0964575  32.2999215 112.7031994  72.6218557  31.2501884
  25.3446799  88.5786629  24.4207168  24.8303538  88.0224609  25.0058103
  25.0701838  89.4702435  24.6351528 123.5195637  75.5738831  52.3370743
 122.6737022  76.0057163  52.2175598 123.6559486  75.5723381  53.2845068
   2.6575595  88.2081223  27.1126628   1.7929869  88.2069588  26.7018628
   3.0249911  87.3502541  26.8998766 115.0646210  91.2228870  38.2674837
 114.1506290  91.1865902  37.9854536 115.5654716  90.9816360  37.4882698
 107.1338749  65.2472782  13.3083069 107.6050949  64.8714066  12.5647318
 107.7933884  65.3189850  13.9983296 115.4033279  62.0931196  46.6706371
 115.5931854  61.2104750  46.3526344 114.6432400  62.3731136  46.1606264
 114.7785568 117.4185371  34.4804358 114.9310875 116.8031025  35.1975179
 114.3969345 116.8846035  33.7836480   6.7307501  63.8015318  67.9525137
   6.0109454  63.4125280  67.4557304   7.5177126  63.3883142  67.5973082
  80.6591129  24.3897605  27.5254059  81.1609364  24.8840690  28.1735301
  81.2613106  23.7093401  27.2243619  31.7421752  91.9244576  85.2339586
  31.3389044  91.8933105  86.1015042  32.6832800  91.9425106  85.4078063
  17.1776229  56.4702559  37.4439454  17.2854262  56.8639421  38.3097506
  17.7835494  56.9548464  36.8833590 122.3302078  87.2611713  33.3976793
 122.8948689  87.8820801  33.8579583 121.7443371  87.8106689  32.8770590
  22.2166472  76.0083294  37.6280332  21.8965941  75.7995081  36.7504287
  22.5512629  75.1772308  37.9649925 107.9021740  46.9731092  28.6065555
 108.3624840  47.4289751  27.9019022 107.2866631  47.6212120  28.9491153
 119.4676971  62.7997017  21.5750527 119.9696350  63.0826426  20.8106995
 119.6070099  61.8535948  21.6162610  42.2977381  41.1360788  25.1364017
  42.2783595  41.1523199  26.0932660  42.7263575  41.9561815  24.8915601
   2.8880625  57.5439882  94.6131762   1.9592124  57.4859905  94.8370250
   2.8966075  57.7743006  93.6841353  13.6127978  64.3881845  30.2979994
  13.7489729  64.2089128  31.2283492  12.7631884  64.8274899  30.2605772
 119.3106174  82.9383850  35.0151992 119.4000340  82.4276447  34.2105985
 120.1218319  83.4435558  35.0696111 124.4275951  63.4387779  57.2659397
 123.8880348  63.0992126  56.5519333 125.0194454  64.0613794  56.8436813
 113.3885384  75.1119995 109.5848260 112.6084805  75.2301073 109.0427991
 113.7624836  74.2820835 109.2887896  14.5709544  62.1556044  21.0709858
  14.6979457  61.6669178  20.2577877  13.7694674  61.7913103  21.4466691
 115.6390667  75.0402880  57.6664877 114.7243786  75.3220320  57.6808739
 115.6013298  74.0962219  57.8199339  16.1109095  78.9341640  23.0315661
  15.4591590  79.6037626  22.8239870  15.6985884  78.4012079  23.7114072
 109.5783997  61.1959219  20.4228425 109.3846321  61.4929628  21.3119173
 109.8005962  60.2702379  20.5226803 104.3515778  61.9364595  45.6087112
 104.1719913  61.0576153  45.9427929 104.4538784  62.4747705  46.3935614
 120.6242943  55.9120989  42.1976376 121.2573051  55.6606674  42.8701830
 121.1487675  56.3484621  41.5262556 108.2775879  59.4673443  92.4763020
 108.9658165  59.2537212  91.8462666 107.9821205  58.6184025  92.8052732
  96.1028099  99.6624088  49.8208666  95.5813313 100.4341221  50.0416470
  96.7943001  99.6433163  50.4824638 101.5283680  75.2693129  61.1460447
 100.8753490  74.7750235  61.6415024 102.3678875  74.9041605  61.4255238
 102.6992798  55.7851315  36.0984421 101.8121529  55.9963894  36.3893175
 102.6190758  54.9219704  35.6925511 100.7658386  56.7959023  29.3057728
 100.5562019  56.0401344  28.7570477 101.6557789  56.6275597  29.6154451
 116.2605762  38.9721632  74.0754613 116.1141205  39.1359735  75.0071009
 115.9561634  38.0749369  73.9392837   0.5186205  64.6239901  10.6494355
  -0.2334947  64.9745941  11.1265409   0.8008128  65.3436565  10.0849211
 103.8926506  41.2796593  57.0261812 103.3145428  42.0228815  57.1983433
 103.2987022  40.5465555  56.8648958 115.9867096  43.5439444  22.1814728
 116.2334824  43.2769203  23.0669308 116.5379715  43.0112219  21.6082764
 115.5921078  86.1812592  23.2955623 115.9632015  85.3966427  23.6991715
 115.8241653  86.8911648  23.8942313 102.5788403  45.9550381   6.6035652
 103.1052780  46.7539549   6.6322196 103.1911182  45.2746582   6.3235110
 105.6813049  47.5488567  50.0589991 106.1852551  48.2068014  49.5800781
 105.1159668  47.1513462  49.3967199  63.1015825  75.7186699  24.6437907
  63.3888245  74.8056889  24.6299314  62.1548796  75.6699181  24.7764802
 110.0854015  66.0586596   9.2535102 110.8273888  66.1462498   9.8518515
 109.4097614  66.6257572   9.6251827 112.9674435  58.9240408  45.7670116
 112.6692963  58.0785799  46.1024809 112.6834202  58.9326763  44.8529577
 113.6036968  76.6326284  45.6170225 114.2774868  76.4801788  46.2795877
 112.8316593  76.1758661  45.9510183   6.0386401  79.0792036  18.4548032
   6.5375834  78.4516621  18.9777517   6.5491515  79.1810417  17.6515329
  11.0942488  37.1624041  60.5076408  11.0961943  37.0195866  61.4541245
  10.2090293  37.4706650  60.3137493 111.8892384  58.2373857  98.7100776
 111.9050789  59.1134977  98.3248385 111.4599037  58.3560133  99.5573267
  80.8887577  58.0356455  74.2335510  80.6040668  58.7671709  73.6857843
  81.1612034  58.4436989  75.0554323  77.2765827  44.3192768   3.4861839
  76.5253162  44.3430090   4.0788665  77.0414639  44.9180460   2.7773628
  37.9863673  47.8019810   7.4541909  37.7602130  47.5059748   8.3359337
  37.1884852  47.6648378   6.9435036 118.5563946  88.7839127  17.8515899
 118.6037159  87.8591061  18.0938947 119.1108131  89.2282391  18.4930182
 118.1265068  88.7424660  14.8907542 118.5276604  88.6209202  15.7512963
 118.8634396  88.9176559  14.3055511  95.0610161 112.7784824  60.8339167
  95.1326942 113.5148239  60.2265501  95.9620476 112.6033306  61.1053753
 110.6913376  71.9667435  42.1005630 111.5489960  71.9688129  41.6755533
 110.4469395  71.0422087  42.1423006  93.0704403  78.0255270  94.2767402
  92.7683640  78.6941051  93.6619338  92.2818756  77.7629757  94.7515722
 116.5490723  54.1523743  56.6457939 117.0898914  53.8541460  55.9144878
 116.3223648  53.3513784  57.1182728  19.4595843  85.9292984 101.6255363
  18.7957507  86.2841320 102.2168448  20.2821761  86.0208893 102.1063443
 104.7973251  25.2948689  85.2300938 104.2195415  25.9780931  85.5701026
 105.4289150  25.7645226  84.6853503 106.9777012  76.8332911  16.6770649
 107.5712967  77.5167561  16.9881225 107.3787594  76.0155439  16.9714689
   9.6259814  57.7883911  12.4540865   9.4841223  58.6638260  12.8142595
   9.8076277  57.2414970  13.2183790  97.7681732  64.7870779  30.3660202
  98.5403252  64.3522310  30.0041938  97.0442963  64.1924095  30.1695442
  31.0177260  88.8387966 107.4621969  31.2747031  87.9672909 107.1610930
  31.4657527  88.9439869 108.3015070 110.4753494  72.4159861  50.6972885
 110.5696201  71.9715881  49.8547602 111.3029003  72.8820944  50.8161449
   3.0909567  63.6400557  47.3458242   2.2906142  63.8409996  46.8607330
   2.7878695  63.4161282  48.2257271  96.9110394  73.8476086  14.4539845
  97.5753784  74.3763494  14.8959291  97.3752880  73.4433699  13.7209845
  98.0247307  37.8378725  12.7064645  98.7795830  37.7137470  13.2818103
  97.3547935  37.2531962  13.0608130  16.4452773  55.3914452  14.9592733
  16.5474539  54.8187876  14.1991043  17.0570689  55.0413179  15.6068540
   1.3053542  73.5326624  13.3944643   0.8981162  74.3577957  13.1307507
   1.4995127  73.0870867  12.5698435 113.6672974  73.6810541  27.2215390
 113.8047791  72.9686403  27.8458762 113.9671421  74.4645977  27.6823926
 115.8302975  82.4304867   7.6985705 115.8837891  81.7186832   7.0608348
 115.9348297  83.2268810   7.1779382  13.1762152  61.5684223  39.6716380
  13.4895449  62.3803425  40.0701904  12.7517443  61.8480110  38.8605380
 103.8999271  55.1043797  22.6182699 103.5850906  54.2261028  22.8321385
 103.1900501  55.4959726  22.1093965  87.5187111  65.1597977  26.8817401
  86.9530487  64.3898392  26.9401479  88.2786942  64.9400949  27.4206305
 104.9619961  47.3088264  11.3624251 105.2751541  47.0441103  12.2273457
 104.3743134  48.0443525  11.5352523 121.1327362  86.2831688 101.7325523
 120.8908558  85.7227039 100.9952589 121.1012077  85.7040787 102.4940547
  14.4512492  53.7329912  57.0845270  14.1460925  54.4574404  57.6306772
  13.6722212  53.1951141  56.9429588 102.3967361  62.9748106  11.6184700
 103.0253410  63.5107422  12.1020699 101.6851139  63.5772085  11.4018130
  91.7267036 100.4399872  41.7208958  90.9553242 101.0001373  41.6346645
  91.8511677 100.3475094  42.6654530  96.5346527  87.7740765  37.8633070
  95.9730148  87.3883438  38.5356188  97.1549797  88.3156776  38.3512545
  99.2903042 114.5915604  48.7687254  99.5756531 113.6812210  48.8467503
  98.6744690 114.7123146  49.4914961 107.6400757  73.7079763  31.2907052
 107.9862499  74.3890762  31.8673277 106.7013073  73.6909199  31.4768505
  17.9565173  68.7847233   5.5201721  17.5122195  68.0995131   6.0194916
  18.7225085  69.0079832   6.0489857   0.5162745  95.5520630  49.9151134
  -0.0671834  94.8422813  50.1834726  -0.0613183  96.3068199  49.8012877
  88.0969238  76.0480309   5.2489841  88.4434128  75.2144861   4.9305785
  87.2612572  75.8201027   5.6563377  93.8420677  59.7517443  20.1851940
  94.3160629  60.4877663  20.5722690  92.9208374  60.0066090  20.2363682
 114.2283821  44.4992733  89.0438398 114.9093819  44.6341753  89.7028311
 114.3150997  45.2474785  88.4531625 111.3939762  52.9978657  27.5100541
 111.9262409  53.7426615  27.7897120 110.5453396  53.3802986  27.2869277
  15.4552012  87.0046139  22.2620106  15.1845580  86.9225216  21.3475466
  14.6489077  87.2166252  22.7323079 104.8350811  69.7438860  29.7264194
 104.0494061  70.2398014  29.4961691 105.5555058  70.3588104  29.5882702
  86.6821194  46.6038322  33.1475472  85.8785629  46.1652184  32.8680134
  87.2180748  46.6492510  32.3557615   0.5759650  65.7198668  95.4404148
   1.1077624  66.0822582  94.7318276   1.2112933  65.4572630  96.1064728
  31.2170344  58.8430405 108.8821070  31.2856513  58.6441040 107.9483264
  30.4820090  59.4531155 108.9436391   7.6472884  41.6351414  58.2211065
   8.1527262  41.3824844  57.4484921   7.2556334  42.4764490  57.9864979
 123.3364964  68.7566662  19.4147182 123.6414433  69.2324543  18.6421478
 124.0910339  68.2349014  19.6879661   2.7741938  89.2183113  16.5069211
   3.6576777  88.8628769  16.4102113   2.8871470  89.9949932  17.0548654
 117.6243877  76.8862820  14.4557512 116.9034195  76.3167048  14.7241187
 117.5862885  76.8863678  13.4993088  99.5832157  46.0862637   6.2811524
 100.4017925  45.9472036   6.7574191  98.9597893  45.4911137   6.6975200
  10.2797061 108.0229664  39.2496610   9.6773940 107.6827621  39.9112558
  10.6055861 107.2438145  38.7991595 113.3001804  52.9879904  64.9765110
 113.5958767  52.9071045  64.0697289 113.3562851  53.9249563  65.1640558
 102.6040936  61.7107344  53.9973450 101.8709087  61.8889618  54.5863295
 103.0117416  62.5653362  53.8569498   0.1728755  80.2203465 108.4915780
  -0.4538793  80.8073330 108.9145053   0.6622534  79.8303986 109.2159285
 106.4894390  53.7002707   1.5069605 106.5680313  53.4086990   0.5986434
 105.9153938  53.0535030   1.9173092 120.3430271  79.0160227  23.1315470
 120.5741692  79.5566797  22.3762345 120.6195831  78.1327534  22.8874636
  16.1440878  59.1029882  67.6228046  16.4930850  59.8542929  67.1432447
  15.3670817  58.8429260  67.1279764 112.7232361  62.4744034  14.0238976
 112.6127434  62.8220367  14.9088705 112.9835415  61.5627241  14.1554606
 119.7097301  61.7086220  17.8680205 118.8810730  61.9395447  17.4482059
 119.9641514  60.8822584  17.4573767   7.5025969  48.0589008  36.2389612
   7.1609431  48.8771439  36.5994883   6.8344241  47.4067688  36.4499211
 109.7506046  62.3270369  56.5226698 109.3363762  61.7391491  55.8909798
 110.4722595  62.7285671  56.0386992  30.1211482  50.7977295  45.4726744
  30.4159098  51.6357374  45.1161718  29.3766146  50.5523682  44.9234009
  88.9908886  39.1239452  33.7510037  88.7062931  38.3072758  34.1612363
  89.9195576  38.9870143  33.5638118   2.6864081  58.4477043  48.0306721
   2.5511008  58.0389929  47.1757603   3.2795840  59.1782904  47.8556776
 121.5973186  62.1689367  32.7007604 121.2642670  62.7092648  31.9842744
 122.1906567  62.7467442  33.1806779  12.6223212  93.1576633  19.8939729
  12.0795851  93.9367390  20.0153136  12.4203616  92.6050949  20.6490302
  92.4032211  27.9687190  35.6530046  92.9458523  27.1947813  35.8040047
  92.4018192  28.0784392  34.7021151   0.3594523  85.7061672  16.6054392
  -0.5941076  85.7411003  16.5297210   0.5213767  85.5936241  17.5421059
  19.9297743  87.6580143  42.8294420  20.6479674  88.2907867  42.8246689
  20.2693873  86.9139862  43.3267546 110.9779167  74.7277355  26.9260263
 111.8393517  74.4314575  27.2199273 110.3583813  74.2217875  27.4517989
  24.3694048  59.5029306  49.4312716  24.9351435  59.1387606  48.7504244
  24.6675616  60.4068899  49.5322371   7.3199206  38.8715911  76.5995916
   6.4806300  39.3204498  76.7012843   7.1982985  38.3062100  75.8368453
 115.4111767  92.3487568  81.2563380 115.0060749  92.9541588  81.8773159
 116.1489964  91.9719696  81.7358049 123.8394642  57.9355383  45.4100275
 123.9337444  58.8436317  45.6976128 123.0315876  57.9295301  44.8966599
  13.7003546  34.1738200 107.1709492  14.5069819  33.6636233 107.2436281
  13.1901484  33.9263844 107.9421131 123.8877487  61.7917919  27.7036524
 124.1337299  60.9296846  28.0390549 124.5273685  61.9722176  27.0147657
  89.9785995  63.1605053   3.1432012  89.5389938  62.5331497   2.5692695
  90.3477001  62.6248884   3.8454199  87.6658440  40.0994444  38.1363606
  88.4803295  40.1727200  38.6338282  87.3061657  40.9864950  38.1337285
 110.2694988  69.3979979  10.6680059 111.0024548  69.1960764  10.0864351
 109.5777798  68.7928247  10.4005599   2.1399241  70.5219412  28.7995172
   2.9231864  70.1061583  29.1598773   2.4410563  70.9426212  27.9941726
  97.7101040  45.9151173  20.2347922  97.0933819  46.5013599  19.7963858
  97.4374485  45.0373554  19.9675333   0.8912116  88.1046963  14.4480562
   1.6485816  88.3076954  14.9970591   0.5147200  87.3172474  14.8410046
 109.9639225  65.5913639 101.3206621 110.5771446  66.2741041 101.5928134
 109.9866104  65.6165075 100.3640612   3.8609725  91.0629177  23.1830287
   3.8611441  90.6108570  24.0267587   3.6475401  91.9709492  23.3978558
 104.0258121  38.5662055  62.0927477 103.1167030  38.8609505  62.1463013
 104.5135498  39.3426633  61.8180561  87.1783447  56.3698483  13.6456645
  86.2874508  56.0878849  13.8531184  87.6177406  56.4192200  14.4946182
  95.0985813  78.7047529  18.2067966  94.5560169  79.4476795  18.4712219
  95.3155899  78.8805103  17.2912371 113.3604908  36.8252468  50.6366777
 114.2161751  36.4012551  50.5713320 113.4721565  37.6611233  50.1838255
  77.3178482  52.0623970  35.5067992  77.9118490  51.6243649  34.8972726
  76.5109587  51.5491247  35.4654479  82.1037102  88.9506626  69.7102261
  82.2876740  88.2633781  70.3505611  81.4154053  88.5833263  69.1556644
  16.4554053  57.7387047  34.4805002  16.9533282  57.6311111  35.2908897
  16.6231661  56.9353390  33.9878607 118.0058765  59.4181490  47.0511866
 118.4128761  60.2168369  46.7155123 117.0923424  59.4792843  46.7719984
  27.5973731  12.1106458  32.1239805  27.5156718  13.0563807  32.0009327
  28.5398512  11.9459069  32.0951581 108.8302135  51.7572975  43.3873272
 108.9855194  52.0695782  44.2787313 108.4932518  50.8685112  43.5002041
 107.5150299  52.8704882  62.7944183 108.2964134  52.3699141  63.0291367
 107.6589108  53.1258154  61.8831921 110.5706310  56.0734844  40.6091070
 109.9657726  55.3323412  40.6420565 111.2707233  55.7854223  40.0233412
   8.0530005  48.2879829   4.3336603   7.2875720  48.0553007   4.8592192
   8.5402136  48.9046764   4.8800498 123.3424854  77.5304985  23.6942720
 123.7808132  78.2645035  23.2637572 124.0513515  77.0363855  24.1060901
  19.3710356  58.7745237  48.4483767  19.0972643  59.6030951  48.0549955
  19.3004256  58.1371212  47.7377653 123.1451607  31.1907864 104.4104316
 122.5857449  31.3079095 103.6426046 123.9050102  31.7474961 104.2403235
   8.8195639  86.0665703  17.8765488   8.9701777  85.2897835  18.4152138
   9.2591982  86.7740250  18.3482027 112.5409985  48.1359291  31.4944482
 112.4694538  47.5149822  32.2193909 112.9095173  48.9254332  31.8908119
 116.4357948  55.1148224  37.1102190 115.9243202  55.8615780  37.4216461
 116.5444851  54.5601034  37.8826857  99.6492004  20.7483363  15.5437624
  99.0053558  20.1874113  15.9762549  99.2663956  20.9356093  14.6866643
  94.7189522  61.2314796  58.4468699  95.5137730  60.9700441  58.9117861
  94.1029072  60.5160618  58.6046410   5.0662165  72.6089573  25.7618046
   4.4796305  72.9385996  25.0810051   5.0414496  73.2794046  26.4445305
 103.0949402  32.0945096  45.6148577 103.4982014  31.2350893  45.7373905
 102.3106098  31.9191217  45.0949669 109.3611336  84.1848087   2.3241004
 109.8799324  83.9211750   3.0840796 108.4534073  84.1286755   2.6226270
  98.4265614  62.2575903  22.6638627  99.3040562  62.6395369  22.6451206
  97.9607964  62.7602005  23.3322001  88.0251408  48.0551386  11.4577985
  88.3045483  47.4526596  10.7684636  88.7709332  48.6427689  11.5790915
 102.1864223  96.1770058  43.1002951 101.6267586  96.9534302  43.1136894
 102.2038841  95.9101677  42.1812057  19.6346980  64.6059036  55.0916100
  19.1187411  64.9430990  54.3592739  18.9834147  64.2931318  55.7194996
   0.8215933  42.6364565  48.1031227   1.0625773  42.4517155  47.1953630
  -0.0062818  43.1126308  48.0389929 109.6051788  53.6988592  41.8876457
 109.2660427  52.9149485  42.3197317 110.2925968  54.0166044  42.4730778
 117.8914070  83.4223366  22.9193521 117.5614071  83.9515591  22.1932268
 118.8375282  83.3861351  22.7787209  20.0308066  65.1529169  22.6174188
  19.6340113  65.6064558  21.8737221  19.2919856  64.7523928  23.0756259
  91.8584251  96.3649178  76.8603238  91.4827156  95.8902073  76.1188897
  91.1296368  96.4692211  77.4720606  93.4019661  70.9362316  40.9722996
  92.9483604  71.1696482  40.1623631  92.7484131  71.0675383  41.6592216
  93.8202095 109.3275070 104.5206132  93.2023621 109.9261856 104.9402251
  94.2194557 108.8478756 105.2464184  13.9739161  84.1660976  27.8091288
  13.7103587  83.3489799  27.3859334  13.5145693  84.8483944  27.3195434
  93.7500763  68.6926794  97.2224744  94.3295193  68.3395338  96.5473684
  94.2096329  69.4647026  97.5526568 102.4504852  40.5186796  40.3062296
 102.2023010  40.8766556  39.4538856 101.7722416  39.8719549  40.5010748
   6.8098384  59.6020365  33.7411356   7.3466521  59.4572592  32.9619670
   6.6227656  58.7227345  34.0698719 102.4138927 101.2106609  97.0524343
 101.4629936 101.1093426  97.0105656 102.6674747 100.7605267  97.8582367
 118.7134457  57.5209618 103.8169172 119.6307659  57.2556829 103.8831344
 118.6572838  58.3213043 104.3389627  85.2897453  73.0811930   8.0894309
  85.8654594  73.1041050   7.3250622  85.0810432  72.1541214   8.2043821
  26.6485720  45.3719664  91.4906391  26.7160445  44.7296572  90.7841560
  25.7692652  45.7386303  91.3978049 104.6686172  76.9051838 103.7171169
 104.3901730  77.8102827 103.5775127 104.9263382  76.5971518 102.8482493
 102.4393749  27.6672697   3.5758838 101.6965866  28.1987786   3.2895368
 102.0595074  27.0321035   4.1829225 116.6659927  59.8215103  78.0018552
 116.0305023  60.2875900  78.5451325 117.1907616  60.5137587  77.5998100
  20.8128386  68.5040712  98.8839456  21.0267478  69.0117931  99.6666928
  21.2750846  68.9509916  98.1748434  93.0042267  51.3158798   3.0632275
  92.1076584  50.9960032   2.9628330  93.4446907  51.0515499   2.2555389
 105.9453297  79.5235586  80.3263935 105.5687332  79.8275280  79.5005521
 106.0298824  78.5764170  80.2168282  96.2883663 103.4762192  10.0873530
  96.8074894 102.6777649  10.1832676  95.3808212 103.1831169  10.1690817
 122.1817017  23.5387707  81.7443951 122.1310806  24.4711065  81.9551524
 123.1195927  23.3577585  81.6826161   4.2876368  70.9714079  15.3974581
   4.2800646  70.5706453  16.2666893   3.5538989  70.5622864  14.9386823
 114.8225021  41.8792868   0.3694951 115.5246735  41.3338184   0.0150218
 114.7627831  42.6170969  -0.2373831   7.1874743  46.3009262  97.3093935
   7.2930747  45.3513813  97.2507306   6.6828566  46.4367008  98.1113609
 100.6947136  25.4439974  24.9096966 101.4963818  24.9524260  25.0883842
  99.9992085  24.9211526  25.3086185 110.9611130  54.5907879  10.8077776
 111.2095833  54.4468355   9.8946661 111.6888618  55.0902224  11.1781478
 103.6902905  35.7392192   9.2552298 103.9455700  36.5094757   9.7629362
 104.0030098  34.9969959   9.7724718 113.8893127 102.5191212  19.0171623
 114.0224838 102.9280567  19.8723054 113.1006813 102.9374695  18.6718190
   4.3820029  76.9016123  86.7394527   3.5728007  77.2539616  86.3689431
   4.0897685  76.2984419  87.4228414 117.6381207  50.5372858  87.4905142
 117.2726345  49.6534395  87.5289115 117.7254772  50.7199097  86.5549668
 122.1694469  93.9029980   4.8769000 122.1606541  94.7192669   4.3770397
 122.8318596  93.3642864   4.4441921  82.7594757  64.6982813  94.3312522
  82.8424263  64.8467875  95.2732166  83.6565399  64.5494175  94.0323409
  90.0736904  58.2816267  27.4665380  90.1056957  59.2135048  27.6829004
  89.3477535  57.9394245  27.9882145   7.1936541  70.5978632 103.2457020
   7.6969939  70.9158325 103.9952197   7.7758914  69.9726248 102.8140684
   3.9127760  91.0031891  12.4509311   3.1350928  91.4202309  12.8217757
   3.6358290  90.1071358  12.2596049  15.6825190  88.2463551  53.3363390
  15.8053332  88.1290913  54.2783546  14.8053008  88.6204147  53.2538939
 116.8152142  62.3580170  17.4849641 116.5884781  62.0702267  16.6006565
 116.2301254  61.8604088  18.0561781  10.9731703  71.9326067  78.6823090
  11.2894183  72.6046658  78.0785283  10.0652629  72.1783209  78.8599809
  20.4578715  71.9253302  81.6910990  20.3880244  71.5540314  82.5705823
  21.3355189  72.3061991  81.6609152 118.5676575  70.1878214   1.2254839
 117.7923965  70.7485437   1.1975604 119.2405224  70.6861639   0.7616491
 124.5915604  59.9670982  11.7208624 125.0036240  59.5940733  10.9415770
 123.9911270  60.6301546  11.3801730 101.4552784  52.0852661 105.9757858
 102.3060894  51.6489792 105.9311070 100.8306408  51.4228773 105.6803226
  90.4289055  95.3150463  34.9476957  89.8383999  95.4924488  35.6798577
  91.2807274  95.1653290  35.3578520 109.8995972  76.2187004  15.8830214
 109.8316956  77.1703911  15.9598505 110.8408546  76.0474205  15.8525562
  98.5294628  76.8641567  35.7326674  99.2994022  76.4392853  35.3546309
  98.5534954  76.6232967  36.6587567  98.4654903  50.0177097 102.0740440
  98.9132404  50.4934597 101.3744613  97.6864719  50.5419970 102.2597095
 109.7591877  98.2875061  16.4455867 108.8256264  98.2122421  16.2480175
 110.0170612  99.1280937  16.0672355   5.3398257  76.7504025   9.4321221
   4.8483878  77.0935583   8.6858153   5.7502680  75.9513187   9.1016233
 109.5287895  66.2109470  76.0776170 109.1634274  65.6160164  75.4227885
 108.9638996  66.9828510  76.0416111  88.9881897  85.0303745  34.6297097
  89.5354080  84.4167042  34.1396189  88.1208706  84.6254826  34.6360803
   4.5293265  44.1714954  88.1103262   3.8751822  44.0229845  87.4274906
   4.9768286  44.9742413  87.8427871 117.7092266  48.3013487  83.6767920
 118.5970592  47.9929686  83.4954342 117.3554516  48.5315037  82.8176650
  72.2670841  77.8023100  18.6821997  72.0760775  77.5500870  19.5855999
  73.1971216  78.0286503  18.6882567 107.7332973  59.4596577  82.7692636
 107.4233532  60.3632593  82.7086838 107.1597004  59.0527201  83.4185799
  12.2662001  55.8231544  24.5244694  11.6773825  55.1646566  24.8931384
  12.1318846  56.5974092  25.0710225  95.6479359  77.5519514  12.4143612
  95.4898071  77.6223326  13.3557832  96.3750839  76.9340229  12.3391664
  99.7082043  54.2339087  93.3507558  99.2644024  54.5910931  94.1199716
  99.5168972  53.2964087  93.3776590   3.8510733  36.5767932   0.7037899
   3.3335810  37.3594165   0.8933616   3.7140685  36.0094857   1.4624870
  99.5940876  41.2313700  10.0884247  99.1995621  40.4658365   9.6706307
  98.8561440  41.8150234  10.2645600 102.4371052 101.9561768   4.1573289
 101.6537380 102.0150566   4.7042322 102.5008392 102.8138256   3.7370852
  98.4639740  56.8996906  31.7367625  98.0081367  57.7099371  31.5088534
  99.2416859  56.8973160  31.1787343  21.8438941  38.8423491  29.8651552
  22.2018271  39.1427732  30.7005358  21.0078173  38.4367990  30.0947905
 100.8152676  43.0344582 105.6831756 101.2728405  43.0941296 106.5218046
 100.4512787  43.9090872 105.5461671 116.3461876  37.9356551  15.3908455
 115.7759762  38.6467433  15.0985229 116.7173195  38.2498026  16.2153435
 112.2406769  59.9933052  15.5550635 112.4375916  59.7585773  14.6482205
 111.5244961  60.6249189  15.4888809  34.2942935  97.8556347  95.6595358
  35.0085383  97.2183990  95.6569477  34.3985110  98.3355618  94.8379263
  68.2926130  64.3168354  30.6407738  68.0257607  65.2349758  30.5955410
  69.2178297  64.3239641  30.3955197  17.0891600  74.6912670  40.4115582
  17.2343283  74.4935942  39.4863105  17.8728037  75.1710415  40.6797886
  82.8516197  79.8662615  17.8444767  83.3315563  80.2689457  18.5681736
  82.9636860  80.4752254  17.1145189 104.5113659  49.8520327  93.3029851
 103.9045620  50.5268621  92.9986437 105.1088333  49.7177601  92.5673004
   8.2910948  61.9680548 106.0504954   8.6523467  62.6663589 106.5964817
   7.3433142  62.0435762 106.1610951 118.2711983  80.4936504  87.3697432
 117.9275513  81.2877655  86.9604548 118.8730431  80.8121300  88.0424842
   0.5549937  55.5482340  93.8118561   1.0104685  55.0002146  93.1727561
   0.3114062  56.3342810  93.3229502  84.5539665  68.5788870  21.7496061
  85.3751850  68.7063885  22.2245526  83.8726807  68.7199497  22.4070168
 124.6843910  58.0505800  82.5501736 124.5896435  57.6525021  81.6848477
 124.6016788  57.3183012  83.1610426  93.3945370  69.0507889  73.1835660
  92.6488972  69.6317673  73.3342751  93.3094501  68.3730268  73.8541111
  30.4795962  53.0140209  37.1589255  29.5737677  52.8656816  36.8874526
  30.9062892  53.3755636  36.3821030   0.0862532  54.7075367  96.4678248
   0.3916770  55.1854897  95.6967779  -0.2596731  53.8860559  96.1189207
 106.2045860  56.5430403   1.9292183 106.2537575  56.5135860   2.8847009
 106.4880753  55.6731462   1.6478723  96.8453312  73.7717819  33.5377550
  96.0732937  74.2792034  33.7881875  96.4925194  73.0106258  33.0768871
  88.7130928  60.4968882  36.8453264  89.3697643  60.3299904  37.5214624
  88.8701248  59.8202705  36.1867213  96.2322235  45.2136850  38.3348584
  95.4835701  45.6066799  38.7835360  96.9369888  45.8527946  38.4400606
  77.4034405  80.4227924  30.7027292  77.0933437  81.3282681  30.6892085
  77.8372622  80.3308392  31.5510035  90.2803612  82.0738506  10.0318801
  90.6661987  82.6362705   9.3602836  89.5045185  81.6998100   9.6142775
   4.6351367  76.7524338  18.5931826   4.9908190  77.6383114  18.6635053
   3.8498908  76.8516493  18.0548716  96.9558048  49.4678307   3.3206540
  97.3414993  48.6141157   3.5172412  97.7069092  50.0374174   3.1543839
  12.1749526  59.0248394  85.1540145  12.2136431  58.5138416  85.9624823
  11.2496882  59.2500734  85.0570854 104.0528011  46.0761976  23.5823369
 104.0855885  46.1236572  22.6268744 104.4635105  46.8891335  23.8767576
 120.2091312  33.1951022  31.6382480 120.8080959  33.9382935  31.7099524
 120.7820034  32.4302435  31.5831161   3.6823016  69.5549059  38.9426374
   3.6353331  68.9765215  38.1813931   2.8317385  69.4570208  39.3706489
  14.3454581  68.4443712  77.2826370  14.6957427  69.2343235  76.8709239
  14.3613749  67.7853680  76.5885981 104.3530655  70.8359003  82.5638899
 104.4282818  70.6696081  83.5035285 103.4207058  70.7287693  82.3755821
  16.2792521  83.7175560  34.6945310  17.1689444  83.8537788  35.0202990
  15.7226115  84.1902542  35.3133535  94.3662834  54.0839005  93.5796102
  94.7524548  54.2691565  94.4356390  95.1131439  54.0520144  92.9817697
  11.8683463  86.2439156   0.9483671  12.6811343  86.6393852   1.2633538
  11.5012961  86.8949318   0.3503067  74.7604895  83.6141014  18.1053138
  74.1029882  83.9858341  18.6933124  75.5957079  83.7882614  18.5392559
 105.6036568  61.1011505  99.2384490 105.8664227  61.9489193  98.8800045
 106.2345314  60.9309340  99.9379220 111.7731380  44.3624496  49.3420219
 111.3869858  43.4914494  49.4341230 112.7145958  44.2015982  49.2787743
   5.3501921  57.0094299  33.7972260   4.9818354  56.2997627  34.3234539
   6.1117869  56.6191816  33.3683825   0.3233462  22.3673844 105.1821723
   0.6465178  23.0715227 104.6200463  -0.2863855  22.7992558 105.7804584
 107.3668575  64.2776966 101.7087927 107.1110058  65.1589823 101.9810107
 108.3238506  64.2969465 101.7037227  22.0619803  48.8050556  16.1097634
  22.6290923  49.4865704  15.7489991  22.2443133  48.8143253  17.0493901
 102.6169872  71.4153194  22.4100924 102.9155350  70.9520197  21.6275001
 103.2426453  72.1317196  22.5176048 123.0719757  88.5474682   1.2989691
 123.8457489  88.4598064   1.8555905 122.5161362  87.8074646   1.5432352
 102.9650497  53.5972548   5.8735722 102.7168751  52.8814650   5.2885187
 103.0685806  54.3536186   5.2961397   2.1753626  35.5969548  19.3569994
   3.0886393  35.4859257  19.0927458   1.8434649  34.7042441  19.4525909
 106.9738674  72.5053883   6.5394735 107.7799225  72.2456455   6.9856131
 106.7076111  71.7254639   6.0525805   3.9827376  80.6792927  20.7450485
   4.7073870  80.0561523  20.7980084   3.6574870  80.5928230  19.8489630
  91.6126156  44.4962502  12.5033402  91.9884777  44.2531395  13.3494234
  91.6297626  43.6870956  11.9922578  75.4221725  74.8076534   2.2404961
  74.5076847  74.9345160   2.4931701  75.4181910  74.8736906   1.2855852
  90.8618450  79.4490623  17.6384068  91.4731407  79.2522001  16.9286203
  90.7565689  78.6178541  18.1012750 122.9391575  90.2302933  84.6831664
 122.8593254  91.1834526  84.7198495 122.3050976  89.9119282  85.3257021
  89.9901581  94.4183636  12.6479638  89.6293545  94.3526173  11.7638087
  89.4682789  95.1011753  13.0694509  96.4496422  66.9604826  41.2744999
  96.5728855  67.4199629  42.1051121  95.6598186  66.4359283  41.4058447
  96.7367268  77.5031185   0.2957922  95.7955456  77.3336554   0.2545212
  96.9941235  77.2132778   1.1709882  96.8078995  59.0363598  41.3146925
  96.5050411  59.2810011  40.4402447  96.6992283  59.8311853  41.8368769
   2.6673918  57.7578545   7.5136161   3.0021601  57.6025629   6.6304147
   2.7196627  58.7069798   7.6261258  89.6037674  72.1554375  85.6409177
  89.7185326  72.4884129  84.7508677  88.8027954  71.6329718  85.5997595
 119.6860886  49.1869831  44.9905491 119.4160175  50.0888205  45.1636934
 119.5066261  48.7221146  45.8078146 109.4720554  79.4505024  43.2489252
 108.6398315  79.1867256  42.8564262 109.3065071  80.3276443  43.5945559
 119.3039608  65.9644032 107.2142591 118.7106800  65.9155035 106.4646848
 119.9679279  65.2978182 107.0380753 106.8990040  39.7387958  20.8933902
 106.1881161  39.1039181  20.8050752 106.5011120  40.5777693  20.6609297
 103.3499050  71.2604189  27.2481132 103.4945107  70.4825687  26.7093468
 102.4006939  71.3836336  27.2409725  92.3030281  84.7437286  29.5386243
  93.0423927  84.1652393  29.3517685  92.3100471  84.8414612  30.4907966
 107.8443336  66.0302830  29.0790153 107.5084019  65.4938364  29.7970724
 108.5134602  65.4849434  28.6653662 111.3139439  78.5881233  13.2980490
 111.5880585  77.8480291  12.7564275 112.1166611  78.8780689  13.7314081
  96.7993355  36.7856979 104.1757502  96.9292259  36.6191244 103.2421466
  97.6728821  36.7013240 104.5578989 124.2062950  57.9386425 107.4753059
 123.3024406  58.0706787 107.7613827 124.3740559  57.0095062 107.6327590
  10.2573805  82.9919720  98.5706326   9.8756533  83.7016010  98.0539735
  10.2016097  82.2244549  98.0013879 117.6983738  28.9252710  18.1532586
 118.2887936  28.3464980  17.6709127 116.8995571  28.9456749  17.6262796
  77.6622057  84.5784950  14.2969644  78.2595682  84.7543335  13.5700011
  78.1623220  84.0144539  14.8868537  21.1673289  78.3741140  92.5305875
  21.5305071  79.1994810  92.2094938  20.7113581  78.6111450  93.3381375
 115.4677963  83.9865208  11.6317260 116.3014984  83.5249615  11.5415263
 115.4445362  84.2621517  12.5480890  87.5493431  43.6503458  54.7285891
  88.3929539  43.2063818  54.8149490  86.9028187  42.9829359  54.9583626
 105.1267529  96.7419147  69.5933485 105.0078487  95.7942963  69.6574926
 104.4949532  97.0181847  68.9294624  57.8851414  91.0181999   6.1161989
  58.2462502  91.6924953   6.6916621  56.9770765  91.2856197   5.9742826
   1.6798621  92.2525024  85.1157769   1.0441714  92.6546574  84.5238217
   1.4804965  92.6290035  85.9729441  22.5707274  66.6374779  20.3878617
  22.0586043  65.8520508  20.1953387  22.4527770  66.7759180  21.3276243
  83.2191181  35.1257300   3.3514974  83.0996990  34.9590635   2.4165145
  84.0127182  34.6424651   3.5814810 110.8160782  73.5947371  33.3304334
 111.7086411  73.3501530  33.0860233 110.7433414  73.3458900  34.2518544
   5.5633574  24.0308666  28.5073996   5.9431677  24.8998213  28.3774185
   4.9659281  23.9175844  27.7681589 120.6799793  77.4795055  92.6210674
 120.3637505  77.7132988  91.7483886 120.6975460  78.3083916  93.0994734
 102.7090359  22.7371001  21.1817980 103.2665825  21.9591260  21.1706161
 102.1921253  22.6498294  21.9826889 108.5177231  59.5658064  26.8028688
 107.9302692  59.6495724  27.5539446 108.2598972  60.2772045  26.2166309
  87.0080280  66.1152601  54.9008894  87.5809479  65.3530169  54.8172808
  86.4111614  65.8891678  55.6142282  99.3525410  64.7582579  19.8985171
 100.0784779  64.1510820  19.7550559  99.7739983  65.6050301  20.0454116
  21.3034278  55.3043127  -0.0697463  21.1291342  54.3951797   0.1738354
  22.2447043  55.4124928   0.0663610   0.4005461  32.1832275  17.0021522
   0.6927615  32.9250169  16.4724445   0.5219679  31.4215422  16.4352965
  83.1375122 106.1245251  16.2124383  83.7229156 106.8026257  15.8752179
  82.8907871 106.4330292  17.0843267 120.4994011  89.2275429  13.0245459
 121.4109421  89.0841961  13.2790852 120.4825974  89.0500736  12.0840907
 110.2304363  57.0536470  31.2601805 109.3352413  56.9713879  31.5889382
 110.1490021  56.9417000  30.3130460 120.2451897  99.2595673  19.4962227
 119.9732780  99.9665546  20.0814199 119.4339943  98.9674282  19.0804720
 116.3211727  90.3825951  17.4652779 116.5588570  91.2573624  17.1578491
 117.1530628  89.9116230  17.5140560  18.5582667 115.0584793  38.3163047
  19.1851454 114.4031811  38.0099821  18.4848815 114.8983383  39.2571545
  70.6900978  52.8674698  89.9647149  69.8950815  53.3893394  90.0735220
  71.3835573  53.5130215  89.8283061 120.3050804  94.5555210 107.7000576
 121.2378979  94.4254208 107.8707769 119.9026871  94.5720482 108.5684148
  10.4584532  65.3601837  13.1951678  10.3051024  65.7025719  14.0757859
   9.7723132  65.7592440  12.6601923 116.9929028  53.9897776  15.6101060
 117.2315979  53.1164694  15.2993262 117.2200012  53.9834690  16.5399539
 103.2845592  66.9783926  72.5067171 102.7405453  66.3497162  72.0323261
 104.1829491  66.7008781  72.3275217  11.7088824  17.5531518 100.3729209
  11.7536002  17.1538770 101.2417206  12.1333151  18.4045875 100.4784902
  12.1194201  43.9556932   2.2995022  11.5811091  44.6250916   1.8771763
  12.0188456  43.1822491   1.7446147  26.1741286  88.2121849  15.8037949
  25.8913069  87.5325012  16.4155722  25.4674178  88.2643700  15.1603138
   5.2263861  70.3142357 107.8957879   5.9742861  69.7192049 107.9488617
   5.1460391  70.6772184 108.7778420 101.0179520  57.9350901  44.8366976
 100.0863457  58.1176138  44.9592829 101.3448429  58.6831522  44.3369198
  91.8326950  65.0210142  88.6739429  92.0135403  65.8261299  88.1888541
  91.3117123  65.3056765  89.4247945   3.5215788  92.8978634  37.3816466
   3.8470774  92.0019436  37.4688745   2.9468756  92.8704834  36.6166663
 118.1454468  79.1107702  12.0920706 117.8842545  79.6528292  11.3476360
 118.2698631  78.2374573  11.7204809 108.4852791  92.6760292   8.5141230
 109.2441177  92.2379398   8.1287968 108.1405067  92.0457649   9.1466880
 110.3093815  83.8250160  97.3027750 109.4027328  83.5939407  97.1007069
 110.3393745  84.7775650  97.2134646 119.2612362  70.5821276  11.0722888
 118.7964821  70.6081772  10.2358925 120.1270962  70.9401131  10.8764184
 115.6211281  31.0950303   6.4298955 116.0114574  30.2538180   6.6670362
 115.8454418  31.2113810   5.5066530 124.0048218  48.3975410  67.1902561
 124.3762970  49.2195177  67.5105572 123.1466484  48.3426380  67.6106644
 116.6538715 103.2437229   3.6932031 115.9180355 102.6447582   3.8197843
 117.0610046 103.3088684   4.5570508   1.2175685  69.9472475 106.5940952
   0.6976061  69.3482304 107.1298695   0.8593684  69.8515892 105.7116127
  21.3949709  46.4284945  14.9244348  21.3061362  47.3674536  15.0878087
  22.2996359  46.2281370  15.1645986  10.6283694  57.4995708  63.4131956
  11.1666709  58.2376146  63.6991215  11.2065535  56.9856262  62.8494596
  33.9435034  57.2825050  97.5405788  33.4135371  57.7663088  96.9070911
  33.4880667  56.4471626  97.6455307   4.0032321  71.8786478  99.8991394
   3.1282454  71.6379023 100.2035618   4.2263156  72.6599550 100.4051208
  21.5257388  63.9839697  98.7611389  21.5139800  63.0845165  98.4339046
  22.3003226  64.0246725  99.3220234  99.6480274  29.2145610  96.0180378
 100.1602173  28.6753917  95.4153919  99.6679878  30.0902343  95.6320000
 112.4888039  18.1609607  79.1612911 112.3945141  17.3372543  79.6396685
 113.1540680  17.9778469  78.4978771  75.9933567  83.1299782  90.7114124
  76.5686035  82.3873043  90.5276680  75.2917862  82.7622986  91.2488556
  10.0462084  54.9472332  83.0816936  10.5832701  54.9252605  82.2896576
  10.2893000  55.7663107  83.5132599 109.6322250  17.7334166  99.1310787
 110.2979374  17.3098266  98.5891914 109.0983677  18.2295144  98.5105038
   0.4358702  16.5244091  98.2734203   0.7155543  15.9202766  97.5856400
   0.3764563  17.3739386  97.8363800 110.4081059  73.2270813  88.3607960
 110.2588081  74.1185856  88.0459023 109.5772076  72.7769470  88.2084179
  12.1881610  59.2886353  36.6792623  12.8001528  59.9881554  36.9081060
  11.8424254  58.9883900  37.5198308  96.2228680  29.7661090  57.6014090
  97.1304131  29.4813776  57.7087498  95.7030582  28.9834762  57.7844906
   9.0517264  29.8751020  12.2744695   9.2265444  30.8160281  12.2562925
   8.9110308  29.6754670  13.1999914 115.8174801  24.9465728 100.2882576
 116.5329552  24.3187165 100.1876354 115.1297379  24.4558907 100.7382298
  93.8036156  55.5348444 106.7242336  92.9010105  55.2531910 106.5751743
  94.1027641  55.8428860 105.8687496  13.4950667  53.0910444  74.8169899
  12.6309996  52.9567003  75.2063131  13.4621554  53.9791965  74.4615459
  98.4338093   5.3952736  78.2785988  99.1164780   5.0334990  77.7135181
  98.7432861   6.2748170  78.4950781 109.4459915  40.2802229   1.5313855
 110.1317692  40.6109953   2.1114961 108.9690018  41.0624027   1.2540666
  -0.2359456  81.6192055  84.9093151   0.6261855  81.8786812  84.5843124
  -0.2153940  81.8351173  85.8416271  98.0349064  36.2024927  77.6877785
  98.6254597  36.7200160  78.2351828  97.2918510  36.7826915  77.5220585
  12.3899680  16.6234267 106.0847855  11.7539912  15.9481764 105.8485603
  12.9398757  16.2118125 106.7514324  12.7357703  57.8132963  78.5711765
  13.1351882  56.9464827  78.4981394  12.8447657  58.0504131  79.4921160
  21.9736128  59.6468544  76.4012861  22.6309996  58.9588881  76.2974167
  21.8552619  59.7240734  77.3479939  14.4044142  44.5743990  68.5283089
  13.9485293  45.1832151  69.1094685  14.0128546  43.7221336  68.7194872
  26.5881568  32.0348859  70.7292366  26.1046916  32.7689171  71.1083031
  25.9126883  31.3978505  70.4965115 114.7880173  65.6764269  83.6192131
 114.2692566  66.3406944  83.1654739 114.4759274  65.7053614  84.5236492
  83.9459991  49.4688606 100.2184772  83.2704449  49.1423178 100.8128071
  84.0865231  50.3757095 100.4907131  32.6999026  72.4570560 103.5698795
  33.6155634  72.7354956 103.5534763  32.7399283  71.5098047 103.7016010
 102.2983456  89.2986298  55.8643723 102.7478886  90.1414394  55.9260988
 102.7124310  88.7565613  56.5358782 121.5044022  93.1444550  88.8531876
 121.4657879  92.1960640  88.9768505 120.6721687  93.3655739  88.4352016
 116.7273712  41.6974163  15.4200116 116.2236977  42.5036716  15.5318204
 116.1210060  41.0937881  14.9908296 112.0896816  70.6446791  60.5201435
 111.2475681  70.1902580  60.4959631 112.6281071  70.1857138  59.8754120
  22.5364142  51.0443974 100.5638123  23.2910567  51.3378429 100.0532818
  22.8850108  50.8959627 101.4428329 119.6448612  63.1263828  68.9110518
 120.1067448  63.9644051  68.9357901 119.4521046  62.9319763  69.8282671
  90.5083275  29.7263718 108.2445526  89.8778820  29.1464019 108.6716461
  91.3634109  29.3770528 108.4956264  15.2278643  27.9400897   7.0158902
  15.8995371  28.0879331   7.6816408  15.5505114  27.1930075   6.5119115
 111.7230225  50.7922029  -0.1292952 111.3132095  50.1225281   0.4182569
 111.6744709  51.5921831   0.3940717  94.0975666  47.9828215  50.4328823
  93.6124134  47.2522163  50.8164024  94.4892216  48.4302807  51.1829567
  80.3638363  90.1070976  92.2144508  80.6331635  91.0255337  92.2275448
  80.9949684  89.6806622  91.6347504  26.1111098  61.4309645  95.1492786
  25.7182055  62.0347643  95.7795811  26.1314803  61.9219875  94.3278694
  10.1083975  43.5068274  95.6600380  11.0651522  43.4822369  95.6441689
   9.8859530  43.5757589  96.5884781  10.2857047  34.5032692  76.8273973
   9.7278720  35.1803493  77.2103119  10.8147555  34.1864991  77.5595093
  97.1259117  60.8100128 101.6538906  97.7588844  61.2902784 102.1876717
  96.7979527  60.1216984 102.2325993  24.0991526  53.2193327  11.8734018
  24.6625453  52.9193926  12.5867502  23.4512358  52.5222874  11.7706529
  26.4844065  37.4594545  94.9912071  26.3031226  38.3657885  94.7423553
  26.6987639  37.5052118  95.9229755   4.4202166  60.6998587  67.1272564
   4.4234973  60.6315613  68.0820084   5.3419715  60.8047199  66.8914604
  16.9899397  24.1566658  81.0321999  16.3453894  24.0961361  81.7372608
  17.3062544  25.0591373  81.0736847  15.4064780  57.6120329   7.8828946
  15.6665927  57.7470112   8.7941400  15.2476340  56.6704702   7.8161184
   2.3907214  45.5284119  69.3474388   1.8205958  45.4977512  70.1157188
   2.1228819  46.3207293  68.8818979 105.3534412  24.2265582  88.1078148
 105.0326538  24.6478510  87.3104191 104.5788670  24.1460252  88.6643887
   1.4636355  33.2574224  13.5580102   1.2309104  32.3586178  13.7908593
   1.8164282  33.1912661  12.6706544   6.7413931  49.3644953 102.3534012
   6.9509917  50.2645159 102.6029205   5.7907515  49.3049002 102.4481010
 113.6019993  52.9243851  88.4705925 114.1376305  52.8716135  89.2621326
 113.8501740  52.1526718  87.9615688  21.5481120  27.9572916  78.8827848
  21.7126589  28.8900161  78.7442923  20.6033545  27.8993225  79.0252781
  99.6619797  49.1806412  91.5145588 100.2177715  48.9864588  90.7598305
 100.1434708  48.8289642  92.2633743  48.0432635  33.2367039  91.5607738
  48.0725413  33.4969640  90.6401062  48.9607554  33.2143044  91.8326473
  72.9316235   4.0026835  94.6906281  72.7387571   3.3174679  94.0506935
  72.2468662   4.6574461  94.5541668  94.4815159  64.2608929   0.5534593
  93.9011669  63.7250090   0.0128595  93.8935471  64.7218800   1.1517946
  91.7760563  31.1226535  85.6658459  91.3310337  30.3011703  85.8740520
  91.1895657  31.5636802  85.0512218  10.3397780  44.0823126   0.1405946
   9.4457274  43.8388491   0.3806249  10.7540446  43.2563639  -0.1092585
 103.1247234  46.9651031 103.3021927 103.3336735  47.1242428 102.3817348
 103.9668083  46.7555189 103.7061882  74.8812103  88.2489204  25.3485147
  75.7894945  88.0544949  25.5797235  74.9429941  88.7486267  24.5344487
   8.8404208  75.5705881  88.7679672   8.4455901  76.1601353  89.4104385
   8.1694632  75.4678440  88.0930614  92.7296448  28.8648629 103.2905865
  92.4748611  27.9442906 103.3527660  92.3587990  29.2695141 104.0747738
 121.1600876  84.1551018 103.6059952 121.3106251  83.4007835 103.0362797
 121.2939930  83.8170147 104.4914341 116.2404919  44.2419100  91.3910675
 116.1716938  43.7169933  92.1885395 116.8022156  44.9772263  91.6360474
  87.7924538  47.7251720  67.8510952  87.4480915  47.7932405  68.7416077
  87.3030567  48.3808327  67.3542786 119.1969490  59.6690607 105.8021641
 118.9611244  60.5102682 106.1933041 120.1457691  59.6104670 105.9141064
 103.6247253  37.3411632  15.0649682 104.5460796  37.0817733  15.0721208
 103.1946850  36.6824460  14.5196382 124.7733212  29.0761232  83.3800125
 124.0543175  28.4542298  83.4918499 125.1246357  28.8823199  82.5109577
  12.6704436  59.3570566  90.5396652  13.6166125  59.3494272  90.6843472
  12.4334460  58.4334183  90.4562378  92.1537113  58.5237217  85.5752945
  92.2791767  58.9194155  86.4377975  92.8610611  57.8831863  85.5004501
  97.0647240  46.0233688  16.9084493  97.9378414  46.1099958  17.2910730
  97.0379639  45.1271820  16.5732423  98.5950279  50.2754211 109.7476101
  98.6594582  51.0723400 110.2739239  99.2245865  50.4052544 109.0383625
   3.5592967  83.1405258 103.1818104   4.0072947  82.3239040 102.9612541
   4.2217570  83.6623955 103.6346149   3.0009871  66.1043024  99.4289017
   2.7932005  66.3732386 100.3237343   3.4299975  66.8679237  99.0428162
   1.7243510  67.8759718  72.0393944   1.3346701  68.1759644  72.8606081
   2.6529914  67.7630281  72.2421360   1.3124400  55.7968664  90.4929352
   0.5184584  55.3552151  90.7942295   1.9637805  55.0987387  90.4251194
  87.9214573  14.2297006  50.9170628  87.4273777  13.4771121  50.5919075
  87.9026985  14.1351867  51.8694019 123.0934429  54.7844601 105.4131603
 123.5232258  55.0443888 104.5983315 123.6675262  54.1139793 105.7834435
 102.6711750  28.2453752  81.2102985 103.1856155  28.6510658  80.5124474
 102.4715042  27.3686957  80.8819675  32.6678591  10.2302527   8.5136548
  31.8669444   9.9027371   8.9229146  33.1203967  10.6994700   9.2145768
 116.7184734  16.1441529  77.6364803 115.9435177  15.6218886  77.8436756
 116.6472721  16.3162935  76.6975832   7.1128874  62.0813656  37.7423803
   6.9441443  62.5515079  36.9258443   7.6908904  61.3615894  37.4892751
  93.6367893  57.2600126  98.2844448  93.3660603  56.3528490  98.4258461
  94.5930958  57.2241783  98.2641315 103.6691380 133.3546109  23.9733831
 104.3851852 133.6171550  24.5518152 103.7297440 133.9543266  23.2298127
 119.2832851  59.5657969  80.8487225 118.7292862  60.3434324  80.7809162
 118.7407684  58.9245033  81.3076973 116.5062237  68.2911444  93.2224464
 116.5036678  69.2418766  93.1114006 116.3362885  67.9471159  92.3455238
 119.9912834  61.0775328  24.1160623 120.5289745  60.9106064  23.3419458
 119.1492939  60.6687880  23.9155332  15.2058917  12.4632382  48.7886429
  16.1291628  12.6957524  48.8873434  15.0613146  11.7754543  49.4384766
   5.4154521  51.1258411  91.6951466   5.7746058  51.5699768  92.4632549
   5.0322466  50.3200817  92.0417690 121.3308716  38.5455036 102.6425362
 120.7526302  38.6249375 101.8838882 120.9934425  39.1857862 103.2689667
 107.9195309  67.3941374 106.1361885 108.5385036  68.0412292 106.4743710
 107.3729420  67.1691990 106.8890953 104.9778557  30.5229449  92.8569221
 104.2705441  30.4891396  93.5009766 105.1941967  31.4527774  92.7873516
 110.7205772   4.4988748  83.1401920 111.0782433   3.6273924  83.3099747
 109.9656963   4.5660454  83.7248993   4.9017745  41.5257120  11.9453756
   4.4660884  40.6842470  11.8099061   4.1966372  42.1711636  11.8963281
   1.6752654  49.9183607 102.8511906   1.1039858  50.4383469 102.2859573
   1.1411028  49.7291422 103.6226082 100.2750492  43.3263588   3.3036462
  99.6099854  42.8500271   2.8066293  99.8146820  44.0921116   3.6470453
  96.5043926  64.8772907  93.3807278  95.8746529  64.2493439  93.7347603
  97.1941376  64.3349695  92.9981422 113.5336971  28.0577612  94.2932129
 113.9018154  27.6325202  95.0677395 112.6210880  28.2295752  94.5252991
 118.8411140  23.9944077 100.3073597 119.3348217  24.8131680 100.2613640
 119.5107651  23.3104563 100.3047848  99.3716240  84.7973919   9.4191114
  99.4854450  84.4856167  10.3169290  99.9142551  84.2114067   8.8914720
  69.2740345  29.2062235   0.8797113  68.8617754  28.6703634   1.5572969
  69.3934298  30.0622725   1.2909929  93.3021641  19.6259737  93.8235378
  94.2557430  19.6895206  93.7697220  93.1320000  18.6954010  93.9695072
   7.0631056  56.9231606  70.4656649   7.5231486  57.3386669  69.7363186
   7.1801978  57.5278711  71.1983633  85.3598690  90.9397602  27.5627748
  85.1960087  90.0706005  27.1967927  85.4380798  91.5106297  26.7984334
   6.1892825  65.4757547  84.8145580   5.6533080  65.1292562  84.1011906
   7.0228797  65.6997395  84.4008350  99.1440678  38.5036731  22.1642724
  99.7832584  38.1186557  22.7637903  98.9561081  39.3655777  22.5357858
  34.5777159  17.3248351  96.5060902  34.6358710  17.3976564  95.5534458
  33.9401942  16.6264188  96.6544437  22.2129756  46.0354567  26.7532007
  21.3820582  46.4538956  26.9784013  22.8761225  46.6952896  26.9559327
 119.1129589  51.7904091  92.2440910 119.7951603  52.4577951  92.3178005
 118.8232136  51.8436527  91.3333511   4.1564589  23.7150049  20.3065053
   3.7885218  22.9568887  19.8525087   4.2780619  24.3700004  19.6191732
   5.9738856  88.8241100  76.5862226   5.4307967  89.5703220  76.3323498
   5.4840212  88.0583572  76.2864113   5.2229052  53.6754274   3.0347291
   4.3712168  53.2466173   3.1183759   5.5017214  53.8322639   3.9368860
 121.2461948  43.6076069  38.0318300 120.6935978  44.1876221  37.5079576
 121.4873505  44.1318703  38.7955228  90.3213978  46.1159325 105.9849930
  89.5204830  46.3481665 106.4549255  90.0721836  46.1388159 105.0610924
 107.5326633  78.9683962  75.4455185 106.9804764  79.2844677  76.1606503
 107.9236984  79.7604656  75.0767946 113.9724731  36.2590384  15.6743184
 113.5620117  36.9201422  16.2317125 114.8861504  36.5363169  15.6069700
 117.1126652  64.9610710   6.3166181 117.4554443  65.6586409   6.8753091
 117.4777126  64.1570711   6.6861574 113.9840126  66.4682770  96.0760689
 113.6018658  66.6573143  96.9330692 114.7790241  67.0005131  96.0456562
 114.1619682  38.4246135  82.3463154 113.2077217  38.4692883  82.2859859
 114.3287563  37.7661729  83.0207539   3.6487322  55.0814772 101.6968632
   3.3684664  55.9962368 101.7267132   3.5511904  54.7715807 102.5972366
  92.8762913  38.4864283   4.6668760  93.5349178  38.6777568   5.3345815
  92.7955818  39.3004942   4.1698686 102.9721737  36.7686677  94.8658943
 103.6640453  37.4289775  94.8266220 102.2023964  37.2064257  94.5025158
  94.3581295   8.8113147  97.7617550  94.2295647   8.2395172  98.5185623
  93.4866810   8.8962781  97.3749828 113.1264210  14.7606063  17.2398130
 113.5042667  13.8957417  17.3994390 113.4551144  15.0098670  16.3760606
  90.0935841  57.3901176  96.7199230  89.8260593  57.1885014  97.6165867
  89.5603657  58.1464386  96.4752102 117.0684719  54.1034269  87.8603745
 117.0487309  54.4729710  88.7431431 116.2629509  53.5901976  87.7974987
   5.5866652  22.5700283  88.8652325   6.2662249  23.2204509  88.6880970
   5.0858813  22.5190449  88.0510807 107.6721764  58.1452799  21.8986455
 106.7412567  58.0024004  21.7276994 108.1206703  57.5775051  21.2719766
  85.3156567  35.6734109  88.1069183  85.1438904  36.5984631  88.2829952
  84.6653557  35.4302502  87.4479771   4.5827609  52.5824022  87.8599739
   3.7086802  52.9719973  87.8810406   4.8879176  52.7270174  86.9643211
  71.0087919  88.6804295   6.5027276  71.7121458  88.2017994   6.0640470
  71.2196875  89.6026993   6.3572160  97.4771118  57.7937269   9.2536966
  96.9670868  58.0710888   8.4926645  96.8680382  57.8640652   9.9887601
  86.2874985  76.0004663  89.7861290  86.9034481  75.4123735  90.2231503
  86.8393803  76.5700674  89.2502022 102.9688931  33.8458872  84.8795509
 102.9158306  34.5412731  84.2239189 102.0575047  33.6586142  85.1043510
 106.0436821  28.5200810 105.6808758 106.3821888  27.8933167 106.3202572
 105.5532837  27.9846811 105.0571060 101.6489124  95.2040768   0.7413427
 102.2620678  94.4696808   0.7107869 101.1594391  95.0737953   1.5535489
  96.6336632  49.0061378  20.9022275  97.2659397  48.8583755  20.1989309
  96.2413597  49.8548412  20.6972066  99.6714306  56.3223553  95.4281902
  98.8850689  56.8491697  95.5708313 100.3534698  56.9612694  95.2211952
 101.6837788  32.9130101  81.1493015 102.4454975  32.4665475  81.5190029
 101.8545818  33.8427138  81.2999821 122.2754478  28.1788802  10.2309457
 123.2268620  28.1168318  10.3157178 121.9471645  28.0570316  11.1218015
  98.5702896  35.0819206  18.8505212  98.8117313  34.7987843  17.9686109
  99.3870735  35.4060555  19.2300359 114.5220375  44.3899870   6.1756269
 115.0006771  44.0915442   5.4022733 115.1990795  44.7337961   6.7584173
  10.6183844  53.8549805  13.0165807  11.4650183  53.4986544  13.2857744
  10.0282603  53.6424923  13.7396566   5.4323035   4.8284888  13.5096494
   5.3296309   5.6077641  12.9633657   4.7157317   4.8831123  14.1419259
  74.9399614 140.3946281   5.8800641  75.8040190 140.0854124   6.1521379
  75.0156689 140.5146862   4.9334375 100.2983284  75.6863451   7.0348684
  99.6195602  76.3576126   7.1048490 100.3112888  75.2681684   7.8957979
  20.6491309  10.5394840   3.3204786  21.2356024  11.1064208   3.8213483
  20.2489215  11.1205649   2.6736299  17.1090727  46.4172220  91.5034676
  16.4281302  46.3566494  92.1734524  17.0877009  45.5677795  91.0627651
 108.9154243  60.9171963  53.6670542 109.2222691  60.6606483  52.7974176
 108.9926338  61.8712330  53.6764765 100.2245140  20.8883357  77.3193598
  99.8521805  21.3849735  78.0480194  99.7408581  21.1914706  76.5509701
 107.8040504  47.7721119  24.6835653 107.8290367  47.0047379  25.2551786
 108.6456585  48.2049990  24.8268358  15.1020365  58.1880045  96.8132114
  14.7965079  58.0572414  95.9155560  15.9891825  58.5341215  96.7162514
 113.9690685  18.6329734 107.7021217 114.7237396  19.1277719 107.3829365
 113.2376957  19.2477608 107.6441956 103.9874649  14.0448034  88.0348301
 103.1923008  13.5378361  87.8707409 103.8322258  14.4670618  88.8797092
  81.8500614  61.1580610  87.7248859  82.1970367  60.2683020  87.7893925
  81.1147594  61.1734056  88.3375359  71.6867208  18.7775409   8.8606588
  71.4012384  19.6699250   8.6647455  71.5305614  18.6768222   9.7996465
  20.1316481 140.8117683  97.5096035  19.4184905 140.2276761  97.2517681
  19.6976309 141.6344426  97.7355862 124.3922234  11.9580829  96.2646484
 123.7862587  11.6221702  95.6041908 125.2222919  12.0590949  95.7988071
   0.5849009  36.3174963   5.9104196  -0.0205011  36.9066167   5.4602472
   1.3187438  36.8769193   6.1648980 108.1778336  46.5955830  93.6721420
 108.7650013  45.9851074  93.2262897 107.3799229  46.0901833  93.8275433
 107.3626900  48.3999729   9.9937478 106.4660454  48.1085682  10.1591054
 107.2713280  49.3127680   9.7204629   2.8889018  38.0465412  83.5040665
   3.7605315  37.6746559  83.3691406   2.5765448  38.2507396  82.6226139
  21.1986762  63.2784700 103.2096291  21.4319258  64.1720676 102.9580212
  21.2057810  63.2895517 104.1667366  19.6496802  72.7284288  70.3974009
  20.3025084  73.3269644  70.0343609  20.0075465  71.8558455  70.2338076
   9.2989855  35.6983209  83.8335896   9.3063384  36.4771342  83.2771397
  10.0056105  35.1517129  83.4898853 107.0902824  56.7957258  72.9401684
 107.3991299  57.6267004  72.5791550 106.4658451  57.0475006  73.6205530
  93.0804920  19.9052024  61.3872576  93.9364910  19.6708906  61.7458773
  92.6461411  20.3806853  62.0954132 121.2974739  55.7551479  73.6478758
 121.7658997  55.7357311  74.4823980 121.3947296  56.6560888  73.3395195
  11.9296866  45.9587336  93.3224297  11.1224681  45.4470825  93.2690811
  12.6021891  45.3839350  92.9569626  91.0300636  23.2166600  81.8597126
  91.1864281  24.0338802  81.3864994  91.0037613  23.4746909  82.7811050
 124.3205070  90.2680302  24.1622281 123.9506721  91.1109447  23.8996339
 124.5005989  90.3663254  25.0971794  16.2296706  55.3326225  59.7153378
  15.9768324  54.4127846  59.6365929  17.1866160  55.3174496  59.7313452
  12.5159102  40.7539368  87.0929813  11.9693404  40.1156092  87.5512791
  13.2317000  40.9371138  87.7015209 106.5110302  12.3971069 101.0254192
 106.3910484  12.3172879 101.9717121 106.1854458  13.2724607 100.8156967
 102.8102875  33.3744359  68.3871412 103.3094501  34.0233564  67.8911829
 102.7107525  32.6372814  67.7847052  16.2889510  15.5168688  95.6512547
  15.8462554  15.6063139  96.4952087  17.1985655  15.7541621  95.8315849
 105.0313187  51.4304018   2.3371354 104.4441509  50.7976341   1.9235269
 105.2664757  51.0280132   3.1732026 101.8707275  42.1197939  75.7217741
 101.7903900  41.5360641  76.4761162 101.2063599  42.7931547  75.8681631
  10.5207759  69.4797850 109.5417309  11.3315802  69.6128464 110.0327682
  10.8064013  69.1282940 108.6984634 115.1586056  51.0943270  52.4119329
 115.4329300  50.9710407  51.5032101 115.0068855  50.2075243  52.7387333
 119.3061733  45.6033611  81.4190102 119.8341179  46.1141634  82.0326805
 119.5083141  45.9764242  80.5609989   5.2772360  55.5970287  76.4677382
   5.8620577  55.3848028  77.1951866   5.3144007  54.8284006  75.8984709
 123.0892277  53.6470747  82.3007870 122.9536819  53.2270670  83.1501675
 122.8161621  54.5544767  82.4359989  89.8795033  44.7342014  84.6216965
  90.7218647  44.7193861  85.0760651  89.3741989  45.4084349  85.0759029
 121.8624496  40.3905678  84.1322041 120.9595108  40.6570911  83.9593029
 121.8290138  39.4343233  84.1587734 107.1277237  59.5774126  71.2995529
 106.4336300  60.1622343  70.9955072 107.6016998  59.3344545  70.5042267
  19.2334681  62.3494148  96.5562153  19.5199519  63.1554127  96.1266518
  19.3802863  61.6648912  95.9034538 113.8339710  22.4511123  71.1569071
 113.6116505  21.5291500  71.2864876 113.3602524  22.9113841  71.8497038
  15.0822955  36.8562126  72.0007801  14.2593413  37.3193407  71.8443155
  14.9744444  36.4619470  72.8663158 107.7746582  63.7293577  78.9007711
 107.7660656  64.6007204  79.2968607 107.8371048  63.1291246  79.6437740
   1.0693961  37.5162554  60.5668831   0.9421950  36.7470837  60.0115204
   0.4623061  38.1679320  60.2161694 109.1061497  39.1595793  88.7916565
 108.4813976  39.2676377  89.5087624 108.5655022  38.9322233  88.0351925
  15.9494906  18.5651100  77.7844667  15.6641989  17.6633120  77.9314470
  16.1647921  18.5993135  76.8524218  13.0736189  67.7410984  54.9646807
  13.3639079  68.5757828  55.3324699  13.8840418  67.2716093  54.7671556
  18.1981116  56.0839367 101.8803596  18.7164908  55.9647036 101.0845566
  18.8474112  56.1763048 102.5775623  24.6556120  51.8891716  80.5070019
  24.5158034  51.1565685  81.1069870  23.7784987  52.2361040  80.3441143
 118.9726543  50.7100582  98.5480785 119.3027878  51.3069773  99.2195988
 118.7903118  49.8969603  99.0190983 104.0631962  23.7020969  62.6851034
 103.8175106  23.7037873  61.7599726 104.6354103  24.4632387  62.7823496
  96.5094185  21.7958188  79.6193933  96.9535828  20.9878659  79.3621635
  97.2187424  22.4171305  79.7839165  98.1858730  61.8120289  78.5475826
  98.6380577  62.6209784  78.3080673  97.2783184  61.9566727  78.2799149
  81.8922806  48.9859676  75.6641912  82.2527981  48.1443834  75.3849268
  82.0920467  49.5831728  74.9433088  16.8878871  45.7170010  76.1254168
  16.1208850  45.2586555  75.7820988  16.7754584  46.6223431  75.8356905
 109.0499973  48.3903313  90.5128479 108.9579296  47.5230932  90.1183128
 109.8000336  48.7796068  90.0632381   5.5734759  50.6763315  75.6000662
   6.0429888  50.9299564  74.8054218   5.5265647  49.7212982  75.5560446
 109.4780064   9.6319801  45.3197384 109.6988583  10.5091333  45.6328821
 108.5372925   9.5512676  45.4771566 110.5736542  29.7728777  81.3242722
 109.7467232  30.2164888  81.1355305 110.4620838  29.4244289  82.2087860
  24.5878153  39.2874908  90.5889034  25.4591685  39.3174148  90.1938438
  24.1600161  38.5411620  90.1691246 115.9408283  38.6886859  69.5161390
 115.5424118  38.9013505  70.3600979 115.2563190  38.2188892  69.0397263
  12.1912413  63.3436966  64.3269777  12.6067286  63.8443518  63.6248779
  11.5361243  63.9393759  64.6905994   6.1150103  37.4645090  97.4660969
   6.1658602  36.6228318  97.9191208   5.1770526  37.6224732  97.3587894
 102.0447254  40.6296158  62.3225212 102.4140167  41.2052202  61.6527939
 101.6126633  41.2231731  62.9367304 123.4223843  70.3459787  81.8228626
 122.5176525  70.4330778  82.1230507 123.3465576  70.1275492  80.8940029
 116.0344791  31.7057943 101.5850258 115.2786732  32.2275877 101.8547058
 116.1380005  31.8980479 100.6530571  96.4879322  86.0847855  66.5079021
  96.9122791  85.6957054  67.2726154  96.9805050  85.7438660  65.7613230
 101.7411995  46.3822556  46.0188810 101.9906807  45.6658316  46.6025964
 102.1806908  46.1819601  45.1924650  68.2373333  53.3319807  93.8918972
  68.3366919  52.7284002  93.1556511  67.6923704  52.8569031  94.5192242
  30.2327376  73.2817364  99.0602589  30.8517962  73.1259680  98.3470058
  30.7754832  73.5924053  99.7849274  29.3371516  49.6999311  75.3368568
  28.8343077  50.4647017  75.6170321  28.8348418  49.3371725  74.6072531
 109.6714211  61.3737392  88.3141994 110.3338814  60.8682489  87.8431797
 108.8390636  61.0854578  87.9396439 114.5131874  17.6869488  88.1718826
 115.4620457  17.6046348  88.2673836 114.1753960  16.8148255  88.3756828
   0.2376967  54.8560381  85.1243496   0.6831294  54.8387384  85.9714127
  -0.4866189  54.2379141  85.2219582  80.6271172  23.8556767 104.0442276
  81.3204861  23.2530165 104.3130684  79.9046373  23.2865500 103.7790012
 105.7763958  56.9446373   4.6151010 105.0142384  57.3548651   5.0238267
 106.4316463  56.9088364   5.3119508  90.3750324  48.2345867  85.4250526
  90.5365086  48.9788389  86.0049248  89.4302464  48.0903292  85.4779434
  59.8804760  58.4422302  81.2738800  60.5971003  58.1206131  81.8209076
  59.6676445  59.3012333  81.6386318   3.7684470  61.5915155  94.2759418
   4.4030696  62.3070097  94.2365551   3.0707293  61.8569660  93.6768055
 121.1507797  19.2392552 108.8061237 121.5516281  18.6840808 108.1372929
 121.4908886  18.9002347 109.6341515   8.3836966  43.5487318  60.2247000
   8.5114508  42.6228666  60.0180769   7.6609450  43.8226318  59.6600485
  96.9809723  32.2448826  77.9502773  97.8262424  32.6902819  78.0083895
  97.0737457  31.4799929  78.5182285 118.7766647  52.0838499  19.8973028
 119.7236443  52.1151781  19.7613756 118.6743355  51.9420719  20.8383886
  55.8776217  98.5160160  99.4510365  55.7860880  98.7499809 100.3746700
  54.9782496  98.4560204  99.1288948 102.4688816  45.0924349  91.2852764
 102.0697784  45.1147699  90.4155350 101.8129063  45.4869223  91.8600082
  93.4174919  33.9488459  91.3692951  94.0328217  33.6438203  90.7025433
  92.9994678  33.1507039  91.6924858  10.1745921  48.8337851  97.8966618
  10.0295859  48.1780529  97.2145939  10.9870844  48.5606289  98.3226681
   1.1978274  18.5012603  64.2677355   0.2826815  18.5242558  63.9880705
   1.3589030  17.5830472  64.4849300 107.0848370  63.2544947 104.8365498
 107.2120476  63.5440731 103.9331150 107.7685165  63.7061453 105.3313446
 105.4672050  37.3143005 108.6423588 105.6284142  36.4828110 108.1964207
 104.9635887  37.8301120 108.0126476 108.4923840  15.1470709  71.8347025
 109.3092823  15.2958059  71.3584757 108.6992550  14.4451571  72.4517536
  94.1835117  57.5891447  81.9020271  94.4621849  57.9598713  81.0646915
  93.2929611  57.9178333  82.0249653 111.6263008  28.8822389  64.6856833
 112.2615147  29.5933795  64.7694254 111.9338703  28.2131171  65.2971649
 111.2035561  45.2007723  88.6484909 111.7549992  44.4386101  88.4717274
 111.3472462  45.3905153  89.5756245  18.8836413  78.7474298  85.9595776
  18.8939314  77.9626846  86.5075779  18.1956225  78.5806704  85.3153324
  14.8935729  94.7099018  44.1683006  14.3442469  94.9476814  43.4213495
  14.2932158  94.7005653  44.9137688 118.6243916  53.0263376  70.0092506
 119.3701363  52.5395107  70.3600931 118.4826469  53.7336063  70.6384659
 115.1257992  40.1983452  76.8144560 114.8283482  39.4147706  77.2768021
 115.9900188  40.3805828  77.1834373  10.7731467  18.6307180  81.1280155
  11.7051344  18.7565124  81.3063717  10.3328829  19.2599404  81.6993999
   6.8559867  79.5365763  67.0192528   6.0620242  79.2252302  66.5846109
   7.3982936  78.7538767  67.1167660 119.2575932  77.1083784  67.5249004
 119.3297958  77.0517206  66.5721130 118.3219719  77.2284555  67.6874828
   2.7743464  69.6541882  84.1608715   2.1061831  69.0355444  83.8657951
   3.6036902  69.2000389  84.0120029  27.0163279  22.2475696  82.6221275
  27.0811492  21.9583392  83.5322762  27.8086691  21.9081497  82.2059441
 101.6875076  14.7970641 104.7027969 102.0408154  15.5927587 105.1006317
 102.2373581  14.0929508 105.0464821   0.0757151  75.6793785  97.1978664
  -0.6763524  75.9260464  97.7361679   0.7282000  75.3691101  97.8257370
   7.6627188  35.3124380  66.0335684   7.5593024  34.4237828  65.6932306
   7.9651194  35.1905632  66.9335318 114.6080303  71.1966991  95.8779144
 114.4364834  72.1006584  96.1418533 114.8149681  71.2546921  94.9451542
   4.9646025  86.3938522  69.0539980   4.6212702  86.0945034  69.8958683
   4.4107562  85.9633541  68.4027290   2.3135214 133.7220425  87.3993874
   2.7528220 133.8470311  88.2405949   1.5834647 134.3408842  87.4161530
  27.9969245  77.8023338  77.0209837  27.1845179  78.0792189  77.4447298
  27.8775054  76.8658590  76.8629026 106.5437031  94.6783447  77.1734571
 105.8098221  94.8594856  76.5862274 106.1627579  94.7137356  78.0508709
  17.1799117  69.7034597  26.6440392  16.4266329  70.2884912  26.5631270
  17.7843028  69.9953985  25.9616065  98.7885761  58.2359409  64.9368429
  98.4749508  58.3566570  64.0405750  98.5592556  57.3316479  65.1510859
  98.1264591  46.9830799  92.3448086  98.5788918  46.2349081  91.9552326
  98.7233162  47.7195454  92.2120857 110.7395840  49.1904831  88.5054874
 110.4748535  50.0895309  88.3108997 110.9502888  48.8127041  87.6516056
   0.8401137  50.9185600  37.7510715   1.4580947  50.2244568  37.9802942
  -0.0129480  50.5785036  38.0210304 121.8011761  24.3344188  78.7958193
 121.3331985  23.6873555  78.2680464 121.7019176  24.0258932  79.6964836
 118.0248451  62.3982573  14.5024625 117.9503059  61.4477777  14.4172517
 118.8951874  62.5377464  14.8756830  36.7079669  43.7469769  84.3344879
  37.3870402  43.2233143  83.9092064  35.9391909  43.1768465  84.3480492
   1.4677840  39.9511743  19.6462727   1.6041785  39.1923285  19.0790188
   0.9383994  39.6168971  20.3703237  10.5262690  59.9052191  81.9913483
  11.4028197  59.5206547  81.9911575  10.6623393  60.8116579  81.7155075
 107.6099491  66.3812828  62.1729517 108.5333824  66.5475035  62.3623276
 107.5573730  65.4333782  62.0507002   3.6224967  58.9030790  32.6788807
   4.1316348  59.5335627  33.1882977   4.0225058  58.0563402  32.8770137
 123.7012577  33.0256772  70.7484531 124.1736412  33.4740925  70.0470161
 124.2919827  32.3252344  71.0253286 110.6510830  20.8643174   0.1070539
 109.7933483  20.5713987   0.4148141 111.2701416  20.2520394   0.5046979
 119.4993877  32.6654553  39.3629495 120.1054859  31.9930291  39.0519468
 119.0665340  32.2670269  40.1180116  27.2728472  76.4675188  85.7508278
  27.5335627  77.3612690  85.5284214  27.4724608  76.3848257  86.6833305
  95.3000355  56.7204905  78.8145876  95.6864166  55.8470154  78.8777208
  94.3911839  56.6008472  79.0900993  80.3048515  53.3371067  98.5455990
  81.1599827  53.5726881  98.9054203  79.6781158  53.8300180  99.0752029
  17.4545603  56.6686821  87.7048492  17.3835593  55.7428646  87.9373360
  16.5815764  57.0247698  87.8701496  12.0187407  28.6104012  66.2367725
  12.9723292  28.5959840  66.3185740  11.8467837  28.2360816  65.3727436
 120.7802296  35.7555199 102.2276115 121.5653515  35.2403569 102.4131203
 120.8072376  36.4706230 102.8633213 111.4301586  58.3678913  64.9649572
 111.1645222  59.1239548  65.4884529 110.9865379  57.6251698  65.3745937
 120.4109669  40.0563478  91.1192703 120.9158134  39.8800254  91.9131660
 120.0123310  40.9126902  91.2741852  11.8466788  39.6927571  67.9399157
  12.0228892  40.4565430  67.3905420  12.2250586  38.9579797  67.4570465
  27.1327143  59.7713900  61.3580656  26.3729029  60.2096653  60.9748793
  26.8058615  58.9107227  61.6200829 119.8073101  73.9026642 100.2138805
 120.1017284  73.3181953  99.5153427 119.6681499  74.7441292  99.7793674
 111.6096592  33.1320190  69.1941071 111.8514633  32.2403765  68.9436388
 111.8867111  33.2077789  70.1072025 104.2480946  41.5486670   5.3539125
 105.0221252  41.2567663   4.8723546 103.7321568  40.7528353   5.4830972
  16.2171107  89.2292976  24.8331904  15.8043700  88.3792305  24.9857569
  16.7464858  89.3824291  25.6158376  29.8429804  66.6319227  94.9449635
  29.1613417  66.6967249  94.2760754  30.1014453  67.5382805  95.1121235
 106.1083698  31.5467787  87.7247524 106.9361210  31.1030197  87.5399971
 105.5466080  30.8633685  88.0902767  14.5336848  66.8375635  12.3382798
  14.2101222  65.9665203  12.5681154  14.4932967  67.3318052  13.1570093
 104.4091225  27.1365166  92.8344440 104.7214985  26.4094877  92.2958469
 103.4629250  27.0033455  92.8910923   2.0759326  21.3703656  43.7273312
   2.7705222  20.8745265  44.1608286   1.4204913  21.5117812  44.4104290
 118.7987900  32.7895594  90.6001949 119.3410778  33.5633278  90.7532692
 119.3005276  32.2650838  89.9761581  16.5786391  77.5514507  99.9147034
  16.6834288  76.9577932  99.1711903  17.3923998  77.4604130 100.4104233
 117.0424080  32.3299479  50.4596949 117.0681095  31.4273930  50.7774401
 116.3431644  32.3339272  49.8060322  18.0678492  72.6161623  80.7445717
  18.9237528  72.4350166  81.1329746  18.2520896  73.2324886  80.0357533
   8.3268481  57.0824957 107.4610424   8.8974982  56.9300508 108.2142735
   7.5633555  57.5300980 107.8256989  23.7310343  19.0197301  14.6916810
  24.2183619  18.3593524  15.1842729  23.5974532  19.7335005  15.3153077
   9.5031577  70.0911283  40.1620293   9.3200713  69.1765833  40.3772449
   8.6453181  70.4670525  39.9644732  91.9723797  29.4145322  74.5354414
  91.9612217  29.4946527  75.4892159  92.5225544  30.1401854  74.2405462
   6.3791495  33.7252045 100.6351376   7.2880393  33.7843633 100.9294987
   6.2806063  32.8191257 100.3426647  18.5962992  54.4924212  95.3981495
  18.7319117  53.6755133  94.9180317  18.6436968  55.1745892  94.7283459
   1.8489676  43.1688881  94.5757866   2.0185595  44.1045046  94.4658184
   2.5903826  42.7393198  94.1491604  73.1354332  39.3980813  86.3484287
  72.4334717  39.8707056  86.7957592  72.9446363  39.5109606  85.4172611
 109.0051937  59.9295950  77.8244019 108.3543491  59.9822235  78.5243034
 108.8829041  59.0577507  77.4486780   9.1734629  18.6468625  58.4843826
  10.0337535  18.9332318  58.7911749   8.5521823  19.1165400  59.0408421
 116.0398769  62.4942923  83.1755733 115.1037312  62.3098898  83.2520390
 116.0872364  63.2593918  82.6023197  18.3156901  50.1768970  77.0439529
  17.7961951  50.9322739  77.3192072  18.7336569  49.8679447  77.8477430
 106.0010433  71.1637068  92.3477268 106.5438747  70.9264946  93.0995846
 105.8937168  72.1121550  92.4195290   5.7764369  48.3324528  50.5980587
   4.8508292  48.4818316  50.4052448   5.9806662  48.9591265  51.2921810
 113.7462902  53.2309532  39.6994686 113.1786728  52.5137568  39.9817395
 113.3190536  53.5810614  38.9177179  84.1117191  59.3876123 108.0998230
  83.3042431  58.9744711 108.4056377  83.9997959  59.4596243 107.1519279
 100.1378059  34.7202134  65.4759884  99.4250107  35.3563762  65.5347013
 100.9263611  35.2529073  65.3727245  15.6425601 140.3008980 100.3855801
  16.0334998 139.6751941 100.9954071  15.0228434 139.7811694  99.8736572
   6.4834338  19.9706948  89.4403362   6.2106352  19.3984127  88.7231827
   6.2862235  20.8544016  89.1298485 118.5181713  38.7122083  70.2047062
 117.5922966  38.6007881  69.9889088 118.9430714  37.9328799  69.8464632
   1.5617400  18.0526698  68.0295134   2.0570975  17.7623320  68.7953854
   1.7135935  18.9969182  67.9899120  82.6854515  42.5954533  78.2843494
  83.0759811  42.1419382  77.5373268  83.0284214  42.1348763  79.0501642
 114.7883797  43.3084583   2.9173032 115.4872036  43.9511681   2.7955953
 114.8945522  42.6981306   2.1876088 113.4682178  83.6003399  70.6279564
 114.3181515  83.7210846  71.0513592 113.6467361  83.7171268  69.6948290
 108.6758137  31.4827847  80.1198578 109.1278553  32.3029137  80.3180218
 107.7475834  31.6877389  80.2321720 106.4474583  16.4637709  86.0757160
 106.0162926  17.3168504  86.0248184 107.0653534  16.4637053  85.3446674
 124.1849995  70.5374193  73.1526661 124.7195244  69.8166752  73.4858894
 123.3040428  70.3527069  73.4782934  26.3151007  67.6021671  94.3782902
  26.6711360  68.0027723  95.1713753  27.0714694  67.5020123  93.8002586
 114.3495083  20.0457001  65.7239151 115.2276230  20.0924754  65.3458309
 114.4872665  20.1593399  66.6643095   5.7421713  76.8273878  57.7887487
   6.5225154  76.8821144  57.2371101   6.0296851  77.1495390  58.6430216
 120.8395863  40.4748106 104.5090580 120.4662132  41.3555431 104.5429325
 121.3816643  40.4140520 105.2956200   4.9079352  77.2933340  67.7891922
   3.9843875  77.2763443  67.5381994   4.8972731  77.4698400  68.7299156
 101.6385078  37.1730304  86.3679981 101.8977737  38.0876875  86.4794350
 101.0139751  37.0131946  87.0755577 111.2365913  51.4315748  98.5674477
 110.3417301  51.1810780  98.3378506 111.3106155  51.2278175  99.4997787
  74.5614195  55.5894232  79.8481607  74.2924118  54.7169685  80.1357269
  75.4432392  55.4646778  79.4973564 101.0184574  29.5628309  73.1414270
 100.1709461  29.9520016  72.9257679 101.3754368  29.2838693  72.2982311
 116.4420319  30.0110555  71.9330072 116.0406780  29.8137498  72.7792978
 116.9005775  29.2061663  71.6919184 104.5671463  78.6757612  66.1494112
 103.8212490  78.0826712  66.2395048 104.1734791  79.5317459  65.9804583
 107.5232410  33.9694571 102.2543907 107.6354504  34.6475744 101.5882111
 108.3822155  33.8982129 102.6706886  11.2253600  38.6140680  83.5535145
  10.6119567  38.3104897  82.8843307  10.6704074  38.8568664  84.2946625
  87.8294945  27.1672344  75.1979113  88.6798573  27.0234680  75.6131840
  88.0420971  27.4543071  74.3098688 115.8787918  31.2588334  81.6108036
 115.8737469  31.2446856  80.6537151 114.9799538  31.0418916  81.8582916
 117.0025539  37.0196104 103.3640003 117.0810318  36.1529684 103.7627506
 117.0826912  36.8588066 102.4238110  27.6585703  32.4522710  92.0963573
  27.5298529  32.0004702  91.2623596  26.8596678  32.9656577  92.2164345
  87.9918480  41.1793327  77.6954889  87.9494762  40.2232504  77.6768780
  88.1704807  41.3933849  78.6111879  14.8633700  69.0742779  82.9835701
  14.5547228  69.3250227  83.8542557  15.6906157  69.5441532  82.8781891
   5.1362734   7.4821687 106.3792515   5.9683161   7.1584809 106.0340500
   4.5700579   6.7107350 106.4019775 100.3197098  42.0410347  56.2857771
  99.6833992  42.5150394  56.8211794 101.0945797  42.6029873  56.2809753
 112.3701572  46.5846300  53.6339998 111.5870285  46.3382339  54.1261578
 113.0834675  46.1180973  54.0696335  99.9496937  42.4100065  94.9517918
  99.8887348  42.2491646  95.8934021  99.0400791  42.4600410  94.6579647
   9.7287684  52.4736357  80.6672096  10.5137091  52.2163820  81.1508751
   9.1063529  51.7639399  80.8258343 100.9348679  69.3059254  68.3004379
 100.6420612  69.0249205  67.4335241 101.2741566  68.5093164  68.7085104
 109.2261219  25.2316618  50.2941179 109.1661167  25.9966683  50.8663034
 109.1855907  25.5915213  49.4080687 117.1989059  22.7116513  41.6757441
 117.2075272  23.2428670  42.4719620 116.3016033  22.3837209  41.6163111
  23.9724093  79.5396900  83.8147068  23.0724936  79.8592710  83.8799667
  24.4643145  80.0814819  84.4317245  11.4744311  33.8543367  82.9733467
  12.1803885  33.4662914  82.4563503  11.6392069  33.5540724  83.8671684
 124.7464371  42.6380062  92.3248386 123.8728428  42.9043007  92.0382118
 125.0028324  43.3043766  92.9623604 116.5587234  45.6568050  67.6429176
 116.6046619  44.9449301  67.0046711 115.7354164  46.1031580  67.4450159
 123.6782074  35.8986855  43.2203817 123.5177231  36.8409872  43.2707739
 122.8141975  35.5164480  43.0667305 116.0723782  30.3733683  53.4448481
 116.1239815  29.8146296  54.2203331 116.6537189  29.9555397  52.8094816
  51.8119192  36.6309142  80.6758595  51.0553551  37.1583247  80.4195881
  52.5274324  36.9575477  80.1303482  17.5182372  75.5978870  76.3223839
  17.0163947  76.2011337  75.7742214  17.0201045  75.5446005  77.1380138
 107.8348923  86.9637871  69.2810011 107.4287987  86.4361572  68.5933018
 108.7274361  86.6244411  69.3476820   4.5124369  23.8486290  77.2455215
   3.7355929  23.5929918  77.7429152   4.8136073  24.6528578  77.6683044
  99.2469692  66.8391800  61.4923573  98.7506771  67.0681953  60.7065582
  98.5816383  66.7244768  62.1708918 107.7049160  51.3447762  59.2167187
 108.4573460  51.5366507  58.6570120 107.4672222  52.1905422  59.5967293
 115.5685997  47.5604010  77.8081417 115.6948566  46.6751146  78.1495428
 116.4391232  47.8309536  77.5162268   1.8759947  43.6674547  87.2417164
   2.0196467  43.1107044  86.4764595   1.4656287  43.0893564  87.8848648
 109.1108227  71.8851042  62.4647141 109.4223881  71.0142851  62.2180700
 109.7158337  72.1709776  63.1491613   1.0279971  53.8031769  74.0982771
   1.0401564  54.6625042  74.5197535   1.5732127  53.2528877  74.6605492
   2.6819830  58.6736345  55.5398226   3.2310420  59.3969154  55.2371216
   2.5214606  58.1499815  54.7548056  15.4008704  27.1332359  74.8911095
  15.0126391  26.3964891  74.4191837  15.0267058  27.9090476  74.4735622
   2.5511389  44.4666100  75.6990147   3.0467444  45.0348806  75.1093769
   2.4341517  43.6542034  75.2065277  90.3998089  63.3599281  45.9498024
  90.8086491  63.4098625  46.8138552  90.9897614  62.8072166  45.4372644
   4.6982127  41.4686203  64.5437098   5.0491076  42.0596933  65.2098465
   4.2876559  40.7623196  65.0425243  24.8884612  29.2141938  61.2452126
  25.4955702  28.8862658  61.9086170  24.7583418  28.4737659  60.6527042
 123.8520145  41.1991930  44.0448761 123.3306694  41.3191509  44.8386288
 123.5430431  41.8823671  43.4498644  25.1275187  36.0406017  57.0047760
  24.9067145  35.6709623  56.1498785  24.2816477  36.1859488  57.4285746
 109.6872616 104.4569588  42.0039654 108.8231754 104.8354340  42.1662807
 109.5894527 103.9817905  41.1788082 120.0180244  56.0079336  89.8437119
 119.5540810  56.7025852  89.3763351 119.4378662  55.7789278  90.5697918
  96.2059784  32.8489375  55.9595203  97.1387959  32.9876208  55.7956171
  96.0877132  33.0801630  56.8808126 118.0655479  48.6472654  76.7375946
 118.3117008  48.0613470  76.0218143 118.7901974  49.2697763  76.7975235
  92.7088070  16.9431877  40.2983522  92.5103951  17.1425831  41.2132835
  92.1876049  17.5710046  39.7979236   5.0330668   9.1158599  80.1591682
   5.6894999   9.1909671  80.8517647   5.5402403   8.9409798  79.3664312
  92.9374313  76.2811470  87.8414059  93.1077671  77.1931696  88.0768490
  92.1074867  76.0738993  88.2708931 118.6563587  36.6859412  73.4162283
 117.8726959  36.6968536  72.8667021 118.7488556  37.5891161  73.7194586
  87.1158314  39.6349239  31.6061759  86.3783932  39.4725776  32.1944427
  87.8836346  39.6305656  32.1777511  89.5555878  -0.2954169  93.6798286
  89.9563599   0.5115662  94.0029144  88.6173344  -0.1066537  93.6626244
  12.5507575  49.5904970  27.4080825  13.2400446  49.5106506  26.7487359
  13.0151015  49.5623827  28.2446337   3.2299643   1.4635813  85.0246620
   3.5536128   2.0527183  85.7061291   3.9459067   1.4137653  84.3912792
   7.4912005  53.0024672  38.0524611   8.3400946  52.8993607  38.4825516
   7.1198874  53.7940407  38.4420395  97.5723839  34.3281436  21.1909795
  98.0682564  34.4179463  20.3771734  96.6651440  34.2151952  20.9074330
 101.0741615  49.1574240  54.3878508 100.2291775  49.1323662  54.8368502
 100.8743095  49.5103407  53.5208225 102.1937370  75.8266020  65.1827335
 103.0279446  75.5421877  65.5561543 101.9514656  76.5968990  65.6967163
  12.1618491  52.0461273  69.4266367  12.1920424  52.2298145  68.4877110
  12.8693705  52.5739622  69.7968292   3.4499579  28.0615306  69.9797010
   4.1198950  28.5347843  69.4862986   2.8526049  27.7258730  69.3113184
 109.1930866  58.9110422  73.8260031 108.3394051  59.3038034  74.0082121
 109.8237610  59.5194769  74.2110872  14.7483187  56.6456127  76.7848158
  14.2825060  57.2568607  76.2141848  15.2079611  57.2051954  77.4107838
 121.6718292  60.7492638  62.8270102 120.9727764  60.1182604  62.6555729
 122.1271515  60.8357096  61.9894838 120.2463245  43.5995245  47.1713257
 119.6374798  43.6934757  47.9039335 120.3822041  44.4932699  46.8567038
 115.0132465  39.3869972  53.4038115 114.2809105  38.9136004  53.7985468
 115.2435017  38.8708949  52.6312494 113.4266090  50.3664684  48.4783459
 113.2455158  49.8666430  49.2743444 112.6859283  50.9676170  48.3993006
 105.3097725  24.9702454  22.0238018 105.0255585  25.5870271  21.3492393
 104.5039177  24.7235966  22.4776745   1.0412436  17.6655900  86.2158680
   1.7565661  17.5199187  86.8350029   0.4153948  16.9662273  86.4041138
   1.0323363  36.3870573  51.5112257   1.4145117  37.1793151  51.1337233
   0.7840567  35.8566737  50.7540751   8.2163268  63.3669758  77.1212006
   7.4138003  63.5594511  76.6362906   8.2437163  62.4113798  77.1693468
   4.3397647  52.0306110 102.5264549   4.7693949  52.8069258 102.1673107
   4.7868758  51.8725014 103.3579159 123.0245686  37.6104546  85.3986263
 123.7424755  37.9480386  84.8630047 122.6471329  36.9034982  84.8751926
 110.2602100  45.9025860  66.3200665 110.5407810  46.3732672  67.1049118
 110.3195667  46.5506268  65.6181049   6.3844519  54.4730616  79.1034317
   5.7726698  53.7876177  78.8348532   6.4491397  54.3774652  80.0536442
 124.1685200  22.0506620  21.1286998 124.7989464  22.7374458  21.3457751
 124.6986294  21.2587953  21.0383511 102.8441906  27.8082991  60.7998610
 103.2769012  27.1947455  60.2061129 102.5887966  28.5424328  60.2412462
  83.7331581  84.7251606  30.8000803  82.9743862  85.0901604  30.3448081
  84.0352917  84.0165138  30.2319598  13.2554751  59.2725086  81.0155296
  13.4228545  59.3754768  81.9523430  13.6581259  60.0426102  80.6142235
  10.6132918  27.6637626  76.1203194  10.5023699  27.7657890  77.0655823
  10.1333933  26.8632722  75.9078693   7.1127349  22.7393436  67.8427696
   6.9416838  23.5193682  68.3705330   6.5549784  22.8446031  67.0720196
 120.6570435  63.6443853 109.6345711 120.4041290  63.6915731 110.5565453
 119.8889542  63.9607906 109.1590118 114.5403767  40.5874681  67.5837135
 113.7721920  40.1170874  67.9075527 114.7378922  41.2247944  68.2700300
 107.0072079  55.6211090  64.8382473 107.6047421  55.0884771  64.3133879
 107.3852539  55.6091976  65.7175446   7.1810084  31.4323163  88.3589554
   6.5008479  30.8937216  87.9545593   6.8746119  32.3317480  88.2432842
   4.4942313  42.2331429  17.2505188   3.5915690  41.9693041  17.4288869
   5.0067454  41.8173361  17.9438174  10.1659136   6.3762444  55.5030155
  11.0909110   6.4497703  55.2680540  10.0092726   7.1136749  56.0928392
 102.2286129  57.6132345  92.5142288 102.9803658  57.8551292  93.0551338
 101.9688702  56.7504263  92.8372288  22.1953326  12.1257222  20.0048161
  22.4522048  11.3729668  19.4722700  22.3888903  11.8602872  20.9038758
 118.2133770  29.8443604  51.0070801 119.1132069  30.1640677  51.0727549
 118.2971859  28.8908410  51.0097122 108.7786198  68.3457279  46.9241953
 107.8544140  68.2204437  46.7088604 108.9757347  69.2337465  46.6262054
   5.2349597  68.2458973  70.3681850   5.3900366  68.8089418  71.1265802
   5.5430346  68.7595654  69.6215439 116.5302277  53.8994980  83.5450554
 116.3928699  53.2860899  82.8231812 117.4812984  53.9892244  83.6054325
  30.2130061  53.1620121  30.4728389  29.6925955  53.4528351  29.7239542
  31.0831862  53.5289764  30.3167820  97.1502781  45.8808422  78.9384031
  97.0870209  46.4819527  78.1961775  96.6903019  45.0930595  78.6484861
  62.6187658  10.7950461  79.3892145  63.4152031  10.2642035  79.3782330
  62.8575420  11.5748072  79.8904037  99.8133564  31.8560648  57.2910070
  99.3082428  31.1402297  57.6766014 100.6865597  31.7657137  57.6725626
  10.5356627  20.9424949  78.7278032  11.4677744  20.9083652  78.5127783
  10.4893618  20.6535101  79.6391630  12.6573783  46.7032719  45.2527761
  11.7491084  46.8805027  45.4974556  12.6965743  45.7524109  45.1500368
 116.0715008  52.7621937  72.7420282 116.3342094  52.0128727  72.2074842
 115.4195023  53.2188177  72.2104025 105.6179905  50.8603430  95.5695152
 105.0531101  50.4419661  94.9198246 106.4571857  50.4079103  95.4841042
 111.6666794  69.4052362  27.8990388 112.4772739  69.5947933  28.3715177
 111.9509125  68.9370680  27.1140122   2.9377108  54.3257904  71.5091610
   2.2711402  54.6784401  72.0987034   2.4978285  54.2613459  70.6614733
 106.9553471   2.9347718  79.7911739 107.4090576   2.3327896  80.3810883
 107.4228859   2.8533769  78.9598989 124.1533375  29.4422626  26.1481476
 124.9348831  29.5511365  25.6063414 123.4557724  29.2404628  25.5245137
 113.9901066  77.8286457  18.0548298 114.4633961  77.9379320  18.8796258
 113.5931396  78.6841631  17.8913057  96.7315292  42.7221107  73.1213045
  97.6288986  42.5106096  73.3786631  96.6351795  42.3373032  72.2501755
  16.3604289  49.0806007  91.3337517  16.6055232  48.1557083  91.3065338
  15.5009680  49.1130877  90.9136295  11.9706851  49.6275425  49.1469812
  12.3087245  49.0071201  49.7927666  12.5493270  49.5257711  48.3913040
 106.6112995  41.1241436  45.2114296 105.7182121  40.7859707  45.1460409
 106.7873669  41.5035677  44.3504620  14.5298033  33.2565451  69.9675751
  14.6134406  32.4404526  70.4607582  14.6780615  33.0022335  69.0567636
   2.1437865  43.9704800  39.1789699   1.4146262  44.4327497  38.7656212
   1.9614440  43.0444193  39.0196109  94.9347496  38.9141130  38.0071378
  94.9723053  39.7716856  37.5835919  94.1416264  38.9457321  38.5421109
  82.0413303  30.0055861  92.2620869  82.1478462  30.2377844  93.1845665
  81.1270618  29.7319770  92.1879959 111.6592216  57.3499060  93.5685349
 111.2259007  56.4969635  93.5994816 110.9855556  57.9492760  93.2473278
   2.2011309  40.8299208  38.1653619   1.8958026  40.0100946  37.7769089
   2.4770670  40.5879164  39.0494013 100.2170849  62.7733994   7.8628439
 101.0989094  62.5051022   8.1209868 100.3195763  63.1072950   6.9716424
 100.3561878  46.1884832  50.9771442 100.4941082  45.8580923  51.8648672
  99.9644661  47.0529604  51.1014843 105.1230526  32.5917268  43.7977409
 104.2788696  32.4182391  44.2142534 104.8976040  32.9259682  42.9295874
  17.9512435  73.3093166  72.4713087  18.3066111  73.0563879  71.6192675
  17.1623259  72.7762365  72.5695896  11.8588095  64.1479540  54.3141556
  11.0695296  63.9622355  53.8054514  11.9240885  65.1029205  54.3149185
 124.7558308  18.7416339  59.2782354 124.0047359  18.4393179  58.7676573
 124.3715000  19.1163433  60.0707674   2.6874762  67.7770662  36.8841910
   1.9873171  68.4291363  36.9126868   2.3822051  67.1252775  36.2531519
  83.6153412  71.0257816  87.0160103  83.3558083  70.1135635  87.1453762
  83.2426071  71.2627220  86.1668015 117.4827671  10.6160212  61.6388226
 118.2031727  10.8461714  62.2255659 116.7537594  10.4100823  62.2239494
   4.5240145  46.5735054  12.7465574   4.1878157  46.9363737  13.5660211
   5.4739791  46.5586185  12.8631154 112.4314117  76.7865992  63.6253214
 111.8206406  76.1911392  63.1910229 112.7924252  76.2738609  64.3485117
  97.9808140  55.5305529  49.8150444  98.8338470  55.9205818  50.0059462
  97.4597931  55.6978846  50.6003904  12.4451762  44.0547609  44.8553467
  12.9242068  43.7826920  44.0725708  12.5755339  43.3385944  45.4769182
   2.3597460  13.3315241  50.7924032   2.5468665  13.9831209  50.1166534
   1.6148596  13.6922872  51.2732697  80.4366016  60.7875061  63.0933428
  79.6920729  61.0702896  62.5623608  80.1331329  59.9891090  63.5254288
  75.4120636  71.5800810  80.8156586  74.6597242  71.0601568  81.0983181
  76.0144711  70.9417248  80.4337692  78.2291746  56.8245029  70.4014349
  78.9971733  57.3472166  70.6320381  77.8461933  56.5772820  71.2431240
  23.4265547  33.8655138  46.8258429  24.2593890  34.3234825  46.7123127
  23.1858569  33.5838461  45.9432554  96.7396545  60.3484154  46.1917639
  96.2234116  59.8834133  46.8501616  97.1045589  61.0993099  46.6599989
  24.0793257  23.5264397  16.9014263  24.9709731  23.3627892  17.2087073
  23.6321383  23.9086676  17.6565135   5.3735476  41.8107557  61.4684963
   5.1511412  41.2335110  62.1989441   6.1756259  42.2522593  61.7477512
  -0.0457925  50.7066154  68.3191347  -0.0557489  50.7120514  69.2762709
   0.3420668  51.5480804  68.0788612  68.0140209  37.0912647  50.0768423
  68.6116314  36.4994097  50.5337954  68.1720686  37.9466367  50.4763317
  18.6865454  45.5184889  72.0426083  18.2288390  46.1186695  71.4539528
  17.9891329  45.0072861  72.4531317   0.7475596  26.5151095  62.1570349
   0.7481509  25.6635427  61.7199183  -0.1138467  26.5714312  62.5706148
  93.9520359  24.3383646  91.8877506  94.1858482  24.7040105  92.7409077
  93.0652237  23.9986324  92.0076656 108.8033962  27.0778441  67.8269053
 108.2967663  27.7938652  67.4436760 109.7032452  27.2440481  67.5460577
 101.6141224  57.9282665  54.1196203 101.6785622  57.1837711  54.7177839
 102.3664951  58.4777641  54.3392086  30.2228861  49.4956684  52.3614645
  30.5958014  49.7738218  51.5249252  30.7620745  49.9321318  53.0210114
   9.7117358  30.1257277 107.8572941   9.1163951  29.4651341 107.5031662
   9.2305689  30.9493208 107.7772713  12.3649817  40.6568718  56.0921288
  12.0314055  40.1124096  56.8052387  12.2645789  41.5544987  56.4090157
  70.8783817  43.9247847  28.3012056  70.9904718  43.9443827  29.2516184
  71.5921783  44.4664812  27.9646277 103.7570095  48.9914608  59.7631645
 104.2990971  49.6492577  59.3276501 104.3648815  48.2837200  59.9772358
 119.0552902  35.4230213  61.6950226 118.3753872  35.1018119  61.1027479
 118.9264965  34.9231005  62.5010777  15.9005862 142.6837499  54.6145058
  15.3404646 143.2123227  55.1829290  16.3875514 143.3239932  54.0956736
 102.9117870  67.0182800  58.0037355 103.7307167  67.5138617  58.0037308
 102.3151112  67.5416565  57.4686813  96.5875530  64.0577698  45.7372093
  96.5254498  63.2524252  45.2235937  95.8843327  64.6122503  45.3991747
  86.0768509  62.3732615  84.2921352  86.3683796  62.6411629  85.1636124
  85.1262379  62.4833250  84.3132305  85.9224129  39.2663336  61.8449116
  85.9804916  38.7571573  62.6533651  85.7040501  40.1520443  62.1348524
 119.9179554  63.5495663  92.1283436 120.6543446  63.1071234  91.7061996
 120.2582455  63.8205767  92.9809856  46.2982225  19.1630197  51.6368151
  46.5244627  19.6021616  50.8169365  46.7695999  18.3307159  51.6007185
 103.8613033  87.1812725  46.9956160 103.5893154  86.2702274  47.1063042
 104.3891430  87.3696136  47.7715921   4.1871291  10.3140116  71.9914246
   4.6574336  10.4365599  71.1667824   4.7122794   9.6756428  72.4740648
  93.1606865  45.8966208  81.4723110  92.5998211  46.2048435  80.7605076
  93.6196041  45.1408958  81.1055470  22.8622561  71.7650223  79.8756075
  23.4202414  71.3477707  80.5319500  22.6939803  72.6399231  80.2255630
 113.3050823  81.3676357  25.4857492 113.1192493  80.4406929  25.3358626
 112.9989624  81.8048191  24.6911478 114.7668457  38.8979411  46.1713791
 115.5563927  39.2914271  45.7998848 114.8567486  37.9626083  45.9888887
 111.8233490   9.4776845  60.3925705 111.4343071  10.1224422  60.9834719
 112.7552795   9.6958041  60.3801632  20.3875094  43.3142567  35.4723001
  21.0099059  43.7134314  36.0801792  20.3191882  43.9419794  34.7529054
   3.6370497  20.0772667  67.8421974   4.3907004  20.2994037  68.3889103
   3.9407759  20.2207088  66.9458675  10.5714541  50.9076166  73.4887218
  10.6816989  51.7122984  73.9952421  11.3208991  50.3652859  73.7345552
 105.8916855  54.3976450  80.3998852 106.2338734  55.1377010  79.8984241
 105.8242035  53.6869764  79.7622108 109.3661785  57.7309704  84.2872334
 109.9302673  58.3603334  84.7365952 108.7362957  58.2715893  83.8105679
 103.8279057  50.3948975 106.2032890 104.2166996  49.9804831 106.9735718
 104.2479706  51.2536812 106.1556625  95.6544781  69.7602034  83.1830120
  94.9730206  69.7671890  83.8551807  95.8631897  70.6839609  83.0439377
  87.1114349  56.5519190  50.1357841  87.7693176  55.8581877  50.0893402
  87.5586987  57.3289824  49.8005772  85.1622105  66.1541128  91.8435955
  85.9540558  66.6125059  91.5623665  85.4696369  65.5208254  92.4921894
 122.1063519  30.4987526  84.7935581 122.7815247  30.9514284  85.2989960
 121.3280106  31.0478616  84.8878956   0.7776385 105.6837368  71.6264009
   1.6991358 105.9303856  71.7053080   0.7709818 104.7360516  71.7608738
 109.6414757  56.2271595  90.3954506 108.8928318  55.6313419  90.4230309
 110.3805923  55.6717634  90.1475048  79.8665667  52.9809284  74.4112253
  79.4002628  53.1800270  73.5993481  79.5778036  53.6562395  75.0250673
  83.6020660  61.1055422  78.4120035  84.0345669  61.3940859  77.6083088
  83.7667370  61.8099976  79.0387869  43.8491374  30.7557702  34.2398596
  43.1555682  30.5583382  33.6103964  43.9062815  31.7112613  34.2414141
 104.1078854  48.2929897  66.8357277 103.9716911  48.7312174  67.6757526
 105.0317001  48.4424782  66.6346025   4.7844058  31.5490484  44.0879250
   5.4356127  32.0761013  44.5509338   4.5278864  30.8766127  44.7190046
   8.1089907  57.8280449  31.8458271   8.9815169  57.7048206  32.2196507
   7.6188975  57.0532560  32.1210504  26.7092734  33.0586457  37.8374362
  26.4969950  33.5193133  38.6491990  26.5495520  33.7028241  37.1476841
 104.7069836  47.0281792  90.5291271 104.2451191  46.3204241  90.9785748
 105.4807091  46.6084242  90.1531315 119.4901562  42.4492836  58.3997917
 118.9220905  42.3986864  59.1685390 119.4124317  41.5889311  57.9874992
 123.9293098  39.1774440  56.9516277 124.8700714  39.2625141  57.1064281
 123.8387871  39.2160583  55.9994984  99.2326832  42.7842808  87.6027393
  99.7439671  42.7879524  88.4119415  98.7579060  43.6153364  87.6156235
 106.4658260  10.6012857   2.6608983 107.2201824  10.4204988   3.2216874
 106.4670181  11.5528560   2.5572435  85.7234859  22.0387506  55.3658485
  85.8545303  22.7906585  54.7881889  86.1571980  22.2857523  56.1826229
 101.4790440  54.7737932  20.3701234 101.3353539  55.0655222  21.2703896
 100.7946777  55.2119303  19.8642528  83.6681461  36.1846852  52.7857828
  84.5547009  35.8544159  52.9313374  83.4042740  35.8018112  51.9491196
   2.2956400  52.9575300  43.9289474   2.8990012  52.4067307  44.4277573
   1.7523318  53.3806801  44.5937729 114.6935749  81.9227982  46.5442896
 115.0004196  81.0338593  46.7227888 114.0860653  81.8238068  45.8112383
  94.2308712  22.5035024  53.4867287  93.6763573  22.1336055  54.1736984
  93.8183498  23.3396888  53.2702684  31.9678431  68.5304260  44.1622686
  31.7253523  68.6565781  45.0796080  31.2522822  68.9305162  43.6681747
 115.4830170  67.6056337  33.6712694 115.3656864  66.7693329  34.1218901
 115.8171082  68.1965399  34.3461370  98.8801384  64.5412207  53.6965656
  98.4229469  63.7273788  53.9083815  98.4834099  65.1954842  54.2716980
  82.0986271  26.7995787  93.6801147  81.9361305  27.6626348  93.2993793
  82.9228878  26.8992591  94.1564369  85.3512859  26.5583396  67.4252033
  85.3752232  27.2461939  68.0904198  86.0554504  25.9597039  67.6742268
  96.8013191  50.9079599  48.5724926  97.2966194  51.6787195  48.8497066
  96.0389042  50.8923721  49.1510344 103.8413334  58.3788729  72.6783895
 104.5855618  58.3521366  73.2797527 103.7407780  59.3060446  72.4628115
  29.5042639  20.5260539  83.1909943  30.1875144  19.9100816  82.9264545
  28.9415770  20.0217390  83.7786007   5.0436049  10.2357721  66.4555836
   4.3847876  10.8581066  66.1475468   4.5470458   9.5913792  66.9599819
  93.2759571  24.7653985  72.4228716  93.7431145  24.3789148  73.1635618
  93.4925079  25.6969237  72.4628258   8.7638503  50.9954643  28.9546132
   8.1247836  51.5230942  29.4336033   8.5454302  50.0913143  29.1805196
  33.7680560  52.8247976  45.1316309  33.6047583  53.1263256  44.2379618
  33.4246665  53.5246658  45.6870556 124.0937901  51.8027878  41.3825798
 123.1438732  51.7197371  41.4662313 124.4434071  51.3166428  42.1293497
  20.3016120  39.6409893  61.6646338  20.1336699  38.7854838  62.0597744
  20.6252032  40.1791334  62.3870802  13.7540751  33.4371614  24.7434211
  14.0032130  33.3318305  23.8252354  13.0442458  32.8081322  24.8726654
  16.6368895  28.8733101  37.9101229  16.8874007  29.7926426  37.8190351
  17.4487906  28.3881164  37.7630711  13.3142977  39.5461440  31.5625548
  12.5825053  40.1423311  31.7215729  13.3497935  39.4592524  30.6099677
  16.5447550  40.0082254  26.9318247  15.6636553  40.3583765  27.0633483
  17.1271830  40.7289886  27.1716189  81.9444180  76.5054417  34.4230294
  81.9931126  76.4972401  33.4671044  81.2633038  75.8667278  34.6336460
   3.2122546  41.2881088  78.1166744   2.8244048  41.7752218  78.8436699
   2.4878436  41.1521292  77.5059605 119.0556908  52.0665073  52.4505568
 119.9245358  51.8952370  52.0872211 118.7902069  52.8968763  52.0552874
 100.8299160  33.3925271  38.2690501 100.7875729  32.7595258  38.9858127
  99.9236584  33.4811878  37.9739594 122.0134258  36.7477489  39.2677069
 122.0967579  35.8456540  39.5767593 121.4466763  36.6861153  38.4987974
 123.6267185  65.1958227  22.0604086 123.1120968  65.0095606  22.8457165
 124.1103077  65.9936285  22.2746015  75.1350260  55.3895235  67.6881313
  74.6314001  54.9912786  66.9782019  75.8084154  55.9049892  67.2442055
  89.1738510  56.4841986  15.6163883  90.1042843  56.2613726  15.6460989
  88.8273716  56.1780691  16.4545202  94.9323559  43.4138346  30.0165486
  94.8810482  42.4625492  29.9235129  95.2618885  43.5501909  30.9048319
  98.2821941  48.8547611  71.1629963  98.2392311  48.1599379  70.5060244
  99.2179394  49.0252066  71.2705040  87.4662781  20.1226187  53.9506197
  87.6080036  20.9147477  53.4322786  86.8632221  20.3939509  54.6426725
   0.8859282  43.6945057  66.8805742   0.9876280  43.9974117  67.7828693
   0.0021010  43.3283234  66.8490362  95.1926422  32.6653719   8.8013566
  95.0846672  32.7015209   7.8509533  94.9892616  31.7587090   9.0312022
  15.1055842  50.3937387  54.0755939  15.4519682  50.8824492  54.8221970
  15.8646708  49.9333906  53.7176847 106.3960934  62.8751612  59.5536852
 107.3517609  62.9056644  59.5984030 106.2034130  62.7603483  58.6231375
  90.0407028  65.9150267  44.3539333  90.1321983  65.2607489  45.0466013
  90.7472515  65.7144070  43.7401199 100.3423786   0.9008648   8.9834058
  99.4448853   1.1387081   8.7506807 100.4314423   1.1681321   9.8982108
  12.7719431  73.5077620   4.4219291  13.0776339  74.2354918   4.9634039
  12.9833346  73.7704849   3.5260934 115.3297710  34.3441415  77.4015284
 115.4582214  34.8202515  78.2219219 116.1278057  34.5113111  76.9001055
  91.1721802  62.2528648  29.2672133  90.8976269  62.3977280  30.1726794
  91.9765186  62.7637339  29.1761732  97.0544243  46.2956858  62.6261473
  97.9397011  46.5281916  62.9062462  96.7460918  45.6812382  63.2921934
 101.3775253  31.1326575  91.7240047 100.8875656  30.6776714  91.0390568
 102.1551418  31.4693499  91.2788200  94.5298290  29.3920231  51.8012333
  95.2280998  29.4940472  51.1545229  94.7193050  30.0552082  52.4649477
   6.5217047  54.6126556  64.9722672   5.5778914  54.4580173  64.9331474
   6.8356639  54.0087509  65.6452942  28.0178481  52.4839306  56.8863153
  27.5137644  52.6787043  56.0962582  27.3973113  52.0374537  57.4623537
  93.5605907  56.7616272  30.9132886  93.2689953  56.6481066  30.0086784
  94.4271469  56.3558149  30.9383225  33.7845545  61.3710546  63.7328672
  34.5557528  61.4018679  64.2990255  33.8350039  60.5159187  63.3057451
 122.1993732  34.7276664  81.4621735 121.2556267  34.6787977  81.6144276
 122.5449944  35.1664019  82.2395325 121.9789505  55.3111410  55.8863115
 121.2030792  55.0009537  56.3532686 122.5736332  55.6029367  56.5772772
  87.1003723 139.2118455  53.3975887  86.2420845 139.6356017  53.3965349
  87.6625729 139.8107428  53.8890028  19.1311007  84.0721512  35.2320218
  20.0177603  83.9773178  35.5799818  19.0261965  83.3289814  34.6379375
 118.6032391  35.4696107  29.3896198 119.1846466  36.1038637  28.9701986
 118.8025665  35.5426383  30.3229833 116.9449329  25.7407403  11.0987747
 116.2106609  26.1450553  11.5609491 117.1184254  26.3289189  10.3638041
  17.1014720  63.0007076  21.3534904  17.2973757  63.5362482  22.1222854
  16.1467867  62.9316759  21.3466430  14.6720534  40.8452892  54.2302847
  15.3007346  41.3564491  54.7399139  13.8915186  40.8057594  54.7829390
 100.8255959  14.9660218  27.5343180 100.8977032  15.6821632  26.9033098
 101.3588810  14.2638791  27.1617079  31.8710833  20.5099607  77.7977180
  31.0620432  20.5099773  78.3092642  31.9242793  19.6262753  77.4337053
 102.5215244  86.8353558  16.7962718 101.6337204  87.0969963  17.0403552
 103.0607700  87.5998020  16.9989598  -0.2604837  19.8722315  29.4676495
   0.6336814  19.5341432  29.4186401  -0.2148504  20.7317257  29.0488172
   7.4755221  18.1798720  71.5569735   7.2559958  19.0722680  71.8246841
   8.3020621  18.2686496  71.0824394  84.0499306  16.5790224  23.0069590
  84.0220165  17.2337079  23.7046981  84.6013546  15.8792865  23.3570051
 123.7449455  31.0792542  56.0156775 124.1631508  31.0628223  56.8765306
 123.4229851  30.1868081  55.8887291  35.5960017  39.4630599  86.6932774
  36.4541369  39.2783689  86.3115120  35.4767161  38.7819505  87.3551559
  32.8514700  60.8822250  60.7757711  32.4117404  60.6928873  61.6046333
  33.0417758  60.0211859  60.4034472  93.4494209  44.5980310  91.7726707
  92.4973774  44.6545124  91.8542194  93.6295319  44.8729849  90.8736801
 111.9786549  47.0812368  62.1072674 111.9844818  46.8928528  61.1688089
 111.8361092  46.2301731  62.5215197   2.6921397  32.6267195  73.5548449
   3.5858660  32.5904369  73.8956976   2.2700720  31.8423820  73.9054203
   7.3009616  50.7952261  18.6336577   7.8947383  50.1324224  18.2810247
   6.4323836  50.5181408  18.3420587 102.9240227  29.0545797  75.3912449
 103.3525085  28.2043862  75.2922058 102.3771000  29.1395712  74.6103001
  28.9572268  50.2909184  72.2815180  28.2364684  50.4853439  72.8806305
  28.9806777  49.3350315  72.2372723  27.8659659  64.9546146  49.1101646
  28.8091498  65.0023651  49.2662382  27.6266699  64.0622234  49.3603849
  70.8791304  27.0790744  74.0640211  70.9066057  27.4095917  74.9619246
  71.7662287  27.2154856  73.7313366  35.2467757   6.9568455  59.7848892
  34.6229487   7.4868619  60.2810240  34.9936133   7.0823914  58.8703489
   6.8501311  64.5806503  63.7360334   7.5992995  64.4930363  63.1467152
   6.3146906  65.2693224  63.3419895 113.4094334  32.5602126  44.3167830
 113.9361858  33.0573821  44.9425459 113.8143826  32.7383924  43.4679651
 100.9191513  63.4226084  45.2984381 101.7582893  63.5445642  44.8543453
 100.9854794  62.5573635  45.7024002  86.2379551  30.6742573  73.8430500
  86.4001274  31.6173983  73.8634157  87.0902634  30.2805877  74.0296698
 105.6786060  38.1122971  30.7988453 106.4630890  38.6365509  30.9600139
 105.8351803  37.7022052  29.9482322  73.4364557  37.5667763  29.8499990
  72.6531744  37.4139428  29.3214703  74.1069126  37.0126796  29.4503784
 102.0842648  59.5244503  39.5322132 101.2511349  59.7122049  39.0999079
 102.1522427  60.1873016  40.2194118   3.1253462  89.1129494 102.5370588
   2.9918223  88.9989185 103.4780165   2.3643427  88.6943626 102.1347024
 114.9040031  16.5429008  34.4304514 114.5395279  17.0060158  33.6761904
 114.1869164  15.9905636  34.7417903 121.7480564 143.9699946  37.4332404
 122.0248890 143.2916845  38.0492711 121.6170406 144.7474591  37.9760242
 112.8557682  50.4258537  33.2475662 112.5823307  51.1363983  32.6673985
 113.7454510  50.6608248  33.5111833 124.2488384  53.8147354  30.7316971
 124.5416737  54.7184086  30.6139946 124.0378284  53.7507391  31.6631532
 120.2669716  43.2267809  24.7599244 120.3846264  43.9311504  25.3973031
 121.0310173  43.2920742  24.1870332  26.5302878  54.8640966  58.0621719
  25.9993392  54.1956758  58.4952354  27.2356635  54.3734694  57.6403189
 114.6741486  53.1401491  76.5913725 114.6411514  52.1993256  76.7645502
 115.5706596  53.2978964  76.2953615  15.6057292  90.7214451  68.9591217
  16.5167170  91.0152245  68.9541054  15.6439143  89.8172951  68.6472225
 122.7968216  26.0949254   5.8130014 123.2074261  26.9453859   5.6569356
 123.2821751  25.7264900   6.5511900  95.3143406  18.1936777  42.9037237
  95.2100468  18.7406564  43.6822891  94.4583893  17.7824080  42.7835369
  15.7426291  55.2234602  52.1182823  16.3183432  55.9488106  51.8760824
  15.2817278  55.5335045  52.8978157   9.7323638  38.8365912  51.2515020
  10.2568942  38.1034899  50.9295321   8.8340884  38.5059428  51.2530041
  11.9743662  43.4345627  14.6277905  12.2705012  44.2172909  14.1631746
  11.0266905  43.5455465  14.7041762  87.6606083  29.1677499  54.8756790
  88.4558868  29.0932941  55.4031467  87.7571583  30.0000906  54.4129515
 104.2642784  33.5161448  52.8102350 104.4006348  34.2284322  52.1855068
 104.2381477  33.9481139  53.6640215 111.4013195  35.3420424  38.4240317
 112.0816040  35.1753974  37.7715969 111.7328548  34.9358654  39.2248631
  11.5864020  63.3596611  16.4297175  11.9172412  62.8246403  15.7082403
  12.2417861  64.0490389  16.5367961  24.0913039  24.6539211  10.6153142
  24.7540408  23.9649129  10.6630599  23.8139182  24.6563721   9.6991897
 122.4254417  76.1835384  55.8333969 122.8127193  75.4575968  56.3225412
 121.4810276  76.0535812  55.9195566  11.3984900  46.1750746  48.7125874
  12.0315295  46.8201685  48.3973980  11.8960028  45.3593159  48.7695932
  89.4280910  28.9465690  31.7466331  89.7054577  28.0572867  31.5264535
  88.7388420  29.1462421  31.1131573  97.7709770  37.0160675   7.6395839
  97.7404308  37.8851199   7.2395277  97.0179844  36.5553975   7.2694337
 118.9915085  56.7234850  47.1758938 118.4637260  56.5865040  47.9626036
 119.0643406  57.6748037  47.0989847  98.7716579  65.5824947  45.9587574
  97.9332924  65.1835108  45.7259750  99.4275570  64.9501371  45.6652498
 111.0345268  60.1933527  48.7622881 111.0966396  61.1384869  48.9004564
 111.9231892  59.9268103  48.5267735 124.4183159  59.4808960  29.1280007
 124.1077709  59.6833563  30.0105000 125.3672886  59.5966625  29.1755939
  75.8858109   8.4075260 102.0351478  75.0655127   7.9308063 102.1619626
  76.1945486   8.5931015 102.9219820  71.1571932  27.1556258  37.0032048
  71.1414289  26.4441490  36.3630605  71.5846300  26.7771268  37.7714944
  28.5846549  30.7892489  21.4986706  28.6788588  30.0620556  22.1139336
  27.9646330  30.4696155  20.8431983 108.3879948  44.6631575  30.2477789
 109.1720581  44.7167349  30.7942390 108.4372902  45.4336500  29.6819711
   3.2477217  30.0538850  81.7888260   3.0463725  30.7496834  81.1630821
   2.6551562  29.3402958  81.5524006 111.1365604  42.5259829  39.3149757
 110.7664299  42.6585913  38.4422517 112.0713806  42.7016878  39.2078996
   0.4993659  50.0900698  49.8269224  -0.1842088  50.3458261  49.2076111
   0.5956488  49.1460848  49.7009945   3.2296305  33.2526970  24.4281578
   2.3580390  33.5851121  24.6427774   3.4117823  32.6025629  25.1066661
   3.0499869  36.1364841  64.8944044   2.5208598  36.9096589  64.6983051
   3.9496451  36.4104366  64.7161055  79.4672155  36.3468671 107.2742998
  78.7531614  35.8994508 107.7283716  79.9618435  36.7774916 107.9715373
   2.7372866  51.4024639  32.8986979   2.2241812  51.5322304  32.1011257
   2.1137744  51.0405827  33.5283875   3.1377345  64.8872662  39.1377163
   3.8968115  64.6796846  39.6826530   2.4116831  64.9622869  39.7569466
 100.7332134  25.3324866  37.3971391 100.3001595  25.3661776  36.5441656
 100.1287365  25.7784247  37.9904199  90.3727913  20.6809258  71.1632442
  90.6265640  19.7670126  71.0344267  90.1170349  20.9835815  70.2919149
  15.9601908  36.5304303  36.8068051  15.6291514  35.7280612  37.2103477
  16.2646800  37.0608568  37.5431252  77.0763493  57.7699757  42.1042156
  77.1974230  57.2001171  42.8637171  76.1816406  58.0987310  42.1916580
 101.2733555  25.4442763  40.8547115 101.9893742  25.9742928  40.5045223
 100.4825211  25.9403253  40.6431770   9.6959143  31.5384817  34.1791868
   9.2232352  30.8878970  33.6600137   9.0590697  31.8345666  34.8295665
 114.1877651  63.1097364  20.9398341 114.7338009  62.8145027  21.6684699
 113.4702301  62.4770641  20.9065604   5.4657775  37.0811439  36.3099909
   5.3201228  37.9754210  36.0013103   4.7505885  36.5751743  35.9243274
   4.0872317  53.4141874  13.8082409   4.3458491  52.9151058  14.5830119
   4.7771864  53.2380629  13.1685746  41.2062388  44.5439482  46.5057087
  40.9504634  45.4662895  46.4956141  42.1550685  44.5598745  46.6309595
  99.3679142  37.6321435  67.4923515 100.2715302  37.7171588  67.1882486
  99.4395638  37.1791148  68.3325052 112.7164364  11.9726574  41.0956860
 111.8371582  12.0873868  40.7352304 113.2511902  12.6174116  40.6324768
 111.2590504  28.2813239  34.2349458 111.3232994  29.1015720  34.7241306
 111.0636997  27.6207542  34.8995638   9.7215300  67.3671675  41.1386204
   9.5727187  66.7461061  41.8516207  10.6431227  67.2505045  40.9077978
 116.2755013  26.4132047  74.4429207 116.2649250  25.7242584  75.1073551
 116.6042614  25.9808135  73.6547661  99.2536163  65.5710459  26.5423107
  99.8656845  65.2516556  27.2053337  98.6971378  64.8170996  26.3470531
 120.7109165  51.6482925  86.8296719 120.9315109  51.6300154  87.7609253
 120.7164574  50.7286835  86.5641212 109.0630913  49.3966198  34.6702147
 109.0216827  50.0467587  35.3715277 109.8325539  48.8671589  34.8795724
  98.9932060  76.3346577  38.3048415  98.4302902  76.3584661  39.0786552
  99.6300697  75.6452990  38.4930682 102.6636505  42.8295088  50.1466370
 102.6595879  41.8906212  49.9603367 103.4528732  42.9662848  50.6707096
 113.1548119  48.0895853  36.3896108 112.4624348  47.6721430  36.9020414
 113.9491463  47.9561234  36.9067645 119.0583134  66.1185551  14.6109915
 118.7884712  65.5502796  15.3324306 118.9698982  67.0058393  14.9590504
  95.6485558  79.2284632  47.5516176  94.7771835  78.8324118  47.5599432
  95.6306934  79.8310089  46.8080807 117.2816944  62.2359228  28.9108396
 117.2714806  63.1710529  29.1149449 116.6784000  61.8460798  29.5435262
 116.9712257  55.8963537  48.9272833 116.6392612  56.7293549  49.2621517
 116.2471676  55.2826977  49.0513706 107.0969391  58.1234646  30.1269937
 107.3829174  59.0050173  29.8875785 106.9337940  58.1721401  31.0689282
 100.9328079  66.3154650  65.5430746 101.1227322  66.0870934  66.4530230
 101.5822506  65.8305311  65.0338697 115.0270748   7.1208829  41.6387415
 114.9719810   6.6239768  40.8224821 115.2685547   8.0056536  41.3646984
 101.0021114  48.6567736  47.2835541 100.6447506  49.1741228  46.5618324
 101.1841965  47.8002167  46.8970442  80.5208492  22.8711200  62.4418211
  81.2182522  23.5200524  62.3483181  80.1346302  23.0562520  63.2978582
  17.3123389  31.8740487  39.5920968  17.3909693  32.0254946  38.6502290
  16.3706141  31.9014525  39.7613001  92.2728539  24.2349768  52.4139071
  91.7194843  24.0718961  53.1777239  91.7865944  24.8788762  51.8989468
   4.4601374  54.9004316  43.3533335   3.9481478  54.1531563  43.6626577
   5.3500872  54.7237110  43.6582661 113.4889984  12.3413670  72.8797436
 113.4153748  11.5154243  72.4015951 113.6844349  12.9919350  72.2053576
  22.1263056  56.5150595  54.2839289  21.6034537  56.9718122  53.6249590
  21.9704180  55.5864429  54.1118670 104.7073364  21.1224580  20.6924701
 105.1020622  21.7116570  20.0496101 105.4495811  20.6576943  21.0788727
 102.1191406  70.7404661  37.1313763 101.8605709  71.0658550  36.2691140
 101.8895721  69.8113394  37.1154809 107.0768642  71.0831976  44.7500277
 107.4924183  71.4844465  43.9867830 106.5154362  71.7715788  45.1066256
 102.1772575  60.6153917  63.2044506 102.1535587  59.9959373  63.9337921
 101.8396187  61.4318943  63.5726261  13.1224948  37.6657104  56.4329147
  12.4867755  38.1363940  56.9719362  12.6400881  36.9093347  56.0991240
  13.5564261  41.7570972  50.4086256  13.0088454  41.9919538  51.1577797
  14.4533759  41.8370914  50.7331371  35.3318148  46.5616369  44.5161152
  36.1725932  46.3111544  44.1332483  35.5038195  46.6175699  45.4560709
 101.9925785  56.4254999  56.6192579 101.7236328  55.5069017  56.6103840
 102.9024315  56.4115667  56.3222742  20.0057917  47.0915127  53.8190317
  20.2106791  46.1703014  53.6589575  19.5908194  47.0982027  54.6815777
  19.2307025  54.9681664  12.5370371  18.6357813  55.4635525  11.9741023
  20.0694399  55.4225492  12.4577641   2.6803618  59.9038553  14.5124698
   3.3368140  60.4212952  14.9789000   3.0663901  59.0304232  14.4466090
  52.6220637  84.4190407  37.8625202  52.9439860  83.5650158  37.5740147
  52.3875552  84.2886925  38.7813473  30.1536303  17.4550009  28.0129766
  29.2451888  17.1563601  28.0550551  30.1063853  18.3046460  27.5746822
 119.2656994  55.4530144  29.0580177 119.4614410  56.3885641  29.1096258
 120.0186729  55.0277805  29.4684410 121.7191982  67.7121401  79.2429066
 121.4091110  66.8092632  79.1729736 121.0246944  68.1677389  79.7186422
 120.7693386  37.3049259  34.5902228 120.5072498  36.5490150  34.0647316
 121.0671616  37.9505014  33.9493108  33.7492972  34.5412350  48.2364750
  32.8643160  34.4984293  48.5987186  34.2703753  34.9537134  48.9253616
 120.3289127  59.8468304  57.5319147 120.8138752  59.6073818  58.3216715
 119.4233036  59.9426079  57.8267622 110.2858829  47.7287769  39.2535305
 111.0360146  47.8760576  39.8295951 110.5848312  47.0601702  38.6372280
  91.3361835  12.8299522  28.8271022  92.0161343  13.4855926  28.9820981
  91.7362690  12.0022941  29.0938234   7.6901465  44.3848944  18.6571515
   6.7796069  44.1663933  18.8556540   7.7298861  45.3381920  18.7338150
 110.6999969  21.3947248  69.9799681 111.2005711  21.9856453  69.4174099
 110.0919056  21.9671583  70.4476976  38.2583170  33.2755256  10.6736946
  39.0584689  33.3418679  10.1525664  37.5771456  33.0523515  10.0393188
 107.9040432  53.9372396  60.3949594 107.9551506  54.3065310  59.5133448
 108.7326527  54.1833448  60.8061361  85.3765202  41.5044546  63.2171535
  84.6085930  41.9026661  63.6269665  86.0784531  41.6240168  63.8568640
  18.3039790  46.2468433  78.9857340  17.8176909  45.4229927  79.0176964
  17.6390486  46.9104815  78.8021755  94.4851971  70.5530167  12.9679966
  93.5611153  70.4001093  13.1652892  94.5107746  70.6729507  12.0186853
   1.9413024  83.6338806   1.6740316   1.9594412  84.5661640   1.4578070
   2.2526675  83.1979370   0.8807917  81.3054562  63.1277370  32.1274304
  81.7781067  63.4701681  32.8860950  81.4752102  62.1858644  32.1446061
 114.4579029  60.2510929  25.0405383 115.2506733  60.2535391  25.5769491
 114.3023586  59.3266058  24.8472357 123.3492851  58.1525087  33.3441949
 122.6134682  57.7452946  33.8013339 122.9566383  58.8750410  32.8542900
  27.0944434  46.6439581  11.2383878  26.7229586  46.6449881  12.1205616
  27.7589827  47.3326159  11.2575412 119.8788166  29.1487813 103.7855741
 120.3641891  29.5175242 104.5235898 120.0874329  28.2147813 103.8043913
  84.6206856  53.9296150  21.6521454  84.0637398  54.6792603  21.4422011
  85.4986858  54.3006372  21.7398167  26.0380774  66.6107750  22.1814728
  25.3815108  66.6236305  21.4850664  26.8743544  66.6970730  21.7238331
  95.3943348  11.8041921  47.7739429  96.0674191  12.0476508  48.4094810
  95.1920223  12.6195407  47.3151302   7.1842604  37.0120716  94.9296971
   6.6517668  37.1394658  95.7148381   7.8044634  36.3237238  95.1700231
 117.1182156  49.8623562  18.7937856 116.3457775  50.0565434  19.3246937
 117.7709103  50.5024672  19.0774632  15.6937438  42.5309992  24.2371154
  15.4439478  43.0611563  23.4803033  14.8621970  42.2869205  24.6435356
  82.8417110  42.6693010   8.8130778  83.1179810  41.7815495   8.5854703
  82.3090935  42.9523611   8.0698252 111.0946846  30.7860208  46.9625235
 111.4172649  31.0769701  47.8154707 110.8477116  31.5934849  46.5117073
  92.5028324  28.2248521  48.9178562  92.7042770  29.1339684  49.1395807
  93.2632923  27.7298403  49.2226410  10.0796156  42.9162312 105.9245964
  10.3830367  43.6134863 106.5059807  10.7543307  42.8578568 105.2481475
 100.6260777  79.7484064  41.6815138 101.3072300  79.0836811  41.5795422
 101.0118389  80.5446339  41.3162279  78.6848927  29.1918015   5.4105562
  78.6583757  30.1312971   5.2292299  79.6178818  28.9835453   5.4594415
 117.5750446  72.9839277  32.6571298 117.2227478  72.2858191  32.1050787
 117.5706482  72.6158333  33.5407138  13.2114344  76.7017794  39.7981143
  13.9157897  76.1434841  40.1273966  13.5646468  77.5897980  39.8519683
  13.2802516  38.8629675  28.8537407  13.2578593  39.2970681  28.0009294
  13.8132792  38.0809212  28.7104988 109.9084949  32.3694873 108.9375266
 110.2370548  32.2852492 109.8326159 109.5621777  31.5023446 108.7269121
  95.0329971  74.2618036  41.4962101  95.8193493  73.7552118  41.2931347
  95.2817154  75.1697874  41.3231897  13.7998896  47.8836966  47.4130297
  13.4910803  47.3642397  46.6707134  13.6953860  48.7920189  47.1297312
  77.6387119  26.4451337   0.5141846  78.0727959  25.7228756   0.0601497
  76.7360878  26.1479354   0.6289415  29.1423159  40.1210833  35.8907247
  28.9993983  40.6064558  36.7032647  28.2751589  39.7939277  35.6514740
   9.7469168  30.8960390  26.5706563  10.4241877  31.4318609  26.9834948
  10.2308302  30.2051902  26.1181188   5.5081206  51.0115814  39.8890567
   6.0214835  50.4720306  40.4903698   5.0964480  51.6693687  40.4494715
   7.4081069  35.9420800  25.2123117   6.5664511  36.0457587  24.7683454
   7.3056346  35.1485038  25.7376409 116.6370773  42.9270363  24.7630382
 117.1934891  42.2045040  25.0538731 116.9913292  43.6965322  25.2087045
 109.6350384  74.2425346  41.0096121 108.8065815  74.3673849  41.4725399
 109.9544239  73.3934212  41.3149452   4.0035754  76.5684891  25.4357529
   3.9412718  75.6421089  25.6685066   4.4971686  76.9633722  26.1545491
 121.4054108  55.3917503  47.4990368 121.3586044  55.0910044  46.5915155
 120.5411243  55.7647085  47.6726484 111.0973549  75.3947926  92.0024463
 111.8426323  74.7965145  92.0559486 110.3331566  74.8400068  92.1587630
 115.2555180  50.9361649   2.4616009 115.9539032  50.6090164   1.8946204
 114.8855209  51.6775894   1.9824068 114.6167564  48.0755949  47.5654745
 113.8229942  47.5488091  47.4723482 114.3068886  48.9810562  47.5465393
 101.4450073  86.0650539   3.1091964 101.6348362  85.3662968   2.4831535
 100.4949856  86.1737919   3.0659604  82.5073910  91.8981552  46.0841608
  81.6405392  91.8657970  46.4888144  82.4090767  91.4081287  45.2678013
   2.2780352  22.6314783  27.7116060   2.3201781  23.5812974  27.6006985
   2.0692568  22.5074840  28.6374950  77.2481394  50.8469248   2.7137104
  76.3205862  50.6205893   2.7818739  77.7081251  50.0718164   3.0359733
 107.3760414  65.9674883  45.1180983 107.0417118  66.7021418  45.6326294
 108.0976868  66.3391256  44.6108103 106.2881470  55.8056879  34.4616342
 106.5648556  55.1015806  35.0480604 106.1291027  56.5510845  35.0407076
  48.0766039  32.9920864  14.5191932  47.1315890  32.8928661  14.4036198
  48.4599619  32.3610377  13.9100575 110.4200840  68.3054113  23.9177918
 111.2166023  68.8144398  24.0683937 109.7093964  68.8875818  24.1865587
  98.2690620  67.8005028  17.5447667  98.8317871  67.5196314  18.2663488
  97.9649162  68.6706114  17.8029168 114.5704937  58.3923149  54.6885538
 114.2803669  59.1755152  55.1561546 113.7643337  58.0037451  54.3489075
  97.5740528  47.8462934  26.1800098  97.2382736  47.9783821  25.2934217
  97.1740723  48.5473680  26.6945362 112.8541851  93.3063412  14.0777349
 112.4360847  92.4473953  14.0173888 113.4295177  93.3468723  13.3138108
 116.2561131  45.4385853  56.4616776 117.1188641  45.0434351  56.5871191
 116.4360142  46.2757206  56.0337973 121.9109440  40.6666517  10.9272075
 121.4156818  41.0464430  11.6529489 122.6389980  41.2729406  10.7908714
 112.9207230  47.0559597   6.7461354 112.2689629  46.9057703   7.4308830
 113.3168221  46.1969137   6.5999132  90.2648640  27.5422907  47.3095417
  89.4991684  27.8017449  47.8220129  91.0068798  27.6905441  47.8957748
  10.3604155  94.6626282  32.3976469  10.2446585  95.5177593  31.9834256
  11.1959010  94.7314358  32.8596759 108.0336761  58.9719534   0.9743009
 108.6551857  58.5948038   1.5969725 107.2049046  59.0031147   1.4522067
   6.2119227  50.9078979  21.4999557   6.9959002  51.1709404  21.9820404
   6.5177851  50.7667732  20.6039858 114.1351032  47.2784567  40.6783104
 114.8296356  47.8867435  40.4256535 114.4468307  46.8839312  41.4928055
 114.9878883  22.7275777  54.2413664 114.1959763  23.2581758  54.1543150
 115.1780796  22.7332640  55.1794624  93.3993626  63.7867212  44.1427088
  92.8148270  64.0573215  43.4346628  92.9699802  63.0235815  44.5293331
 105.1002216  10.5900943  49.9463224 105.5892181   9.8700345  49.5480394
 104.1851044  10.3134835  49.8984909 111.0770893  45.8342314  19.5044768
 110.1271534  45.9427500  19.5499551 111.3869953  46.0677528  20.3794956
 112.1325493  66.3159275  39.1650414 111.7824173  67.1467590  39.4865298
 113.0756664  66.3790369  39.3159723 118.0307484  37.9334617  55.0469685
 118.0475330  38.7343192  54.5229626 118.4377766  37.2723317  54.4870806
  82.8681755  36.8502951  20.0930429  82.3512173  36.4360118  20.7839465
  82.5179005  37.7390075  20.0320148 103.6838055  41.8912792  80.6984901
 103.3914471  42.7336359  80.3503704 104.6302509  41.8884802  80.5554390
 119.0983868  41.0421133  43.5345459 119.5701885  40.3909063  44.0537453
 119.7819424  41.6226959  43.2000208  23.2876044  76.1092710  93.3580705
  23.7670832  76.7089128  92.7864488  23.9669448  75.6774712  93.8760217
  84.8749256  61.9549370  16.0730195  84.2840767  61.2151432  15.9322143
  85.1972389  61.8373299  16.9666159  26.9731742  95.7513237   3.4792313
  27.4171954  96.2728882   2.8106183  26.2885981  95.2825928   3.0018565
  77.9664183  62.7776384  73.6319399  78.3085728  63.6329699  73.3719873
  77.1562004  62.6815796  73.1313944  85.2489090  11.3470554  17.3492575
  86.2042904  11.2951851  17.3212874  85.0108910  11.8146110  16.5486526
 116.6849136  36.3829565  36.8086720 115.7683563  36.4078736  37.0835018
 117.1600437  36.8123126  37.5201058 101.0224056  20.0384378  41.1194944
 101.2896442  19.7290194  40.2540016 101.5863609  20.7931256  41.2887144
  79.8016357  53.5964727  82.4254036  80.7060623  53.8674068  82.5830173
  79.8034191  52.6524067  82.5834179   9.0484648  57.7793694  35.4556489
   9.4668227  57.3587322  36.2068272   8.4649783  58.4328365  35.8413386
  13.4024363  14.1295278  24.5039654  12.9951125  13.3413804  24.8633313
  12.6867991  14.7622228  24.4424629  87.5872135  37.8822088  48.0025673
  88.0602837  38.5838771  47.5552464  87.5402546  38.1686234  48.9147043
 123.1406212  44.6646309  48.2641029 122.2313976  44.4442415  48.0616808
 123.2022667  44.5769358  49.2152834 122.9668808  63.0415392  25.2191186
 122.7418137  62.4323082  25.9222627 123.0502605  63.8897943  25.6547117
 123.8985252  75.0969887  32.6865220 124.7725582  75.2340031  33.0519438
 123.3233261  75.6305504  33.2348704   1.6864710  54.8062038  20.3833079
   1.5266924  55.6341553  19.9303150   2.0218688  55.0638437  21.2420058
 113.8256836  36.3905478  53.3542061 113.5539722  36.6772580  52.4823093
 113.0054760  36.2639523  53.8311338  12.1926718  51.5184593   4.1662928
  11.8681746  51.8734550   4.9938905  11.4650183  51.6326857   3.5549742
  13.3847838  47.1041155  16.8683088  13.2899123  46.2019014  16.5629458
  12.6170092  47.5570059  16.5195429   8.5789996  45.0536251  14.9009788
   8.4639292  44.1669559  14.5592022   9.4873267  45.0783062  15.2019155
  98.4224319  82.7102184  31.5461183  98.2669353  82.4765778  30.6309891
  99.2228794  83.2347584  31.5267062 118.3733177  79.3721581  27.2838211
 117.7073669  79.2458010  26.6079760 119.0616131  79.8768330  26.8504667
 115.2541161 134.1131181  40.6423950 116.2068462 134.1618557  40.5639029
 114.9939919 133.4554023  39.9974322 103.7703323  58.1791687   1.0805408
 104.5527649  57.9812002   1.5951593 103.4637642  57.3261356   0.7730049
  73.1919479  26.2974548  26.1112452  72.5708485  26.8821859  26.5454769
  72.6478481  25.6024432  25.7409191  18.0699473  41.5551186  28.6823344
  18.5760623  40.9365416  29.2090654  17.2433978  41.6521502  29.1552329
  94.4253731  64.0504217  22.5810623  95.2664089  64.4617176  22.3817778
  94.5839977  63.1133747  22.4669933 108.6708069  13.0207610  24.4641328
 109.1889858  12.4337745  23.9135313 108.9446545  13.8995194  24.2014146
 116.5527916  54.1532612   2.3499244 116.8516636  55.0116014   2.0496678
 116.7786598  54.1328192   3.2798696  95.0377846  55.3759861   4.0738103
  94.5651627  55.0374603   4.8342502  95.0776386  54.6361637   3.4677535
  96.0476685  51.7127705  39.8916674  95.5714798  51.2195730  40.5596685
  95.4992676  51.6481352  39.1098070  76.1622095  91.9348907  30.1158309
  76.4594984  92.2068596  30.9840965  76.1081457  90.9807110  30.1691699
 102.0274830  23.1467319  57.1497011 101.4811516  22.6750708  56.5209770
 102.9011440  23.1421232  56.7586374  14.4461947  26.5461588  32.7767587
  14.0800124  27.2709250  33.2835650  14.6783476  25.8886075  33.4324741
  91.5207195   6.7731380  45.3753042  92.1575642   6.1925054  44.9587488
  91.5357494   7.5674862  44.8414326 106.4684486  49.1508818  59.9359703
 106.5401554  49.4729280  60.8345127 106.8853569  49.8290777  59.4044876
   9.4932299  24.8724532  52.5679111  10.0103694  24.3014097  53.1359911
  10.1435500  25.3828645  52.0854187 109.3460083  63.3510399  22.6929021
 108.9607716  63.7242126  21.9000816 110.1368999  63.8692856  22.8417015
 107.1172714  15.8287859  18.7085080 107.4355793  15.7309902  17.8110969
 107.9081535  15.8043540  19.2471611 101.7656612  40.6485462 104.6069595
 102.6437950  40.9382439 104.3595954 101.4571285  41.3158131 105.2199777
   9.2453127  45.9304190  39.3105817   9.0130740  45.4706049  38.5038185
   8.9702826  46.8345690  39.1586113 122.0628548  58.8977289  97.0864876
 122.2000122  57.9928970  96.8059572 121.6842937  59.3309069  96.3214513
 114.4973755 102.9127789  79.1935452 114.8638535 102.1463776  79.6346220
 114.3799114 103.5573483  79.8913678   1.6567259  38.3128190 102.8718909
   0.8379584  38.3556890 102.3779174   2.1408778  39.0929246 102.6012173
 121.8347168  83.1690788  26.4571357 122.0134926  82.4811935  27.0983052
 121.4977455  83.8990116  26.9766355 114.3407059  51.0138035  66.4562321
 114.0154171  51.8901825  66.2503862 113.7100124  50.4218245  66.0463428
   7.3774367  62.9829550  71.2747908   6.8928462  63.5097170  71.9103336
   7.0355445  63.2591343  70.4244614  17.8821402  60.6830788  29.8938632
  18.6996680  60.2311134  29.6850514  17.2822409  60.4292488  29.1924906
  37.3288851  48.4615898  69.0949392  38.2267886  48.7656355  69.2274952
  36.7842608  49.2112160  69.3350935 100.2243042  61.0244131  38.2220459
  99.3080235  61.2129211  38.4248352 100.5601120  61.8401670  37.8505516
 117.2464657  38.3312488  18.4617829 117.1916580  37.3907566  18.2923758
 118.0053806  38.4271502  19.0371716 107.9908180  70.5945683  17.2669947
 107.7176476  69.8202944  16.7749548 107.2559166  70.7780409  17.8522241
 100.3624916  37.3127151  56.6282701  99.4118309  37.2945213  56.7384529
 100.5384350  36.6536570  55.9567642   8.0323821  69.6908236  32.6421118
   8.2706385  70.4764366  33.1343365   7.1472483  69.8672009  32.3232865
  97.6814938  90.3133392  22.2069955  97.5520134  90.4297161  23.1482315
  98.3823204  89.6648121  22.1400189  74.8022890  47.8803349  48.1842804
  74.4521141  48.7325525  48.4437656  74.2526007  47.6093340  47.4490070
  84.1262913   9.5541632  37.8037834  84.1448975  10.1021957  38.5883498
  84.7958088   8.8883340  37.9607844   2.9840689  45.2014494  17.2032320
   3.0209666  44.2949390  17.5083780   3.8491469  45.3627968  16.8266284
  87.5639153  54.0229416  11.8014526  86.6164112  54.0372181  11.6663277
  87.7593708  54.8631144  12.2163486 110.3332233  48.8679075  24.2655325
 110.8876514  49.0398502  23.5044289 110.8750057  48.3257771  24.8389411
 109.9392319  27.0547366  75.4294586 109.5018864  26.8229961  74.6101522
 109.2374134  27.3845601  75.9906197  91.8095398  50.2761078  41.8180704
  92.6596260  49.8434210  41.7382002  91.7135048  50.7678270  41.0024595
 108.5131168  30.4601884  87.2037220 108.8514042  29.6075082  87.4770832
 109.2577076  31.0544038  87.2970963 106.1022568  27.3938680  24.4436169
 107.0501423  27.4287438  24.5721865 105.9569263  26.5861106  23.9510345
  90.2340031  51.1846542  15.5300975  90.9444237  50.8142424  15.0063336
  89.7449684  51.7330742  14.9166536  19.5639735  69.3612337  88.1921768
  19.7422152  68.8492393  87.4032974  20.4171782  69.7115374  88.4482098
 123.7663174  38.5980892  43.4092331 123.5484505  38.3332682  44.3028975
 124.0751743  39.4999981  43.4952545  22.1172743  59.8055696  17.1864212
  22.3338442  58.8927650  17.3764789  22.9529887  60.2680540  17.2490835
  83.4408951  40.4616976  11.4038515  83.4509850  40.5171728  10.4483140
  82.9388523  39.6688437  11.5924501  17.1718817  29.1274476  52.3185253
  17.0722704  28.7936306  53.2100821  16.2753516  29.2241502  51.9974232
 117.3322487  40.1238680   8.8685715 116.5565205  40.5373430   8.4897321
 117.7807236  40.8329535   9.3293351 110.1347256  36.7625570  36.2169385
 111.0384846  36.4739633  36.0897422 110.2065563  37.5344086  36.7784691
   8.6313372  90.9562969  52.5892925   8.7320834  90.0048637  52.5600338
   9.0434104  91.2155437  53.4134388 100.5583477  64.0873528  34.1572070
  99.9779510  64.8312140  34.3186092 101.2132549  64.1390896  34.8533773
 117.6504993  71.0394478  26.5875769 118.0513096  71.2410688  27.4331117
 118.3898258  70.9608030  25.9847164  91.5342903  26.2691331 103.2698967
  91.3309860  25.5335355 102.6921471  90.7312584  26.4084983 103.7718483
  75.9311199  24.0423393 103.0973031  75.0212097  24.2716217 103.2863178
  76.2644100  24.7828484 102.5905528  98.1018543  49.6477032  11.6756713
  97.5286961  49.3190908  12.3683000  98.4351158  48.8596487  11.2465632
  86.9138432  43.9362097  31.4343667  87.3199177  43.4985399  32.1825504
  86.0188198  44.1187096  31.7204714  88.0255318  69.9918079  34.9655247
  88.6729622  70.0983429  34.2685938  88.4290791  69.3736935  35.5748820
 113.2956409  86.8623924  21.5851235 112.7478695  87.6420689  21.4941764
 113.6364746  86.9119740  22.4782109   9.9959117  48.0423498  43.6312866
   9.1693240  47.7052593  43.2858133  10.0093871  47.7540684  44.5439434
  11.9496852  67.1727753  32.7326727  12.3748046  67.5755262  33.4898376
  11.0144930  67.2154665  32.9322457  94.6773148  44.3338203  59.7986078
  95.2692032  43.6003113  59.9655294  94.3940449  44.6157312  60.6683874
 103.9944077  37.9085422  76.3989735 104.5070362  37.9267550  75.5908251
 103.7116051  36.9979167  76.4827442 121.6266918  60.5085754  26.0434985
 121.1501122  60.3558302  25.2275491 122.2700596  59.8008394  26.0811806
 118.3169365   4.9612504  29.1741681 118.6603069   4.9306944  30.0671387
 118.9120770   5.5489373  28.7086916 103.4884453  43.6731243  32.2440434
 104.2876911  44.1987610  32.2778964 103.7779808  42.7836561  32.4471450
 106.4440823  33.0622363  40.9321404 105.7161331  33.2977009  40.3569221
 107.2275448  33.3036375  40.4380322 120.0907326  46.1155558  46.2083292
 119.6662998  46.9439602  46.4315701 119.6723938  45.8446932  45.3911018
  21.8843680  74.6849966  40.8022690  21.4831095  75.5247307  40.5785036
  22.4843627  74.5057678  40.0783014   7.8411227  25.8222675  58.3073807
   7.6923304  26.6934538  57.9397821   8.4095316  25.3878522  57.6714373
  28.5667925  42.0973969  11.7969263  28.7687903  42.8533792  11.2456405
  27.6103812  42.0633554  11.8156743   3.5243445  55.6748962  40.6014347
   4.0972548  56.3761044  40.2910995   3.5713893  55.7318687  41.5557766
  96.0533142  90.9563923  40.6623077  96.3719654  90.1082230  40.9710312
  96.6211605  91.1705971  39.9221039   3.1296855  51.7616653  25.9948039
   3.7787085  52.4631119  25.9401846   3.6251956  50.9997368  26.2950921
 113.9567661  20.0558162  62.3891163 113.5749054  19.6484745  63.1666040
 114.7929478  20.4107499  62.6908827  42.7799349  40.6794786  58.1020975
  43.0120974  39.7522974  58.0504751  42.2825938  40.8467865  57.3015404
 112.2093487  71.0899782  45.8246946 112.9194546  70.8146095  46.4044905
 112.4680710  70.7700253  44.9604464   8.7342196  44.5949459   9.3904924
   8.7729960  44.2001104   8.5193819   7.8046446  44.5814419   9.6184099
  30.1957350  62.8235245  20.0261855  30.4396945  63.3429527  20.7922840
  29.2739230  62.6074791  20.1669550 106.6077518  30.3576851  51.4036846
 105.6935120  30.4363465  51.1312819 106.9712162  29.6827030  50.8305168
 100.1653385  60.2744055  19.5604670 101.0335350  60.5145931  19.2367804
  99.5578575  60.7175970  18.9682055 111.2883663  59.6583700  43.2405901
 111.5463543  58.7513685  43.0762196 111.3307285  60.0788403  42.3817301
 118.0449581  70.7879257   8.4378380 118.9001369  70.4139948   8.2255077
 118.0046749  71.5977526   7.9291254  43.5945445 142.3708869  35.2922511
  42.7191477 142.4770204  34.9199200  43.4929209 141.6840331  35.9511399
 114.0837288  23.4676194  74.3476685 113.6927319  24.3175840  74.1454037
 114.9826241  23.5347629  74.0256413   8.2753783  68.0838919   6.0318857
   8.2728892  68.6776257   6.7826861   9.1228419  68.2319927   5.6122291
 105.1074409  69.7647715 104.2241021 105.3570747  70.2927065 104.9825203
 105.6817722  70.0686598 103.5212334   8.9980345  37.7082324  16.8382764
   9.7350722  37.2223020  16.4683115   8.3047801  37.0552611  16.9345045
  47.8567629  34.6431804  54.9512672  48.6741000  34.6799612  55.4481173
  47.2977381  34.0501928  55.4533434 107.6464939  44.3675900  63.2194185
 108.1599903  44.1656494  64.0015793 107.9820347  45.2141809  62.9245949
 121.1322975  64.3746185  23.5773516 121.6168594  63.7888670  24.1590118
 120.4665565  63.8163710  23.1756425 108.6188793  46.9950724  20.0158811
 107.8730583  47.3030186  19.5009530 108.2294655  46.6532564  20.8207107
  99.7137165  25.2387476  78.6494350 100.2719212  25.0745010  77.8893995
  99.9042892  26.1439562  78.8954258   9.2892008  17.4809551 106.8257447
   9.4010954  16.8576205 106.1079940  10.1174765  17.4464142 107.3042814
   5.1091033  27.9749060   0.9163691   5.6752425  27.8931475   0.1488809
   5.4255324  28.7590456   1.3649614  81.9008350  70.3919888  12.0120084
  81.6022682  69.8987722  12.7760899  82.6891518  70.8444834  12.3120880
  24.6396571  45.3368807  20.7027507  24.3575316  45.7644987  21.5113187
  25.3129225  44.7165203  20.9822083 104.2800522  75.8503866  19.0171099
 104.0321064  74.9620676  19.2733181 105.1705551  75.9564352  19.3517613
 106.9280434  27.7599335  14.1279042 106.0496140  27.7334571  13.7485862
 106.9345856  28.5544467  14.6617031 124.2284584  44.9640465   3.6268789
 124.8620224  45.1219273   2.9269478 123.4426212  44.6580124   3.1740719
   0.7506590  47.2732162  63.5951281   1.0784751  47.2179174  62.6975107
   0.8673220  46.3909149  63.9475012 116.9052219  74.1678095  99.6142253
 117.4687290  73.8429070  98.9119919 116.7751026  73.4114313 100.1862373
 123.0819035  29.4983125  52.0021677 123.7775040  28.8411069  51.9807768
 122.5329208  29.2419815  52.7432108   5.1103812  45.8365250 100.0484266
   4.8632937  46.6971064  99.7099277   5.9418707  45.9858894 100.4984852
 122.9976940  26.2621236  13.7635362 123.8263702  25.7924032  13.6692679
 122.3823166  25.7744193  13.2161009   4.6123915  30.1458430 101.5406438
   4.5951491  30.5417037 102.4119821   5.3960543  30.5089998 101.1280581
 109.8085403  19.2221999  16.8638253 110.7282257  18.9832032  16.9791269
 109.4824409  19.3559444  17.7537704  11.8941146  14.7027481  19.9084592
  11.4634066  13.9821661  19.4485903  12.1132880  15.3297651  19.2192256
 110.6555176  44.7487974  23.4094429 109.8624802  45.2837753  23.3758855
 111.2855625  45.2200222  22.8642631  84.0523911  61.3872671  26.2294006
  84.2168140  60.6262159  26.7861724  83.7621212  61.0162115  25.3961563
  96.7142773  67.2824574  24.0006137  95.8111191  67.1549702  24.2909384
  97.2136974  67.3870134  24.8104763  11.3878089  21.5456319 101.3431164
  10.6517726  21.2030196 100.8360788  10.9795313  22.0353460 102.0570579
 111.1029625  42.6869726  67.5584936 111.8735218  43.1998110  67.3146200
 110.4172897  42.9862261  66.9613886  99.7532177  24.4522047   7.3583966
  99.3915558  23.6255407   7.6778638  99.5226669  24.4714570   6.4295769
  20.6861621  42.0126057  16.5391731  21.5669089  41.6472197  16.4554834
  20.1035243  41.2868690  16.3154006  16.4783507  44.5052862   1.9283417
  17.0032721  44.9242640   1.2463200  16.0744696  43.7547922   1.4926016
  12.8516894  71.6512299  39.0455604  12.3392325  71.7269325  39.8504758
  12.8515082  70.7144880  38.8487220  14.3571978  49.2992783  86.7665847
  14.6029597  49.9587011  86.1177405  15.1604586  48.8012028  86.9179782
  10.6963664  41.1208010  32.7126002   9.7589140  40.9506178  32.6206565
  10.7720118  41.6079473  33.5330868  29.1976767  54.5528173  81.3514861
  29.5015078  55.2428198  80.7617291  29.4442397  54.8581839  82.2245201
 114.4756603   4.4435209  17.9975033 114.1081429   4.3841162  18.8793361
 113.7374401   4.7057855  17.4475205 104.7432804  73.2774973  22.7806234
 105.4065514  73.0135441  23.4183097 105.1838970  73.9256763  22.2311163
 104.9662113  44.4228029 102.7768322 104.5615959  44.5817041 103.6296346
 105.8109570  44.0228081 102.9833194  13.0456095  57.8254938  44.8971128
  12.3700171  58.4639406  45.1255703  12.9705077  57.1468687  45.5679798
  94.8778629  80.0324345  26.6719007  95.4899311  79.5835686  27.2551012
  95.0084591  79.6150160  25.8204651 122.4474239  45.0420141  10.0711405
 122.3420048  44.7845316  10.9870112 122.8791332  45.8954287  10.1104367
  94.8301697  45.8661413  28.5739398  94.8958683  45.6569195  27.6422000
  95.3729343  45.2068329  29.0063167 106.9503117  24.9157476   9.2594141
 106.9885254  25.5710578   8.5627502 107.3276234  25.3544903  10.0218916
 104.7882938  63.0947399   1.1561241 104.2163754  63.2146120   0.3979900
 104.1934013  63.0862570   1.9059631  99.3305969  44.1974926  36.5888906
  99.0327740  44.8906612  37.1780014 100.1833534  44.4991970  36.2758374
   5.2754527  67.7357244  15.6096601   4.3186694  67.7605200  15.6229699
   5.5370455  68.1394100  16.4372134 112.1546459  43.2489061  53.8149929
 111.8398666  42.6053238  54.4497728 111.3582134  43.6252737  53.4404755
   5.3763991  25.6073713 105.2459403   5.9435015  25.1162314 104.6514615
   4.6837073  24.9899483 105.4808896 112.3813057  17.7291870  17.3926139
 111.6060925  17.8515112  17.9406226 112.4376297  16.7821622  17.2653222
  94.7000885  32.2754025   5.9959525  95.0562382  32.8799891   5.3449017
  94.8731899  31.4058208   5.6352657   7.3324137  46.2018394  12.7551806
   7.0699149  45.3540897  12.3965120   7.9949980  45.9890461  13.4124017
 106.5853024  67.8395557  13.2793796 106.1781025  68.0243063  12.4330425
 106.9166946  66.9454622  13.1956506  98.0986977  70.1827812  12.2792816
  97.5970936  70.5126810  11.5337658  97.4706078  69.6605539  12.7783012
 118.5887623  69.4453907  95.1275035 119.5118713  69.2144346  95.2311810
 118.1575012  68.6181450  94.9132391 111.2343121  80.4525089 109.3962389
 111.0621643  79.7184753 109.9859768 110.4807377  81.0319233 109.5087005
 116.8410492  74.2721462  94.6343490 115.9645748  73.8879776  94.6132430
 117.4309921  73.5201311  94.6860691  99.0534019  73.0990171  12.8939402
  99.2816734  72.2068596  13.1550527  99.2704105  73.6348057  13.6568761
 116.2452698  77.5329971 104.3598225 116.5956688  77.0586729 103.6058536
 116.3116264  78.4557676 104.1142132 109.7530556  21.4628267  75.2582463
 110.6307888  21.7572689  75.5013689 109.4041443  21.0654950  76.0561331
   3.2611018  64.7400665  93.2711240   3.9722281  64.2586660  93.6939391
   3.6211997  65.6135893  93.1177982 114.8266697  12.0575643 101.8352427
 115.6665325  12.4526715 102.0692309 114.9679184  11.1164021 101.9376829
   5.2979594  54.1812754  10.4649639   5.6155902  54.8746538  11.0433817
   4.5731955  54.5826054   9.9855006   4.1000491  39.6668434  40.1009035
   4.4171553  40.4452753  40.5588531   4.8897296  39.1569781  39.9201441
  95.3996754  71.8636847 103.1588086  95.4063988  71.3520527 102.3498478
  96.1781883  72.4173212 103.0985280   1.3593608  14.2934275  29.6552610
   0.8340865  15.0409579  29.9407673   1.2890177  14.3018854  28.7006879
 113.8108826  39.3906808  20.3940463 113.8939762  40.2413321  20.8249950
 114.6659756  39.2421532  19.9903440  11.4271575  79.6831799  99.4668885
  11.5086585  78.7332678  99.5521041  12.2139197  79.9493504  98.9910837
  24.0878134  33.3842850  30.0910044  23.2118922  33.4554648  30.4703832
  24.6798640  33.4613395  30.8391857 106.6028023  59.7809029  24.1555381
 106.8759155  59.3086529  23.3690143 106.4035511  59.0931511  24.7907782
 103.6465263  50.0712490  18.0364037 104.1643715  49.9228287  17.2451758
 104.1655254  49.6801615  18.7391961  30.5027514  44.9252748   8.6796457
  30.6667071  44.0103912   8.9084238  31.0842639  45.4236603   9.2538369
  78.7590933  60.5262232  33.2955694  78.6756134  61.4764786  33.2163548
  77.8631306  60.1994324  33.2138109 100.3764057  62.0259953 100.6357464
 101.3158131  61.9559336 100.4659578  99.9984264  61.2549257 100.2128776
  92.0627213  53.0432940  92.4147853  91.8274117  52.6062202  93.2332178
  92.8626823  53.5261393  92.6225182 113.8960552  22.2980881  45.4819354
 113.6740398  22.7156949  46.3141307 113.7737370  22.9865980  44.8283108
  74.7133160  33.8595867  15.3512836  74.5515347  34.1820502  14.4646740
  74.4902468  32.9295588  15.3123152 101.8849373  52.8390455  17.9242766
 102.0182991  53.3543968  18.7198007 101.1494541  52.2629404  18.1325865
 115.4471397  59.9353838  74.9910005 115.7946301  60.0162888  75.8792218
 115.6622982  59.0398550  74.7302850  97.4232769  39.2092156  17.2572601
  96.8797016  38.6478257  17.8100705  98.0066681  39.6564364  17.8703499
  93.1502819  30.1494169  14.8512733  94.0033436  30.3907895  14.4903696
  92.7065945  30.9850287  14.9966276  21.1370974  55.6859732   3.7403947
  20.9169989  55.8729887   2.8278080  20.7443743  56.4060163   4.2338905
  10.3709441  32.5723553  97.0816108  11.2053710  32.5422812  96.6135701
   9.8933344  31.8038487  96.7693361  25.4123622  30.3946877  36.1252880
  26.1364585  30.9898305  36.3195157  24.9543028  30.2944398  36.9597721
   5.9936267  38.6787033 106.1412903   6.5882044  38.9639378 106.8350836
   6.4519625  38.8947892 105.3292143 106.9069576  52.8391695  28.9655948
 107.1135235  53.7653637  29.0910006 105.9542370  52.8162622  28.8759685
   2.9262667  61.2695646  41.8680382   3.7477809  61.2714148  41.3767672
   2.7978831  62.1830750  42.1234703 117.7426815  59.5293999  14.1799164
 118.6601067  59.3828487  13.9494967 117.3983765  58.6546803  14.3603289
 105.4826164  43.8841248  12.2654152 106.4256477  43.7276459  12.3146999
 105.4049301  44.8143053  12.0533860   1.4076167  49.3816805  41.1206198
   2.2860938  49.6519375  41.3879585   1.4956599  48.4510946  40.9144783
 121.3873196  45.0049925  76.5729817 121.8080425  45.7699108  76.9655617
 121.5017414  44.3097925  77.2209271   0.8027964  42.6028538   8.3509833
   1.2705737  43.2203674   7.7887654   0.6637030  41.8337917   7.7983284
 114.0416241  45.5517769  18.8844359 113.2067490  45.2317047  19.2261660
 114.6291733  44.7984266  18.9433753 106.6782951  63.6506701  18.0231833
 105.8393192  63.7504053  17.5732803 106.4714241  63.7843084  18.9481568
  18.2630759 104.1775131  16.7674291  19.1197806 103.7528419  16.7233872
  18.3142500 104.8870277  16.1269629  15.7207804  18.3357501  16.6333199
  14.9277144  18.8014853  16.3680530  16.1063128  18.0319405  15.8115554
 109.4766426  66.9245195  15.4522955 110.3996372  67.1755409  15.4161310
 109.4904232  65.9909439  15.6631804  89.3213749  52.2080517  17.9641891
  89.8411655  53.0117273  17.9516065  89.3939781  51.8619013  17.0747304
 101.2202072  49.6470308  16.9426811 101.2811184  50.3825665  16.3331652
 102.0061016  49.7191286  17.4843550  92.9394150  35.2818680  28.3951068
  92.9926395  35.1144552  29.3360496  92.4968338  34.5112705  28.0393910
 122.3441315  56.6263580  95.8443471 122.2133541  56.8671608  94.9272081
 121.8382645  55.8213329  95.9550902 106.8948078  83.4822178   2.9946154
 106.3732529  83.1538582   2.2622332 106.6363716  82.9356766   3.7367320
 122.6869011  41.9639063  20.1578712 122.8588486  41.0877562  19.8128676
 123.1277943  42.5531244  19.5457709  98.7843037  60.2069950   2.0353802
  98.4083462  59.5664597   2.6392049  98.0270863  60.6012821   1.6024938
   0.6753092  96.5169144  17.0060301   0.2200728  95.8025455  17.4517560
   1.4443427  96.1032009  16.6140473 119.1131115  61.8900013  53.8693857
 119.8671436  61.3003922  53.8748932 118.6252403  61.6623116  54.6608210
   2.2728949  22.9598737  78.8334807   1.4994364  23.3939481  78.4735259
   2.0815211  22.0253205  78.7546357 123.8956451  60.6270599  93.7496909
 123.1940842  60.3908920  94.3565484 123.4478474  60.8001137  92.9215833
  35.0667506  69.7255421  24.0025663  34.5552092  69.0083313  23.6281776
  35.8312731  69.7981691  23.4311986 119.7768688  37.0608830  24.8851395
 118.9118671  37.4626637  24.8041034 120.3440857  37.6003361  24.3342400
   5.8972197  33.5227370 108.2192286   5.5417090  33.3302379 107.3515963
   5.9140521  34.4787192 108.2644671 110.7839394  66.7055941 107.7466514
 110.7802105  66.4226198 108.6610601 110.1508141  66.1314487 107.3156711
 114.7879028  32.5727272  68.3941563 114.3281651  33.4119368  68.4185370
 115.7131386  32.8083873  68.3260640   2.0962554  39.7380638  10.0070095
   2.3361331  40.6289434  10.2620077   2.7168398  39.1796017  10.4752231
  19.7469645  44.9006701 104.8085903  19.2398768  44.1224813 105.0399127
  19.9975997  45.2820683 105.6499877 110.3643322  65.0014257   2.8427804
 111.2420273  65.2922297   3.0903900 110.1942539  64.2465925   3.4062818
  84.6382713  30.8610773 106.1508607  83.8701725  31.2757874 106.5436336
  85.0544930  31.5586734 105.6445494 106.1282253  36.5167427  15.4068911
 106.7376423  36.2126327  14.7343135 105.9593201  35.7430315  15.9445465
 120.3053284  56.6664219  25.6989074 120.0327682  55.9832954  26.3115120
 121.2599945  56.6007423  25.6761694   8.2526808  20.5447388  53.6384535
   7.9133063  21.4296198  53.5041523   8.7000590  20.5855155  54.4836903
  94.1457462  35.9536648 104.8193365  94.0568352  35.2456212 104.1813692
  94.8789501  36.4770103 104.4956818  90.5716610  37.6206732  16.7545533
  90.7111645  37.8588486  15.8380151  89.6264553  37.4877810  16.8262923
 103.9127922  52.2414398 109.2855141 104.2454147  52.0373392 108.4114795
 104.2918110  51.5672684 109.8494870  85.9625530  41.8200111  44.2596531
  85.6285763  42.4289274  44.9183750  85.3527355  41.0826111  44.2840767
   1.5974265  19.1993535  40.4752779   1.1728602  18.5072780  40.9822416
   2.4544936  19.3069470  40.8876991  93.9456081  34.3964219  33.1224465
  94.6415520  35.0514364  33.1758523  93.2211018  34.7756243  33.6199665
 112.4589157  55.5229235  38.6624265 113.0117226  56.1988640  38.2703185
 112.4854088  54.7990799  38.0366635  31.4552432  32.8961802   4.9720404
  31.1615019  32.1764541   4.4135213  32.2653800  33.2011294   4.5634872
  12.1015292  42.6768398  23.8928604  12.3878508  43.5901976  23.8980246
  11.2933093  42.6820946  23.3800387   1.2487631  43.2831287  15.1845050
   1.4165907  42.3671818  15.4060972   0.7939940  43.6352110  15.9496546
 117.5398731  63.7720299  23.1100631 118.0191803  63.4685087  22.3391056
 116.7161751  63.2849789  23.0870891 124.0858173  59.8623657  18.4558523
 123.9494133  58.9666700  18.7646377 124.8257542  59.7974968  17.8520954
   0.7851534 133.7256117  99.5831414  -0.1459665 133.6199612  99.3879458
   1.1118537 132.8314728  99.6831950 117.6732635  62.4558973 107.0658010
 117.6063538  63.0946350 107.7755656 118.4349060  62.7389908 106.5598329
 116.5779495  35.6707764  17.4292469 116.2751102  35.2993393  18.2578349
 116.3463497  35.0133538  16.7732060  33.2751208  76.3208055  39.0606713
  33.1912356  75.9102821  38.2000518  33.2088786  75.5941153  39.6801567
  14.7299796  37.2918606   1.1739562  15.1998263  37.7128148   0.4540440
  15.3780966  36.7148900   1.5780319   0.4868250  66.7683458  80.4011806
   0.1972609  65.9030724  80.6904610   1.3552313  66.8726921  80.7900461
  76.7452431  59.0945053  25.8664870  77.3297977  58.9350414  26.6074967
  76.6660404  58.2430696  25.4363513 120.8301449  68.0780983  95.3020760
 121.7517185  67.9642677  95.5344089 120.4018307  67.2857475  95.6260463
 101.1509228  84.3006039 107.2502755 100.3141499  84.7454834 107.1156525
 100.9975910  83.4054089 106.9480484  89.6660042 141.8966649  48.2003069
  89.2359543 142.6085479  48.6741352  89.0204048 141.1900038  48.1922054
  75.3860903  55.0775385  33.4298420  75.9511375  54.3070650  33.3721828
  74.7573328  54.8624182  34.1187692  85.3923512  75.6098509  18.0559993
  84.7400379  76.3035297  18.1535971  84.9334049  74.8111582  18.3161652
  19.4389468  36.6544747  39.9194646  19.5760565  35.8004308  39.5095348
  18.7015086  37.0339274  39.4415331 102.1514225  40.1227093   3.7108287
 102.6050186  39.3260241   3.4355497 102.1432590  40.6757641   2.9296151
  12.6054698  77.8701448  23.6795020  12.5976878  77.0745897  23.1472754
  11.9345790  77.7194071  24.3453932  85.4267883  67.8276205 104.5855161
  85.2814579  66.8869972 104.6872111  86.2680435  67.9876232 105.0132059
 111.0334682  84.2290783  82.1604022 111.6571140  83.9494419  81.4902481
 110.6679058  83.4133434  82.5026926 108.3388042  14.4272649   0.9553871
 108.6062050  15.1910162   1.4666706 109.1311646  13.8944161   0.8885432
  19.5068961   5.8680838   4.5033705  20.4556971   5.9916437   4.5304203
  19.2310553   6.3069063   3.6986461 117.7646542  79.4261408  24.5364904
 117.2832584  80.1951218  24.2312551 118.4396172  79.2868710  23.8722181
 102.4132919  80.3338814  39.4454551 102.7488327  79.5938587  39.9514318
 102.8676224  81.0956955  39.8052478  48.6189204  34.1963077  38.4461951
  48.1081324  34.3644547  39.2380643  48.2849246  33.3612394  38.1185603
 122.8404808  54.7406387  32.9356027 122.5206566  55.4701090  33.4664750
 123.4454536  54.2727232  33.5111785  99.4464493   7.0234227  13.4571731
 100.1468372   6.7600507  12.8602386  99.2431450   7.9242212  13.2052577
  86.5547085  58.1244087  11.6680181  87.0524502  58.3411932  10.8796763
  87.0908737  57.4713659  12.1177840  26.0679560  38.6767983  26.0085392
  25.4788142  38.1207609  26.5184093  26.5500002  38.0665851  25.4504156
 121.5210629  54.1546965  17.0828009 121.0381794  53.7143707  16.3833964
 122.3075294  54.4929171  16.6546619  24.6498519  30.7420397   6.6853547
  25.4999953  31.1348319   6.4873296  24.4853812  30.1459789   5.9546757
 117.8572464  33.7594271  86.0313901 117.3020172  32.9866743  86.1353525
 117.4033928  34.2946219  85.3803786  87.1062660  43.5808086  48.5679293
  87.1247387  44.4318104  49.0057516  87.7572060  43.6562395  47.8702068
  79.6322823  54.4757605  10.1007748  78.8112020  54.1333771  10.4540908
  79.5917559  55.4170370  10.2698600  92.2429943  15.7388747  90.8734294
  91.5645981  16.2802887  91.2770220  92.7761078  15.4356122  91.6083094
  20.1278239 145.4049914   8.2195979  19.6173888 145.9333436   8.8332206
  20.9798842 145.8394120   8.1806970  76.4182949   9.9217910  35.0375485
  76.2739706  10.7431734  35.5073690  75.5668068   9.7127360  34.6534944
  99.7379112  67.0727634 101.9383552 100.0825119  66.9797897 102.8265210
  98.7917042  67.1566820 102.0561352  23.0961352  52.6500702 106.6517644
  23.4764224  52.6165485 105.7739862  22.1546488  52.7357578 106.5017932
 105.8018494  46.7519236 104.1421112 106.5889359  47.2807980 104.0116414
 106.0936451  46.0173607 104.6820238 116.8628025  52.4516106  78.6676224
 116.4679623  53.2290983  79.0623983 117.5462818  52.7957964  78.0926260
 120.9584427  10.4103553   2.6338586 120.8495617  11.3438797   2.4524456
 121.2165928  10.0315797   1.7935491   1.8866568  52.9054832 103.4293672
   2.5842028  52.4521780 102.9558929   1.6793757  52.3262930 104.1627159
 115.3713512  81.0527039  17.3684359 114.7867012  81.3053131  16.6538703
 116.1843681  81.5258598  17.1913421 117.2833824  45.5000973  19.4152653
 117.0685482  44.5712042  19.5003164 118.1343460  45.5893850  19.8443615
   1.1714392  31.9915795  95.1583930   2.1252375  32.0232296  95.2325376
   0.9125929  32.9007554  95.0079545 117.7882385  74.2091513  39.4955325
 117.9623508  73.3048868  39.2343402 118.6063957  74.6722221  39.3154716
  96.0815716  12.9456604  34.4923520  97.0339298  13.0101752  34.4210911
  95.9354305  12.4122334  35.2735877   2.9990893  10.8278024  80.3225899
   2.6934844  11.1047733  79.4588089   3.8317137  10.3874195  80.1522160
 110.4038429  33.4122968  91.2799549 110.4050922  32.5875092  90.7942009
 111.2142563  33.3917403  91.7889118 103.0736351  17.7461493   8.1092969
 102.7812004  18.6374676   7.9188672 103.0851460  17.6969290   9.0651647
  12.0385199  31.1908650  79.9184179  12.7484541  31.5360308  80.4597950
  12.4154978  30.4218936  79.4908667 119.5010662  35.0129271  79.5303011
 119.8387814  34.1553879  79.7887754 118.9061069  35.2594209  80.2384663
  92.6050282   7.5855625  70.0069618  92.6213741   8.5400712  69.9371290
  93.3624172   7.3722792  70.5520344 108.4400845  17.4016929 105.8505535
 109.0924931  16.9114172 105.3503227 108.9518166  17.9004669 106.4874077
 101.6017532  39.8740745  83.3389282 101.4932632  40.7778072  83.6351204
 100.8018589  39.4314098  83.6225605 104.4628716 145.6217007 100.9874535
 103.9632702 144.9714794 101.4812565 103.8294220 146.3119637 100.7912064
 101.4649773  27.9282022  94.4271851 101.5873528  27.0432663  94.7709084
 100.9113026  27.8108668  93.6552334 103.4835243  24.1014767   2.7666322
 103.6706448  24.4695592   1.9030801 104.3454552  23.9525604   3.1554071
 109.4383717  44.8261642   6.6799108 109.7639084  44.6779919   5.7920495
 108.9427090  45.6428432   6.6200963   3.9776068  15.4363215 104.3183613
   4.5211630  16.2009144 104.5085716   3.0850916  15.7227314 104.5123005
 113.1033325 137.5422049  75.7933855 112.4653053 138.2214136  75.5746794
 112.6851940 137.0362062  76.4900589   7.9603034  12.0115530  89.5254803
   8.3864527  11.8591976  90.3689384   8.6172705  11.7601144  88.8763237
  78.1997347  42.7462816  85.5027580  77.3423338  43.1636620  85.4197502
  78.0143023  41.8080759  85.4625511  27.8149920  49.2851114   4.2935125
  26.8962317  49.5431900   4.3677274  28.3028155  50.1008558   4.4067518
 110.5743694  42.0873165  80.1738358 110.5136013  41.1829758  79.8660946
 110.8670712  42.5816870  79.4082260  94.0893555  36.5700626 107.3588848
  93.9815998  37.5002098 107.5575066  93.9515305  36.5094662 106.4136028
 104.0842342 119.9964304  70.3242683 103.4870243 120.0820536  69.5811415
 103.9124870 120.7708330  70.8600283 105.3085423  10.0464952 100.2491951
 105.6550407  10.8799636 100.5677986 104.7026539   9.7617906 100.9333515
 101.8199348  28.8464451   6.3072053 101.7739201  27.9776073   5.9081594
 101.0270691  29.2904425   6.0064355  18.2012206  11.6250849  94.8052788
  18.1470042  11.1627853  95.6416798  19.0209704  12.1166837  94.8560333
   5.5381613  60.9967899  82.5359344   5.3221732  60.0881004  82.7453804
   6.2958556  60.9349298  81.9542980   1.5629321  35.5509210 100.0956440
   1.3402777  36.4119673  99.7417259   2.3158484  35.2664065  99.5775700
 101.4083481  31.4810562  36.1993352 101.4596272  31.8014097  35.2987901
 100.9295559  32.1636581  36.6694776 113.2986927  17.5435710  74.5861530
 112.6714993  18.2534981  74.4487715 112.9718494  16.8266952  74.0425539
 123.4555531  47.9227638  75.6987238 123.8819504  48.2768106  74.9182987
 123.7149620  47.0015526  75.7163095 124.4702721  39.1717482  22.0220701
 123.6103916  38.7516069  22.0045987 124.3896103  39.8548508  22.6877157
 114.0960407 143.5701770  65.2269030 114.0813732 142.7462489  65.7138920
 113.5412693 143.4074078  64.4640350 116.4714432   3.9181992  59.4819164
 116.9171619   3.5188621  58.7348604 116.6576767   3.3304459  60.2140999
  77.3796082  38.4734416  70.1548624  77.4202585  39.4297576  70.1609230
  77.0307970  38.2540107  69.2909098 113.9249039   9.4985521  27.4858037
 114.5336628   8.7772214  27.6449243 114.4870472  10.2451932  27.2790471
  17.9056864   9.9676698  92.5738811  18.4881621  10.3410637  91.9124222
  17.9161006  10.6040025  93.2888603  29.9148017   9.0998298   9.6187059
  29.3266802   9.7785532   9.9498788  29.4350081   8.7003148   8.8931600
  11.8062907  32.0604348  89.9341583  11.5420180  31.3341379  90.4988575
  10.9984618  32.3305035  89.4974709 123.7846565  42.2650719 104.2695427
 122.9675865  42.2948456 104.7672653 123.5822582  41.7198515 103.5092735
  17.6857787  62.0381641  61.4014959  18.4827452  61.8674612  60.8995676
  17.5635367  62.9856539  61.3419247 107.1703720  48.2593966  96.0130215
 106.3629341  47.7987909  96.2413216 107.3698711  47.9666567  95.1237869
  89.8262501  27.0787978   3.3203832  89.3918991  27.9312992   3.3490125
  90.7235050  27.2760463   3.0515806 111.9795799 144.4348390 108.3028126
 112.2305679 144.8799642 109.1121960 111.0269833 144.5215478 108.2672691
  19.0171557  20.0129151  17.9881707  19.3558817  19.9018586  18.8765279
  18.5068636  20.8218765  18.0258027 107.7094555  39.8328972  31.0801545
 108.5379124  39.4273353  30.8243791 107.7605152  40.7226849  30.7310048
  15.9535914  33.7164474  95.3150940  15.6156092  34.3199992  94.6534824
  15.8354788  32.8481793  94.9298668 124.9680424  37.8713989   1.9783632
 124.8247814  38.2211161   1.0989324 124.1596603  38.0714536   2.4502984
 103.8742542  45.1971054  83.8189507 103.7302589  45.4818535  84.7213936
 103.2323551  45.6893301  83.3071709 113.9528275  60.2436256  82.2122574
 114.3264294  59.3674612  82.1174717 113.7198734  60.3057432  83.1385994
 102.3262310  36.4304519  98.1328773 101.7467022  36.9963098  98.6429501
 102.1161079  36.6320443  97.2210407 107.0212841  27.3327971 102.7039719
 107.2147083  27.4905252 101.7798805 107.5550175  27.9740095 103.1732273
 100.7687283  40.5436373  59.6390009 100.3203583  39.6979475  59.6419573
 100.8940983  40.7450199  58.7116575  17.8242236  28.0127454 108.4599686
  17.8988677  27.0607567 108.3937836  18.6998873  28.3046031 108.7134647
 102.0624733  80.2123928  35.1036969 101.7448521  80.0978565  35.9993688
 101.5716171  79.5697832  34.5914975   4.6916323 120.7823844 102.9320526
   5.5958586 121.0496683 102.7671909   4.2670470 121.5703077 103.2713604
 101.1640263  41.3204432  78.5519981 101.8022728  40.9454250  79.1588163
 100.6567192  41.9320202  79.0857172  92.8565025  29.4665885   6.1640588
  91.9525337  29.5845747   6.4558545  93.3248425  29.1761398   6.9467012
 115.0375938  33.9817548  81.5106678 115.3208447  33.0699396  81.5784645
 114.1274643  33.9287710  81.2189674   3.7277346  27.7067280   6.7874757
   3.1857806  27.4145675   7.5203840   3.3571082  27.2638965   6.0240785
 105.8153915  20.5500460 101.0501003 106.1756325  19.6785116 101.2140656
 105.0495148  20.3926516 100.4979324 115.1347065  26.1180043  33.0134336
 115.6384563  26.2513947  33.8163511 115.7742786  25.7904959  32.3810426
  78.8078690  29.6245503 101.2388134  78.1982756  28.9161253 101.4456177
  79.6397495  29.3436098 101.6199589  86.4912605  12.4718320   0.1206151
  85.7248592  12.1201193   0.5735532  86.1284828  12.9787016  -0.6058177
  88.2566166   8.6213249  92.5597572  88.4320927   9.5501095  92.4087524
  87.4991417   8.4278011  92.0074654  12.8786116  31.9370151  12.5631563
  13.1170493  31.6740513  11.6742078  13.3568507  32.7534652  12.7078191
 104.4781208  10.8792543  70.2309752 104.0742588  10.3629112  69.5334721
 105.4165840  10.8375025  70.0471878  70.8085728  38.5389233  98.2795906
  71.1021566  38.2575464  99.1461086  71.6078663  38.8240480  97.8367901
 121.8966866  61.4725113  87.0432281 122.3402309  60.6255341  87.0893288
 121.3305759  61.4048767  86.2743473 117.6156425  60.1426363  83.7592316
 118.4876823  60.5273533  83.6711502 117.0269299  60.8949757  83.8195419
   3.0503302  23.8890719   5.1444475   2.6742583  23.2012463   5.6937066
   3.5152846  23.4166932   4.4538537  93.8144970  58.2335186   7.0611326
  93.8521862  57.6644564   7.8298799  92.9541779  58.0620193   6.6781370
  12.2499400  50.6432962  78.3810282  12.2806864  51.4937830  78.8191652
  12.8054457  50.7513380  77.6090431   3.8845473  24.9896598  67.8515863
   4.4190722  24.9959540  68.6456108   3.3134394  24.2282701  67.9533434
  21.0778361  56.6884995  14.9119226  21.0740405  57.0190668  15.8102266
  20.7324915  57.4120426  14.3889943  96.3021469 118.7657089  71.6008139
  97.1225929 118.3333845  71.8378687  95.8530521 118.1350798  71.0379171
 119.8082161  40.5224991  12.7985517 119.8559380  39.7232580  13.3231202
 119.6133041  41.2133265  13.4317914  15.9777670  52.7664709  35.2254812
  16.1843043  52.0386839  34.6390573  15.1357298  53.0957651  34.9112073
 103.4146786  42.2635174  27.5316469 103.1646824  42.8050995  26.7830316
 104.3440056  42.4512005  27.6633397  90.8075142  24.4409299   0.8069650
  91.7642498  24.4671941   0.7934514  90.5760193  23.7992167   0.1355115
  18.3731490   2.5305885 100.6582451  18.4449225   2.3543967  99.7201347
  18.5889369   3.4591281 100.7447433 108.6903667  55.7289314 102.5286293
 107.8319931  55.6710529 102.9482365 108.7011909  56.5963507 102.1240330
 111.2291908  18.5718942   5.8422319 110.7163620  17.8287458   5.5244867
 111.2445831  19.1842651   5.1067106 107.3224068  43.4150600 103.0773258
 107.8910255  42.6671124 102.8943634 107.8693008  44.1805410 102.9007339
 114.3930912  58.0654049  97.2889709 113.6631966  57.9739618  97.9014492
 114.2611504  58.9233255  96.8855000  26.6578608  58.6811972  86.2321568
  27.5938445  58.6331987  86.0375595  26.5486937  58.1448936  87.0174599
  29.8483782  17.0224714  85.0431347  29.9091940  16.4884293  85.8351803
  28.9261370  16.9735730  84.7915173   8.6223918  28.1597304 100.3484821
   9.2613535  27.5204206 100.6635094   8.1970435  28.4843326 101.1421680
 111.3581657  45.8436251  91.4423084 111.0611629  46.2493467  92.2568130
 112.1584606  46.3177299  91.2164974  52.7003860  17.0489740 108.6028194
  51.9315815  17.5988936 108.4519768  53.1196022  17.4298191 109.3744755
  42.1997195  28.2390714  84.4605732  42.9378062  27.6996589  84.7442722
  41.6257220  27.6325798  83.9926910  99.1127682  51.2968206  17.7002660
  99.6089077  50.5273342  17.9794923  98.9799118  51.1682987  16.7610875
  82.4943352  28.2285023  96.4722538  83.3045578  28.4571409  96.0167408
  81.8157482  28.7299609  96.0202599 115.7240295  76.3826227 108.9553261
 114.9027252  75.9315681 109.1508770 116.3162136  75.6878471 108.6675167
  88.7125683  22.1309710   9.3633024  88.5399437  21.1964178   9.2490903
  89.0409088  22.4196982   8.5117952  12.7500468  76.9211340  76.3194799
  13.3193236  76.1801863  76.1117649  12.1615630  76.5884352  76.9971418
 107.8981400  10.9175611   7.0972387 107.8303909  10.0745726   6.6488973
 107.1256351  10.9515417   7.6614324 101.1663055  17.2385967  72.4626827
 100.7446289  16.3814318  72.4019623 101.9403839  17.0868456  73.0049038
   7.2340041  18.7334692  91.8296146   6.7461138  18.9305329  92.6292229
   6.9356852  19.3891430  91.1992836  95.3657150  21.2845564  87.5739002
  95.0218868  22.1029353  87.9320431  94.8801231  20.5993891  88.0332184
 119.3973255  55.6657648  92.6288605 118.4694767  55.8871698  92.7083397
 119.6414948  55.3422451  93.4960079  94.1509914  24.4591951  87.0173740
  94.2276573  23.8267899  86.3029385  93.6502361  23.9996099  87.6913548
 123.1116962  17.1992195   7.6800195 124.0509415  17.2904932   7.8403894
 123.0290699  17.2129869   6.7264978  37.1526652  12.8640759  86.1806202
  37.4155551  12.0547092  85.7423973  36.2375765  12.7197027  86.4214516
 121.6264725 138.0146433 106.5197754 122.1647930 138.3218760 105.7903481
 121.2373829 138.8105727 106.8821716 106.2683964  41.5448427  79.6017885
 106.8408775  40.9607458  80.0991058 105.9563255  41.0099983  78.8718653
 117.1812153 144.6709246 102.7869320 116.6532707 145.4531323 102.9471302
 117.9555130 144.9946993 102.3266411  92.9665089 146.2875878  87.4715996
  92.7787209 145.8126735  88.2811832  93.1630802 147.1797361  87.7573681
  34.0036994  29.6710134  80.1382065  33.9882022  30.2011704  79.3413830
  33.5307532  28.8724947  79.9038363 117.4798489 142.0293183 103.5971069
 117.8141022 142.8918383 103.3510113 117.1316051 142.1505035 104.4804382
 102.6907825  51.5465117  91.7355537 102.1221733  50.8707952  92.1047783
 103.0671692  51.1419773  90.9539413  95.1192379  34.3045402   3.9448873
  95.8838463  33.7929296   3.6805955  94.7954655  34.6894860   3.1304971
 114.8802948  41.0984373  99.4166946 114.0625477  41.1279535  99.9133205
 114.8904610  41.9184685  98.9230537 121.1854076  29.5322776   8.2317010
 120.3093052  29.4620943   8.6108438 121.7593384  29.1190362   8.8767377
  12.5304823  18.1128585   9.4563905  13.2029467  18.2157743   8.7830201
  12.9808741  17.6773798  10.1800863 111.9571686   3.5314101  78.3205557
 112.2498703   3.4738249  79.2300844 111.0646439   3.8725793  78.3773184
 122.6489067  61.2633276  83.9825821 122.3134708  60.5402088  84.5125103
 123.5942078  61.2517691  84.1325378 117.7176666  39.5639133 104.3542290
 117.2300339  38.9567065 103.7976837 118.4288311  39.8807549 103.7973690
  90.5508995  33.4310198  65.4487085  90.3146935  32.5106573  65.3330755
  90.5630779  33.7885427  64.5608664 104.4623184  22.8386235  48.4661245
 105.2498150  23.3047938  48.1854725 104.2533398  22.2588968  47.7336788
 118.2115555  23.6952949   5.3291074 118.4386158  23.1028914   6.0458604
 118.4538364  23.2162905   4.5365850 103.4395981  32.6123071  90.2166939
 104.2175484  32.8107810  90.7378864 103.7230492  32.7277899  89.3097496
 108.5274887  35.5050421   8.8043157 108.8868523  34.8545742   8.2010022
 109.0273380  35.3847742   9.6117250 106.2025738  13.1962621   2.2366945
 106.1456108  13.8040411   2.9739801 107.0116711  13.4402132   1.7871610
 107.0064259  10.4417205  28.0552141 107.8363514  10.8102548  27.7524892
 106.3710880  11.1463761  27.9285947   2.1566897  29.8762441  74.4537497
   2.6018553  29.4602180  73.7155199   2.2827941  29.2687941  75.1826763
 114.6625328  41.7591763  92.6705456 114.0111637  42.3065758  93.1090736
 115.3060341  41.5610456  93.3508968 110.3378773  13.3477962  19.8014776
 110.7035923  13.0199897  18.9798776 109.7844887  12.6341939  20.1189176
 119.2316437  34.0283370  13.0793516 119.7036362  33.4702921  13.6974469
 119.6725178  34.8759985  13.1370870 106.6308308  54.1713905 108.2834435
 106.8311119  55.0100231 108.6991501 107.3462582  54.0350580 107.6623058
   6.9324618  19.1427922  97.9468632   6.8209391  18.2068992  97.7798367
   6.3802081  19.3175614  98.7089062   8.3399039  34.3374133  93.1531811
   8.3090334  34.4437099  94.1039658   9.2719584  34.2545652  92.9515839
 123.4667206  45.0887823  89.6964264 123.5165787  44.1340780  89.7441864
 123.1119633  45.3528643  90.5453300   5.5506640  13.4224427 105.2464581
   5.4261332  14.2768228 104.8332214   6.4579039  13.1904376 105.0481701
  16.6806346  34.9679017  70.9349966  15.8501082  34.5162582  70.7850981
  16.4361125  35.7747293  71.3882828 105.3090858  23.4960818  74.9224472
 104.8528576  23.4215212  75.7606220 105.0578403  22.7072358  74.4419956
 119.0055466  32.5182843   6.0965768 119.1981602  31.9249749   5.3705541
 119.7863197  32.4820018   6.6491357  77.3403120   6.3705516  79.6531630
  76.5534115   6.8564600  79.4063520  77.3737288   6.4375567  80.6074333
 107.4049854   0.5029317  90.8128738 107.2917652  -0.1258880  91.5256119
 106.9487000   1.2892440  91.1124611   2.8882151   3.8905105  75.8833599
   3.2307177   4.2773643  76.6891336   3.6468916   3.4706575  75.4779339
  84.9937630  16.5173376  79.7660017  84.7959614  15.5889785  79.6424770
  84.4210911  16.9688070  79.1459608  83.8429928  11.4448035  12.4874250
  84.6616936  11.2786269  12.0201436  83.2032490  10.8756661  12.0595876
  69.8077631  44.7383547  76.1896324  69.2380381  44.9787855  75.4589891
  69.6463585  43.8041735  76.3218594 102.9124165 136.1926837  46.2723541
 103.5496902 135.5024357  46.4558601 102.3096943 136.1659200  47.0154810
 113.4430122  48.1966925  44.3360043 113.7181854  47.4221134  43.8455534
 112.6382160  47.9267073  44.7783136  97.4909115 135.5370660  22.7205316
  97.5174332 134.5851583  22.8174917  98.2427979 135.7422549  22.1648351
  37.0297175  16.7170572  78.5706997  36.6084605  15.8588469  78.6181259
  37.8811961  16.5440524  78.1690884 102.2547436  60.9118319 107.8510571
 102.0597553  60.8445120 108.7857628 103.1697559  60.6406927 107.7771378
  14.6079093 107.8950305 100.0189114  14.5101958 108.4641237  99.2554855
  13.7124663 107.7454133 100.3222942 122.1411133  28.4702826  68.5377026
 121.4735603  29.1360927  68.3724785 122.6128674  28.7898016  69.3068552
  94.4856071  42.9098368  80.7532120  95.0174141  43.6653900  81.0033321
  93.7063503  42.9720354  81.3055897  87.1692848  27.3380613  96.0759830
  86.5931702  28.0866599  96.2306499  88.0532169  27.7022123  96.1237240
  24.4979220 141.5128131  23.7245655  24.6680194 141.9020967  22.8668022
  23.8453131 142.0882443  24.1235781  19.6760874   6.7941105  99.1912460
  19.4563323   7.6891315  98.9326382  18.9970427   6.2543130  98.7865829
 113.0480099  44.2149353  34.9449197 113.7078476  44.2549610  35.6371919
 112.6418400  43.3546543  35.0506250 103.2634163  17.4094594 100.8798027
 103.4210110  18.2550442 100.4598236 102.4623013  17.5396657 101.3872337
 116.9883633  36.0386992   4.5552484 117.5717258  36.7790294   4.7221032
 117.4540424  35.5077028   3.9091722 103.4536648  15.1760602   1.5707341
 103.9400768  15.7282269   0.9585611 103.8154602  14.2992866   1.4418737
  40.9594660  28.3756614  19.2591420  41.1196070  27.5038981  18.8977376
  41.2646037  28.3193088  20.1646463 112.6660538  42.3671484  87.2771072
 112.1245670  41.9754553  86.5918255 113.1479836  41.6300583  87.6521587
  85.1419353  28.1653643 106.2335873  84.4974232  28.8333583 105.9998894
  84.7099972  27.6414204 106.9082355  17.6700621  51.3644457  90.5863953
  17.4237662  50.5125856  90.9468269  16.8769961  51.6793585  90.1526833
  72.2440958  59.4113827  74.6404982  71.6004133  60.0263834  74.9921846
  72.1800661  58.6453915  75.2109289 122.0017815  25.4112267  29.3357412
 121.5115833  25.6850195  30.1109639 121.5851879  25.8784246  28.6115781
  76.8877649  53.6059904 107.9344559  76.8148279  54.5558310 107.8410625
  76.8661642  53.4558964 108.8795662 117.3257637  23.9498353 103.8470745
 117.6011086  24.7422934 103.3861732 118.0492687  23.3359027 103.7211323
  87.1630955  23.2477617  69.0949249  87.2575474  24.1623545  68.8287878
  87.1304226  23.2786894  70.0510645 100.7402802  31.2434435 100.7959652
 101.0923481  31.0519934 101.6652298  99.8069859  31.0427332 100.8660126
  20.2950221   9.3966722  94.3310452  20.9878378  10.0401187  94.1820145
  20.0240164   9.1287863  93.4529686  65.1742363  56.1224890  90.5040359
  65.8618879  55.7823849  91.0764885  64.7291660  55.3418064  90.1743698
  76.0174990 127.5567097  69.5119858  76.1501741 127.3510868  70.4373741
  76.8744135 127.8557272  69.2078257  92.1767712  11.0198784  75.0957727
  91.3318539  10.6010890  75.2599812  92.0592880  11.9215667  75.3947496
 111.9851017 132.0986659  72.0531464 112.0939445 131.1724348  72.2687387
 111.9857311 132.1235354  71.0962725 115.0096035   5.4443592  74.1198015
 115.8445549   5.5541992  74.5747948 115.0653744   4.5748386  73.7234974
 104.9333382   0.6874280  84.5497322 105.6663990   0.6451607  83.9356709
 104.5481873  -0.1884754  84.5235825 124.5309639  38.4534335 109.0552235
 123.6415863  38.3540583 108.7155628 124.9980068  37.6826262 108.7328053
 107.8790188  38.8233447  75.2072668 108.5517788  38.5776043  75.8422756
 107.5242043  39.6473265  75.5410194  22.1687823  54.2095470  72.9269123
  21.9122916  53.2937574  73.0354118  21.9315081  54.4193268  72.0236254
 114.2353916  32.4613690  96.0801983 113.8913822  33.3411646  95.9257793
 115.0376606  32.4230909  95.5595016 120.6709194  45.9103537  49.9630833
 120.4315186  46.8030930  50.2119493 120.8719826  45.4763365  50.7921982
  98.3164215  36.3848114  86.2072182  97.5791073  36.9952106  86.2039471
  98.8783646  36.6918254  86.9186878  11.2462073  59.4241667 102.9770851
  11.1630183  58.5099840 103.2483482  10.3965598  59.8135757 103.1837177
 120.0906944  31.1788893  58.5425138 120.0937271  32.1360350  58.5521221
 119.1723442  30.9409857  58.6700249  77.9222679  51.0433102  98.7073708
  77.8264809  51.2927294  99.6265221  78.3496189  51.7958069  98.2982826
   5.2532225 137.4485780  30.1524297   5.1603156 137.5189037  31.1025087
   6.1051589 137.8427822  29.9652616 112.6841354  24.5366454  36.7295146
 112.9768658  24.4462609  35.8226657 113.4924889  24.6253276  37.2344208
  84.6249199 144.6967832  72.1810961  84.9173450 144.0153190  72.7863407
  85.0051498 144.4480985  71.3385916  74.1682005   1.3291073  99.6093082
  74.3847752   0.4011289  99.5188522  73.2370710   1.3799062  99.3933296
   3.0426245  33.4105039  60.7502460   2.3357611  33.3214355  61.3894939
   2.8548556  34.2333078  60.2986145  12.5459891  37.0040965  76.3922977
  11.7533331  37.0082879  76.9288731  12.7772265  36.0785651  76.3138485
   5.3444605  32.8713107  67.9988575   5.0333911  33.7733912  68.0744839
   4.6413451  32.4133182  67.5383139 108.4249496  51.1382818  55.6201506
 109.3761253  51.1922264  55.5274963 108.1469250  50.5644846  54.9062252
 107.5257206   3.3023885  61.2771320 106.6997147   3.4363207  61.7419004
 107.3248672   3.5148615  60.3656769 108.3513260  47.9687738 104.0732384
 109.0977097  47.4360228 104.3476677 108.7447071  48.7509489 103.6863518
 115.9479141  20.1384163  91.9564152 116.2557030  19.2674339  92.2071934
 115.7452393  20.5691195  92.7868652  10.9408217  26.3340831  70.3061724
  10.6812220  27.2337675  70.5046844  11.0230761  26.3133669  69.3527412
  18.8345843  47.7177191  51.4871073  19.3423396  47.1538448  52.0705986
  18.8909178  47.2905540  50.6323671 121.8207645  26.8950844  77.6810598
 121.2530804  27.2888732  78.3435583 121.7327785  25.9521341  77.8201008
  16.0503512  65.7345295  62.8294325  16.5089636  66.4284849  63.3030701
  15.1452952  65.7934189  63.1354427 104.1790199  34.8660755  55.0193882
 104.7245502  34.6334553  55.7707310 104.2337894  35.8204269  54.9699640
 110.9296131   7.9948050 101.3068295 110.4568005   8.8234568 101.2292576
 110.4119587   7.4807900 101.9265461 106.0769749  22.9873061  85.3419876
 105.4817009  23.7139010  85.5262280 105.7569885  22.2706771  85.8899689
   2.9323321  53.7366009  77.8519583   2.2077876  53.5837317  77.2454023
   2.9655581  54.6881437  77.9504156 100.9052181   1.7657550   3.5098020
 100.9859180   1.9036116   4.4535772 100.3583050   0.9844851   3.4277669
 101.3177490   1.0940699  83.0775738 101.9244766   1.7385668  82.7132511
 100.6843948   1.6141623  83.5721493 115.2225018  58.3015299  87.7292252
 114.6962166  57.8143883  88.3632088 115.8241367  57.6509953  87.3671818
 107.9414082  12.9873383  84.4201279 107.5979519  12.1165657  84.2200661
 107.3520279  13.3285427  85.0927734 112.1635437 145.0127971  53.2046604
 112.3984528 144.4814768  52.4439049 111.7248154 145.7791682  52.8353071
 119.3025017  11.1435413  63.5268211 119.5292187  11.2559891  64.4499588
 119.8390484  10.4059148  63.2365513 118.3258057 138.7150432  61.3313055
 118.9803410 138.1676919  61.7651510 117.5154877 138.2084841  61.3862896
  89.2043114 121.6793437  85.9328842  89.5819187 122.5555200  85.8556747
  88.3334160 121.7587180  85.5437088 102.4808502  13.7231445 108.2008839
 102.9097462  13.3313727 108.9616680 101.6323280  13.2829452 108.1512165
  98.1585217  20.5868387 106.4240170  99.0061951  20.2746367 106.1074448
  97.6487732  20.7431793 105.6290627  98.8384151  33.4585881  55.2623177
  99.6061707  33.9687181  55.0043440  99.1386795  32.9318190  56.0029840
 118.3896255  57.0646143  57.3920345 118.1995964  57.9328251  57.0366001
 118.8373852  57.2375822  58.2201767 104.7523403  59.9180889  69.8920488
 104.8463631  59.1706324  69.3015385 103.8200474  59.9367714  70.1082039
  17.1970683  11.2323070  83.3254814  17.0923453  10.9416091  84.2314434
  17.0691996  10.4402208  82.8034878  38.2147341 138.3142711  81.1756229
  38.5255747 137.5767619  80.6505585  38.7157183 139.0643508  80.8552742
  77.5838614  56.5594769  84.1913891  78.5240793  56.3820457  84.1641617
  77.1799517  55.6968069  84.2856407 112.8160667 131.7901404  87.4622059
 112.8480434 131.0980231  88.1226540 112.6048851 131.3342018  86.6474915
  12.9447394  63.0800581  99.9371433  12.2116595  63.5570145 100.3261757
  13.0601817  62.3160219 100.5020809 107.9361820  68.6978769  43.9655495
 107.1124077  68.3729696  43.6021471 107.6967144  69.5087624  44.4142723
  29.9856120  17.8134787 107.1437931  29.7473937  18.4109545 107.8526688
  30.8759051  17.5330853 107.3558903 100.2196884  36.5938115  48.9745235
  99.6691608  35.8472419  49.2107058  99.7669601  37.0011210  48.2360363
  91.7907047  21.2220454  95.5614090  92.3510361  21.1319709  96.3322163
  92.2325897  20.7113290  94.8830795  10.9162741  29.8100448  91.2806511
  11.1636763  29.0088415  91.7422771   9.9627715  29.7620440  91.2117195
  84.1301537  33.4260011  73.9101791  83.9568710  33.1159353  74.7990322
  83.2973862  33.7979054  73.6196327   2.9941207  75.0244331  76.1793041
   3.6365443  74.9779367  76.8873692   2.2045928  75.3713799  76.5946484
  74.1649532  37.3842382 104.3419552  74.7590113  36.9378161 104.9453068
  74.6301126  38.1836867 104.0954971 122.6203537  11.6382384  79.0819263
 123.0930424  11.6539145  78.2497311 123.1078815  12.2388744  79.6456480
 123.8643932  20.6226754 107.1762943 124.2237949  21.1594844 106.4699745
 124.6326637  20.3085637 107.6530838  97.0143032  31.0303402  91.3961697
  96.9238281  31.4039183  92.2728062  96.3153934  30.3786993  91.3402176
  14.6570330  38.0612922  97.9739475  15.5749732  38.0303454  97.7044201
  14.2986708  38.8220406  97.5167084  96.1434174  32.6269341  71.2888908
  96.0332108  33.4740329  70.8570242  95.6119633  32.0228171  70.7704020
 109.6724510 129.8106153  76.6771460 108.7950706 129.9047846  76.3062525
 110.0712967 130.6742747  76.5710688  10.6363993  34.5436192  62.5598860
   9.8543482  35.0077438  62.2612095  10.7357054  34.8059225  63.4750748
  13.1621199  27.2847247 106.3789654  12.8485327  27.8189969 107.1086502
  13.8169699  27.8319907 105.9454918   1.5088587  22.0427322  74.1699839
   1.6782694  21.1165810  73.9974213   1.3822299  22.4286103  73.3032131
  82.3326015  43.1640720  97.3377132  81.5482521  43.2411146  97.8809452
  82.4782467  44.0480280  97.0006180 103.1845284  30.3556037  37.8131056
 102.6092339  30.8741522  37.2506356 104.0380383  30.7829857  37.7417397
   5.0457125 143.1735013   5.4271928   4.5630198 143.6981452   4.7884504
   5.2292376 143.7794180   6.1451188  57.9428053  23.3931923  48.6708069
  58.8006592  23.7825632  48.5013819  58.0315447  22.4842048  48.3842707
   4.1856509   0.3076243   3.1376306   3.8182192   1.0096910   2.6006643
   3.7554389   0.4056083   3.9870778 105.4575348  32.2043133  83.8241673
 104.8187733  32.8995705  83.6665535 104.9869061  31.5628386  84.3563747
 117.0544815  15.2507484  81.1053944 116.9065571  16.1407816  80.7857227
 117.2667408  15.3613174  82.0321941 123.6219025  49.8081923  77.7165604
 123.9760017  49.1795540  77.0875454 122.7422142  49.4840717  77.9097509
 111.2690735  32.6751137  11.2431852 111.2094879  33.6139226  11.4201490
 112.0606518  32.3945761  11.7024556  17.6286727  37.3338580  48.1628323
  17.8749114  36.4481783  48.4296036  16.7890769  37.2247744  47.7162790
  92.2182846  43.1124163  81.9814396  91.6405201  43.8138103  81.6806698
  91.8676853  42.3212814  81.5722752 109.9116516  10.1523364  78.6999798
 109.9520969  10.7203984  77.9306269 110.5380821   9.4527817  78.5143709
   4.0098410  22.8305387  74.5906782   3.0852252  22.8699446  74.8351288
   4.4770651  23.1246519  75.3726244 122.0016384   8.8423616  60.0557423
 122.1991920   8.0289054  59.5915270 122.2670364   9.5343435  59.4499731
 116.7253399  40.8929682  84.8448849 117.5360489  40.6617403  84.3915367
 117.0150948  41.2893724  85.6665516  80.6990910   0.9952430 109.7509384
  81.0870457   1.2717088 108.9206982  80.1218987   1.7177776 109.9979591
   0.2900725 142.6801662  74.4202089   0.7262927 143.1574271  75.1260233
   0.9552794 142.6033164  73.7362337 117.7659798  31.4397573  60.7181120
 117.3691940  32.1307158  61.2485552 118.6968136  31.4731097  60.9387541
 119.8029709 145.8928852  86.6668510 120.0795269 146.4978986  85.9785843
 118.9430523 146.2147584  86.9373608 117.4866581  19.6503437  65.2679729
 117.0841789  19.2610240  64.4916534 117.5446129  18.9292955  65.8948421
 104.6942806  57.9571438  67.5330114 104.3590641  57.9840374  66.6368341
 105.2564716  57.1827507  67.5553036 101.1476040  45.8973789  60.7760429
 101.2182713  46.0332012  61.7209196 101.0477924  44.9505663  60.6769657
  31.7395335  13.1966603  90.5737782  32.3963767  13.0637860  91.2572479
  30.9812384  13.5532820  91.0364246 115.1876926  22.4236488  86.6979599
 114.5489407  23.0632973  86.3831902 114.6980762  21.6029358  86.7521000
 101.3355064  41.7704248  67.5160170 102.0857811  42.1935797  67.9334497
 101.7228603  41.1236095  66.9262600  97.4521255  30.0460839  79.7167110
  97.1170616  29.1573286  79.8353434  98.3695316  29.9254632  79.4716549
  16.7606574  48.8098907  75.1387787  17.3503428  49.3515968  75.6632328
  15.9423762  48.7967730  75.6352472  31.4225798  10.0176013  83.4905243
  32.0119601   9.8000556  82.7683544  31.7066603  10.8851266  83.7785053
 103.1792927  17.1772313 105.5066204 104.1241646  17.2642171 105.6326675
 102.9285431  17.9648519 105.0239086   2.9471045  87.0909214  83.9394855
   3.7145644  86.6566467  83.5671329   3.2977515  87.6318073  84.6470928
 102.4489975  24.7249532  88.1535244 102.5831699  24.6057224  89.0937424
 101.5134621  24.9077129  88.0663681  94.7103977 145.6954483  60.7677078
  94.3426609 146.4538538  60.3140306  94.2326546 144.9472850  60.4095936
   6.5283423  58.8049936  84.9452114   6.1445551  58.3897877  85.7175732
   6.0017710  58.4829664  84.2136097  89.7782516  62.2851181  72.2910976
  90.2800751  61.8965673  73.0076361  89.9727631  61.7316103  71.5347719
 116.2977600   6.7433470  92.5419617 117.2370529   6.6599673  92.3776340
 116.0380936   7.5259155  92.0557690  32.1699362  22.5458145  87.4568462
  31.5220099  21.8444824  87.3894119  31.8792658  23.0694509  88.2035351
 102.7598000  39.0934277  69.3495941 102.4512863  39.3538618  68.4817076
 102.7533817  39.9036837  69.8591757 106.5790462  38.0241752  90.5284882
 106.3266659  37.1220303  90.3318405 105.7675552  38.4427023  90.8158016
   9.1396647   9.0258569 103.2168579   8.5342818   8.5087347 102.6854992
   8.6087733   9.7500849 103.5483360 124.9300671  27.3483086  75.4600096
 125.0935650  26.8363810  74.6679068 123.9793777  27.3241258  75.5688429
  19.9699526  30.8900499  77.2328997  19.1117507  30.7950044  77.6460361
  20.3245478  31.6994691  77.6007795   7.0922022 137.9315055  53.3983755
   7.6173621 138.7175150  53.5487890   6.4606314 138.1902320  52.7272463
  80.6161499 140.8692611  29.2503301  80.8415508 139.9760307  28.9903871
  79.9689007 140.7598651  29.9469796  87.5083828  31.0510397  78.8247252
  88.1196880  31.7418742  79.0802336  87.1112442  30.7661939  79.6477556
 120.0517178   8.8966137  83.7614918 120.9726715   9.0923071  83.5888767
 119.9480247   9.0424711  84.7018051 112.1113968  11.1719549  52.7791739
 112.7035999  11.4795566  52.0929480 111.6139793  11.9495237  53.0325460
 120.6745625  55.1512671  66.7547274 121.0284519  54.3679190  67.1758795
 121.1111259  55.8791113  67.1973228 107.9045677  68.0246305   5.6186048
 108.8605976  68.0296564   5.6656781 107.7095699  67.6868200   4.7444860
   1.3247328  26.9908667  78.0643559   1.0571318  27.1404767  77.1575832
   0.7532912  26.2862134  78.3695650 101.3630962  18.5519588 102.5226974
 101.8589973  18.8421667 103.2882690 100.7002068  19.2306268 102.3953629
  13.7984496  54.1358709  89.6420193  14.0951853  53.6408281  90.4056454
  13.5880595  53.4672928  88.9901161 120.9976768 139.3739731  75.2156448
 121.4556026 140.1092298  74.8082924 120.0955963 139.6785582  75.3141546
 107.9515934  21.3212514  80.0866032 108.6143208  20.9443760  80.6653881
 107.6910877  22.1347833  80.5185032   3.3230048  29.3596029  84.8577118
   2.8013354  29.5449972  84.0768623   2.7137023  29.4777632  85.5864239
  19.3033724  53.2452011  75.3162527  18.3782034  53.1279278  75.5319977
  19.5823794  52.3912430  74.9858904   9.2000037  25.2318549   0.5136434
   9.4484358  24.3108177   0.5923978   8.5487776  25.3640270   1.2026063
  95.9439754  18.8935864  94.3519783  95.9035110  19.3123102  95.2117825
  95.9997177  17.9574704  94.5438385 113.8066387  56.6011333 101.3040447
 114.4537354  57.2658062 101.5400696 112.9640198  56.9984341 101.5240002
 120.4053020 145.4837465   0.7459108 120.4132271 145.9329111   1.5911428
 121.3189793 145.2417662   0.5946962  13.2306414  20.8426905  38.7387967
  14.1581374  20.6533241  38.5969472  13.0705004  21.6432786  38.2391500
 101.9789696  33.4771442 100.7855988 102.5740623  33.5484505 100.0392628
 101.7205524  32.5555801 100.7986832 120.8200741  11.7223370   5.4389135
 120.9147835  12.6397896   5.6949273 121.5587807  11.5598917   4.8522798
  93.0562687   8.3727086  38.7783337  93.4750557   9.2188030  38.9363718
  93.0046654   8.3053738  37.8249002 113.5929680  17.4288857   4.0077249
 114.1635895  17.8619754   4.6425954 112.9696751  16.9370461   4.5423547
  97.4414921 145.9795466   6.8601838  98.0294609 145.2369214   6.9981424
  96.7241478 145.6229749   6.3362542 109.2653561   7.9742974  82.3545361
 109.9386120   7.5109464  81.8562794 108.6249447   8.2456952  81.6969299
 102.6864624 140.5480034  36.6759229 102.8162956 140.4728878  37.6212978
 102.4266243 139.6692634  36.3992786 113.9575863  35.4975963  37.0762277
 114.0098953  35.3642058  36.1298132 113.9365864  36.4485621  37.1832752
  88.7083721 132.1084304  91.9351196  88.6280823 132.4214751  91.0341263
  87.8073311 132.0671494  92.2555256 115.7708263  40.9340286  11.6953698
 115.4311180  41.4619827  10.9728090 116.6577053  40.6981182  11.4233247
  28.6201220  21.9591045  79.5595551  29.3484717  22.2194338  80.1234436
  28.2529765  22.7854967  79.2456961  99.6316338   3.8586199  82.4213600
  99.0592575   3.9090222  81.6558075 100.3661442   4.4347125  82.2095966
  10.7123404   7.3706669  69.0696621  11.1346751   6.8511450  69.7537374
  11.4339476   7.6710409  68.5171318 122.4445724   3.3081433  95.5487919
 122.0831776   3.4376076  96.4256477 121.8218136   3.7431785  94.9664307
  17.6185160  33.5255837  56.2906075  16.8932562  32.9042029  56.2264919
  18.1544524  33.3487868  55.5174637  16.9248419  33.2868862  83.7543964
  17.3313933  32.6573038  84.3498516  16.2238341  33.6858344  84.2698097
 113.6829662  26.4795852  42.1130705 114.3211842  26.1457467  41.4826250
 113.5559559  27.3948956  41.8634558  17.7956133  28.6985326   8.3897344
  18.3035975  28.0803204   8.9150945  17.2436171  29.1552424   9.0245191
 113.6514664  12.0986950  91.8287373 114.0274906  12.2697151  90.9652615
 112.8123760  12.5592184  91.8200493  81.0006905  36.7890024  64.5392370
  81.6089153  37.4007177  64.1243887  81.3860798  35.9264827  64.3850708
  92.9189968  26.1627626  94.8064137  92.9262829  27.0622635  95.1336384
  93.3531857  25.6550026  95.4919052  16.2932807  15.7216191 100.3735065
  15.9046870  16.5425217 100.6757450  16.8100577  15.4129589 101.1177635
 120.9095478  22.5522614  66.2055111 120.2143383  23.1040883  66.5638447
 121.7198181  23.0019665  66.4452076  84.2923832 132.9897804  56.4402771
  85.1585674 133.3725280  56.5797615  84.0135574 133.3314187  55.5907059
 105.1302528  50.7130194   4.9466935 104.9446583  50.8640480   5.8735029
 105.3490448  49.7826099   4.8947564  97.2140026  13.7872005  95.7334328
  97.9303741  13.5355210  95.1505947  97.6106644  13.8105309  96.6042614
 116.5065575  48.1445694  51.0100412 116.8511772  48.7785912  51.6389132
 116.1163712  47.4582291  51.5512705  31.3298731  41.6186190  56.6632605
  30.9807139  41.1309242  55.9172916  30.6973677  42.3226690  56.8063545
 105.5354595  10.0617516  54.4078827 105.8966923  10.3779697  53.5797834
 106.1718369  10.3374517  55.0676155 119.4647694  36.7443156  57.8746319
 118.7014580  36.4201236  57.3966312 120.2138519  36.3632679  57.4164820
 106.6623402  27.0213866 108.5420227 106.9145298  27.4664307 109.3510818
 107.4932384  26.7955709 108.1238747   2.6275092  56.6526031  76.8599606
   3.5478621  56.3955164  76.8042564   2.5905257  57.2501278  77.6068354
 111.6292763  27.6964831  20.2440206 111.5600014  28.5311174  20.7075063
 111.6209412  27.0362639  20.9370462  13.5828047  23.6480880  67.8107882
  12.7603751  23.8093638  67.3483706  13.6757498  22.6954126  67.8089952
  14.9871474 139.1755337 104.2108250  14.7548800 138.4885223 103.5860825
  15.1083499 139.9577261 103.6725712  94.1065693  29.5723939  90.6502819
  93.9250851  28.6337876  90.6021786  93.5378933  29.9606824  89.9853897
 111.4982891 139.1273625  74.0919924 111.0112286 138.4569771  73.6128330
 110.9277248 139.8957450  74.0753889  89.9784279 125.5214138  83.1626892
  90.0565243 124.7490616  83.7226963  90.7453156 125.4814691  82.5912666
  55.2705699  52.2503805  78.1673908  55.4483157  52.5187302  79.0688515
  55.5210620  53.0076742  77.6382446  30.0089388  23.6168337  61.0579491
  29.4357138  23.7688255  61.8093109  30.8931380  23.7448335  61.4015007
   5.8137637  16.6092622  65.0258493   6.6248732  16.3020504  65.4307461
   5.1981288  16.6902316  65.7543230 109.6859837  54.0130758  16.0256997
 110.3017426  54.0667820  15.2948133 109.0801334  54.7401428  15.8823720
   1.8316393  22.8955555  52.7342081   1.9861537  23.2794237  53.5973406
   2.3789721  22.1104121  52.7197886  73.2744169  25.8605146  69.0257215
  73.8165426  25.1120591  68.7764359  72.4742651  25.7589269  68.5102940
 110.9877872 134.4902618  64.3870211 110.9196854 135.3702397  64.0165663
 110.6297016 134.5740516  65.2707529 121.4372730  49.7614861  75.1971149
 121.9161510  49.0626764  75.6427288 120.6139183  49.3539476  74.9283504
 121.6823387  60.6263256  68.3927059 122.3069859  60.7391644  69.1091585
 122.0537472  61.1313391  67.6693487 113.6293125   9.4075477  65.6292534
 113.3414364   8.5311669  65.3736925 113.2508278   9.9864393  64.9675417
  99.9679089  30.3702092  66.3916826 100.6403160  31.0047317  66.1437273
  99.6755028  30.6568623  67.2568750  88.9247131  27.3669767  88.0735588
  89.5822334  27.0096302  88.6703873  88.1337643  27.4442792  88.6070824
 111.4709663  35.9369898  69.4269180 111.9549370  35.4598832  68.7528467
 111.6527653  35.4588556  70.2359772  89.9863911  46.0425091  99.7016335
  90.8004475  46.1308050 100.1973724  90.2059460  46.3532639  98.8233089
 113.8652229  33.0781484  60.8267450 113.9944553  34.0263033  60.8037376
 113.2944393  32.8960395  60.0802326   7.1662455  36.5035391 103.6694050
   7.3756342  35.8318543 103.0203819   6.9379645  36.0115814 104.4581318
   8.5988646  65.3155088  46.6231966   9.5045024  65.1314640  46.8725395
   8.1018191  65.2152920  47.4350691 105.0089645  28.3622837  86.7787552
 104.3335152  27.7154946  86.5746403 104.5909786  28.9565969  87.4019051
   1.7572623  43.0546236  80.0722980   0.9364443  42.8736687  79.6143293
   1.5056449  43.1343365  80.9923840  14.5346480  28.6677289  66.8771124
  15.2941065  29.1244650  66.5153694  14.8817187  27.8287315  67.1801996
 111.6709042  56.7784548  42.9688883 110.9616852  56.8777084  43.6040163
 111.2340641  56.5019226  42.1633291  10.9729701   5.8658898  84.9129486
  11.1413889   5.1647937  84.2833996  11.7254286   5.8427978  85.5041313
 118.2541275   3.3395329  85.9864998 117.4954224   3.7966007  86.3493919
 118.7911606   4.0332931  85.6037140 105.6065369  10.1986432  76.9061899
 105.9538651   9.3555415  77.1973419 105.7985020  10.2259505  75.9688330
  90.2184486  17.8756249  48.1709766  90.7608700  17.1270335  48.4192324
  90.6816864  18.6348701  48.5248041   2.8367358  49.1856003  81.3072491
   2.0742827  48.6261415  81.1592197   2.5734072  50.0428295  80.9725189
  89.3575001  35.7880330  91.6685104  90.2827454  35.9328508  91.4705658
  88.9061737  36.5243793  91.2557983   6.1972266  53.0756283  89.9619484
   6.0156375  52.3201895  90.5210400   5.5881625  52.9833078  89.2293262
 108.7521935  20.7226133  52.4613523 109.1591549  21.5272689  52.7825022
 108.8812637  20.7507944  51.5133142 121.4721298 137.5214941  85.6123543
 120.8546638 137.3615665  84.8986340 121.5801620 136.6677148  86.0314274
   3.3729392  43.0734301  68.7282228   3.1068259  43.9919662  68.6869144
   3.7375384  42.9689932  69.6070814  63.8458157   0.0725360  78.1264210
  63.2965851   0.6211967  78.6863804  63.8673973   0.5326435  77.2873354
 105.6995869  20.1715136  81.5015888 106.1109257  19.8550653  82.3058796
 106.4324093  20.3528380  80.9130955  13.4435683  26.6050315  56.3562965
  13.9437132  26.6844988  57.1685553  13.0092745  27.4524212  56.2585545
 113.9788055   7.0103806  33.5538173 114.6421337   7.5188214  34.0204120
 113.2561111   6.9309574  34.1764283 103.9465523   6.4282531  58.8534260
 104.6524048   6.7454737  59.4167900 103.4146976   7.2040641  58.6760044
  13.4344130  79.0319777  75.0361395  13.1335478  78.2522440  75.5027580
  12.9296237  79.7496843  75.4186583 110.2966309  12.9345596  73.1165171
 111.0528469  13.2370353  72.6136398 110.4961014  12.0214629  73.3231544
   7.2131758  49.2518044  65.9048557   7.9710227  49.6007013  66.3740683
   6.9508582  48.4831858  66.4114523  80.4405403  53.0758476  34.4908333
  81.3923836  53.0625486  34.3905401  80.2055931  52.1649456  34.6677184
 106.9491959  10.9672046  68.8701487 107.8545284  10.9045744  69.1745806
 106.9357872  10.4671216  68.0540800  91.9172955  30.1566029  88.8577271
  91.6312599  29.5538878  88.1713200  91.1774254  30.7520413  88.9772034
 118.1457233  30.4133987  96.2356281 117.6953316  29.9584794  95.5239868
 117.8088093  30.0041318  97.0326424 120.9818935  22.8660703  95.0200462
 121.0821533  22.0004368  95.4160976 121.8781853  23.1615138  94.8600292
 117.4781895  50.2862358  55.8310795 116.7430305  50.6529951  56.3222694
 118.2182884  50.3342056  56.4362049 117.2931385  25.1523185  31.4558744
 117.7066517  24.5171475  32.0405078 117.7412224  25.9772038  31.6429830
 117.8750324  47.6625633  37.2657871 118.6045074  48.2420921  37.4854636
 118.2809639  46.8056345  37.1348858 119.5788574   7.6921099  59.2279387
 120.2084637   7.0573276  58.8860559 120.0913429   8.4893608  59.3620300
 116.4616776   3.3333597  67.5235128 117.3157787   3.3896697  67.9519701
 115.8354855   3.2715434  68.2448244  14.3057948  61.0202932  97.7938461
  15.1385336  61.4689398  97.6472759  14.5385199  60.0930738  97.8421021
  97.5451279 137.9735077  67.5733805  98.0978012 137.8860582  68.3500004
  96.6786957 137.6872785  67.8625298   0.3633147  61.4257574  53.4292459
   0.5170088  61.3306284  54.3692255   1.2105494  61.6945219  53.0740166
 124.0864944  40.2937460  31.6995430 124.5025444  39.6840310  31.0901260
 124.2403793  41.1574411  31.3166785 120.2916050  16.4121962  56.7164993
 120.8970928  17.1089184  56.9698620 120.3921700  15.7478404  57.3982286
 107.6291370  32.8616118  91.8231773 107.5889969  32.3593068  91.0093594
 108.5249615  32.7380252  92.1369743   5.8435851  45.4993725  84.9548817
   5.1588469  45.9480047  84.4587994   5.6643801  45.7243586  85.8678436
 115.0634098  36.9717455  84.5530128 114.7414303  37.7812672  84.9495411
 114.7456837  36.2786818  85.1317501 118.2230473  23.2550335  38.8853836
 117.8472519  23.0107093  39.7311449 118.7776947  22.5124621  38.6462498
  79.1253710  24.7984767  91.6662979  79.1234684  24.7309852  92.6211166
  78.3631134  25.3405595  91.4629841 123.6320972  66.9430065  67.3333263
 123.6874962  66.9471407  66.3777399 124.0565300  67.7580166  67.6013756
  22.1701747  40.2950430  48.7472582  22.1458655  41.2479448  48.8345480
  22.8403597  40.1323462  48.0834723 116.5038109  20.4797292  82.1205425
 117.0760822  21.1424041  82.5073338 115.6217194  20.7415247  82.3843765
 114.6480274  20.6295133  41.7551708 114.7996330  19.6902156  41.6504431
 113.8306332  20.6864882  42.2500086  13.6579543  34.6559644  73.4935093
  12.7330332  34.8991132  73.4531212  13.8435774  34.5745802  74.4290066
  27.0514231  58.5914183  51.9462061  27.0036822  58.6736012  50.9937382
  26.8132144  59.4587374  52.2736883 100.9555340  39.8290229  54.4886112
 101.2601185  40.6390190  54.8977232 100.4172802  39.4094014  55.1597500
  73.8801336  33.8502765  45.0953436  73.4654140  33.0538273  44.7638226
  74.3425941  34.2120028  44.3393612 112.5900364   6.7072767  90.3199100
 113.1890869   5.9632832  90.3819466 112.3058510   6.8617243  91.2208080
  20.1507693  34.8363566  80.8303738  19.4868594  35.0528097  81.4850521
  20.0697833  35.5249166  80.1704025   9.9742823  41.1750412  70.5613613
  10.2857142  41.7549133  69.8663902  10.4598742  41.4506578  71.3388300
  21.5257865  16.8682051  60.6085682  21.8524771  16.0242510  60.2967262
  21.9563609  17.5136566  60.0480032   5.9976893  44.7633886  62.4676132
   6.4549571  45.5991983  62.3751259   5.9359294  44.6275043  63.4131050
 108.5198593  45.3739548  87.2888279 109.4369221  45.5284595  87.5154305
 108.4283829  45.7295847  86.4048576   6.0502463   5.5655116  31.6132641
   5.6043845   6.3954288  31.4439130   5.8276015   5.0162727  30.8615994
  12.5771170  24.3592858  50.6571865  12.9001837  24.7348475  49.8381567
  13.3590441  24.0117359  51.0861731 110.8828735  21.4206433  30.5540657
 111.3654900  21.1280537  31.3271809 110.0598907  21.7645502  30.9014249
 105.6570530  46.3504934  71.2548876 105.3086090  47.2249508  71.0812807
 106.4634705  46.3076258  70.7409954 111.9655609  15.9161723  98.4423256
 111.6309738  15.0257087  98.3357620 112.8840637  15.7994533  98.6851597
 101.5146065   6.8379217  74.4853067 102.2883606   6.9004381  73.9252806
 101.1756325   5.9566879  74.3279696 108.7548637   8.0092269  60.1035166
 108.5396767   8.6709589  60.7608128 109.1375637   8.5057324  59.3801546
 117.1532917  35.9098363  56.6112614 117.1205997  36.7043281  56.0783958
 116.3319302  35.4578757  56.4180231 101.2644958  36.1966372  38.4941530
 101.2793732  35.4382539  37.9103160 100.3441620  36.4580321  38.5238409
 103.2868099  19.7133791  80.1780701 102.7711487  19.4590414  80.9433365
 104.1040421  20.0535846  80.5422306 123.8689709  12.2982943  43.5267735
 123.5698795  11.4490795  43.2017946 123.7533474  12.8926802  42.7854443
  38.9064913  13.0493093   7.1961442  37.9596453  12.9562151   7.0910589
  39.1111689  13.8907039   6.7882291  35.8404093  83.4753704  82.0965290
  35.8056574  84.3295479  82.5271225  34.9891692  83.3886337  81.6674614
 113.9120293 133.5394997  69.9104643 114.2532063 133.5685641  70.8043242
 113.4815693 134.3860275  69.7907591   5.5631953  48.4524965  98.6954498
   4.8120242  48.9591694  99.0040874   6.2254363  49.1105413  98.4841442
 122.7248001  44.6563625  65.5387592 122.6266766  44.1582060  64.7273159
 123.3938980  45.3109217  65.3385496 115.8822823   9.8824984  37.3645210
 115.4725552   9.4316745  38.1028438 115.7191372  10.8109903  37.5304151
 122.4997616 134.0186865  93.4728050 123.0498314 133.2596941  93.6666775
 122.6331234 134.6071953  94.2158413 123.1028080  42.8640842  63.5649109
 123.7133694  42.8176975  62.8291845 123.1768799  42.0105553  63.9918041
  99.0848255  10.2300334  69.4195414  98.8835907   9.3279642  69.1705370
  99.7320080  10.1464939  70.1198387 114.4036674  15.9943211  84.8799610
 114.2472076  16.7466152  84.3091583 114.0042019  15.2566874  84.4189167
  38.0480128   8.6284554  55.4729462  37.2638636   8.2786077  55.0499249
  38.7576609   8.0640602  55.1662111 115.5044365  29.5609498  85.3548431
 116.4559937  29.4579434  85.3422546 115.1729584  28.6952996  85.5935955
 113.3364868   6.2221771  61.8957853 113.3499432   5.2757514  62.0383644
 112.6152039   6.3617235  61.2821817   3.8171893   0.3804493  47.8469896
   3.8821726   0.5460780  48.7875080   3.0027419   0.8091119  47.5840139
 120.4127216  22.1812105  88.3989620 119.7221279  22.6819420  88.8332272
 120.5407047  22.6263547  87.5612926  74.0874624  26.8707776  74.0858507
  74.2731571  26.4994717  73.2233667  74.4869661  26.2567902  74.7020054
  19.3039256  23.6883593  95.5178833  19.4522982  23.5441804  94.5833015
  18.3917265  23.9728284  95.5744743 117.4969101  35.0859237  45.9188700
 118.0736923  35.8458352  45.9969521 117.8087616  34.4785953  46.5897894
  11.3577586  41.7342281  83.1142235  11.8238383  42.2433567  83.7773895
  10.5706912  41.4225149  83.5609818 114.8534966  29.5958710  50.3713226
 114.0208626  29.8775911  50.7502651 115.2238083  29.0002871  51.0227680
 107.8041172  44.0681744  49.5449114 107.3608494  43.9660263  48.7027025
 108.4866905  44.7184086  49.3790102 120.6143665  40.8909655  55.1434326
 121.2132168  40.1537037  55.0249052 119.9594021  40.5702496  55.7634354
  97.9484081  19.8609746  78.7489510  98.5760307  20.2564454  78.1440401
  98.4377098  19.1577291  79.1758680 104.5672703  22.4966145  16.9999731
 104.2776299  23.0839920  17.6980627 103.7573433  22.2014809  16.5838492
 122.2389221  22.1215630  90.4403687 122.3555756  23.0093980  90.7785606
 121.6372395  22.2233105  89.7029018 102.5585556  35.0702429  89.3655396
 102.7972603  34.2388225  89.7754097 102.9522705  35.0293851  88.4940243
  89.0155792   6.2686116  58.5905933  88.0734539   6.4233518  58.6590099
  89.0877819   5.4186839  58.1562662 124.4476891  54.5738173  79.3242693
 124.2174244  55.4525709  79.6259451 125.3642845  54.4659472  79.5781279
  11.8715983  41.7234230  65.9395742  11.3585215  42.0274544  65.1908731
  12.7619296  41.6344833  65.5995369 109.7777081 143.4030036  30.4196048
 109.7500324 142.4712587  30.2020812 110.3146267 143.7940175  29.7303605
  20.7067423  32.9609704  66.0946083  19.7779780  33.1832743  66.1596155
  20.7718974  32.4349785  65.2975416   0.5953913  35.2257061  82.4697304
   0.0099211  35.2897263  81.7151737   1.4464694  35.0003242  82.0940781
   1.8324786  73.3401632  92.8865051   2.3858195  73.5798883  92.1431541
   1.1280089  73.9881659  92.8795147 101.9660378  23.6471248  74.0333796
 102.3804188  23.7338805  73.1749010 101.6367722  22.7485061  74.0506887
 109.8013020   5.8354163  67.8860617 110.2781487   5.9925276  68.7010288
 109.0528679   5.2983826  68.1461954 121.2839127  34.2556286  58.6702776
 121.5551949  34.0179753  57.7836227 120.3470325  34.0609407  58.6943817
 123.0452919   2.1410683  46.4154434 122.7315331   1.6843696  45.6349230
 123.3395863   1.4423227  46.9997215 120.5682564  52.6029921  71.9575596
 120.2340317  53.4815598  72.1382523 121.5181446  52.6861525  72.0413971
  91.9058037  27.9187822  82.6045322  91.0012054  27.6677966  82.4175930
  92.1858883  28.4018254  81.8270588 105.5013084  25.9103346  70.7860327
 106.0668945  25.2293968  71.1502647 105.9142685  26.7320418  71.0515308
 117.4965286  32.8437638  66.9993544 117.3833084  32.1929431  66.3066435
 117.8121281  32.3415208  67.7506018  89.3192577   9.8260581  31.1617303
  88.8478661   9.7726125  31.9930935  89.3535900  10.7623243  30.9656215
 119.7981262  62.5908089  38.3452654 119.3640041  62.4851274  37.4987411
 120.5039215  61.9443035  38.3348536 113.2866383   5.9813821  87.7375698
 113.2932472   6.7903370  87.2259235 113.0344486   6.2573618  88.6187458
 111.4296436  14.1305244  52.6672268 111.2096500  14.5833695  53.4813309
 112.3036385  14.4505787  52.4437666 105.5865860  44.4640827  96.8483639
 105.4577923  43.5177994  96.9131374 106.0100937  44.7051144  97.6722431
 118.0515385  37.8277254  65.7062578 118.6878777  38.5425210  65.7255316
 117.2072029  38.2547545  65.8510590   9.6144801  50.4393005  84.6266651
  10.4482585  50.1183701  84.9702263   9.5608454  50.0704813  83.7450027
 124.2170811  69.3895864  50.6655884 124.8479652  68.7975121  51.0750628
 123.4764576  68.8285351  50.4355288 116.3616753  13.1264198  56.9120264
 117.0681381  12.8221750  56.3423109 116.5114403  12.6736307  57.7419567
 120.2334595  40.8874798  35.1580930 120.8155346  40.8302259  35.9158111
 120.8099174  40.7666636  34.4035554 117.3953247   3.9435968  64.0075779
 116.8328094   4.5403901  64.5011854 118.2512093   4.0168950  64.4298553
  10.8342963  61.5817213  30.7890821  11.2164622  61.6721964  29.9161577
  11.3045722  60.8460665  31.1813593  21.6676741  38.0380821  81.8142986
  21.7929202  37.0981240  81.6838169  22.4466734  38.3191538  82.2942924
  70.7889080  54.7061443  66.9829369  70.8932686  54.8449135  67.9242611
  70.0899649  54.0559292  66.9127274  16.2665873  30.1833797  94.6717262
  16.8405276  30.3770447  95.4128838  15.9455901  29.2978954  94.8423481
  86.8785286  43.1412792  73.5412312  86.1003780  43.6014700  73.2266951
  87.1836185  42.6414490  72.7840519 104.9163342   1.5180662  81.4956665
 105.4661083   0.8831985  81.9549274 105.5097675   1.9472109  80.8793068
   6.9871550  25.9588790  72.3187256   7.8742247  25.6006408  72.3505068
   6.6564684  25.8592105  73.2114410  49.0189105  36.7340541 107.4181843
  49.9207049  36.4139986 107.3945045  48.9079028  37.0718503 108.3068943
   3.2792883 131.0112674  65.9976578   2.4762755 131.2378616  66.4667654
   3.3048373 131.6194184  65.2589226   8.0566340 133.2319457  84.1620350
   8.9494258 133.0640907  84.4636726   7.5570517 132.4705977  84.4569778
   9.0062743  62.2230673  46.3011646   8.9297133  62.3531437  45.3559399
   8.7592345  63.0667639  46.6798210 119.9154377 145.5271006 101.9066715
 120.1288795 146.1261578 102.6220798 120.4885578 144.7732896 102.0464325
  20.6262141  50.1276112  87.1372509  20.3861456  50.7145596  87.8542519
  21.2134104  49.4869804  87.5385284   5.8336859  29.4924831  52.8778362
   6.2243586  28.6229753  52.9648352   6.4880591  30.0868821  53.2448721
  80.8891106  25.6196594  42.3005915  81.5246964  25.7109380  43.0104780
  80.5057049  26.4918923  42.2087622 115.7388020  40.6670141  80.9860802
 115.8781147  41.2384272  81.7412758 114.7930145  40.6889820  80.8403587
 119.2379475  16.8667400  65.2411366 118.5301495  16.2740290  65.4940128
 120.0385475  16.3720179  65.4158306 107.6983452  31.9726801  95.2399731
 108.4420967  32.4868059  95.5542088 108.0954361  31.2175035  94.8060894
 118.5192776  23.1646991  62.3068905 118.2029629  22.4523926  61.7511940
 119.4689846  23.1578946  62.1875858   4.6779662  57.9204655  39.2451572
   5.5301791  58.0898857  39.6467304   4.2359191  58.7694311  39.2541933
  72.8880930  47.4589634  42.2518778  72.3499298  46.8043661  41.8067741
  72.2981310  47.8604174  42.8898525  17.3366671  46.8497944  82.5888920
  17.8769999  47.1270037  81.8490028  16.5041380  46.5909243  82.1937752
  33.6170321  27.0221591  89.6377468  33.1281691  26.8236995  90.4364109
  34.5327693  26.8756962  89.8748207   6.4074832  44.6108007  58.7394428
   5.9687358  44.5951509  59.5900249   5.9422427  45.2835846  58.2423067
  92.7203274  23.5921502  30.8449531  93.4610176  24.1958666  30.7888865
  92.8852558  22.9462695  30.1580215   2.2430831  27.9878855  60.0145435
   3.1816321  27.8923345  60.1764870   1.8265277  27.5993586  60.7838011
  71.3774204  34.5508170  95.1292324  71.4165688  33.8289642  94.5018291
  70.9885740  34.1650510  95.9142208  14.1219550  29.0894270  73.0068207
  14.3798762  30.0108647  72.9810953  13.1754046  29.1095066  73.1478310
  13.7335520  53.9455557  70.4151869  14.0235644  54.6489239  69.8343277
  13.6216860  54.3687248  71.2664461 105.8470631  14.0300810  50.4122162
 105.6280994  14.4322670  49.5716619 105.0130272  13.6959779  50.7423735
  67.0052385  12.4299085  75.0494528  66.0714197  12.3156989  74.8729038
  67.3360157  11.5403414  75.1739073 117.0133686 136.3365347  58.9197206
 116.4257908 135.7060558  58.5032129 116.4345074 137.0289422  59.2386580
 100.7229233  25.3386331  47.4890614 100.8765602  24.4259787  47.2447443
  99.9992561  25.3005981  48.1144333 119.3855858   6.4136851  78.7320042
 119.2435837   6.4870232  79.6757650 119.7407722   5.5331063  78.6109543
  87.5613976  15.4923248  66.8840361  87.2342396  14.6168041  66.6774845
  87.4689007  15.5646288  67.8340101  98.4765053  36.8017244  74.4928312
  98.0370045  37.3964572  75.1005888  97.9280281  36.0172653  74.4866323
  21.8997984  51.5124369  72.6122999  21.5527850  51.1812353  73.4406233
  22.0884162  50.7260942  72.1001244 118.3560944  31.5184093  82.3766899
 117.4391079  31.7247343  82.1955967 118.3286953  30.9792495  83.1671238
  97.0796013  22.2539854  60.4825640  96.8819141  23.1355548  60.7987690
  97.2640610  21.7508125  61.2756777 116.3480282  17.9008830  81.0958862
 116.3096142  18.8095760  81.3942719 115.5240822  17.5157714  81.3942814
  66.9097042 139.7302509  88.7230873  66.4032459 138.9278657  88.8492393
  67.7272987 139.5742334  89.1957664 114.1462708  19.9674511  86.4155483
 114.6403980  19.6535206  85.6582355 114.1870499  19.2464149  87.0437813
   3.0077010  42.2658539  59.1019058   3.3425646  42.9578400  59.6722221
   2.9358512  41.4999056  59.6714640 110.9778404  16.9546902  58.4007311
 111.1546230  17.6225972  59.0632105 110.5785751  16.2339246  58.8878822
   7.5693541  45.8697033  73.7978172   7.5684577  45.0469112  74.2869377
   7.6857405  45.6056643  72.8851461 111.0418415  47.9211044  68.3267641
 110.7965469  48.0355167  69.2448997 110.5716801  48.6152983  67.8649473
 115.3000355  29.0538621  45.0216818 115.1204681  29.3098545  45.9263659
 114.4758320  28.6794996  44.7106075 123.1875992 142.4513046  58.1121397
 123.6597633 142.3796562  57.2825861 122.2885990 142.2016547  57.8983688
  21.5599280  38.1630683  27.2113943  21.6209918  38.4593368  28.1195402
  20.8975630  37.4722695  27.2288418  83.9737606  30.3065443  19.5404446
  83.3966255  29.5435095  19.5100629  84.5628262  30.1911473  18.7948394
  78.6517811  27.8219533  80.6967163  78.3308125  26.9223785  80.6336594
  79.5629454  27.7719617  80.4077339  96.7739391  60.6454754  93.1013298
  96.7693615  60.4380703  92.1668816  97.7018166  60.6923962  93.3317184
  95.2404022  59.8682404  39.0079904  94.3556881  60.1962852  38.8470888
  95.8123112  60.4932213  38.5623980  32.9026156  18.4294593  75.1717901
  33.7058192  18.9080763  75.3767538  32.4930888  18.9375770  74.4715452
   8.0889159  19.9120402  63.2484627   7.3187094  19.4531775  62.9131269
   8.0465537  19.7896886  64.1968679   2.4939089 133.6590619  42.6948977
   3.3056861 134.1045184  42.4523592   2.1050482 133.3984501  41.8599749
 116.6329288 134.7359211  68.8128328 116.2065220 134.0062422  68.3634186
 116.9324207 134.3641181  69.6424723 122.4721813 144.8144008  74.7827625
 123.2053566 144.8342633  75.3978157 122.7703667 145.3361622  74.0377235
 119.4904137  67.1496630  45.3721476 119.6833706  66.2970781  44.9821520
 118.6715221  67.0150328  45.8491516   3.0243903  46.8229103  53.4883070
   3.5099154  46.8950558  54.3100691   2.4227267  46.0918474  53.6289883
   3.4442359  26.3393331  72.2698545   4.0812331  27.0095015  72.5175190
   3.1687193  26.5854502  71.3868189   2.2201472  25.2643251  74.7115660
   3.1011706  25.2779007  74.3376160   2.1408587  26.1018252  75.1682281
  27.0325308  25.6082129  39.4561863  26.2173968  25.2631807  39.8205233
  27.0979720  26.4942384  39.8124266  83.3347225  41.0122204   4.6584177
  83.0061626  40.2732754   4.1463196  84.0720081  41.3479662   4.1485965
  76.6932631  34.0665746  17.3041940  77.1667767  34.6335721  16.6954827
  75.9308052  33.7672639  16.8089139  12.0143252  26.6960645  26.9928145
  11.5277701  26.2644863  27.6951218  12.8418856  26.2173820  26.9455552
 100.4469967  42.2216606  42.4703884 100.2369785  41.7811346  41.6469431
 101.3178730  42.5926113  42.3282337   2.4260359  24.4438314  24.1969800
   3.1376486  24.8639417  23.7139225   2.7693873  23.5802746  24.4263601
  93.4925461  14.3418074  64.6775007  93.1458378  14.8587477  65.4046822
  94.4328976  14.2888200  64.8482418 116.2740135  23.8390303  51.1245728
 116.1072159  23.7736249  50.1842928 115.4138851  23.7252975  51.5288877
 107.7278709  21.5395308  10.4489124 106.9954014  22.0292330  10.8229589
 107.3361778  21.0240030   9.7439021 116.6991329  31.8536997  44.5010233
 116.7010212  31.0602760  45.0364733 115.9158897  31.7734337  43.9566755
 109.4812870 138.5403902  90.1112843 108.6058903 138.5283173  90.4982758
 109.4648743 139.2807967  89.5048523  89.3083382  11.4258468  60.5582047
  88.5432243  11.5272510  59.9920416  89.8386288  10.7560050  60.1265287
  91.6249180   1.7027113  28.8574243  92.1867275   0.9695206  28.6063671
  90.8869553   1.2948011  29.3104792 121.6582203 133.5405762  36.6961169
 122.1678543 132.9722685  36.1186028 120.9686279 132.9740066  37.0420861
  98.4603024  11.5100527  58.2969284  98.3427715  11.0606992  59.1338873
  97.5906277  11.5030241  57.8971100 106.3815212  43.8263464   8.8345265
 107.2231865  43.3745337   8.7737453 105.7780743  43.2769203   8.3343166
 104.0328503  43.0581522  65.6234217 104.3477154  42.1976423  65.3466225
 104.7844601  43.4592056  66.0598469  18.6111956  40.9166956  54.3855715
  18.4910994  41.0220861  53.4418011  18.2061701  41.6955996  54.7670126
 116.2222481  10.3635001  43.8189316 116.2421227   9.4065255  43.8249731
 116.4495850  10.6134427  44.7145224   7.9780417  28.6354160  70.4650640
   8.7931281  29.1186976  70.6003141   7.8278475  28.1821752  71.2946701
   2.9942160  49.1201782  65.7673645   2.9878646  49.8636293  65.1644754
   3.1049376  48.3550549  65.2029610  30.5865603  45.7499838  66.9289112
  31.1871462  45.7308912  67.6740074  30.6245928  44.8642969  66.5678787
  20.1988631 140.8679355  44.2330456  20.0011473 140.9901191  45.1616001
  21.0979014 140.5395783  44.2207861  30.5417662 113.8496513  41.3454628
  30.5643683 114.7321434  40.9754181  30.6017237 113.2699341  40.5861425
  10.8242827  42.1017408  16.9685543   9.9107771  42.2714853  17.1986055
  11.2033682  42.9706478  16.8361723  11.0096007  40.9297276  49.6955299
  10.6740695  40.4516125  50.4538536  11.8446379  41.2923145  49.9912834
  13.1948310  47.7811766  61.0218143  13.9926177  47.2540522  60.9782028
  13.4706050  48.6560869  60.7484674  16.6391020  35.6833839  41.5529299
  16.5514975  34.7915292  41.2165499  17.5334197  35.7248592  41.8916225
  32.1195441  68.5806704  31.7330623  32.9135542  69.0693474  31.9497871
  31.4558821  68.9247084  32.3309135 101.4144230  31.7625785  51.4419842
 101.7697239  31.5381432  52.3019934 100.9228611  32.5705910  51.5893602
   1.9207221  47.6934958  24.6601629   2.5478011  47.2103071  25.1982403
   1.1290198  47.7376032  25.1963496  76.4287090  43.2966852  78.3884239
  77.0076799  44.0587807  78.4039736  75.5772305  43.6371326  78.6628485
   7.8779250  11.9392216  44.1892385   7.2885638  12.1216059  44.9210930
   8.7548953  11.9905472  44.5694113  34.0623980  73.0268288  64.0003586
  34.4268065  73.7761784  64.4714260  34.7506457  72.7726555  63.3855820
 124.3027592  79.5918131  83.0678177 123.5484028  79.0556479  83.3121872
 124.4233894  80.1869297  83.8077641 110.5173492  43.3985853  25.8646178
 110.4864979  43.7581110  24.9780393 110.9732628  42.5624704  25.7682824
  21.9097643  45.0738335  54.4664192  21.2085181  44.4315624  54.5758581
  22.1310835  45.3411531  55.3584909 112.2130489  43.7281036  60.2511311
 111.5667152  43.4302616  60.8912659 112.4082756  42.9504490  59.7282791
 100.0977802  15.4128277  45.1851988  99.1678143  15.2141213  45.2943277
 100.2503490  16.1659718  45.7559252 101.2693691   8.2533699  36.4836192
 101.9243336   7.5677204  36.3526940 100.4344273   7.7858329  36.5063238
 121.9728947  19.3351090  58.3709860 121.0921574  18.9845800  58.2380772
 121.8872547  20.2717447  58.1931877 123.7262058  24.2177272  46.6780853
 124.6702862  24.3049622  46.5464067 123.3574677  25.0189877  46.3062668
  11.9666987  18.4556270  39.8272681  11.2035018  18.5845351  39.2641139
  12.5478392  19.1856813  39.6139050 112.7866745  40.3603506 105.2196789
 113.2542992  39.5576572 105.4504204 112.7495098  40.8589506 106.0359192
 110.9839725  25.5932021  62.5459146 110.1050091  25.9688902  62.5961113
 110.8600044  24.7515512  62.1071768  98.1248760  37.2636867  44.7792673
  98.0870438  37.8640604  44.0347195  98.8110733  36.6378188  44.5476532
  16.1287623  51.5916777  56.3988161  16.4711886  51.3156557  57.2489834
  15.4536181  52.2363853  56.6103935 121.7669010  54.1629934  44.8055172
 121.8680954  53.3847952  44.2574310 122.4342918  54.7698784  44.4853497
 108.3978653  40.4903936  27.2670102 109.2185593  40.2039433  27.6678038
 107.8894520  40.8507299  27.9935861 101.9068718  23.7033153 108.8152986
 101.0604382  23.5792327 109.2447044 101.7082214  24.2322993 108.0426764
 119.9011517  36.3044953 107.6117223 119.4409180  35.7459188 108.2381474
 120.3740120  35.6926417 107.0475679   2.9262953  21.4421511  22.5927401
   3.3789569  21.8052840  23.3539629   3.2365065  21.9686031  21.8559599
 119.5396233  45.7111263  36.2438250 119.5013523  46.2172318  35.4322696
 119.0530014  44.9100399  36.0496902 105.0217628 118.2138724  56.3862228
 105.7888508 117.6438207  56.3329029 105.3186798 118.9679618  56.8955564
 102.3709011  59.9179459  43.9094734 102.6522541  60.0104570  44.8197031
 103.1641197  59.6628523  43.4383440   9.9741297  43.5048866  43.5013390
  10.3763705  43.9449167  44.2502069  10.3984957  42.6474333  43.4710884
 112.5676155 137.1607513  44.6740818 113.5075283 137.0498527  44.5309258
 112.4650002 138.0893362  44.8824883 110.0340939   1.0667549 107.4351474
 110.5341053   1.6057318 108.0481140 110.6820869   0.7634062 106.7992850
 118.4602356  53.0773449  54.9184322 118.7966537  52.2575998  55.2804708
 118.6121464  53.0032587  53.9762735 100.0547981   1.8668830  37.4486756
 100.2194309   1.7957467  36.5084291 100.9261894   1.8711589  37.8447652
 104.9154949  52.0565224  37.1640801 104.1422939  52.6101494  37.0551014
 105.6418514  52.6738930  37.2506666   2.6460581  16.0587180  10.1878214
   3.2804328  16.4785194   9.6068233   2.4144202  15.2444351   9.7411430
 115.0928974  38.1865501  59.2704296 115.5902958  38.9898705  59.4237375
 114.8003101  38.2557535  58.3616781 121.0130596  50.2941704 107.5666332
 120.5530834  49.8818064 106.8354657 120.3392315  50.8036327 108.0167735
 116.8529129  24.5899916  22.4676728 117.0441723  23.7208819  22.1151137
 117.0531750  24.5192361  23.4010124 110.0306034  13.3235550  50.5386591
 110.2618599  13.7151253  49.6963882 110.4170322  13.9095891  51.1894035
  85.6460476  21.3289738  36.0377312  84.8513412  21.4883542  35.5285382
  86.3182068  21.8540120  35.6032634 109.4742680  39.7093511  36.9115114
 109.6275711  39.3749285  37.7951932 108.5350609  39.8920536  36.8841481
 124.3827724 144.9391279  23.6929727 124.8436546 145.7269115  23.4044909
 124.5385647 144.3017561  22.9960346  90.0061512  75.6416655  62.1485090
  89.3932152  75.6477594  62.8837013  89.4586658  75.4731512  61.3816357
   9.3160277  55.0409698  63.9175510   9.6085959  55.9316063  63.7241507
   8.4239417  55.1482677  64.2475605 107.3405170  20.8108830  21.7436171
 107.3181915  21.5578771  22.3417234 107.3896790  20.0461650  22.3172212
   3.9674121  53.5882568  65.2930403   3.7553340  52.7932978  65.7822180
   3.1242018  54.0227842  65.1649523  97.8900242  28.6951184  30.0845575
  98.7819958  28.8693476  30.3850150  98.0026722  28.2596469  29.2396259
 105.1042080  21.1420798  73.7115288 104.5599461  21.0410643  72.9306269
 104.6181583  20.6915069  74.4021606   3.8494044  31.5687203   7.6342273
   4.3830138  30.7740664   7.6384562   3.6433917  31.7139745   6.7108142
 111.4307594  28.3154607  38.6328959 112.0840263  28.2381964  37.9375505
 111.9446564  28.4014797  39.4358516 117.1181870  26.6685247  69.5540428
 117.4776649  26.3266349  68.7354374 117.7233410  26.3602901  70.2285862
  13.3306342  58.5794878  21.3953948  13.3592921  57.7354002  20.9449172
  14.2487841  58.7947321  21.5594101   6.4466696  30.0131965  63.2720375
   7.1908312  29.6259785  63.7330341   5.7817298  29.3246603  63.2697439
 115.2916813  14.2781341  73.7906837 115.3990459  14.7291207  72.9532385
 114.3663216  14.0344739  73.8145876 114.9889183  43.0120516  19.5233989
 114.8478889  43.1043386  20.4656434 115.1250458  42.0736837  19.3923664
 123.5551834  47.6639080  36.2732053 123.6733913  46.9259167  36.8712306
 124.0361500  47.4126339  35.4846883 121.5884495 136.2627978  81.9322968
 121.7765808 135.3902025  82.2778606 121.9412327 136.2492425  81.0425758
 113.2562542  26.0220623  61.2356806 113.9085674  26.4904737  61.7565632
 112.4321079  26.1616826  61.7020750 114.8069477 140.4028512  61.2768936
 114.0117455 140.4643495  61.8061399 115.1877403 141.2802697  61.3138962
 123.6777878  69.2719889  30.2040267 124.2372990  69.4806957  29.4559503
 123.2028675  70.0838280  30.3817892  90.2742386  16.7767668  26.3627791
  89.8158741  16.0637045  26.8073893  91.1844921  16.6895962  26.6457462
 112.6098251  70.2574253  37.4097180 113.0439186  69.9670696  38.2118940
 111.7171764  70.4684591  37.6833630   9.4284659  26.0800958  40.6034517
  10.2207308  26.4071083  41.0296106   8.7102156  26.4533806  41.1143398
  24.6643191  23.5998583  58.0550814  25.0318747  23.8124919  57.1972179
  23.7542372  23.8921762  58.0048561 105.8219147  25.2815700  66.2786388
 106.3271141  24.6648598  66.8084288 106.4808846  25.7654285  65.7807684
 107.0855522 145.5934863  76.5583181 107.6297474 144.8967657  76.9252872
 107.5837135 146.3952721  76.7170954  13.6355429  50.6112099  47.1012068
  14.1059332  51.4330673  47.2409248  13.2647353  50.6938505  46.2226248
  74.5245028  23.3877683  37.6410103  74.9765682  23.2610536  36.8068552
  75.2277613  23.4529138  38.2870841   1.9618826 119.9059434  26.0772872
   2.6259165 119.2836017  26.3739204   1.1659365 119.3819899  25.9869051
  89.4634819   4.8873293  45.2420568  90.0720692   5.5538034  45.5609035
  89.6033096   4.8685798  44.2953110   7.8729086  69.5253515  62.5519037
   8.2055884  69.9240208  63.3560276   6.9811659  69.8630524  62.4682999
 122.9180145  47.2749662  64.8232794 123.1160736  47.4115276  65.7497549
 123.7655640  47.3460579  64.3841505  21.2194758  13.9323509  35.5772996
  21.2650328  13.4827709  34.7334790  21.5119486  14.8242342  35.3895974
 106.5567493  43.1545401  47.2524834 105.7850647  42.8598595  47.7361107
 106.7240810  42.4559927  46.6198158  49.7836810  49.9200201   6.3168526
  49.1150599  50.3281879   5.7667714  50.5089312  49.7401190   5.7186186
 118.7191868  40.7919836  25.3182483 119.3488312  41.5085220  25.2385187
 118.3581924  40.6912422  24.4374752 112.2489548   3.0835927  63.1802225
 111.8822289   3.1100494  62.2964525 111.6129875   3.5557619  63.7176609
  16.3743525  24.3516970  92.1865940  16.0351782  24.5179772  93.0661106
  17.2925501  24.6187258  92.2295284 123.6699104  48.3980370  39.4156885
 124.2235470  48.8597870  40.0453806 123.3014488  49.0908527  38.8675284
  15.9029322  10.8190763  61.9949865  16.1270171   9.9041462  61.8249226
  15.9407073  11.2386656  61.1354780  14.4973784  54.2169237  33.3665109
  14.0821295  54.5150280  32.5572324  15.3752642  54.5974827  33.3395314
   5.9122878  19.5865667  36.7798543   5.0966292  19.1279101  36.9812751
   5.8730727  20.3864169  37.3041964  90.5161858  76.5793562  45.3101254
  89.7655773  76.4157486  44.7391176  90.1359749  76.9571972  46.1031628
 115.0965881  24.3703961  38.1883001 115.9425163  24.5092416  37.7624249
 115.0781155  23.4337115  38.3845568 111.3367653  44.3928385  63.5396004
 110.8239555  44.7745132  64.2520523 112.0394611  43.9146280  63.9797783
 112.9626942  34.0722775  40.5708647 113.8686275  34.0182567  40.8751440
 112.7301502  33.1704879  40.3496599  81.4232635   8.5367996  37.3102999
  82.3393726   8.6705130  37.0672107  81.3635063   7.6036370  37.5149226
   1.5086680  18.8620222  25.7120252   1.1561518  18.7273121  24.8323536
   0.9513789  19.5412266  26.0919547  98.7152958   3.4431967  33.5976911
  98.6792946   4.3941426  33.7008309  98.1426907   3.1057250  34.2865062
  90.8079433  52.5021791  99.9328288  91.1193085  52.0136547 100.6948169
  90.2318287  53.1737614 100.2979340  86.9583988  21.0999298  64.5742035
  87.1899223  22.0251751  64.6551323  87.0934963  20.7416105  65.4514694
 112.3539734  32.6572108  21.8799901 112.8309631  32.6795244  21.0504031
 113.0194569  32.8379464  22.5438428   6.2983828  22.3972273  42.1336794
   6.8957263  21.9281578  42.7162504   5.8195620  22.9925013  42.7104044
  74.5080757  10.5738103  43.3848906  74.2698622   9.8323530  42.8283644
  73.7107563  10.7698810  43.8768959  22.3813944  30.6863737  34.2478752
  22.8121310  31.4903212  33.9574194  22.7583628  30.5107141  35.1100087
   9.4040328  32.4155021  74.8686695   9.7143107  33.0656385  75.4989719
  10.1721125  32.2147536  74.3338966 110.7688046  25.2461910  33.0965996
 110.8284569  26.0888815  33.5466480 109.8476982  24.9977469  33.1744838
  12.6535922  82.7005482  37.7078652  13.6000376  82.8426647  37.7246118
  12.3354273  83.1114864  38.5116911 111.0171127  53.9853954  44.2421818
 111.9052315  54.1162395  43.9099836 111.0289478  54.3738270  45.1169491
 121.5844917  32.5581074  72.3697710 122.0332050  32.0759296  73.0643177
 122.2432423  32.6563025  71.6822767  98.5837936   1.3336436  40.9014320
  98.6831665   2.2856198  40.9112930  98.0860138   1.1365629  41.6949129
 107.1690750  10.4850173  35.3179741 107.6681423  11.1578846  34.8549223
 106.7154980  10.9599435  36.0143518  99.2147732   6.8201125  29.3961000
  99.5767498   7.3522490  30.1046443  99.9147892   6.2052256  29.1767144
  14.4547110   6.8320882  98.1861576  13.6444026   6.5347528  98.5999545
  14.2344885   6.9116402  97.2580382 101.7017365 126.3542170  34.2442107
 101.8754768 125.7580990  34.9726963 100.7780552 126.2145872  34.0355372
  32.6505213  39.9193025  12.3402643  32.4525099  40.0490332  13.2677317
  33.2745486  39.1935873  12.3278093 117.5065804  19.3686712  46.9830227
 117.1650410  19.2414331  47.8681183 116.7420769  19.6210563  46.4652777
 113.7313175  12.5897646  34.4582868 113.2191563  12.2336388  33.7322664
 113.6982059  11.9096529  35.1310301  20.7960063  43.6919594  59.1377497
  20.2948599  43.0148077  58.6832666  21.5468913  43.2270575  59.5068979
   4.9648123  36.7416310  24.4559455   5.2695494  37.5470281  24.8739243
   4.7155219  36.1731505  25.1845884  85.3365326  36.4968967  35.0293159
  85.1534462  37.1658587  35.6890130  84.5077801  36.0292149  34.9260378
  63.3421421  28.5791707  15.0388408  63.4825611  27.9753494  14.3095148
  64.2175961  28.7339139  15.3936243  94.5027924  28.3018804   7.9687470
  94.7170258  28.3790970   8.8984638  95.1123619  27.6429272   7.6364219
   4.4989997  44.9524450  44.5568657   3.7192565  45.1328325  45.0819349
   5.1671820  44.7070456  45.1968193 124.4976711  24.8267722  52.2568893
 125.1537132  24.1421747  52.3878765 124.3374538  24.8275661  51.3131952
  30.5846148  53.2407045   2.6164222  30.3855639  52.7536011   1.8168357
  31.5270453  53.4017706   2.5704187 122.9622650  39.6879172  28.5950065
 123.4656334  38.9491224  28.2529163 122.4615288  40.0050831  27.8434062
  20.7708674  30.3782535  45.2419472  20.1891928  29.7120047  45.6080103
  21.6433554  29.9876451  45.2911234  24.7495013 132.6292677  53.8335133
  25.0209742 132.1328909  53.0614090  23.9779692 133.1171436  53.5455179
 122.8782654  31.6767550  35.7081699 123.4442234  30.9649801  35.4093313
 123.1413746  31.8268275  36.6161823 115.7576847  16.2707758  47.8473473
 115.5299091  17.0787823  47.3874807 116.5050030  15.9214032  47.3618793
 106.8975639  46.1092186  76.4367247 106.2388706  46.7783260  76.2505865
 107.7344227  46.5474367  76.2822533 115.0386143  52.5640440  35.5419159
 115.6909275  53.2103729  35.8120441 114.2039394  53.0296087  35.5948544
  75.4935312  26.9201779  35.0730801  74.7411060  27.2932744  35.5323052
  75.3816700  27.1988177  34.1641903 112.7549648   0.2140825  13.8431191
 111.8372631   0.2316337  13.5715771 112.7511597  -0.2697986  14.6689975
  95.2561188 145.3156079  53.3753300  94.7751045 145.7838097  52.6929522
  95.6972694 146.0041942  53.8727903 117.4872112   9.0922093  71.3571119
 118.4250546   9.0880376  71.5486145 117.0671463   9.0956104  72.2172022
   8.1271582  59.4720459  57.4728918   7.9956942  59.0925074  58.3417416
   8.0081873  60.4129982  57.6020575  10.4536563  28.3255744  78.7360334
   9.6447497  28.7304807  79.0490103  10.7788020  27.8286505  79.4867516
 113.9845657  31.2790108  70.5232477 114.2651176  31.7441773  69.7351217
 114.7953892  30.9404945  70.9029770 108.8386536  10.4801750  86.5825176
 107.9090405  10.5277383  86.8056870 108.8708878  10.6798208  85.6469250
 101.3565159 135.3138477  16.3825822 101.3131428 136.1394531  16.8649983
 101.1980438 135.5602963  15.4713285 108.4212112  11.3815129  49.2633724
 109.0734673  11.9342649  49.6937847 107.6292229  11.9186234  49.2411518
 110.7419205  17.5602639  34.0993786 110.8254814  16.9643652  34.8437953
 111.6362190  17.6644087  33.7743878 123.6830616  28.2681870  56.6294384
 123.0527210  28.6077499  57.2647285 124.0239525  27.4701381  57.0333529
   1.2712603  58.9292097  78.2054663   0.7940322  59.1461754  77.4045849
   1.9806223  59.5708036  78.2428503   6.6693812  24.7277236  39.7835112
   7.3653060  24.7930527  40.4374599   7.1298724  24.5778036  38.9578581
  98.4687328  13.4623563  67.6669312  99.2039013  13.2276356  68.2331991
  97.6979065  13.3790374  68.2282782 106.2026882  49.8371172  38.9791632
 106.6941547  49.5573616  38.2068753 105.4990578  50.3841782  38.6300826
  17.5715762 143.8650868  29.0239120  16.8920546 144.2183948  28.4497571
  17.1478396 143.7907872  29.8789907 123.2953358  55.7264566  43.3597660
 123.6497116  56.6079044  43.2427311 123.8898373  55.1617670  42.8658819
 114.3550396  44.7307587  50.0251722 114.9110699  44.1801500  49.4739199
 114.9431324  45.0610781  50.7043314 104.9101162  20.1608419  41.2506056
 104.2733479  20.7194710  41.6963577 105.1042175  20.6225705  40.4349089
   3.1810027 125.7430048  53.8277483   3.6355239 126.0606737  53.0475378
   3.7649947 125.0770611  54.1906595 121.0196972  23.6300135  72.9182053
 121.8994141  23.7744570  73.2667303 120.4515648  23.6445093  73.6884308
 110.6826210  19.7034132  92.1752071 111.3846779  19.5279431  91.5486717
 110.8400249  20.6017113  92.4659252  11.1330920 130.5848248   7.7277064
  11.8023234 130.8420033   8.3619070  11.2714129 131.1699969   6.9829440
   1.5766364  40.2555370  92.8895283   1.0028582  41.0204554  92.9331875
   1.5486270  39.9872208  91.9711304   2.1170836  13.4557819  46.6996050
   1.2534934  13.8643396  46.6402435   2.6757365  14.1313338  47.0840168
  69.1709471  14.3863952  12.2881126  69.6789026  14.9311638  12.8893125
  68.6999846  13.7771964  12.8567088   0.2911501  21.6593194  23.8396740
   0.8859377  21.6632009  23.0897141  -0.2122659  22.4685240  23.7503004
  95.7046890  38.9243364  23.8273501  95.8327484  38.0294585  23.5126591
  95.9949112  38.9013958  24.7392058  24.9997931  39.0939140  68.8451290
  24.9097186  39.9523878  69.2588186  25.2705985  38.5127640  69.5558739
  74.8144627  28.1549311 107.8095586  74.2760229  28.9087725 107.5686524
  74.7900867  27.5872326 107.0392623  24.2366248  20.6979942  16.8011963
  25.0611525  20.8784223  17.2526896  23.8918524  21.5624881  16.5775657
   1.6886836  19.7330451 108.0611914   2.4137621  19.1988909 107.7368929
   2.0496016  20.1914644 108.8200212 111.3201332   8.0280483  34.7921443
 110.4926777   7.8776097  35.2492142 111.0842323   8.0310029  33.8644719
  91.0028553  29.4812703  27.5208879  91.9420624  29.3110681  27.4490714
  90.6674290  28.7553644  28.0469918 116.9678116   6.5974355  13.8742948
 117.4466991   6.9613552  13.1296718 116.7033291   7.3620647  14.3857825
  88.8023281  25.1293898  50.9344339  89.2019939  24.3049645  50.6572580
  88.8769150  25.7006383  50.1700115 103.3459091  37.9745078  23.1843591
 104.2824936  37.8559661  23.0262351 103.2002735  38.9133549  23.0677915
 101.5788841  59.2277431  30.9702802 101.1286354  59.0948057  31.8044496
 101.3002396  58.4901905  30.4275036  90.3113461  38.0753398  66.2426853
  90.6847382  37.6816154  65.4541492  90.8474636  38.8527298  66.3991356
  93.7094307 140.1792932  48.3367443  94.5494843 140.2397771  47.8819132
  93.5469723 139.2392934  48.4157515   6.9348841 140.7695080  49.4840002
   6.3703471 141.5075884  49.7137165   7.5252085 141.1182857  48.8160896
 118.5577297   6.1891073  31.5809560 117.8035069   5.9754109  32.1302414
 119.3031883   5.7947558  32.0337391  33.8830405  18.0281067  29.9789739
  33.7332564  17.5843823  29.1441679  34.4799071  17.4497986  30.4538918
 107.6392078   9.6350968  56.6344881 106.9473839   9.7747666  57.2811031
 108.4450150   9.5990390  57.1498537 120.7504749  49.2422533  42.4289703
 120.0084496  49.2266226  41.8244982 120.3617001  49.0856504  43.2895279
   5.7932883  22.8068113  17.7716720   6.5231734  22.1975112  17.8823853
   5.0842887  22.2695470  17.4182677   8.3943015  54.9416733  85.1277217
   8.9111739  55.0096941  84.3249472   8.9673930  55.2881432  85.8116516
  99.3238544  50.5829334  23.0240560  98.5877419  49.9797487  22.9214334
  99.3462944  51.0752487  22.2034764  82.4667168 140.5952073  14.4079340
  82.8444481 141.3230879  14.9016345  81.7882919 140.9992666  13.8669086
 114.0723801  43.3833504  29.7632384 114.2654705  44.3104887  29.6240926
 113.6521816  43.3525801  30.6227255  86.1873245  35.3221607  13.2712245
  86.0012150  34.8790455  14.0990198  87.1302795  35.2132106  13.1479490
   0.7992011  46.0628939  55.1951504   0.2324610  46.8220997  55.0586271
   0.7056838  45.8584166  56.1255646 124.2359257  24.9605799  30.9828901
 123.5026932  24.8744130  30.3736401 125.0140381  24.9384832  30.4258633
   4.1659957  31.5041637  12.7176893   4.2065554  31.6508293  11.7726624
   4.3609362  30.5730915  12.8241539 114.9163914  55.5127335  62.6349068
 114.4309330  55.5131817  61.8099451 114.6389198  56.3153601  63.0765295
   0.6579428   6.0521829  13.9604628   0.3944903   5.1990777  13.6154461
   1.4017706   5.8602607  14.5315313  22.3149043  13.4071064  56.4834499
  22.9148512  12.6643574  56.5514278  21.9743662  13.3589494  55.5901718
  86.3475037  51.7706108  31.1453533  85.7669258  52.5081110  31.3331103
  85.8998013  51.2833929  30.4536772  19.5369940  51.8924570  33.1406927
  18.5894137  51.7930460  33.0488157  19.6449118  52.6872683  33.6630535
  -0.1024694  60.6550026  45.7508087  -0.1365728  61.2205029  46.5223503
   0.7883959  60.7593250  45.4165792  79.2224073   5.9592402  15.4736817
  79.7933149   6.1598158  14.7320163  79.6985292   6.2851590  16.2374365
  96.5637398  -0.1347547 102.5138851  95.8364582   0.4422991 102.7469256
  97.3229027   0.4458996 102.4615034   4.3763953  54.9725151  35.6844974
   4.8934203  54.6474504  36.4215517   3.6314517  55.4151011  36.0912061
 110.8043766  11.9548321  46.1443520 111.7493057  12.1068776  46.1295033
 110.4986286  12.4230123  46.9212437 104.3202305  53.2497644  28.6088824
 104.1448212  52.9670382  27.7113676 103.6228561  52.8481150  29.1271353
  89.4442940  75.6177902  48.2743216  88.5621929  75.7615805  48.6170292
  89.7252560  74.7946072  48.6739063 104.6120930  12.5486624 103.2399025
 104.1962624  12.7079582 104.0872159 104.3072128  11.6783464 102.9833260
  10.9285098  31.1433887  45.2805948  11.4643126  31.1974502  44.4892502
  11.4723902  31.5329790  45.9651709 108.2799435  33.0975389  33.3086276
 109.0306664  33.4353161  33.7970448 108.6601067  32.4865866  32.6774096
  99.6985531  39.3411565  50.3003931 100.2987385  38.9809299  50.9532690
  99.5002842  38.6029649  49.7242022  17.9098349  69.0234137  22.2933149
  17.9098349  68.8408041  21.3536954  18.8321143  68.9798594  22.5457668
   5.9003001  37.1129084  74.4633579   5.1108294  37.6409674  74.3445063
   6.0348635  36.6891432  73.6156845  22.9024249 143.4998561 107.4039363
  23.1767302 142.8066448 106.8035664  21.9529658 143.5505397 107.2934743
  11.7789965  11.0682678  42.5213480  12.6356154  10.8498108  42.1543121
  11.3706236  10.2206385  42.6974010  32.1366530  34.9350786  21.6619706
  31.5709429  35.1851892  20.9314656  32.9381686  35.4409981  21.5283227
  24.2618685  55.1217175  14.1486454  25.0255519  55.6202507  13.8579822
  23.9645320  54.6601725  13.3645535   6.8237334  53.5534382  53.3476830
   6.5957289  54.4759703  53.4624529   7.7128344  53.4814739  53.6948872
  95.1031399  13.3008337  31.6042447  94.3143272  12.7597022  31.6386342
  95.6245613  13.0120182  32.3532033 113.2409763 142.6628343  69.6994543
 113.6439037 143.3002285  69.1098738 113.0061913 143.1702370  70.4764032
  24.0187102  47.8515434  27.4615264  24.3561965  48.3916235  28.1761169
  23.9786749  48.4446812  26.7113161  24.6550494  14.6747124  26.5672183
  24.8994761  14.1306591  27.3158789  24.0017825  14.1562319  26.0974908
 113.4216881  29.1059589  54.7610331 113.5838127  29.9768591  54.3984365
 113.8999271  28.5125589  54.1819000  13.4408694  42.5671434 101.9050016
  13.5671168  42.0721340 101.0955205  12.9455882  43.3413410 101.6375431
  87.1984863  75.3643847  96.2511464  87.5910473  74.7626734  96.8836590
  86.3971043  74.9244213  95.9675165 112.3164368  52.7559280  31.8350983
 112.4870491  53.6704254  32.0605111 112.8000069  52.6156759  31.0210180
  89.4377422  42.2057199  45.4100323  89.3360519  43.0678701  45.8132505
  88.9880562  42.2804070  44.5683432  85.6803131  21.8088675   3.4930852
  86.2191677  22.2557497   4.1458976  85.5887127  20.9169006   3.8280997
 112.1070004  42.1238995  74.4020462 111.5009975  41.4789486  74.0373087
 112.8907394  42.0509863  73.8573790   6.4754134  30.4616833  40.3208303
   6.7193251  30.6902933  41.2177563   6.9356185  31.1010647  39.7771096
 114.2933846  48.5782242  88.6767849 114.7742748  48.0818653  88.0145081
 114.0625000  49.3983936  88.2406171 122.3792076  20.5256581  74.4214678
 122.6374912  21.3924456  74.1080999 122.7079582  20.4879189  75.3196478
  22.0677119  47.2971725 109.0746845  22.6650172  46.7796564 109.6147123
  21.7081862  47.9509449 109.6743206 119.7785854  40.1755047  39.7790456
 119.2267990  40.6167364  40.4248619 119.7964573  39.2617583  40.0636101
  26.5378314  39.1915488  47.3444176  25.6954222  38.8078022  47.5879431
  27.1811896  38.7017059  47.8566456 119.2166424 142.3566801  15.5131471
 119.3663502 142.9725260  16.2304711 118.2948208 142.4751950  15.2841759
 102.7287102  36.8516755 109.3076814 102.3237133  36.3250422 109.9967882
 103.5565948  37.1466184 109.6869479  90.7276154  54.7163343  21.4634347
  91.6253185  54.8672009  21.1674547  90.4453564  53.9370060  20.9846854
  70.9220123   4.2924488  17.7038121  71.3229465   3.9820886  16.8919241
  70.4006195   3.5512537  18.0120504 118.5161018  34.7222114  35.3815007
 117.8618717  35.0601578  35.9930563 119.3314552  34.7149301  35.8828878
  13.1503993   9.9294806  21.9151258  13.7014895   9.5679229  21.2210059
  13.2270938   9.3014753  22.6334286 104.8252392  13.4303379   6.1390674
 104.6823597  13.8701129   6.9771689 104.9336624  14.1434443   5.5098176
  99.9559689  26.2486339  44.6111155  99.1493034  26.2210512  44.0965605
  99.6741390  26.0691452  45.5081034  75.9525919  27.4528670  27.8425980
  75.1079464  27.2945523  28.2641912  75.8380651  28.2837605  27.3813701
 103.8787270  47.2974920  26.3793874 103.5006618  46.9682693  25.5639696
 104.3047047  48.1181192  26.1317134  91.9181538  21.2585711  24.1530704
  90.9681988  21.1900592  24.2485380  92.0925808  20.9482431  23.2645297
   6.4267283  26.6165853  28.3491373   7.3478346  26.8326116  28.4944630
   5.9470397  27.3719192  28.6891413 105.5630112  26.3581395  16.8021178
 106.1137390  26.2491941  16.0268354 105.8295822  25.6487584  17.3868799
 114.9140453  31.9784570  26.2788057 114.7299385  32.9175282  26.3007784
 114.8070049  31.6921115  27.1858788 122.9091644  33.3259130  28.3667183
 123.8078880  33.2733321  28.0414987 122.5975895  32.4208975  28.3569646
  96.1951637  33.2393074  51.9073534  97.1394157  33.3251786  52.0386887
  95.8140564  33.9288545  52.4509573 101.8048763  52.3240089  44.4783258
 101.5379906  52.8128767  43.6998558 101.9692707  51.4366627  44.1592264
  74.0185499  34.9157333  12.8543913  74.6635771  35.6210852  12.9058754
  73.1975698  35.3573298  12.6371050 122.6537895  43.0002260  50.5291748
 122.3533154  43.6115789  51.2016296 121.8494606  42.6311779  50.1643562
  85.7036591  20.8866501  21.8818545  85.3297234  20.3805494  21.1605573
  86.6235447  21.0005045  21.6429281 106.5675163  35.4137945  65.8507967
 106.4794254  34.5561242  65.4350138 107.4476147  35.7058191  65.6133413
 112.1755600  33.1647420 107.5902718 111.2294674  33.0194998 107.5969748
 112.5135803  32.5723648 108.2618821 115.5036831 124.2700095  32.5209260
 116.1798191 123.6012263  32.4122930 115.4330063 124.6812839  31.6594791
 105.5008125  37.2316074  43.8397312 106.1920071  37.4241233  44.4733095
 105.8569431  37.5236797  43.0006218 121.6172504  35.5435014  11.8361890
 122.4282360  35.2110410  12.2208858 121.8302155  36.4355898  11.5622234
   0.7354384  18.8394225  11.6759670   0.0383502  18.3065414  11.2934244
   1.2685996  18.2170987  12.1706295 104.3766975  38.7400365 106.4559411
 104.9466228  38.7436271 105.6869128 103.4985542  38.5977149 106.1026066
  63.7506723  18.8891554  22.1030021  64.6520519  18.6983502  21.8435121
  63.5234213  19.6806967  21.6150951  24.2296534  41.3450050  33.5279632
  24.4610339  42.2225142  33.2235527  23.2760935  41.3090611  33.4526706
   3.7936335  17.3431730  36.4189625   3.6464625  16.8125701  37.2019267
   3.2579356  18.1246686  36.5550637 122.3380184 146.6065266  60.8010101
 121.7669010 145.8547080  60.9585905 122.8853798 146.6598755  61.5844488
 120.8127403  48.4626818  19.2823672 120.2451897  48.9251947  18.6657643
 121.5614033  48.1832266  18.7554526 105.5190945 137.5019849  21.6896200
 105.8842754 137.8506971  20.8764338 104.9507141 138.1998063  22.0155454
   4.0927058 135.3325457   7.8886950   5.0145178 135.1603503   8.0806142
   3.9700251 135.0115175   6.9953173  92.9946518  46.8459463 105.1166602
  92.3933506  46.6138840 105.8243432  93.8535404  46.8899345 105.5369034
 119.4876289  33.3094311  76.6982269 118.7497711  32.8029132  76.3587713
 119.1237831  33.7967086  77.4374151  30.8523875 113.7613625  27.2969627
  30.9495097 114.0058345  26.3766193  31.0046797 114.5746703  27.7781796
 122.2680950 136.8577821  49.8611975 122.2920418 136.0696799  50.4039240
 121.7468262 137.4811918  50.3670311   0.6672888  22.9205823  71.6649485
   0.1673155  23.4922528  71.0823250   0.8416396  22.1384501  71.1413956
   7.3654967  20.5104852  18.9164114   8.2395869  20.1362324  18.8062620
   7.1977358  20.4543805  19.8571241 117.3522186  24.5827675  87.3189672
 116.6592884  23.9224052  87.3208102 116.9451618  25.3559828  86.9282254
  10.2977019  22.5752997  25.0342011  10.5408125  23.2420969  24.3919349
  10.0901442  21.8019581  24.5097089  13.2219058  73.1332302  68.6165476
  12.3693114  73.0503607  68.1894112  13.1962805  73.9924002  69.0377378
  95.8217525  39.9040937 105.5840408  95.4903412  40.7267046 105.2238842
  96.6807079  40.1282120 105.9420820 113.3115101  57.4696255  25.3741550
 112.4292183  57.8134823  25.5139589 113.3435535  57.2650671  24.4396186
 117.7056313  21.8284106  73.6274290 118.5015678  21.3074446  73.7337494
 117.0872974  21.4515424  74.2534256  89.4115734 142.6330654  55.2783346
  89.4088459 142.9352499  56.1865807  89.2247868 143.4184597  54.7640419
  84.6177959  41.2069559  28.7285066  85.4785442  41.6141081  28.8262987
  84.3257046  41.4709377  27.8560209 120.1501465  40.5606508  49.6614885
 119.3468094  41.0811090  49.6637726 120.0328827  39.9359989  50.3772354
 111.7906284  39.5216751  89.9734592 112.3306465  39.3835425  90.7516098
 111.0969257  38.8658881  90.0438404 116.4094162  36.6224003  72.0107317
 116.5202045  36.6162395  71.0599852 115.5617142  36.2021780  72.1558142
 104.9538994  31.4561820  21.4388347 105.1109695  30.5351472  21.6468215
 104.0004253  31.5396595  21.4262700  36.3460284  56.8626213   4.4479814
  35.9670001  57.7224445   4.2655575  36.0298472  56.3056707   3.7366015
 117.2993851   3.3610025  36.2421679 117.6815128   2.9779831  35.4525447
 116.4484310   2.9313949  36.3290882 118.3314610  38.0063438  45.3934956
 118.2450676  38.2747579  46.3082218 119.1924286  38.3304620  45.1290703
 101.4292049  28.8202691  35.7911658 101.3501263  29.7632384  35.6470013
 102.1316147  28.7345982  36.4357710 112.4575233  46.4265108  21.9201112
 113.1694698  46.0117531  22.4072790 112.5553131  47.3611116  22.1022773
   5.9055834  37.9003739  12.5088513   6.1384802  37.0171523  12.2226501
   5.1490813  37.7748299  13.0817163 123.1379509 137.7365524   0.7850840
 122.7860355 138.3268798   1.4513448 123.2828045 136.9115920   1.2484314
  99.2270565  30.8864403  17.4767375  99.3704510  30.1332426  16.9037092
 100.0899029  31.2926364  17.5588346  30.3362494  50.2110863  20.7993650
  29.6686011  49.5257473  20.8273602  30.6020194  50.2491617  19.8805904
 117.7755833   1.6150256  31.2582946 117.3305702   2.4624574  31.2506223
 118.5896301   1.7676231  30.7784271   1.7398291  23.4865475  39.0044928
   1.6682177  23.1366134  39.8925519   2.5463229  24.0020156  39.0144920
 101.4379978  27.2612286  16.8575132 102.1679401  27.5802970  16.3268447
 101.7662621  27.2865582  17.7563059 119.5693302  26.8300390  40.1027393
 119.2427349  26.4771891  40.9304285 120.4836845  26.5491700  40.0668049
  93.9738369  41.1698008  47.6135159  94.8412895  41.5162182  47.8226995
  93.4506989  41.3457537  48.3955622 116.0415268  40.7356405  18.2348549
 116.7287445  40.1325750  18.5181892 116.1368370  40.7773590  17.2833252
  18.0146437  67.8978014  54.7817850  17.9266482  67.6919794  55.7124424
  18.2272845  68.8308716  54.7619057   4.2598467  35.2605224  41.5644741
   4.9779158  34.8283291  41.1020756   3.8459616  34.5615745  42.0708323
 107.4034309  21.7626905  55.4961681 106.6739178  21.4187908  54.9806404
 107.8452015  22.3746777  54.9074888 111.9684696  19.1797912  21.8306947
 111.8054008  19.8941994  21.2148523 112.6909828  18.6876786  21.4407754
  97.0710087  61.4153433  56.5113592  96.3293171  61.1847734  57.0707893
  97.6663113  60.6692410  56.5833044   2.2702628  30.0246906   9.7242677
   2.9565459  29.3712234   9.8592794   2.6750308  30.6842160   9.1608632
 112.0295525  11.4882684 108.5098017 112.4461269  11.0586607 107.7627186
 112.3408031  12.3925817 108.4702111  13.2166415  40.0816584  41.8175888
  12.4613696  40.4468536  42.2784853  13.7197238  40.8466482  41.5384197
  22.2827941 141.8611977  33.1698227  21.7014437 142.4637292  32.7059078
  21.7271071 141.1132402  33.3889198 121.6493797  60.1931763  40.2874947
 120.7192612  60.2397251  40.5087185 122.0708561  59.8822260  41.0886812
 107.3412323  55.5783319   7.2598970 108.1748962  55.1079893   7.2618186
 106.6933823  54.9164867   7.0180559  11.9430380  35.9916067  17.6765072
  12.0403510  35.8480096  16.7351568  12.2402793  35.1738858  18.0755186
   9.8781233  15.2297223  21.3515306  10.3961020  15.5813503  22.0756054
  10.5267268  14.8782814  20.7415819 115.4389000  19.2381382  72.3434877
 115.7420444  19.2916596  73.2498407 114.5887375  18.8020325  72.4006462
  14.6211272  19.1239691  21.4640450  14.5681124  19.1126657  20.5083799
  14.9187499  18.2447672  21.6978288   4.7715312  21.4975405   7.2500199
   5.0323802  21.6817784   8.1523764   5.5556613  21.1270595   6.8449211
  10.1122981  29.8924398   7.2029865  10.9685069  29.9423456   7.6280177
  10.2044135  30.4281759   6.4151210  80.5271626  10.2483988  13.7012005
  81.3207912  10.5424023  13.2540309  80.8396912   9.8856008  14.5300186
 111.7870140  43.5157824  96.9492861 111.1447334  43.6610794  96.2545892
 111.4130211  42.8106165  97.4775859  72.7206278  11.7310321  33.4118676
  73.3794737  11.0442841  33.5144782  73.0520582  12.2762215  32.6983190
  89.5077801  40.9910822   4.7727603  90.1740170  40.3252840   4.9432635
  88.7277985  40.6709909   5.2259785 107.2197151  58.2194138  18.4715533
 107.8076363  57.5709486  18.8589394 107.7198982  58.5929728  17.7459466
  91.2650871  14.9754238  20.6256938  90.3959751  15.3318310  20.8097029
  91.5919018  14.6888316  21.4785051 110.8009434  48.2978392  14.9515510
 111.0987759  47.4811125  15.3521454 110.9774494  48.1848145  14.0175796
 107.6690483  39.8315907  83.6477089 107.3356438  39.0470695  84.0831375
 108.5926723  39.8692083  83.8961887  13.4323149  12.5083375  70.6280279
  13.1635981  12.7293503  71.5197563  13.0398589  11.6505992  70.4652548
 118.8362312  20.2874017  37.0321298 119.2249012  20.3218985  37.9061866
 119.4380856  19.7438443  36.5236568 110.6903744  41.3077641  55.4902411
 110.3956795  40.9205532  56.3145351 110.1038837  40.9395027  54.8294449
 113.0354595  46.8976688  33.7940717 112.8988647  46.0093451  34.1233969
 113.0339813  47.4466658  34.5781827 108.6429214  34.4958591  36.8271565
 109.4337749  33.9581728  36.8680978 108.9657688  35.3868318  36.6923547
  84.0256977  38.5100365 107.2619542  83.2867718  37.9312515 107.0742270
  84.7425747  37.9175091 107.4882769 110.2821350  35.7614017  23.7921286
 109.6441364  35.2544045  23.2899880 110.2441502  36.6387057  23.4111714
 110.2208042  42.1779537  50.6616783 110.6192684  41.4485884  51.1365223
 110.1372051  42.8721809  51.3153553 110.1222324  56.9487429  45.3333521
 109.3236923  56.4235210  45.3852892 110.7714844  56.4468527  45.8261013
  95.2954960  43.7933636  51.0441208  95.9295559  44.5091248  51.0007191
  95.3691483  43.3563757  50.1956797  92.5939846 141.6752062  16.1135697
  92.7492046 141.3436676  15.2291393  91.6488075 141.8214987  16.1520624
 120.9993458  42.6756859  42.7364159 121.7050362  42.3995876  42.1516085
 121.4058781  43.3217144  43.3140087  89.8355389  18.0642366  41.4157867
  89.4828320  18.6893618  42.0490742  90.0426388  18.5941517  40.6460285
  10.8767539  22.5629234  58.7620354  11.3123828  22.3732233  57.9310894
  11.0673552  23.4863234  58.9270592  18.3545523  42.4169922  39.2763495
  18.6978369  43.2326460  39.6411824  17.6383334  42.1747875  39.8633718
   3.1966334  40.8258390  48.1223965   2.9419070  40.6045294  47.2266436
   3.0950099  41.7763138  48.1724072   5.6519824  47.6246357   5.6547260
   5.9394866  47.3527288   6.5262973   4.6982508  47.5479746   5.6823760
 121.5811348  16.1757660  50.9415102 121.4241028  15.9975517  51.8687677
 122.5307274  16.2757766  50.8743048  95.9164429  48.1567764  56.0800457
  96.0351658  47.7439022  55.2246666  95.8994579  47.4262428  56.6983223
 124.3418789  22.2842121  32.9495263 123.9697552  23.1630230  33.0233455
 123.6010742  21.7303348  32.7032447 108.7023067  23.9888668  41.3142538
 109.3285179  24.5246005  40.8273315 108.1257248  23.6244917  40.6426811
  95.4741192   3.3913472 109.8653797  96.2690258   3.7513593 110.2587570
  95.5593491   3.5861322 108.9320915   6.5052920  33.4447718  42.2955704
   6.9141608  33.5819650  41.4410353   7.2397833  33.3956194  42.9074001
 123.6454391   9.4582045  73.1369075 124.4749737   9.7928870  72.7961811
 123.8853455   8.6631095  73.6128315 109.3336773  18.6032224  42.9711533
 108.6590099  18.1144428  43.4424782 108.8469887  19.1454351  42.3503685
  53.8634539  46.4200830  27.6192760  54.1210413  45.5885983  28.0174088
  53.1965208  46.1810112  26.9756341 105.1919079  31.5342546  17.4925399
 105.7857704  30.9448576  17.9574776 104.7442532  30.9728575  16.8595564
 108.7796021  27.6149821  95.9702464 109.0061855  28.3101058  96.5880581
 108.9188004  28.0062795  95.1078423  96.3130665  28.6117172  87.6330527
  95.6108189  29.2589664  87.6974281  96.0168171  28.0034232  86.9559702
  16.3249045  41.1529303  98.3826228  15.3735476  41.2537289  98.4140404
  16.4730006  40.4848194  97.7133485 111.1595535  39.5667934  78.7064489
 111.7623806  38.8669634  78.9575895 111.6947556  40.1705885  78.1914505
 120.2532101   3.2830364  32.4406290 120.9336090   3.9503813  32.5297832
 120.3582001   2.9516035  31.5487981 113.5828209 136.6845007  19.0492821
 112.7391911 137.1218301  18.9340925 113.3815575 135.9106035  19.5754087
  90.7462597   1.8836650  21.9559145  90.9056473   2.8088647  22.1425533
  91.0042953   1.4295989  22.7580857  11.0365897   4.8262268  25.9848690
  10.4048949   4.1199088  26.1201739  10.5717974   5.4623574  25.4412341
 124.3951988   5.8657855   3.5552385 125.2161312   5.8815593   3.0632454
 124.5349503   6.4820981   4.2741683  91.9632626  37.7561188  11.9211221
  91.3406849  37.6712322  11.1990213  92.8023529  37.4878168  11.5467191
 119.0788555  13.2679939  28.2567573 119.7328854  13.3978987  28.9434934
 118.2970619  13.7135017  28.5831928  94.1536236  20.9417391 105.5540668
  93.5495472  20.3371286 105.1230573  94.2223930  20.6131935 106.4504816
   0.8030539  24.6529198  14.2078519   1.6272574  25.0391984  14.5039964
   0.7384997  23.8280916  14.6892285  93.2915115  18.5191441 107.6878142
  93.6363506  17.6328778 107.7966625  92.7545643  18.4717560 106.8968176
 116.6561985  22.8041911   9.0767270 115.9635448  23.4643292   9.1029561
 116.9620514  22.7418637   9.9816030 117.3227978  34.8340464  26.9685388
 117.8301334  35.1623464  27.7108741 116.6992855  34.2205095  27.3571682
 103.2570744  12.2116435   0.6036108 103.0945396  11.3202167   0.2951098
 103.8232613  12.1012437   1.3674667  99.4862556 145.9267295   2.3323499
  98.6174965 146.2450183   2.5776759  99.5914364 146.1966905   1.4200506
  19.0060740  76.5549421  87.6362213  19.5642882  75.8607197  87.2859605
  18.9119177  76.3411379  88.5644730  94.8506451  27.1108961  53.8171291
  94.2232513  27.2544432  53.1086063  95.4020882  27.8932643  53.8109112
  20.2353221  38.0826020  98.2989010  19.4554453  37.6219988  97.9892632
  20.7044726  37.4335527  98.8231727 110.3079510   2.9138082  15.8950186
 110.4895592   1.9810960  15.7796943 109.3536282   2.9674751  15.9461260
  86.2884808  28.2986760   4.4598517  85.3324413  28.3353686   4.4303688
  86.4851761  27.8246593   5.2678448 115.3318024  35.5649161 107.3018102
 115.9027290  36.2751484 107.0088252 115.7059383  34.7779465 106.9056659
 114.6507931  27.3818469  11.8248022 113.7211323  27.1955633  11.9561458
 114.7334766  27.5364447  10.8837938   0.8873683  37.6951265  18.4796715
   1.3588362  36.9371843  18.8253236   0.6997233  37.4658036  17.5694895
 112.9172611  45.7285404   0.2909009 113.0741024  46.5931654   0.6704433
 112.6945210  45.1751757   1.0395053  12.8495055  35.6176805 103.5475650
  12.7868395  34.8158455 104.0665712  13.7883597  35.7969952 103.4962227
 118.5190010   0.5438354  28.6000657 118.3105278  -0.0512530  29.3202329
 117.8664780   0.3450392  27.9285598   6.9607001  45.3034639  24.5368123
   7.6085215  45.4909325  23.8575363   6.1221533  45.3057194  24.0752244
  96.9373703  53.1098509  17.4528015  97.1748543  53.9754915  17.1203756
  97.4612141  52.5012302  16.9318390   2.5788622  40.7563829  96.4702018
   2.8595381  41.5725565  96.8841048   2.8911715  40.8256006  95.5680355
   0.8170252  15.0841916  18.3745098   0.1014453  14.5577526  18.7309206
   1.4284735  15.1826632  19.1043496  -0.1257867  23.0574322  36.7606640
  -0.0535650  22.1987581  36.3438964   0.7177191  23.1846094  37.1948934
  98.5899639  40.6221914   3.4461352  98.8219261  40.7499409   2.5262940
  97.6374435  40.5277729   3.4420639  93.6231709  10.0855088  85.2355345
  94.4089413   9.8927200  84.7240409  93.7547112  10.9804833  85.5485042
  72.8043652 127.5774975   0.3004969  73.0500555 127.2732205   1.1741576
  71.9178438 127.9222710   0.4074675  95.1714420  26.1918998  11.1738133
  94.5548058  25.8252096  10.5401540  95.3127384  25.4871511  11.8059492
  87.5075245  31.9534898   4.3276352  87.2509193  31.5002131   5.1307100
  86.7979908  32.5754380   4.1664872 113.2331276  67.8212500  86.3593444
 113.7430668  68.6205244  86.4911016 112.6592064  67.7745295  87.1239766
 108.7964058  58.1689501  16.1487520 109.6567917  58.3447266  15.7678807
 108.6231327  57.2519064  15.9360588  13.4978514  25.5663061 100.6328722
  13.2347804  25.9306574 101.4780196  14.3563777  25.1761699 100.7970347
 115.3537273   8.7497455 102.0020350 114.9805164   8.1465054 102.6447245
 115.5345821   8.2031792 101.2373211   8.4482031   5.8625972  12.1127212
   8.1459361   6.3698125  11.3593280   9.1546088   6.3885379  12.4876952
 116.0018635   1.6858551  87.7687796 116.7928791   1.2432599  88.0764040
 115.4300785   1.7151137  88.5358819 117.5502300  27.0528483  66.5147543
 117.1609879  26.5704536  65.7853603 118.2394028  27.5810671  66.1119509
  71.7753887  49.4592190   3.6414289  71.0123396  49.0574121   3.2260492
  71.7627859  49.1261292   4.5387170  89.0566349  36.6508102   7.2189236
  89.6083355  35.9267688   7.5149363  89.4639683  36.9447041   6.4041024
   7.7510005 139.6783973  22.4252748   8.5111266 140.2449221  22.5575304
   7.2135287 139.8126293  23.2058740 119.6967220   9.6873540  25.6339478
 119.7124481   9.4630688  26.5643668 119.2813873  10.5491698  25.6023097
 103.3462429  19.0510452  13.9535654 103.2643700  19.4457221  13.0853736
 103.4733391  19.7940993  14.5434380  13.9639502  16.6082323 102.8498241
  14.1832095  15.6772351 102.8123882  13.0092173  16.6322267 102.7854022
 112.3314381 135.9408755  10.6826937 112.2354507 135.8738250  11.6327059
 112.0712090 135.0802381  10.3543353 122.0034218  67.0337868  99.4081100
 122.8835869  67.4042845  99.3428167 121.4191818  67.7856159  99.3098744
  97.4385738  43.1554079  10.2632582  96.7685127  43.8379812  10.2998865
  97.9961014  43.3261013  11.0223746 112.8003693  22.6641011  25.9602094
 113.7219238  22.5828862  25.7145262 112.7054024  22.0962095  26.7248726
  98.6641884  24.2442060  26.8693376  98.2167816  23.5929513  27.4096370
  98.7425137  25.0120807  27.4354362  34.6439772 132.3906810 104.6502789
  35.4335719 132.9171474 104.7751912  34.4678717 132.0147044 105.5127516
   6.0400229 145.7331737  99.4709238   6.5242034 145.1725619  98.8646885
   5.1197844 145.5758473  99.2596265  43.4311991 145.1196351  33.6019778
  43.6639529 145.2577639  34.5201159  43.9691096 145.7487597  33.1212640
  19.0488558  39.1693258  82.1910747  19.9290400  38.7948537  82.2269043
  19.0838461  39.9204564  82.7833637  94.0847588  17.4024498   1.8372077
  94.0098381  17.6021361   2.7703446  94.7507191  18.0098355   1.5150107
 101.0548592 133.9325781  25.1251006 101.7392063 133.6498565  24.5185041
 100.2834320 133.4274847  24.8681545  20.7828646  27.7118492  41.7357731
  21.2212496  28.4139967  42.2164345  19.8551207  27.8219533  41.9441128
   3.8493758  97.7385807  41.0920763   3.9021617  98.1609917  40.2347469
   4.1498881  98.4073162  41.7074776  25.0745326  14.0167844   4.6486869
  24.4535285  14.7329497   4.5156610  25.8689147  14.3015802   4.1969401
  76.8616772 134.3461604   7.9905939  76.4291334 134.9439604   7.3808634
  77.7601862 134.6711750   8.0478466 104.9557590  10.5396628  23.3946395
 105.2925968   9.6461189  23.4606218 104.4581223  10.5482709  22.5770092
 116.9069958   5.2815801  83.1654295 117.2558784   5.9177625  82.5411042
 116.0940742   5.6764835  83.4807690   0.3964739  48.7848854  91.3939019
   1.1341887  48.2851458  91.0442313   0.2256423  48.3924007  92.2500583
  80.8907604  30.5002785  13.5064554  80.9459877  31.0100746  14.3147182
  79.9673176  30.5440259  13.2583129 122.3027802  19.9942625  24.9229789
 123.1666470  20.3896141  24.8060870 121.8027973  20.6504035  25.4085016
 103.8429260  29.3024158  78.8850626 103.7300301  30.2466631  78.9940723
 103.2674980  29.0751386  78.1546792  13.4847956  56.2468863   9.8474443
  13.6784010  55.6433201   9.1301876  12.6033049  56.0056973  10.1321065
 105.3951359  14.0247738  43.6713791 104.7565365  14.0436780  42.9585886
 105.2224541  13.2002342  44.1258574  21.3780242  28.9935207  14.1355705
  21.4505129  28.9685655  15.0896955  21.6461783  29.8811865  13.8981318
 103.0876827  17.6038873  40.9315634 102.4844265  17.9607260  40.2796602
 103.8229561  18.2167232  40.9382963 105.3390312  41.7716599  33.1799150
 105.6819534  40.9384108  33.5029197 106.0629272  42.3879242  33.2913780
   6.1363917  40.6831646  91.5181919   6.2719565  41.4325190  90.9382590
   6.8077498  40.7785892  92.1937617 115.3834915  62.9771328 104.4562539
 114.4911575  63.3225203 104.4302180 115.9187508  63.7177324 104.7412803
  91.6332817  39.1293168  32.7154851  91.8351460  39.7247934  31.9937587
  92.0644569  38.3087611  32.4767232 111.0913181  54.2509651  13.8381159
 110.6889343  54.7283602  13.1125736 111.4162445  53.4424639  13.4419131
 101.8286037  11.3724542  13.4524369 102.0434475  11.2219751  14.3729985
 101.3636398  12.2091258  13.4486723  86.9738293  31.0817456   6.7035478
  87.4212933  30.5199051   7.3362726  86.0439396  30.8956695   6.8336046
 123.6740875  58.2624769  13.8451159 124.0139294  58.6360073  13.0319619
 124.0105820  57.3664379  13.8560772  18.9340334  18.2226264  15.7134759
  18.2810813  17.9438746  15.0714612  18.4512835  18.7886930  16.3157678
  93.5035229  36.8367076 100.6068500  93.4332752  37.7716684 100.4141250
  92.9545116  36.7097425 101.3806018  10.2117377  12.9624879 108.3026195
   9.7661334  13.6792791 108.7541472  11.1043292  12.9800570 108.6478724
 117.8130150  48.3196926   9.0143710 117.7754116  48.6746264   9.9025381
 118.2589817  48.9961958   8.5047770 106.0834122  37.3461795   7.9334545
 105.9788227  36.4146781   7.7395606 105.7761192  37.4391031   8.8352114
   0.8327036  42.3902464  89.3133053   0.3099280  41.8193293  88.7502893
   0.4165202  42.3252726  90.1728376  13.3995944  57.3182535   2.3322555
  13.3558589  58.2743931   2.3217237  13.6363822  57.0794344   1.4360800
 119.1248131  35.7444501  53.6472559 118.1887817  35.5824804  53.5296440
 119.5404053  35.2905512  52.9141188 124.1175175  20.5735207  94.2582043
 124.0421104  21.5277433  94.2559382 123.3492661  20.2713990  93.7737080
  94.9162579  42.2233915 104.6579530  94.0428448  42.6068640 104.7375485
  95.3515244  42.7552128 103.9916685 110.2326393  69.3110180  42.4891996
 110.9841156  68.7660646  42.7227545 109.5031929  68.9379215  42.9840994
 122.9275608 135.4412110   6.6201812 123.8185406 135.2981848   6.3009226
 122.9375744 135.1056189   7.5165677 112.4198723  34.6781254  80.5496916
 111.6695976  34.2806244  80.1077493 112.1987629  34.6377587  81.4801272
 112.6670170  53.4693718 103.5679969 113.2581520  54.2142916 103.6770418
 111.9035816  53.8330793 103.1195464 103.0128098   0.3745969 106.7429944
 102.7947617   0.8461148 107.5469574 103.3314991   1.0522704 106.1468151
   3.4672385   0.8848686   6.1398917   3.3140021   1.0448954   7.0710969
   4.3808013   0.6031263   6.0924399 111.3082027  64.2808914  32.4881268
 110.6631565  64.3654346  33.1902623 111.1534405  65.0414038  31.9278550
 113.1548119  39.9532342  39.5407629 113.5702610  39.6725059  40.3561306
 113.5243130  40.8194828  39.3695617 112.7388000  28.8520241  40.8948088
 113.5200500  29.3286037  40.6141901 112.4409485  29.3189311  41.6755199
  11.4428168  21.2188029  22.1187830  12.3007136  21.0041952  22.4850798
  11.1177664  21.9299912  22.6708603   3.3876258  61.1857224 104.4431707
   3.3287840  62.0529366 104.0422853   4.3182879  61.0742044 104.6372303
  11.9351702  26.5723586  37.0475507  12.7640277  26.1854410  36.7655420
  12.1024542  26.8719530  37.9411340  13.6053687 131.8899877  42.3493052
  13.5623389 130.9763093  42.0672131  14.1610556 132.3162002  41.6967773
   4.6940165  67.6347971  33.8098717   5.3682261  67.1197319  34.2530227
   3.8908797  67.4462986  34.2953324  13.9559870  17.2599888  32.7884030
  13.9205294  17.9443109  32.1200633  13.5815173  17.6680434  33.5691094
  90.8428669  14.9858677   6.8282372  91.6062069  15.2553737   7.3390251
  90.2664471  14.5623040   7.4642986   1.2460833  31.6639686  25.9956503
   1.4997035  31.1392999  26.7550111   0.7589846  32.4004126  26.3652611
 121.3376713  51.5194368  47.1077776 121.9059944  51.5883303  46.3406420
 120.4949474  51.2319517  46.7564964 116.6405582  34.5890832  12.4414432
 117.5292301  34.2599273  12.5761747 116.7153740  35.1812863  11.6931593
 120.6330681  26.7442751  92.0172390 119.7231770  26.5164971  92.2081658
 120.9937572  27.0171070  92.8608617 120.6599903  14.5552754   5.8640045
 120.7021523  15.1856339   5.1449060 120.6411457  15.0946593   6.6545373
 104.4198704  35.8415318 105.2748486 103.7890148  36.0339189 105.9685629
 103.9031315  35.8599925 104.4693252   1.4270144  22.0641017  48.9463139
   1.9667368  22.5199890  48.3004808   0.7542067  22.7005124  49.1882753
 108.7067795  28.0050135  31.0285997 108.6164856  27.8699708  30.0852847
 109.5920563  28.3524799  31.1371541   8.3049899  36.4177346   4.6754539
   8.5633021  37.1968079   5.1679474   7.3670798  36.3277841   4.8441643
 109.6104908  39.3721199 105.0638648 109.5064831  39.3842316 106.0153201
 110.5558872  39.4297600 104.9255189 104.5528316  37.5069666  33.3968544
 105.0847626  38.2665181  33.6342549 104.6494293  37.4342585  32.4473214
  98.1271839  32.3382902  48.7565041  97.9417229  32.4610972  47.8255081
  98.9657497  31.8770838  48.7748718 121.7673874   7.5129068  38.7897348
 121.3488865   7.6398551  39.6411896 121.4380741   8.2325518  38.2513189
  90.5575657  17.7250469  45.5040836  90.5724621  17.8462946  46.4534569
  89.8050213  17.1546960  45.3472424  20.7466155  45.6871319   7.8202438
  20.3103190  44.8441410   7.6968187  21.6724997  45.4653931   7.9192537
  99.5493126  20.3652906 101.6813263  98.6210251  20.5041337 101.8690648
  99.9433708  21.2334394 101.7665621  93.6341667  60.2046728   1.8773983
  93.9401340  59.4517708   2.3831114  94.1482353  60.1760864   1.0704644
  97.5198650  26.3770127  22.9059029  98.1033421  26.7946982  23.5394049
  96.9064331  27.0672512  22.6539087 114.1820049   5.7119983  10.6220591
 114.3747997   5.9184760  11.5366244 114.4413090   4.7958714  10.5235505
 112.7447414  33.0897665  15.0288510 113.2190895  32.2704506  14.8876154
 113.1182861  33.6961007  14.3892777  20.1309233  36.6858745  92.5307282
  19.5431929  36.0905957  92.9959747  20.8113890  36.8984127  93.1694981
  16.2099677 144.9081884   1.3880219  16.9541770 144.3815550   1.0963987
  15.4412871 144.3939415   1.1412103 119.3526173  19.7747731  26.3236928
 118.9950848  20.5488396  25.8886957 120.1083755  20.1018739  26.8116283
 107.0659256 124.2419452  16.2729061 106.5889740 124.9839325  16.6446674
 107.9872417 124.4427032  16.4375305 101.5724182  42.0426559  19.7377431
 101.2917709  41.2331963  20.1646447 100.9439373  42.1688747  19.0268838
  72.6023817  29.0306687   5.8114463  71.8800688  29.0569305   5.1839036
  72.3823547  28.3084130   6.3998061  69.4019699   6.6730917  17.8958273
  69.8188019   5.8114403  17.9020309  70.1310444   7.2915220  17.8486538
  80.8462715  33.1138206  35.1456881  81.7952728  33.0299878  35.2384567
  80.5066586  32.9840136  36.0311532  24.9750739  11.1588252  94.8688635
  25.3368598  11.0728264  95.7508763  25.3692847  10.4384744  94.3770012
 101.2939262  14.0670693  34.5921993 100.9241104  14.8862672  34.2629814
 101.9442368  13.8170135  33.9358497  93.1801510  62.8265238   3.0868655
  93.5076141  62.1780443   2.4635889  92.4834156  62.3725891   3.5609275
 114.2189312  16.8463624  13.7381303 114.4531727  17.0743406  14.6377897
 114.9820328  17.1018887  13.2198560  66.5654850  59.8151398  16.8007243
  66.9547749  59.2621040  17.4780989  67.2639036  59.9326086  16.1567926
   4.3952399   3.9730847  51.3731670   4.2203360   3.7316409  50.4635811
   5.3423625   4.1072947  51.4074755 120.9444332  17.2624946  20.4162383
 121.1100006  18.2048607  20.3885460 120.0796509  17.1829808  20.8188057
   6.5840273   9.2926961  15.1249063   6.1861640   9.9552035  14.5600855
   7.4634486   9.6262783  15.3026175   7.5804930  27.2786379  98.0306896
   6.9478732  26.8567753  98.6121138   8.1632262  27.7589130  98.6188980
  20.9810191  64.3645573  20.0060058  20.7020026  63.5223532  19.6467340
  20.1643305  64.8241663  20.2009726   3.0613261  33.8212776 103.4467008
   3.8763552  33.4218383 103.7506982   3.2768183  34.7466683 103.3307358
  10.5202990  37.6395249  28.8342857  10.4323607  37.9740167  27.9417539
  11.4494925  37.7442908  29.0388632 116.0285568  42.8537750 102.2873368
 116.5581703  43.0139160 101.5062519 115.6805897  41.9706488 102.1638539
 100.8123589  24.3898010  18.0559707 101.7397499  24.2524338  18.2491314
 100.5841732  25.1880765  18.5323298  63.8208151  56.3965559  19.7704363
  63.5878038  56.8790245  20.5636334  63.0398464  55.8828592  19.5644426
   4.7867804  37.4832702  27.8296828   5.6739169  37.8219438  27.7091837
   4.8327189  36.5772963  27.5241828  20.8663779   5.5015928 109.0687988
  21.2183505   5.0548357 109.8387058  19.9176531   5.4009402 109.1463365
  33.2587653  17.4870002   4.2298040  32.3697310  17.7021980   3.9477921
  33.1489401  16.7415929   4.8201752 102.5625992  36.3372231  12.0548046
 101.9378376  36.2494349  11.3349473 103.2275772  36.9402766  11.7226017
 117.9652119  27.3574805 100.3808984 117.2685432  27.6138091  99.7765990
 117.5045109  27.0644045 101.1670878 117.4492741  84.7190189  25.3570080
 118.0533123  84.5716095  26.0847735 117.2847652  83.8455963  25.0016212
   9.7927695  22.5358295  19.7776806  10.3961592  22.4594617  20.5168200
  10.3582125  22.5304556  19.0053606   4.4321471  25.0233054  90.4304680
   4.9335700  24.4693518  91.0287472   4.0024691  24.4073129  89.8370322
  92.0027733  49.9886417 101.4510562  92.9270649  50.1112652 101.2345215
  92.0038033  49.7465706 102.3771402   8.6870986 134.9807460 105.0437992
   9.4731551 135.4021830 105.3912824   7.9650145 135.3915138 105.5192893
  90.5322266  25.2069092  72.2334766  90.4703712  24.6181130  72.9856253
  91.2705517  24.8702049  71.7258072 116.6659832  45.4158831   0.8234350
 116.6761017  46.3725567   0.8533994 117.0397186  45.1460075   1.6623250
  27.2480898  18.2045174   4.5924321  27.2069579  18.9912271   4.0487233
  27.1448355  18.5265779   5.4878942 104.4784546  14.0356660  83.9402485
 105.1244068  13.9720130  84.6437550 103.6724854  13.6891055  84.3230438
  99.4833183  11.0610247  86.4556026  98.8075161  10.3983033  86.5981579
  99.0585327  11.7227125  85.9097385  80.6241417 136.1764521  82.4977398
  79.9965048 136.5492643  81.8786144  81.0056973 135.4317958  82.0328331
  86.8776226  40.7849741  92.2107887  87.5193882  40.0754166  92.1807766
  86.7859840  40.9857941  93.1421947  85.5659103   9.0557146 103.8006115
  85.0308418   9.2362309 104.5734978  86.2402248   9.7349775 103.8121700
   4.8637992   7.8816116  97.7465916   3.9873343   8.2472247  97.8664494
   5.2529936   7.9009211  98.6208916   2.9376155  23.6335325  94.6299171
   2.7238494  23.4804010  95.5502892   2.9281550  24.5861769  94.5371246
  79.0463305   4.2156076 101.4733315  78.7200165   3.7526956 102.2449970
  78.5912132   5.0575447 101.4888477 115.8432293   5.8027375  65.7696247
 116.4564991   6.5311193  65.6717348 116.3174248   5.1595366  66.2965584
 113.3154583  21.1810732  94.5294666 113.5801601  22.0516229  94.2323112
 113.8819027  21.0016465  95.2799225 106.0723495  27.1039963   7.4381963
 106.3548851  28.0176067   7.4796239 105.9125519  26.9446611   6.5079728
  80.7689762   6.6216439 109.5496941  81.3134289   5.8608031 109.3473911
  80.4259682   6.9030273 108.7015152 107.6980305   9.3748552  10.7867376
 106.7757130   9.2853338  10.5468313 107.8460026  10.3199339  10.8208028
  83.7505341  17.1538949  85.8202076  82.8744984  16.7773998  85.9041977
  83.9029217  17.1976614  84.8762321  24.9243002  40.7178259   0.2580110
  24.8903876  39.8842096   0.7272283  25.4412489  40.5307579  -0.5255660
  92.0749569  21.6586494  10.2205793  92.4975586  21.7016196   9.3627969
  91.1574364  21.8684578  10.0463239  90.5360603  38.4929848  14.0954057
  90.8478546  38.1115603  13.2747213  89.8932457  39.1489339  13.8256875
   0.6595831  14.3383729  73.2992172   0.4875117  14.8735118  74.0739775
   0.3474837  14.8698795  72.5668716  78.3885002  17.5938201 104.2350483
  77.8918266  18.3844769 104.0243149  78.4859514  17.1417117 103.3969879
  90.4359627   2.5775641  93.1186008  91.2717056   2.7832663  93.5374832
  90.6641388   2.3900928  92.2080898 106.2896442  43.6923933  75.4782677
 105.7962608  43.8778162  74.6792507 106.5955257  44.5494223  75.7752037
  84.4206429  30.1856852  91.1872673  83.4854126  30.2393150  91.3839912
  84.4574738  29.9772406  90.2537727 101.6297913  50.5492544  94.5325756
 101.8968964  51.2464237  95.1316071 100.8019733  50.2293968  94.8912334
  67.7527237 134.5966727  97.6271820  68.5394812 134.0953679  97.4128628
  67.2160530 134.5500023  96.8359566  65.1196957  40.6127739   6.6181413
  65.8579636  40.9341764   7.1357290  65.0892019  39.6738410   6.8017427
  10.5725031  28.7750459 103.5561275  10.8402663  27.9353738 103.9296055
  11.0457926  28.8297391 102.7259254  23.5843878  16.1279988   4.0680448
  23.6987429  16.3282180   3.1390325  23.1274634  16.8905687   4.4229261
   0.1594763  20.4601836   7.9203740   0.5283385  19.6165931   8.1821481
  -0.6410188  20.2348447   7.4463884  79.6755075   5.7230395  81.3060856
  78.9306498   5.3232694  80.8570766  79.9068928   6.4760756  80.7623672
 113.5046101  29.8337626  10.0464479 113.9949608  29.1743970   9.5555059
 114.1293144  30.5465937  10.1800195   0.6720667  39.9150848 100.7044697
   0.5539256  40.6104088 100.0573158   0.7060366  39.1101193 100.1876450
  78.4072685  44.5432377  16.6693631  79.1552877  43.9888906  16.8916265
  78.3356619  44.4783640  15.7170526  96.1139965  10.5116224   1.5930120
  95.8492565   9.5978862   1.6989843  95.4876232  11.0053873   2.1222345
   5.2281695   1.7705236  71.8177414   5.9860068   1.4065987  72.2754335
   5.5977183   2.4260688  71.2261963  34.6947985  48.3357334  11.0876314
  34.9841910  48.5302019  10.1961938  34.5659285  47.3872852  11.0960714
 120.8126068  23.4086490  13.3496610 120.6283855  24.1859412  12.8222886
 120.0789833  23.3554173  13.9621965 100.0524902  33.7364125  88.4112930
 100.2260780  33.8704634  87.4795532 100.7452583  34.2242742  88.8566017
 104.7183228  18.4632897  95.0255871 104.4228077  17.7934361  95.6421852
 103.9175415  18.9173424  94.7632504  93.1042099 139.8374183   2.0599023
  93.1714916 138.8861454   2.1422807  92.1875858 139.9939359   1.8329088
 121.2133026  34.8624325   3.6620179 120.3037834  35.1599336   3.6397401
 121.4631367  34.9246240   4.5839444  10.0805312  21.3833690  85.3619003
  10.1996928  22.3163795  85.1843548  10.8934336  21.1153674  85.7903957
  98.5902500   1.0094599  86.6333580  97.6560879   0.8069915  86.6840744
  98.7613869   1.1178783  85.6978512 111.0189629   4.1430780  27.2144452
 111.8556023   4.3711972  27.6196901 110.7748222   4.9218720  26.7143384
  12.2062045  41.0118532  80.3013039  12.2478800  41.9676733  80.2713013
  11.9346266  40.8119535  81.1971378   1.0415202  22.9743099  92.6181412
   1.5350180  23.3163810  93.3635807   0.9606963  22.0369267  92.7942467
 100.1935768   3.0864456  89.9225712 101.0681534   2.8991947  90.2635765
 100.1500797   2.6040888  89.0969372  83.7053204  10.5898368  87.2402763
  84.2213631   9.8333591  87.5189686  84.3565273  11.2404072  86.9777393
  -0.1549978  49.0174007  83.5859585   0.6315928  48.4867144  83.7119293
   0.1122599  49.6992397  82.9695988  29.9322920   8.4957159   1.0972444
  30.7054453   8.8374519   0.6481496  29.2436629   9.1327584   0.9069673
  17.3711424  23.0704832  64.7785664  18.0515128  23.6984825  65.0213623
  16.5688353  23.4272885  65.1596594   8.0074816  18.2741284  80.5688572
   7.8803950  19.1541946  80.2145100   8.9426356  18.2288754  80.7680702
 113.7345314  21.7911744 106.0481262 114.0956020  20.9704995 105.7129383
 113.9829540  22.4462271 105.3958797   3.4016829  17.3937094 100.1630497
   3.7148886  16.5240896 100.4118347   2.4893313  17.4114370 100.4520893
 101.2699795 128.0958838  13.2714406 101.9191360 128.7216181  13.5928193
 100.6418324 128.6305566  12.7858583  77.5293779 131.7066641  19.5294324
  77.9301691 130.9638066  19.0780393  77.8287697 132.4735553  19.0411035
  81.1641502 140.2432955  87.9159260  80.6972408 140.4004301  88.7366199
  80.9956932 139.3222547  87.7170849  92.6923084  26.4642072 108.5527420
  92.9461670  26.3836384 107.6333427  93.1227970  25.7269382 108.9855766
  12.4976187  12.0038104 100.0490570  11.8136817  11.7683673 100.6759834
  12.3391085  12.9281735  99.8575974  78.1984758  31.9218397  66.0983038
  78.2404709  32.4552941  66.8919611  77.3316479  31.5168834  66.1274910
  94.7198677  23.6516476   9.7285596  95.4728317  23.3705425   9.2086927
  94.0323734  23.8182378   9.0837137  86.0721016  24.5702577  95.6099606
  86.5565777  25.2751780  96.0396099  86.0348701  24.8314333  94.6898270
 106.4888573  17.4713790  93.0852699 105.8801174  17.9199743  93.6721611
 107.3405552  17.8631032  93.2786274 106.2820721  37.3648834 101.6935635
 105.6688213  37.3651981 100.9586048 107.1313286  37.5590515 101.2969685
 120.3763676 111.7393918  79.6769285 119.9530411 111.7878980  78.8197947
 120.0563908 112.5099606  80.1460457  70.0728369  20.6630373 107.3969173
  69.6938372  20.1526403 106.6813087  69.7610474  20.2297544 108.1914520
  29.8312789  16.3498175  89.8633575  30.6623488  16.7178619  90.1635265
  29.8174410  16.5254784  88.9225197  55.0060129  10.7763588 104.8621750
  54.4094467  11.3744807 104.4120693  55.7529449  11.3224852 105.1072598
  87.4301338  26.7651367  23.2383863  87.4904156  27.1184993  24.1259328
  87.9680443  27.3539853  22.7091066  15.6185275   6.1626029 103.3665562
  15.3998881   6.4082682 104.2654896  15.8592539   5.2378756 103.4227848
  90.5060959 134.0687627   2.6155797  89.6424198 134.2597706   2.2497693
  90.4724979 134.4203789   3.5052244  31.1788970   0.1094323   0.0351754
  31.1899405   0.9030241  -0.4999217  30.9466296   0.4150169   0.9120408
 110.3371906 145.1231379  68.3888388 110.2581120 145.2336771  67.4413347
 111.2070656 145.4634708  68.5979080  82.2990894  15.0292587 107.5010014
  82.5888443  15.9006631 107.7710533  81.7975712  14.7015762 108.2475471
  20.3553324  29.1319513 108.9399338  20.3687220  30.0779033 108.7942314
  21.2533980  28.8500857 108.7660027  92.1678543  20.2136064  83.1190109
  91.7283058  20.7841659  82.4885464  92.0832157  20.6709981  83.9555931
 100.9794521  18.7175202   3.7334958 101.0175800  19.5204151   3.2137529
 100.5732727  18.0748141   3.1519643   9.8128062  64.8742294  95.7096577
   9.8783427  64.0084553  96.1126137   9.8240500  65.4834652  96.4478588
 108.5369682 144.5104826  14.5362035 107.8256035 143.8798023  14.4246713
 108.1544971 145.2122345  15.0629846 123.9598083  18.6762762 109.3495274
 124.0980721  18.7114298 110.2960396 124.3041515  19.5087743 109.0260983
  62.5010014 139.4449736 105.7630062  62.6305199 140.3686262 105.9782410
  63.0394077 139.3026764 104.9844837  88.6040974  36.8261242  25.5444566
  88.6712456  35.8838391  25.6987993  87.8032494  36.9281220  25.0301973
 103.3701324  15.0206578  90.7477379 103.7649727  14.7682869  91.5823841
 103.1260777  15.9386253  90.8660698 105.6313705   4.3197310  14.9578801
 105.2516270   4.9534518  14.3492547 105.5066967   4.7128448  15.8216802
  95.1134205   0.5661454  99.4975662  94.1822624   0.5362300  99.7173023
  95.4039574   1.4257291  99.8024178 101.3794804  25.0123310 106.5144634
 102.0349407  25.1473117 105.8300781 100.6443882  25.5678034 106.2549782
 123.8109970 107.1080966   1.7225686 123.5486507 106.1947269   1.6078321
 124.0178490 107.1826620   2.6541654  20.9577590   9.0347135  96.9148064
  20.4169970   9.0315598  96.1250019  20.4940157   9.6131223  97.5202942
 115.4523277   0.4828866   9.0986577 114.7785473   0.8629591   8.5349218
 115.1076031  -0.3776364   9.3371908 114.4966221   0.4913031 103.4000874
 113.6310291   0.3619996 103.0124474 115.0419903   0.7922921 102.6733112
 111.1027145 141.8749974  82.4945354 111.9104767 142.0361359  82.0068932
 111.2791252 141.0772724  82.9932785 120.9920311  21.9199634   4.3904725
 120.8506298  22.7891970   4.0154115 121.0730839  21.3420248   3.6317579
  97.5344944 142.7569864  67.5665474  97.4031830 143.6125482  67.9752064
  97.1752262 142.1327410  68.1970072 118.1216812  22.4393344   2.8995649
 118.1459141  23.0765533   2.1857015 118.2790089  21.5965986   2.4737970
 122.6166439   7.8156406   1.6327993 122.2052193   7.8694528   2.4953882
 122.3010445   6.9888365   1.2680665  87.5575066 132.6235385  73.4567118
  88.1214237 132.4468524  74.2097139  87.2786427 133.5316534  73.5741711
   1.3286238 133.6700434 106.2349892   0.4931574 133.6470885 106.7015648
   1.7611247 134.4609255 106.5569782   6.9307643  26.8538904  85.5298424
   6.3252478  27.0780921  86.2364674   7.2400599  27.6985097  85.2024555
  95.1178551  31.0438752  27.2445623  94.9449539  31.9844484  27.2853319
  95.1954365  30.7747149  28.1598512  98.8047314  11.2212503  92.0877075
  99.5520306  10.8617020  92.5657272  99.1331577  11.3605976  91.1994743
 118.1790161 142.7365971  19.0405217 118.8183784 143.0483500  18.4000150
 117.7297878 142.0157350  18.5991803  87.0526886   3.5968435  32.3482457
  86.7644978   2.9232633  31.7322389  87.7469254   4.0646443  31.8840925
  20.0529700  22.0457745 103.6343765  20.0684672  21.0889554 103.6564827
  20.9314280  22.3060179 103.9115143  81.5859985  26.2655187  86.1468410
  81.1454773  26.3369226  85.3000450  80.8734703  26.2182045  86.7842674
  22.4522715  61.0957336  62.0192337  22.3650866  61.3393211  62.9408073
  21.9265299  60.3007412  61.9308519 117.1564198   6.5184331  18.6672918
 116.6834450   6.0891408  19.3802015 117.0117569   5.9525341  17.9089681
   8.9937811  33.3712196  81.1656857   9.6617919  33.6332846  81.7991829
   9.0597563  32.4170041  81.1289501  33.6435156  39.1275334  50.5129758
  33.3895712  39.2186999  51.4313642  32.8925448  38.7034011  50.0977842
  77.1731186  14.2262971 104.2211914  76.9494677  13.4558058 103.6991215
  77.9568434  13.9677691 104.7061348  84.8403168  17.9758501  91.2895107
  84.5530319  17.8546453  90.3845215  84.0289402  18.0814409  91.7862606
  80.4842186  42.5049448  16.2694875  80.9004784  43.2011938  16.7776147
  80.9420776  41.7076254  16.5357152  98.7392616  40.8831120 103.0562401
  99.0736103  40.0088596 102.8559113  99.3680954  41.4790869 102.6492786
   3.7564211  20.4081297  83.6672783   4.5280104  20.2102041  84.1980457
   3.1908732  19.6430290  83.7721729 109.3147850  29.6998310 109.0721512
 108.9097023  28.9565539 109.5190048 110.2545357  29.5765591 109.2059517
 106.6291046  10.0215030 106.3500214 106.5261555  10.8727217 106.7755318
 107.2564983   9.5528841 106.9004726  96.1187077  10.1205158  73.1013870
  96.4594173   9.2288506  73.1727076  96.5970039  10.5014789  72.3649502
  92.3445988  51.9232941 108.4950733  91.5693092  51.3799047 108.6360455
  93.0257893  51.3048124 108.2310677 105.3197479  36.1371851   1.8085233
 105.0909615  35.2078104   1.7962209 106.1415195  36.1880350   1.3203183
   1.2704211  15.5320787   5.4027978   0.7184344  15.7847893   4.6627466
   1.7914229  16.3127971   5.5905858 118.4843445  18.5383713  44.3185560
 119.3172359  18.9458036  44.5562784 117.8263760  19.0397310  44.8001615
 118.6289978  30.7128978  92.5789356 118.5038662  31.6060162  92.2581387
 117.8004646  30.4931235  93.0049133  15.8578044  31.0209537  99.6632671
  15.3201800  31.7799044  99.8895073  16.7589694  31.3344312  99.7397900
 119.1681290  40.7454109   0.9053460 119.9572277  40.2281189   1.0664407
 119.4647598  41.4693642   0.3538648  85.8365250  49.0370560  92.7408981
  86.5876675  48.4471035  92.6778221  85.6368256  49.0713835  93.6764050
 118.5256863  22.5688219  96.2810612 118.9316750  21.9514275  96.8895245
 119.2446995  22.8606033  95.7205963 111.0254478  16.3751936 104.8082352
 111.7686749  16.9508207 104.9885178 111.3256454  15.8129752 104.0940762
 101.9508076  22.6237369  40.7162896 101.6153526  22.4131441  39.8448888
 101.7127514  23.5412741  40.8492891 113.8519382 110.5797143  94.2085457
 114.3859196 110.0074143  94.7595215 112.9491901 110.3485150  94.4272041
  95.1085091 139.5285941  -0.1015052  95.6515884 138.8795955   0.3458062
  94.8343563 140.1297803   0.5910627  92.5582504  33.0649447  24.0486471
  92.1624947  33.3998561  24.8532811  92.3652458  32.1274614  24.0589944
  79.6293402 135.3596694  94.4515324  78.8363028 134.8303766  94.5362473
  79.3095207 136.2414570  94.2607498   5.5371028 146.2671966  21.6990129
   5.6600123 146.0091141  20.7854883   4.5941573 146.4085889  21.7831651
  93.0244255  29.0189552 109.4395447  93.7849903  29.4661927 109.0683937
  93.2150745  28.0878401 109.3259239  15.1032286   3.4616694  32.8592912
  14.4484835   3.9063463  33.3976213  15.3289443   2.6758477  33.3570520
 119.8340130  23.7535071  86.3136292 120.2888489  24.5260429  85.9781551
 118.9896011  24.0860510  86.6179562  14.3755465  26.5844464   0.5231038
  14.4521361  26.5007615  -0.4273566  13.5635501  27.0736146   0.6558172
 114.2309570  15.3618383 101.7738056 113.5155010  14.7715235 102.0102215
 115.0244617  14.8464096 101.9184208 124.5391464  21.2481093  12.6807443
 124.2019844  21.8032098  11.9776002 125.0016785  20.5427790  12.2281877
 119.7633648  18.7664533  63.4171438 119.4325733  18.0048764  63.8933897
 119.2458725  19.4999933  63.7493324  90.8590508  26.8526530  89.8193073
  91.7737961  27.0849085  89.6595097  90.8985615  25.9815264  90.2140236
 123.3938503   7.2443104  92.8815746 122.6273727   7.5894529  93.3394146
 124.0976715   7.2841007  93.5291004 107.5684738 132.7384407  92.1813679
 107.3800945 133.4892757  91.6183472 107.9525280 132.0883257  91.5930843
 114.1037560 144.5312802  97.8117657 113.6200619 145.2524902  98.2144165
 114.9135971 144.4734676  98.3187675  78.2383156 136.5912969  84.6783733
  78.7818527 136.7812432  85.4430389  78.4960079 135.7079119  84.4148159
  71.3005161  45.8957720 105.1490211  71.9113111  46.0900640 104.4380951
  70.8354235  45.1115608 104.8575974  81.3068295   4.8137718  92.2613335
  82.2220135   4.9067774  92.5259399  81.1674976   5.5187327  91.6289997
 118.1120491  26.2193155   8.7030450 117.3880005  25.6069446   8.5727254
 118.8535595  25.8123064   8.2549993 122.6900005  14.5204806   8.8111249
 122.6238728  15.4021871   8.4444467 122.0640755  14.5146716   9.5352880
 108.6620617  21.1549783  32.6125757 107.8179359  20.8184290  32.3118631
 108.7893295  20.7502842  33.4706250   1.0577708   3.9588937  91.9205093
   1.8927699   3.5149413  91.7724419   0.4784136   3.2741588  92.2547436
  93.1898212  29.5020032  98.1842232  92.7265167  29.3312526  99.0042305
  93.9021206  28.8626695  98.1739616  96.2679005   7.0440751  39.8821211
  95.5516529   6.5200061  40.2406979  97.0557690   6.6824675  40.2879953
  86.1377335  68.3550024  80.6524754  86.5968800  67.7028370  80.1232243
  85.3717804  67.8919458  80.9917641  86.9781017  51.9024563   5.3020994
  86.9655609  51.3463926   6.0811178  87.8808308  52.2157431   5.2459565
 122.4045181  46.6082191  92.0495892 123.0144215  46.2066841  92.6684666
 121.5737724  46.6476679  92.5234413  90.0577545 146.0913988  86.5065193
  89.5735264 145.3981555  86.9550323  90.9720039 145.8111181  86.5491962
 124.1165352   6.4637697  98.2518578 124.8001671   6.0039455  97.7645779
 123.6534023   6.9761193  97.5891113   2.3549586  23.8395882  88.6922169
   1.4179736  24.0146017  88.6046791   2.4155264  22.8865385  88.7574768
 111.8030071   0.0505397 105.3643990 111.7448997   0.3695078 104.4637775
 112.6669407  -0.3580101 105.4185200  96.7172527 130.8070202 105.5046177
  96.9341087 131.6769118 105.8400154  96.1741447 130.4151709 106.1885071
  71.9653082  53.7492990  85.5558014  71.6408253  53.1751251  86.2495422
  72.5922012  54.3244028  85.9945393  97.0590019  40.5878544  65.0869894
  97.3752785  40.6666565  64.1869974  97.6607323  41.1269093  65.6003857
 104.2672253  26.3949394  58.7711954 104.6406841  26.9396996  58.0783796
 105.0233364  26.1043239  59.2811728  83.0363655   1.3348562  90.2994823
  82.1086502   1.4070942  90.5239201  83.4348488   0.9132326  91.0608387
  84.8474693   5.2379245  74.9083996  85.7112026   5.0527275  74.5397520
  84.2545033   5.2046299  74.1577196   8.7669211  30.4890466  51.0152292
   8.4872943  30.5569100  50.1023054   8.8792830  29.5498824  51.1621284
 103.2239723  42.9970789 100.8043003 103.8431168  43.6496544 101.1314678
 103.1419182  43.1916714  99.8706913 118.6857986   3.2271257  78.4378862
 119.2529297   2.5381541  78.0916023 118.3455467   3.6704102  77.6607370
   1.9784957 137.5818283 100.5815601   1.9290763 136.8764687 101.2267399
   1.7714339 137.1590395  99.7481251 115.2224541   3.5128367  70.0961685
 114.2687893   3.5863754  70.1327419 115.5383205   4.1992208  70.6838226
   5.2885180  35.5233073  48.4670591   4.8194628  34.8367786  47.9928255
   5.5342990  35.1156688  49.2975092  83.1997108  36.9767356  73.7755108
  82.3430157  36.9692969  74.2024279  83.0281830  36.6596794  72.8887796
 116.5535545 130.3239150   7.5433580 117.1916485 131.0105390   7.3494188
 116.4887428 130.3199787   8.4983484  75.5496740   5.8258635  51.9648838
  75.4312992   6.7692816  51.8545151  74.9473715   5.4333460  51.3329077
  90.8881569  10.8085895  54.3676090  91.4952374  11.2684524  54.9474430
  91.4486313  10.2525067  53.8264322  97.6527596  26.3844275  84.8534489
  97.8655529  25.5315638  85.2323532  96.8904877  26.6833258  85.3492641
 118.1571960 146.0805851  99.8297596 118.4044266 146.8299278  99.2879105
 118.8121510 146.0631561 100.5275917  39.4650202   3.3349934 100.8286667
  40.3257495   2.9578242 100.6466866  39.5664340   3.7643978 101.6781139
 111.5871620 142.7971391  50.0378847 111.1992168 142.1946643  49.4032574
 112.0730114 142.2320495  50.6385994  97.6123524  42.3517609  83.5612583
  97.1663189  41.7657280  84.1726875  96.9599438  42.5338793  82.8849220
  31.1933547  23.5204792  75.3913879  31.3264590  24.2643189  75.9789419
  31.5952712  23.7921429  74.5662212 103.1611633  20.4700017  71.9190311
 102.6240063  20.4200339  72.7097225 103.2231426  19.5648313  71.6139841
 112.0129776  27.4846721  77.0081282 112.5053978  26.7362237  77.3451471
 111.4056969  27.1053863  76.3728476  98.1582832   9.8451245  60.4671860
  97.9610157   9.5786864  61.3651466  98.1604958   9.0273541  59.9697161
   5.2623683 134.4421835  84.8007393   5.2977591 134.6330352  83.8634300
   6.1382895 134.1196317  85.0127411   8.7361460  23.6632657  98.1657028
   8.3633261  22.8090858  98.3839226   9.6813517  23.5422063  98.2560825
  99.0260792  32.9811072 107.5084496  99.2320156  33.9130139 107.4351501
  99.8016930  32.5367665 107.1660900   0.6416636  32.7277923  66.7180443
   1.2159472  32.1631932  67.2354031   0.5132418  32.2515440  65.8977222
  12.1688490  15.1799595  59.0641737  11.3537627  15.0049376  58.5938215
  12.4143630  16.0655975  58.7965918  94.6407700  13.2205474  57.5138140
  95.0445843  14.0003300  57.1328878  94.3959236  13.4863293  58.4001780
 115.9666920  35.7803893  93.2340527 116.7978287  36.1790657  93.4919357
 116.1418438  35.3957057  92.3752403  93.4672737  30.8650541  65.8990717
  93.9715195  30.3615212  65.2599955  93.9628506  30.7825637  66.7138290
  74.2747688  22.3588967  92.8556347  74.2523432  21.9500422  93.7208366
  75.2057028  22.4098325  92.6388550 123.5841370   4.2379278   6.4137975
 124.0786171   4.2974105   7.2312299 123.2651806   5.1274890   6.2615434
 110.2243710  31.2708187  15.7587186 109.9761677  32.1300125  15.4175226
 110.5315685  31.4459491  16.6482011  95.6062698  22.1703720   1.3115541
  95.9588814  21.3531494   1.6637460  95.7285309  22.0957875   0.3651277
  20.0967627  15.6732810  88.1273460  20.4142027  16.5610909  88.2924557
  19.1788130  15.6929374  88.3979225  97.8256607  23.6339474  96.7110634
  98.5305595  22.9898357  96.6442585  97.8013515  23.8670301  97.6391315
  84.1514587  38.5168505  91.5115261  83.7312317  39.1331363  92.1113873
  84.4634914  37.8089476  92.0752048 115.7357788  12.5457084  70.0964165
 115.1136208  12.9982793  70.6659222 116.5922356  12.7330065  70.4806519
  99.9160385   0.6894407  80.7319260 100.4646969   0.7830289  81.5106773
 100.0930691   1.4774033  80.2181149 112.9367638  16.2542498  61.0872698
 113.2406235  16.0763109  60.1971912 112.4166584  17.0538414  61.0074377
 101.1901855  22.0023203  93.1380844 100.2941799  22.2991037  93.2972240
 101.3166142  22.1165943  92.1961784   9.1369658   5.8795619  64.7654009
   8.2720976   5.9233254  65.1732159   9.7289782   5.6539452  65.4829359
 113.3608818   1.0236748  64.5659494 113.1276035   1.8852690  64.2203045
 112.6782513   0.4399819  64.2349577 110.0084591  36.4738417  87.4440289
 109.4433117  37.2095108  87.2081757 110.4929161  36.2773108  86.6422081
  69.0787983  10.1872349  72.3105907  69.4591856   9.3119395  72.2371483
  69.8161888  10.7813406  72.1708441  23.6835414  36.1968565  83.8806343
  22.7418929  36.1046791  84.0256596  23.7997752  36.0261106  82.9459858
 114.4479847   9.0553516  39.7924137 113.8279629   9.7124910  40.1085901
 113.8982201   8.3736658  39.4060254 124.4360542  22.6104856  76.5075207
 125.1356983  22.5882387  75.8546448 124.5660782  23.4385109  76.9697952
  74.7018671 125.6905670  18.5344449  74.9387836 126.6048438  18.6900083
  74.7672749 125.2764530  19.3949548 106.8927097 133.7533505  70.9278870
 107.2426033 133.8318462  70.0403929 106.3235092 132.9845328  70.8938074
 122.9949570 146.1455834  72.2545242 123.0873394 147.0945149  72.3395300
 123.8593197 145.8449672  71.9739246 104.2184734   9.8647588  60.3191233
 104.4496250   9.4811875  61.1650991 103.7656212   9.1618800  59.8531675
  77.3891306 143.9371923  71.9738483  78.1376028 144.2256460  72.4961662
  76.6570139 143.9257205  72.5903749  98.5770226 108.8327236 102.5771523
  99.5204830 108.9421816 102.4583054  98.4652996 107.8998322 102.7600861
 103.1587791   5.9340417  90.9536552 102.9695320   5.2236003  91.5665913
 102.4443054   6.5579355  91.0821629 118.0522060  17.6930976  53.3562374
 118.9157677  17.9097664  53.7077141 117.5292683  18.4812975  53.5029078
  91.6509533  16.1159301  88.2851315  91.8167877  16.0065234  89.2214870
  92.3962116  15.6927121  87.8588486 113.8102341 140.7712752   3.8328306
 113.3582401 140.0379557   4.2501775 113.2590675 141.5308500   4.0212385
  69.4224358 130.8748777 104.3991089  69.7030830 129.9610467 104.3503189
  68.5152149 130.8310122 104.7012043  10.4966670  21.4726925  95.9614277
   9.5501547  21.4739203  96.1040401  10.6385737  20.7939911  95.3015423
  73.0104160  23.0463433  71.3035297  73.1510305  22.1034312  71.3894176
  73.7867165  23.3631992  70.8418036  86.1768341  15.3151357  73.2596350
  85.5909824  15.5901706  72.5543928  86.6964722  14.6080172  72.8772831
  35.4089099  26.9762230  85.5271339  35.1503401  27.5722337  86.2300968
  35.5307894  26.1320472  85.9615803 105.8769798  14.1993189  64.5398569
 104.9485207  14.2756677  64.7597790 105.9127140  13.4948027  63.8928556
  78.5379934  21.8565702 101.1526012  79.0392399  22.1679568 100.3989315
  78.4591246  20.9126925 101.0143661 117.3764229  31.6535854  74.9863911
 117.9469109  31.6546392  74.2177677 116.5180302  31.9081783  74.6479034
  59.1626644  37.5250530  88.0273151  59.4872284  37.8144407  88.8800430
  58.7189674  38.2927728  87.6667976  95.2702236   7.1511573  65.8876371
  95.2743626   6.6249698  65.0880480  94.3426609   7.2636354  66.0955381
 121.4526558   4.3839759  77.5390673 122.1996212   4.5144901  78.1232214
 121.4756489   3.4511617  77.3256159  93.1088161  48.9315701  83.2848167
  92.7344322  48.6981106  84.1342640  93.8729095  49.4669247  83.4988213
 107.6104546  24.9131632 104.3324661 107.4015999  23.9809608 104.2723942
 107.3748302  25.2671552 103.4749126  86.9039059  28.0058861  78.4016848
  87.2481441  28.8948131  78.3148289  87.6661682  27.4754596  78.6336994
  76.5562487  46.7835093  96.3029480  76.3099766  46.2697029  97.0720959
  77.1688032  47.4381399  96.6383171 106.1688995  28.0549598  79.1335297
 106.0356522  27.2731662  79.6695137 105.3300381  28.5147119  79.1678572
  17.5190192  19.4411647 106.8122959  16.8379622  18.7839782 106.6691685
  17.8171187  19.2858899 107.7085495  71.5507555  16.0671461  58.1035852
  71.2079525  15.9465027  57.2180557  71.6649342  17.0136356  58.1893349
   2.0042925   6.2327433  93.0710220   1.4058238   5.5349892  92.8041744
   2.1320181   6.7547095  92.2788906  17.3639899   8.3051491  15.3922693
  17.6958209   8.5608667  14.5316163  18.0118590   7.6833248  15.7236806
  12.6808577   2.2769974  30.1888791  12.1607810   2.7523932  30.8367673
  13.4711390   2.0153850  30.6613675 108.6563396  11.7926705   3.7088624
 108.3747578  11.5437913   4.5892087 109.5714474  12.0526910   3.8146535
   5.6469756   8.2512188  59.6428061   4.7994357   8.6409587  59.8573351
   5.4391318   7.5524396  59.0225315 113.6895370 135.2205546  74.1453695
 113.2652473 135.1600856  73.2894754 113.5142326 136.1152572  74.4369268
  94.0265751   2.2791211  26.4996743  93.0930138   2.3094003  26.7089367
  94.4616699   2.2371306  27.3512387 101.3580132  33.1654596   3.1513921
 102.2967911  33.3382082   3.0800763 101.2479973  32.2864723   2.7887479
  99.7679234  47.4861813 109.4808292  99.9333191  48.2363987 110.0518322
 100.5171776  46.9075775 109.6224976  72.9566526   9.6792823  82.9862499
  72.8836918  10.4930317  82.4875355  73.1603241   9.9621624  83.8777256
   1.9054156  14.9983311  59.0792704   2.7211314  14.5125890  59.2013407
   2.1555358  15.7582688  58.5537529 106.3181591   2.9160261  73.2631636
 105.5020714   3.1712604  72.8329372 106.4156246   1.9858702  73.0593443
  84.0966511  23.7292671  81.3358688  83.3780479  23.9155436  80.7315922
  84.7774506  24.3593979  81.0999012  16.5665656  23.0991316 103.8996029
  17.3577338  23.5957408 103.6906242  16.4028769  22.5697970 103.1190681
  84.7887421 123.6935658  97.5162888  85.2608299 123.2981915  96.7834568
  84.4498158 122.9486246  98.0127048 102.0192814  12.1762168  49.7404671
 101.8630219  13.1166685  49.6546507 102.7251148  12.1083915  50.3834581
  76.1614132   4.4245112  94.4364738  75.8870077   3.9465299  95.2190685
  76.4562273   3.7440234  93.8312817 104.0684128 145.7583729  65.6850243
 104.6724796 146.4983242  65.7466793 104.1332436 145.4715054  64.7741270
  66.7165899  75.2709341  98.0996227  65.8799601  74.8200464  98.2135868
  67.3003340  74.6045923  97.7370453 120.4557228  47.4476099  83.5981464
 120.9107780  48.2852125  83.6852074 120.8067703  46.9094419  84.3076420
  80.4909325  14.7923064  48.7631512  81.0581207  14.4652832  48.0648708
  80.4846001  15.7417464  48.6416769  89.6276379  10.9160697  96.9669914
  89.0542698  10.3466308  96.4539528  89.4803905  11.7908740  96.6074562
 120.0241756 134.0008778  78.2631969 119.8492813 134.2403598  77.3530912
 120.6333351 133.2648749  78.2043743 117.8201771 146.3681505  60.4713917
 118.3061314 146.4933623  59.6562767 117.3767185 145.5273377  60.3591108
   9.1255026  24.4135380  91.6976833   9.2381793  23.6868882  91.0848904
   8.2354003  24.3078256  92.0335007 123.2672024 136.4208693  71.2556839
 124.0828037 136.1820633  71.6961527 123.3732700 136.0947985  70.3620100
   7.9847842  22.9000282  86.7420769   7.7609091  23.5720587  86.0982704
   8.4219962  22.2171783  86.2333679 111.3020515 136.5069182  60.5185032
 110.9341049 137.1409113  61.1340475 111.6825867 137.0422227  59.8221731
 120.3065014 123.0338974  44.7330379 120.8744526 123.8019104  44.6712446
 119.8427677 123.0109710  43.8959837   5.9795695   7.0489025  83.1551170
   5.7912856   6.4869362  82.4034691   5.9748202   6.4547211  83.9055538
 103.0425072  29.3241763  64.6180964 103.5789871  29.3422484  63.8255739
 103.3534813  28.5580850  65.1004124  63.9245415  15.5297720  66.3592577
  63.3791733  14.8716605  65.9283352  63.3054781  16.0685575  66.8519068
 121.3343525   7.7651292  42.9949045 120.8508205   7.0460504  42.5882626
 122.0467377   7.3366159  43.4693718 101.0637379  34.7943425  77.9063082
 101.4079285  35.4666615  78.4943104 100.7949066  35.2754450  77.1236801
  75.7490063  30.7108092  65.6511307  75.2104712  30.0804591  66.1295319
  75.2219439  31.5095782  65.6310606 103.9718628   9.2223060  67.7906322
 103.2045937   8.6534840  67.7276373 103.8192177   9.9037468  67.1359825
  56.5511656 119.9804516   2.5527231  56.3182449 120.8940215   2.7181474
  57.4232054 119.8825974   2.9350892  92.9461670  28.8612270  95.6532192
  92.8732586  28.9790440  96.6003418  93.5870171  29.5171881  95.3788948
  99.8878288   9.8951083 109.1811275  99.7874641  10.7635093 109.5710468
  98.9944744   9.6209395 108.9738178  12.8619700 132.0263428  83.3141136
  11.9225054 132.0750136  83.1372356  13.0657988 131.0921127  83.2705688
  81.2064743   1.2676424  79.9975157  80.5118084   0.6648630  80.2627182
  81.2619781   1.8994340  80.7144451  94.8279953  29.7811651  78.8799858
  95.6500244  29.6663857  79.3567657  95.0252628  30.4444933  78.2186937
  18.5971957   7.6466173  86.3255501  18.6615973   7.0093340  87.0368576
  19.3202715   8.2540131  86.4819622  72.0733547   9.9718010  96.5826511
  71.2093353  10.2694118  96.8674850  72.4811745   9.6257019  97.3764610
 116.3070679   0.9983649  78.9996910 117.0059967   0.5491187  78.5243940
 116.3537025   0.6424390  79.8870325  22.5441008   1.3383052   4.7732965
  21.8288165   1.8970759   5.0772229  22.1922427   0.4496089   4.8247472
   4.4530039  18.9120591  44.6015692   5.3239089  19.2119932  44.8619699
   4.0601569  18.5855830  45.4110813   9.5202475  25.3189754  72.4321175
  10.3442221  25.1530766  71.9741058   9.7843962  25.5665994  73.3182001
 118.0788136   4.4302464 106.6226959 117.8527355   4.6460322 105.7179451
 118.3281994   3.5065678 106.5934753  78.2701635  37.3285103 105.1720238
  78.7357712  36.8955398 105.8875561  78.8128948  37.1664524 104.4003963
  92.4973583  41.2137556 102.2790718  92.8863621  40.4848623 102.7624226
  93.2419109  41.6533422 101.8684196 102.4433804   7.6313096   2.4969713
 103.0948067   8.2852095   2.7505437 101.6438580   7.9022288   2.9481927
 120.0890541   6.9257605  19.6020070 119.5253468   7.6450813  19.3173162
 119.6721935   6.1402208  19.2479078 113.4407711  12.1798921   5.7149259
 113.8948154  13.0169976   5.8115140 112.7984905  12.1725142   6.4246122
  94.6990585 133.6143655  44.5714140  94.0903091 133.4745974  45.2967596
  95.3038597 134.2835195  44.8918629  18.1143694   8.8668191  73.1725740
  18.7559348   8.6128610  72.5091457  17.9201060   9.7839361  72.9792118
   9.2923384   4.2979646  72.0792580   9.8925715   4.0480378  71.3767672
   9.3995505   5.2457052  72.1600342 120.8039474   2.4150516  66.9466972
 121.1059475   2.0163637  67.7628279 120.4715347   1.6809301  66.4301634
  93.9669800 132.9834122  73.3669806  94.6207333 132.5254960  73.8953257
  93.1271744 132.6517434  73.6847305 108.2246685  39.5372915  13.6536312
 107.9060173  39.1988921  14.4903994 109.1723633  39.6069431  13.7687123
  78.8719225   9.7174537 105.0627708  78.4090137   9.9596006 105.8648396
  79.5608187  10.3762841 104.9756336 105.3046608 130.4167027  35.6999564
 106.0205269 130.4559166  35.0657463 104.7085094 129.7558386  35.3476787
 108.5750294  44.9201727  56.6433668 109.2738914  45.3722334  56.1706400
 107.7871227  45.4277182  56.4488792 105.1956177  27.5694036  48.0475855
 104.9117374  28.0944562  48.7958908 104.4112301  27.0907688  47.7794838
  83.2784367  30.9706855  63.4875631  82.7504158  30.1796150  63.3796692
  82.6398563  31.6832948  63.5127354 120.0484276  44.9391365   4.5719472
 120.9053898  44.6451569   4.8808423 119.9609852  44.5498466   3.7018625
 100.9493160   8.9419514 105.4346657 101.7853260   9.3290639 105.6944084
 100.5945587   9.5506263 104.7866726  84.8202896  59.1562414 100.7206059
  84.0887833  59.7151375 100.4583931  85.5870819  59.7271824 100.6727219
 120.4188442  19.4914401  73.1918430 120.7100868  19.5073104  72.2801638
 121.1445427  19.8780441  73.6818743 100.2013683  19.0206289  99.5011425
 100.0495148  18.1087279  99.7493553  99.9272823  19.5259929 100.2664661
  97.9774570  50.5397797  87.5063324  98.0288696  49.7546959  88.0515194
  97.8800964  50.2060890  86.6144753  93.5732269  26.8661880  90.4038715
  93.1639290  26.0112000  90.5369091  94.4854355  26.6651201  90.1948738
 121.4141178 143.3676792  47.3740339 120.6987858 143.9355902  47.6604080
 121.1781883 143.1172193  46.4808178 108.2617664  36.6406226  49.9899292
 108.1771088  36.0112643  49.2737055 108.3994770  37.4818683  49.5545292
 102.3776627   2.6681983  77.1454334 103.2057095   2.4346088  77.5649643
 101.7157555   2.5137839  77.8194284  81.5539646  43.4506130  91.2389565
  81.5225410  43.1087399  92.1324730  81.7792034  44.3749905  91.3439751
   4.6290236  27.2577000  39.3883729   4.8754531  27.4448204  38.4825659
   4.8544341  26.3357162  39.5123386 117.2274971  17.7558982 109.3323421
 116.6322899  18.5045385 109.3710041 116.6726875  16.9988513 109.5202065
 107.2111320  25.1003146  95.5845070 107.8495884  25.1064134  96.2976456
 107.1671009  26.0115123  95.2946568 119.2955399 134.8526795  56.4716434
 118.7416840 134.1041763  56.6934824 118.8250256 135.2983601  55.7672215
 112.6383305   8.9321750  99.2683601 112.0411587   8.8611674  98.5236645
 112.1891403   8.4759545  99.9799252   2.1652537  21.3974857   0.5102769
   1.7423945  22.1726513   0.1407567   1.7773944  21.3049650   1.3804666
 101.0891247   5.1402766  80.4009056 101.5875912   5.4770714  79.6563721
 100.8497810   5.9202880  80.9014320 117.4327374 138.3712650  85.8881187
 117.3126411 139.1558177  86.4231777 117.1720695 137.6492060  86.4598942
 123.0397511  34.2003345  87.4596691 123.6252499  34.6933889  88.0344009
 122.1862984  34.2464805  87.8906250   4.9652987  27.9727817  57.4311161
   4.1586619  28.3952951  57.1360683   4.8674040  27.9065728  58.3809900
 120.5961704   4.1376361 107.7375031 119.7928429   4.1765735 107.2184849
 121.2380505   4.6263939 107.2223949  95.8833599   3.0737346 100.1380444
  95.5749226   3.8936812 100.5237770  96.1531258   3.3127612  99.2512989
 100.1661205   4.6550295  69.8443079  99.5397282   4.6276921  69.1210365
 101.0219765   4.5756230  69.4230700 119.9336338  33.0362105 100.1082230
 119.6081543  33.7584662  99.5709705 119.1444111  32.5782681 100.3974438
  91.1948776  27.0693517   7.1935884  90.7724857  27.8684735   6.8785898
  90.4779148  26.4432359   7.2944204 103.3510780  13.5901606  25.8865786
 103.7010384  14.3712020  26.3152170 104.0882587  13.2413328  25.3854632
 111.9604015 140.1148040 104.6144104 111.9576454 139.8362459 103.6986446
 112.8527069 140.4255594 104.7675514 103.3752060  38.2966495  73.1053829
 104.2563629  37.9826593  73.3083582 103.1447697  37.8525996  72.2893238
 106.3122463  37.4341273  79.0086555 107.2381401  37.6759219  79.0310144
 106.3144302  36.4945292  78.8259459  99.4471836  13.4112978  93.9839840
  99.0859985  12.6829636  93.4787083  99.4189548  14.1564369  93.3838177
 101.6184521  43.4836245  88.8372993 101.7290592  43.2333803  89.7545624
 102.4272251  43.1985188  88.4120560 107.0103836  53.2894945  92.9048824
 106.9652939  53.9492035  93.5969639 107.1250725  53.7944031  92.0998096
  86.4866352  19.1771495  69.0892315  86.6279984  18.2306182  69.0711355
  85.7384491  19.2964375  69.6742296   9.1277342  78.3014822  67.2467470
   9.4463950  78.5634375  68.1104946   9.2722540  77.3557997  67.2147989
 101.1892700  13.6298883  87.4412060 100.5999947  13.9307821  88.1329060
 101.0620499  12.6815748  87.4138927  19.9401503  18.6731923  68.0552387
  20.0651866  19.6196771  68.1242704  20.4635745  18.4172130  67.2958088
  74.3978214  15.0622964  52.3108912  73.5413170  14.6473944  52.2084713
  74.6565485  15.3005183  51.4206409   2.0411902  29.3955350  56.3909340
   1.3085394  28.7983966  56.5422392   1.8998271  30.1102185  57.0118046
 124.3843269  21.5698171  45.6531429 123.4766960  21.4787626  45.3630733
 124.4112682  22.4198747  46.0923576  97.4588108  26.9487405  72.3325348
  97.0469666  26.3968635  71.6676617  97.0742702  26.6558075  73.1586981
  94.9276733  15.2449751  61.9424963  95.4480076  16.0295951  61.7696953
  95.5750465  14.5623362  62.1189785 121.3069153 137.1211816  76.6661358
 121.4260197 137.8693957  76.0811377 121.5703773 136.3639743  76.1432076
   3.0902606 143.2622496  58.4324837   3.4227782 144.0721873  58.0456209
   2.1466380 143.4032951  58.5093212 108.3168030  17.9749143  73.6796856
 107.7917004  18.5562015  74.2297792 107.7164364  17.6901984  72.9906797
  94.1593742  12.2469234  79.1546202  94.1800499  12.1198750  78.2061148
  94.6581936  11.5093923  79.5059919 101.3921452 133.3669014  65.5016661
 101.9478989 134.1294105  65.3405809 100.5497742 133.5974199  65.1098537
 118.9630127  43.2014179  41.1018372 119.4420910  43.7224674  40.4574585
 119.6273518  42.9382038  41.7387056  99.6591854 133.5269780  54.4753218
  99.0626144 133.7311620  55.1954889  99.1734123 133.7674768  53.6863852
 108.3219051  17.1199882  88.3814430 107.6545334  16.8664300  89.0190601
 107.8477287  17.1882927  87.5527477 111.3863087  29.1415191  31.5784407
 112.3038197  28.9770007  31.3608837 111.2766266  28.7673521  32.4526262
  13.4461814 145.6253374  71.0736990  13.8483458 144.7646914  71.1910868
  12.7535468 145.4801507  70.4291725 120.7325745 136.8062420  27.4293923
 120.4612541 137.6412917  27.0481968 121.5528870 137.0044238  27.8810954
  15.7711058  22.3653150  47.5156879  16.5899211  22.4720526  47.0315647
  15.1180392  22.1740580  46.8425179 108.3729172 139.3549080  94.7859859
 108.3592510 139.3973107  95.7421494 107.4502563 139.3111218  94.5349693
 112.2498226  45.7840252  81.1052608 111.5216541  45.3042412  80.7105255
 112.2419643  46.6347313  80.6665516 119.8370934 123.6026759  52.8650618
 119.7376442 124.2826218  53.5314083 120.4798317 122.9972810  53.2346916
 102.2064018  67.4733114  39.8913169 102.0777607  67.1391249  39.0036225
 101.3692951  67.8781128  40.1185036 106.4963913 142.5130633  30.3416300
 106.9573116 142.7552457  31.1448312 106.5315533 143.3005241  29.7985816
 110.3653336  27.4565673  72.5551653 110.2572346  28.3772945  72.3168278
 110.0789452  26.9733191  71.7801285  73.5532284 128.3784790  81.8945885
  73.4386444 129.0269632  81.1999130  73.9343929 127.6194579  81.4531803
 115.1078320  13.3500159  48.0539227 115.4082680  13.3068943  48.9617252
 115.2042866  14.2714238  47.8132200 121.2148380  18.6722875  94.5109463
 121.4915657  19.3924546  93.9443588 122.0249653  18.2075119  94.7204971
 113.1432915 134.6887154  84.2726135 113.7213516 135.3709919  83.9311695
 112.9831028 134.9431843  85.1813507  26.9352942 141.1562944  60.0733328
  26.5791255 141.1340768  59.1851425  27.2787028 140.2742512  60.2158070
   2.6750498   8.0984789  24.0302086   2.3072653   7.4188322  23.4653711
   2.6986437   8.8808906  23.4792924 107.3863411  19.6279013  67.4643421
 107.2596550  19.7128856  68.4093094 106.5005112  19.5512104  67.1098709
   5.4843550 144.7706572  24.4440532   4.5467406 144.5890019  24.3800426
   5.7454806 144.9992810  23.5519886   1.0506373 125.6479163  46.0571003
   1.9791537 125.8310694  46.2004328   0.5939227 126.2596888  46.6344929
  10.5731135  42.4764204  63.6081266  10.4261809  41.8428373  62.9058361
  10.0120764  43.2184315  63.3825302  85.3042412  29.8246050  97.5319195
  84.7494125  30.5183029  97.1753025  86.0916805  30.2783751  97.8323650
 109.3179131  32.1216822  77.3704529 110.2145672  31.8521452  77.1714497
 109.1446781  31.7556167  78.2377529 110.6974697   6.3682634  70.7000256
 111.0639763   5.9062779  71.4540005 111.2625885   7.1329325  70.5897951
 109.1441154  43.1263399  41.1833477 109.8387051  42.8579426  40.5818939
 109.2650509  44.0706491  41.2827873  99.6990204  27.5079656  86.7338848
  99.3180370  28.2985783  87.1159935  99.1166592  27.2888994  86.0064983
   3.9496737  49.5537758 105.2921677   4.8048049  49.9723339 105.1932335
   3.9941435  48.7818098 104.7279644  94.5068741 143.3082155  67.5403547
  94.5213795 142.8002540  68.3515263  95.0626183 142.8136099  66.9380665
 121.6270447 135.7106180  91.4089298 122.1314144 135.2498872  92.0794296
 120.7602310 135.3058226  91.4408875 114.1586590  24.7566533  98.1499863
 114.8213387  25.0959182  98.7516403 114.4137955  23.8461351  98.0013466
 116.0142803   1.1197335  65.9905863 115.1374149   1.1782564  65.6112337
 116.1969566   2.0037244  66.3090515 122.6615524  29.4995141  65.2564621
 121.9988728  29.6966910  65.9184361 122.2166157  29.6446967  64.4214821
  10.3938513  26.7396307  86.0702229   9.9719267  26.3509464  86.8364620
  11.1645537  27.1854997  86.4215755  20.7391577 139.6636141  38.8639903
  21.2143832 139.8610038  39.6711063  20.9514552 138.7488384  38.6786628
  99.0025902 143.6599774  50.4529953  98.9014244 143.0935235  51.2179279
  99.0910149 144.5407500  50.8172083  25.5116397  20.5757618  47.6645565
  25.5771285  19.6271288  47.5548267  26.3815337  20.8431745  47.9612064
 103.9471817   6.9447434  25.0812888 103.8416958   7.4279910  25.9007859
 103.0764961   6.5921736  24.8973608 116.1327839 124.2912025  79.6647501
 116.3903141 124.9843306  79.0568972 115.4218769 123.8322110  79.2173481
  92.7465534  11.1997807  59.0184784  92.6549339  11.9393325  58.4177256
  93.3389282  11.5169346  59.7001934  83.3568764  48.0556583  32.6365328
  84.2591190  48.2851124  32.4139547  82.9181194  48.8979053  32.7562976
  83.6483097  25.8693433  90.4974365  84.1297150  25.2315784  89.9704266
  84.2654324  26.5900040  90.6240654  87.5163460 138.7202818  56.7119646
  86.6023636 138.6772169  56.4308500  87.8580570 139.5113976  56.2953091
 113.2655811  24.3834138  51.9666767 112.9017735  23.8664389  51.2479210
 112.6830196  24.2090821  52.7059078  90.5491161  19.5372021  13.4111488
  91.1649132  20.0567603  13.9279521  89.7034836  19.9653208  13.5447490
 123.8775730  25.3026390  54.9252653 124.0036392  24.6334791  55.5979919
 124.1907406  24.8933339  54.1186523 106.8950462   7.5876004  77.1165419
 107.6839828   7.0608675  76.9886112 106.1865330   7.0461315  76.7686319
  93.0121040   9.3546903  66.0758829  93.1738377   8.7349880  66.7872477
  92.1145821   9.1715473  65.7981205 122.6977730  14.1733205  76.8496704
 123.0343437  14.1101778  75.9558201 122.3273754  13.3088410  77.0277548
   2.8968173  39.8372316  60.3318930   2.5478869  39.1151476  60.8544636
   3.7485343  40.0276613  60.7250214  86.2416649  27.6717305  46.2685680
  87.1003723  28.0167150  46.0239506  86.3525105  26.7210793  46.2542105
 101.4800262  17.8457272  53.1711721 101.4887619  18.7787640  53.3847094
 100.9382629  17.4489665  53.8533068 113.0200005  11.0976839  57.3891258
 113.1690025  12.0369625  57.2805691 113.4074306  10.7019138  56.6084194
 115.6377888  17.4741769  66.5087318 114.8464775  17.9503155  66.2570572
 115.4275131  17.0940602  67.3616838 108.7141800  11.3955164  60.8323860
 109.1253471  11.3034523  61.6918564 109.4434738  11.5583575  60.2341843
   9.3767863  35.7214260  68.4896278   9.1461306  35.6800389  69.4177008
   9.7251826  36.6047120  68.3685780 122.4330425  12.3932064  60.9873581
 122.8638363  11.8436515  61.6420650 122.6512337  11.9839048  60.1500463
 102.0826054  11.5651250  56.8126774 102.3880100  11.3587391  57.6960611
 102.2302723  10.7613468  56.3143110 116.1395645  23.8603115  63.3980799
 116.7870712  23.4567904  62.8200340 116.1454296  23.3129811  64.1833401
 111.3495255  21.3421082  55.1618528 111.2881088  22.1591997  55.6566477
 110.9675217  20.6823254  55.7406378  96.4583969  15.4781330  31.2568235
  96.4980221  15.9673595  30.4350448  95.8135414  14.7895598  31.0947824
 122.0033264  29.2744303  58.5994816 122.6476383  29.8472309  59.0154171
 121.3159943  29.8675656  58.2961798   5.7239085  15.9314382  34.7805953
   5.2161437  15.1288390  34.6612430   5.1411467  16.5131938  35.2686310
  14.9292307  25.9930444  85.8318901  14.3163043  25.5546641  86.4221287
  14.7405940  26.9252324  85.9399414   1.7814093   2.4802375  57.2059250
   0.9059935   2.6608533  57.5483418   1.6562872   1.7473009  56.6031122
 100.2302837  22.0230818  35.4000950  99.3305302  22.3226547  35.5301976
 100.1689243  21.0679364  35.4129314  92.7458000   3.4011948  16.1015308
  92.7497292   3.5678515  15.1589596  92.2673702   4.1420004  16.4737463
  19.2799502  58.8134861  67.5422144  18.6956339  59.2815733  66.9458008
  20.0643378  58.6398172  67.0218325 122.2861290   6.7612678  21.6090512
 122.0739365   7.4459052  22.2434592 121.6064072   6.8363434  20.9392953
  12.3126917 134.4897444  40.6192541  13.1252890 134.1738517  41.0143805
  12.3601752 134.1986258  39.7086334  33.5283213   8.7263727  76.7311382
  33.1395178   8.3441520  75.9443951  34.4674998   8.7485409  76.5476370
 121.4357662  29.3134689  54.2388821 121.3828468  28.3588338  54.1930151
 120.7864380  29.5579433  54.8983002  87.9754543  30.7340240 105.4636288
  87.9665184  30.5073786 106.3935661  88.3623123  31.6090679 105.4340839
 122.1539879  16.5839565  42.5486135 121.5868855  15.8130431  42.5664139
 121.7092896  17.1949148  41.9610786 118.0386639  23.3000088  69.2306757
 117.2070694  23.5270858  69.6467543 117.8085995  22.6329041  68.5839319
  98.5607243 134.8335011  46.8964529  98.5690594 134.0755243  46.3119555
  97.6376915 135.0798554  46.9560671  85.4096031   8.5446644  88.5226250
  85.5101013   7.6385307  88.8142681  86.2567520   8.7674159  88.1366920
 106.4907169  27.6778889  53.7879705 106.0762215  26.9485497  53.3270073
 106.2886429  28.4453321  53.2527828  15.6074648  28.6695719  45.9019518
  16.2229853  29.2182112  46.3881159  16.1280089  28.2994699  45.1890039
  58.7966347  34.0459394  66.2589741  58.5717916  33.5658789  65.4619646
  59.7429276  34.1776013  66.2003613   6.5911036   8.6769861  64.9705029
   5.9988242   9.2495340  65.4579735   6.8973189   9.2149514  64.2403936
 115.2575874   5.6612682  96.6723347 114.9599171   5.2497798  95.8609772
 115.9875488   6.2193179  96.4040565  98.2715511   2.7150470  30.4344010
  99.1708183   3.0165282  30.3053617  98.1426620   2.7448216  31.3824177
 122.3299599 132.1790440  89.4910049 122.4828529 131.2610359  89.2671394
 123.1859779 132.5030119  89.7712135  78.9918375 133.9836235  74.5878839
  79.5751715 133.2312352  74.6871948  78.9384556 134.1221292  73.6422634
 116.2720203  43.8164949  33.1202531 116.5607548  43.1396532  33.7324238
 116.6555882  44.6253586  33.4591556   8.6860114  33.1252670  23.1440830
   7.7298194  33.1557274  23.1124687   8.9253550  33.7864065  23.7935758
 109.7264481  14.6466732  64.2229176 109.4862747  13.7526536  64.4663811
 110.0274658  14.5755577  63.3170652 121.9877815   5.4276055  54.1125774
 121.7054462   6.3403159  54.0535879 121.2120438   4.9560726  54.4160891
 121.9345188 136.9502569  53.8654184 122.4466419 137.2360052  53.1089067
 121.9762325 135.9944291  53.8356733  25.5004817 140.4961456  43.9343357
  24.7862845 139.8588712  43.9286375  26.1441832 140.1399649  43.3219528
 104.7662258  17.3578978  66.8254566 105.3523731  17.2774231  66.0730028
 103.9857292  17.7880561  66.4761400   8.5901003 131.8037135   1.1910764
   8.8111430 131.4312465   0.3374711   8.6282759 131.0609574   1.7936460
  92.2106171   4.7880036  87.7549458  92.5728321   4.8392254  86.8704033
  91.8408203   5.6566262  87.9129982 116.9890213  44.5997715  46.0395288
 117.5964642  44.6011925  46.7792845 116.6637993  45.4989243  45.9949398
   3.8038092  29.5869732  72.1714592   3.7813693  28.9500618  71.4572668
   4.2588263  30.3441763  71.8028975   1.3190871   5.7874787  78.0349493
   0.8464652   5.8274817  78.8663673   1.0060244   4.9837589  77.6199102
 108.4256744 143.4502301  70.1141214 108.0271721 142.7638031  69.5791054
 109.0090275 143.9138506  69.5133018 107.0557404  50.0500584  83.9059544
 107.9281235  50.4420805  83.8673115 107.0151234  49.4799137  83.1381607
 114.2000771  10.9210908  60.1749849 114.7004795  10.8457708  59.3624830
 114.8392200  11.2165475  60.8233929  92.6979446  20.6131315  26.6489387
  91.8316078  20.7208538  27.0414829  92.6075649  20.9731460  25.7666397
  85.4376125  18.2284629 109.3750858  85.4618549  18.8715887 108.6665440
  86.2922478  18.3067954 109.7989845 101.2985134   3.0414826  67.4954224
 101.5151978   3.1778902  66.5731049 100.4240036   2.6525545  67.4810171
 104.4898415 141.4869727  42.1868515 104.8371410 142.1827150  42.7450275
 103.5401535 141.5498743  42.2886133 110.3168774   0.9968191  39.0412879
 111.2444210   0.9105583  39.2614293 110.3115177   1.4617524  38.2046056
 116.8074322 137.5411338   4.1304079 116.6825867 136.6661293   4.4978470
 117.5027561 137.4315465   3.4817582  17.6088076  19.1394997  69.7926140
  18.2436877  19.0847325  69.0783596  16.7751341  18.8940990  69.3913746
 111.3860321  18.7319958  71.1089373 111.1733341  19.6254444  70.8392286
 111.3364315  18.7520874  72.0646381  95.9827614  24.2382503  55.0609541
  95.6011105  25.0515509  54.7306204  95.6309605  23.5580325  54.4866943
  11.2695723 145.0261777  53.0896616  11.5488558 144.2721982  53.6090326
  10.5163985 144.7082842  52.5917578 100.6088257  35.4253292  54.3686962
 101.3476849  35.5779243  53.7796021  99.8499012  35.7639861  53.8937330
 120.1516533  99.6278877 101.9995594 120.5084896  98.8356609 102.4011517
 119.2784691  99.7174949 102.3813152 120.3143978 139.1041172  38.0337954
 120.7484150 138.6018372  37.3441720 120.2962971 138.5122962  38.7858939
  76.8650055  31.6653872  -0.1816964  76.7552042  31.6448617   0.7689635
  75.9754658  31.5907145  -0.5272095  15.2281123   2.8100112  40.4756165
  14.5629531   2.7669027  41.1625957  14.9278670   2.1887475  39.8122048
  19.0844184  29.3553710  75.1346016  18.1910163  29.5019531  75.4453707
  19.6391326  29.7657299  75.7980251  93.6103821  49.6519518  67.9271078
  93.4455585  49.0005493  67.2453928  92.7743435  50.1062346  68.0314636
  99.6033287   9.6735102  66.5323496  99.0022850  10.0706875  65.9020948
  99.2159653   9.8652995  67.3863935  99.8624134 127.3156972  77.5078583
 100.4665089 126.8983442  76.8937588  99.9453735 128.2518978  77.3265314
  24.4594889  17.6924741  72.4833536  23.6872321  18.0890155  72.0801067
  25.1910620  17.9878581  71.9413376 117.3334122   8.2010263  64.9676847
 117.7358341   9.0580547  64.8270082 116.6599846   8.1385487  64.2903233
 101.7421436  17.9783332  43.7973356 102.3872089  18.5135508  43.3350992
 101.3973522  17.3873925  43.1279039 114.2416286 137.2596390  51.3304377
 114.9528694 136.6656769  51.5703821 114.6747017 137.9778219  50.8690405
  98.6383629  42.2820902  79.3894482  97.8581142  41.7376804  79.4946527
  98.8145351  42.6203775  80.2673721 104.1826057 138.6730481  46.1012983
 103.7198830 139.1993243  46.7533302 103.9987755 137.7672715  46.3503122
 124.0649509 138.9903838  55.2325153 123.1136513 138.9085794  55.1649141
 124.3436813 138.1875772  55.6730223  71.1079454   6.3631022  28.4305716
  70.7367229   5.7637066  29.0779901  71.4917803   5.7905322  27.7664423
   5.1969081  47.9013157  62.5540924   6.1287337  47.7473927  62.7098179
   4.7883063  47.7849722  63.4118462  97.8900433  14.8003507  49.2937136
  98.7681007  15.1193309  49.0851688  97.6322556  14.2895389  48.5263491
 110.9876919  29.9878216  94.0442085 111.6666698  30.5955720  93.7511730
 110.6477451  30.3785229  94.8492050  23.2808714  26.9937348  93.8798904
  22.9939108  27.5504231  93.1560230  22.7961855  26.1769795  93.7606239
  90.7801819 133.6414261  74.4907141  89.8840809 133.5906179  74.8233509
  90.6917000 134.0368433  73.6235046  10.6993132  26.5637469  67.5410604
  10.9290438  25.8030486  67.0074034  11.1921149  27.2865295  67.1525288
 102.7341175  18.3816135  61.3547134 101.8421459  18.0391991  61.2966585
 103.1712818  17.8059733  61.9822168 109.5391369  34.0166020  67.6591063
 110.2937126  33.9321446  68.2419538 108.7806511  33.9726591  68.2413483
 124.8201466 144.2040380  56.4750338 123.9699364 144.5516560  56.7443609
 124.6264267 143.3268786  56.1444283   3.6602622  25.0742817  63.6148024
   2.7906542  24.6746564  63.5971498   3.7304049  25.4566932  64.4894886
  83.5605335  10.5583727 100.2509212  83.1353378  10.3140366 101.0729599
  82.8384781  10.6770813  99.6338463 122.3981476   5.8937943 109.3521023
 122.0461369   5.3654504 110.0684547 121.6781902   5.9563559 108.7244225
 121.1724377   1.6063349  78.1492853 121.4544868   0.8329309  77.6608896
 121.6946220   1.5867488  78.9512682  22.0726424  39.7368526  65.7463360
  21.6874915  39.1779232  66.4212322  21.4451151  40.4518843  65.6406832
   0.4887515  38.0045533  69.7830534   0.1406031  37.7712965  68.9224625
   0.0097399  37.4454570  70.3947735 112.5908470  12.3594415  75.5083466
 112.4834538  11.4083552  75.5198193 112.8790569  12.5572002  74.6172476
  24.3059569  40.7096148  80.5234718  23.5921603  41.3275099  80.3655720
  24.7641688  40.6536293  79.6849346  94.5458221  36.5164995  77.4254370
  94.1665077  37.0476055  78.1256390  94.8897934  35.7425308  77.8714085
 106.1430645 131.2785573  73.6878014 105.8936501 132.0331247  74.2213249
 105.5948925 131.3462824  72.9060411  64.5087194  11.8063235  74.2215061
  63.9143085  12.3371327  73.6912727  63.9405680  11.3773656  74.8613739
  12.4566107   1.6270420  72.1095085  12.5296717   1.7519040  73.0557108
  12.8138953   0.7525609  71.9550228 107.7912235  27.9919887  42.0971537
 107.3108196  28.8133311  41.9930410 107.1112823  27.3189139  42.1267843
  93.2694149   1.1228334  59.4181728  92.3960114   1.5080519  59.4888449
  93.3336067   0.8406072  58.5057831 109.5374584  20.3187966  49.3937349
 110.3610992  19.9992073  49.0253496 109.0055370  20.5448198  48.6307096
 108.0214024  33.3780384  56.3473463 108.4139061  33.0519104  55.5375242
 108.2497978  32.7216101  57.0055056  11.5369826  25.1671362  58.6320877
  12.2891741  25.6796384  58.9283657  10.9389716  25.8139682  58.2576180
 119.3024540  31.2307215  72.7581024 119.6844387  31.9349384  72.2342777
 120.0562096  30.7406497  73.0865955 114.6354294  13.2755232  89.3021965
 114.5397186  14.1512334  88.9277649 115.3471088  12.8772402  88.8010883
 103.8626099 130.1684673  23.7453222 103.9649200 130.1494200  24.6968484
 103.2544804 130.8898921  23.5842133  92.7318764  49.6571159  35.6912088
  93.1247425  48.8560486  35.3445458  91.8481922  49.3972397  35.9515882
 103.7248325  45.8812618  40.1734304 103.9747620  45.2248287  40.8237076
 104.0112114  45.5120039  39.3380499 118.0837059 143.4131614  27.0477509
 118.0802631 144.3692220  27.0943165 119.0054321 143.1721730  27.1403503
 117.3689079  29.5638943  58.0281925 117.0522690  29.2435002  58.8727760
 117.0870399  30.4781508  57.9978991 118.7533569   0.6216517  65.8577776
 117.8406143   0.7346983  66.1230135 118.7038136   0.3280083  64.9480772
  22.3538046 119.7094388  75.8116961  22.9421454 119.1398902  75.3160143
  22.9374152 120.2674861  76.3257122  97.8489494 136.7867053  51.6666365
  98.4175587 137.3800606  52.1573973  97.1845341 136.5137494  52.2993135
   8.6057025  16.8216455  75.4881287   9.1943198  17.5730371  75.4162073
   7.8059893  17.1798718  75.8733034 118.4457970 135.9381098  36.7675400
 119.1648960 136.0622437  37.3869872 118.7670612 136.3158292  35.9487915
 120.2695465  34.5114350  37.6245499 121.0796642  34.1136599  37.3056245
 119.8122501  33.7986875  38.0707598  98.1931782  25.2139091  76.4498568
  98.5602188  25.0932789  77.3256207  98.9057159  25.6034184  75.9430981
   3.0159693  12.1918631  44.4326305   2.4484854  12.7736580  43.9269447
   2.7202921  12.2955585  45.3370953  98.9292812  28.6675119  49.0271902
  99.3883514  28.5525775  49.8592234  98.8271523  27.7793026  48.6853075
 109.4833565  21.0970521  63.9147234 108.7792587  21.7054296  64.1391325
 109.0518093  20.4062176  63.4119797 103.8965893   8.3649856  38.0008698
 102.9471397   8.4826940  37.9704809 104.0594864   7.9498637  38.8478470
   2.7650767  35.1004410  32.4980807   2.3228102  35.6505990  33.1445765
   3.5530406  35.5912805  32.2648120 123.2415962 117.0389051  77.3845196
 124.1274166 117.4002118  77.3528862 123.3106995 116.2863965  77.9720497
   1.6783076 109.8793668  89.4789600   1.2008792 109.8534007  90.3081894
   1.8499690 110.8092613  89.3304348  83.6908340 130.0555141  81.3181973
  83.3687592 130.6637497  81.9834423  84.3330002 129.5151717  81.7784977
 100.1896858  15.9814429  48.3457994 100.9900951  15.4567325  48.3617973
 100.3550529  16.6503716  47.6814032  82.4731922 145.9270801  36.1665201
  83.4262753 145.9409965  36.0789561  82.2241402 146.8497298  36.2205815
  87.5872421  15.2548587  27.8389454  86.7405796  15.5615067  27.5143623
  87.8797436  14.6213090  27.1837425 105.0167274   4.4843420  22.8419852
 104.3796444   4.6947816  22.1592927 104.5653629   4.6868524  23.6614347
   9.5371752 137.1351773  52.5771809   9.7292262 138.0535896  52.7665710
   8.5963851 137.0503623  52.7319193  34.0764742  27.1378517  64.7984457
  33.4219962  27.3784447  64.1426897  34.9049883  27.4520802  64.4364452
 123.5569763 145.3898204  53.4126091 122.9073334 145.1608358  54.0772629
 123.5935783 146.3461048  53.4329128 107.9774952  18.7760818  38.1891537
 108.6214352  19.4647479  38.0238843 107.2729492  19.2161107  38.6647725
 103.3409882 133.4311778  39.8696589 103.5569096 133.4710271  38.9379835
 102.5592041 132.8804214  39.9109936 110.1256084  28.1104612  79.0147781
 110.9634972  27.9867244  78.5688353 110.2405357  28.9141774  79.5217991
 117.2520733 133.1598837  53.4195423 116.9086361 132.6745124  52.6694107
 118.1258583 132.7955289  53.5608721 117.4638748  12.8960550  34.8242164
 117.7433014  13.7212265  34.4276738 117.5426865  12.2529447  34.1196370
 112.2329617  22.2489929  75.7943726 112.0606995  22.8382730  76.5287447
 113.0657387  22.5531054  75.4335022 120.0530624  31.9749713  61.7641258
 119.8155212  32.4904966  62.5348663 120.8113861  32.4290204  61.3966846
  13.6806803  22.5385833  54.6111250  14.3075877  23.2452512  54.7655344
  13.9737158  22.1324396  53.7953949 105.6567860  20.8648205  32.4864268
 105.9892368  19.9963522  32.7132964 104.7468281  20.7136798  32.2307634
  97.5143719  23.4143329  52.3121166  96.5843201  23.3592463  52.0925903
  97.7468204  22.5295138  52.5937128  12.4062090  45.8441925  74.5346451
  12.2338133  45.9910727  73.6046267  13.0844813  45.1689291  74.5487785
 117.3565769  40.9657097  67.7224016 117.3658657  40.1370096  68.2013607
 116.5624237  40.9254837  67.1895409  84.7056103  54.8162889  29.5593905
  84.0677547  55.5159378  29.4184852  85.1246738  54.6989632  28.7068319
  33.3181500  26.0191727  60.9052086  33.1349301  25.7516885  60.0045872
  33.8473344  26.8118644  60.8166838  64.7064829  36.3212657  56.5557337
  64.0099812  36.9021845  56.2497044  65.4655886  36.8940997  56.6645765
 124.2746258 137.3582638  25.1237845 123.4757996 136.9215811  24.8281217
 124.0599632 137.6841904  25.9978104 101.9414234 129.8618776  62.1441031
 102.5047493 129.1803796  62.5107908 102.1439171 129.8622949  61.2085676
  84.1323185  46.4105320  52.0151567  84.7374058  46.9323301  52.5422573
  83.8641548  45.6971312  52.5942755  15.1473933 141.8659268  26.6992283
  15.6967192 142.0631252  27.4579000  15.2146273 142.6442043  26.1460614
 114.5288277  35.2173042  46.0092831 115.2735043  35.2166796  45.4078770
 114.9189758  35.0877118  46.8737078 121.5324211 141.4275224  49.4028997
 122.4856567 141.3662297  49.4646835 121.3613892 141.5695287  48.4718704
  99.5826149 142.7024270  28.9444852  98.7528706 142.6022104  29.4110990
 100.0099087 141.8501646  29.0299296  11.1930590  22.0393205  50.2494621
  11.3074999  21.5210199  49.4529057  11.7725306  22.7919006  50.1308346
 111.8892384 129.0226431  58.0965662 111.0692501 128.8607640  57.6300430
 112.0112228 129.9706192  58.0446482 100.2286625  29.1209006  44.7169447
  99.4300556  29.3725085  45.1807880 100.1555252  28.1723642  44.6112871
  90.2574348 140.1150567  35.0763369  90.1045322 140.8013345  35.7258558
  91.0535145 140.3892709  34.6210361 101.7457676  33.8958788  26.9953728
 100.8201599  33.8428903  26.7573142 101.8645573  33.2075000  27.6497889
 104.2941475  31.8696189  29.4472480 105.1027870  31.6711044  28.9751053
 104.1144943  31.0797644  29.9572325 104.0593243  31.3658547  50.7827854
 104.3538475  32.1104980  51.3071871 103.1039238  31.4198565  50.8055067
 104.8551083 124.7889275  60.5563021 104.7277355 124.6201510  59.6227503
 105.5913353 125.3996606  60.5910110 123.6556149   3.2029042  57.7116394
 124.1359997   3.1952798  58.5395336 122.7993107   2.8340009  57.9281855
 116.8039989   1.7037188  20.1212263 117.4575329   2.3815101  20.2936363
 117.2909355   1.0085316  19.6786880 104.7642517  36.1775756  58.4773922
 105.2041245  36.3706923  57.6494694 104.0963554  35.5311680  58.2486773
 114.4910812 119.3429966  16.3213599 114.1441536 119.5470352  15.4528904
 114.5015049 118.3864970  16.3564587  91.9903660 142.1924896  46.7289019
  92.6052094 141.4722759  46.8685484  91.2552071 141.9957895  47.3094845
   1.4822608  11.5124130  61.9003105   1.7697459  11.3911760  60.9953880
   2.1678572  11.1010218  62.4265766  79.4467258  12.7890790  37.5274062
  79.5451880  11.8886375  37.2179842  79.4329357  12.7142954  38.4815812
  84.2915821  40.8449316  31.5642309  84.7020435  40.5676079  32.3832870
  84.9924088  40.7901001  30.9145546 102.5574207  14.6798360  47.7241516
 103.5138512  14.7155178  47.7100706 102.3384190  13.9149654  47.1919489
  82.5881195  13.9845943  39.6820140  82.0620155  14.6837151  39.2938447
  82.0326328  13.6217010  40.3719187  81.9055748 133.5519356  22.7583408
  81.3066769 134.2932481  22.8478551  82.4433327 133.5815687  23.5496497
 114.2843533 121.6358347  85.9444809 113.8552570 122.0037694  85.1720047
 113.5842800 121.5566582  86.5924454 100.8119678  21.8049431  38.4370089
 100.8314991  22.1696115  37.5522113 100.0622177  21.2098765  38.4343171
 120.9515667 123.2223196  33.7152815 121.8004513 122.8448791  33.4847069
 121.0954475 124.1683240  33.6907578  83.0044365  17.7240562 102.7254009
  83.5778809  16.9930267 102.9556084  82.2157383  17.5839949 103.2493877
   4.3740492 145.4702291  42.4948120   4.2037135 146.1675133  41.8615532
   4.5364981 145.9294485  43.3188009 117.1709919 103.6633033  49.8006535
 117.6319599 103.1269331  49.1556406 117.4028397 104.5636816  49.5730591
  85.9750652  13.1171453  66.8100405  85.5560875  12.6216292  66.1063719
  85.2514458  13.3922064  67.3730183  96.6822052   1.0693058  42.8286028
  96.0423756   1.7467414  43.0475330  97.1978474   0.9597003  43.6275625
  70.5101681   8.6355829  26.9925165  70.8225775   7.9804140  27.6165271
  71.0320663   9.4152033  27.1823835 121.4405537  43.6050701  32.6173329
 120.6870461  43.0395269  32.4481845 121.9257641  43.6107492  31.7922425
 123.4915161   2.9703000  69.5634127 123.8292027   2.2813199  68.9911366
 124.1105080   3.6929539  69.4592619  84.3811893  19.0087092  71.2085962
  83.8335705  18.5349739  71.8346262  83.7712574  19.5784450  70.7399702
 119.2519569   4.8758829  47.9923391 118.9537239   5.7423222  48.2690477
 119.9540997   5.0528944  47.3663187  25.1450568 145.2747806  33.1590343
  24.5142584 145.4643164  32.4644852  25.1309710 144.3212611  33.2417035
 107.0207500   2.4795155  22.0427728 107.0360184   1.9641234  22.8492284
 106.1991119   2.9686114  22.0866203 109.1998100 142.7834074   9.2071062
 108.3118248 142.6215521   8.8884825 109.7258759 142.8771187   8.4129351
 105.9346104  10.3027737  37.8752565 105.6241703   9.3988097  37.9272985
 105.3187943  10.7337534  37.2825837 116.7680359  10.4861295  53.0408955
 116.8196201   9.7092187  52.4841356 115.9514713  10.3776324  53.5284138
 110.1463413  24.2851400  74.3292999 109.9753189  23.3740616  74.0907240
 110.9910107  24.4840074  73.9252996  15.9933787  34.7869635  18.8844776
  16.6178065  34.4314694  18.2520604  16.3015681  35.6778574  19.0504932
 113.3332062  15.9475183  51.9645548 114.2166710  15.9925425  51.5989161
 113.0142117  16.8494081  51.9318628 123.1904030  19.4070745  53.2379866
 123.5102177  18.8257349  52.5480556 123.5225677  20.2715254  52.9958534
  94.2474747 142.3162187   1.7060617  93.7459469 141.6543643   2.1821411
  95.1623058 142.0907012   1.8747200 111.6911697  18.7079263  51.2395811
 111.6840649  19.4947875  51.7845869 111.0253429  18.1409824  51.6287756
  23.9592581  28.3484077  32.1363831  24.2619258  29.2022252  31.8271613
  23.6774760  27.8925467  31.3432717   5.3155642  36.3158560  77.1416187
   5.6596022  36.5965724  76.2936401   4.7542029  35.5681157  76.9366932
  96.1003780  39.3779778  57.3682833  95.2722454  39.4780374  56.8987989
  96.7400265  39.8405480  56.8268871  10.9144621   9.8164052  67.0190620
  11.8326979   9.7657549  67.2845936  10.4897910  10.3125787  67.7188492
  93.5520554  16.6136396  19.9567413  94.1570473  15.9196913  20.2187443
  92.6921463  16.3001025  20.2368975  93.4235096   2.4560025   7.3261523
  92.4923229   2.6505938   7.4322498  93.4852505   1.5082614   7.4453485
   2.3444205  18.4254456  49.3456316   1.5166598  18.8918614  49.2294264
   2.6802855  18.7391627  50.1852798  29.6542674 118.6747284  70.6935215
  29.7057372 119.6023101  70.4629278  30.5625659 118.3731408  70.6773281
 106.4113235  29.4394565  57.4479675 106.8712139  28.6487842  57.1658802
 105.8442783  29.6629143  56.7098951   7.5848227 145.9524761  35.8312440
   8.2190161 145.4786944  36.3693547   7.8163939 145.7239153  34.9310398
 110.7872868   6.2873685  81.1072159 110.6431961   5.7735944  81.9018936
 111.6452408   6.0041088  80.7911491 101.4878559  34.2752194  70.4168892
 101.7252254  35.1390934  70.7539463 102.2972488  33.9368200  70.0339985
  90.4929829 138.9737595  29.0314984  90.0654221 138.2147921  28.6347747
  90.4773045 138.7933523  29.9714112  98.4780312 131.8366093  37.9567027
  98.6715698 132.7508719  37.7495837  98.6536312 131.7611546  38.8946271
 122.8428936   5.6922704  27.6546431 122.8256035   5.2438420  28.5001278
 122.8960991   6.6216463  27.8774929 117.2175789 143.7353639  82.8330135
 118.0475616 143.8245220  83.3014297 116.7632675 143.0237315  83.2840252
 108.9965534   8.5562605  49.7937012 109.4328403   8.5921627  50.6449318
 108.7496376   9.4631737  49.6126795 115.7000542  48.2813931  33.4330940
 114.7981071  47.9876709  33.5613656 115.8322430  48.9496708  34.1055274
   4.8688250 130.4842753  20.7283735   5.4565650 131.0731334  21.2017012
   4.4362002 129.9755366  21.4141250   3.7199622  20.9386158  53.6481476
   4.4886714  21.4722896  53.4468508   3.8901072  20.5947232  54.5250845
  88.9643383  14.7955179  70.5615473  89.5097637  14.0096223  70.5949163
  89.4045448  15.3659868  69.9314499  42.9329997  33.5522342  33.0537057
  42.0945101  33.2325459  32.7205896  42.9226237  34.4910145  32.8671098
   8.2740145   3.0797681  34.0676737   8.6420661   3.3819225  34.8980165
   8.6989241   3.6243817  33.4050441  95.9003925 143.8121031  39.4980383
  95.6300163 144.0695990  38.6166620  96.8478870 143.6929045  39.4326711
  10.4704409  27.9390931  58.4708261   9.6410876  28.0250478  58.0007029
  11.0811740  28.4906316  57.9819059  85.3404713 133.0781026 109.0991750
  84.7986317 132.5155039 109.6524547  84.9201488 133.0453069 108.2398241
  29.7720557  44.2143154  63.1477165  30.1193648  44.0306711  64.0205717
  30.4249888  43.8517809  62.5489807 114.8772812  17.9531097  39.9957347
 115.3531551  18.5057294  39.3757415 115.5414772  17.6726949  40.6253719
 118.1344795  32.6719952  33.3521914 118.1900024  33.0425143  34.2330241
 118.9694309  32.8999734  32.9433894 109.1887093 120.7745905  76.1141872
 109.5162392 120.3489775  75.3218460 108.2624245 120.5357880  76.1489105
 124.8153400 130.8073992  75.7018423 125.0771904 130.1989348  75.0108767
 123.9935780 130.4493029  76.0375643  83.7616444   3.0370733  39.0185094
  83.9943886   2.3049107  38.4475446  82.8163433   2.9526231  39.1429996
 106.2260532 135.8374066  72.3887253 106.3947201 135.1494188  71.7449427
 105.2790642 135.9721298  72.3527622  94.1653919  13.7945592  72.9993582
  93.3166218  14.0655732  73.3491755  94.5470619  13.2526124  73.6899042
   4.7332316   7.2458470  45.7458591   5.1701480   8.0759263  45.9363985
   4.1387396   7.4483794  45.0235128 109.4355297  17.2086990  65.0857925
 109.3825150  16.9816661  66.0141659 109.3977451  16.3673294  64.6309280
 114.6753979  29.6864128  33.7651324 115.6078053  29.8895645  33.6904669
 114.4929218  29.1199088  33.0154634  95.9209824  26.6864944  46.2476826
  96.7010975  27.1012211  46.6160011  96.2485123  25.8920002  45.8261013
 103.2641125 139.8583240  39.3164587 103.2093334 139.2131371  40.0214148
 103.2799721 140.7033307  39.7658396 124.8663330  39.8890948  53.4643650
 124.0724945  39.3790579  53.3033657 124.9954700  40.3915262  52.6599312
 116.3027287  40.7102585  57.1192932 117.2145081  40.6153774  56.8438292
 116.3484573  40.8034039  58.0708551 120.2634621  16.0523903  68.5966396
 119.3901634  15.6691158  68.5149097 120.8385086  15.4374039  68.1412840
 113.3650017   6.3230407  26.6244221 113.9898777   5.9927726  25.9789157
 113.8668442   6.9509739  27.1441174  83.5838509 127.4274511  26.0356188
  84.0543365 127.2373993  26.8472552  84.0957165 128.1205947  25.6187439
 109.7786236  13.9921784  41.1638975 108.8308620  13.9153254  41.0540199
 109.9684906  13.4957170  41.9599581 103.3528519 142.4693308  48.5587358
 103.3622646 142.9819346  49.3670559 102.8066921 142.9776556  47.9591084
  26.4821845  20.9810615  43.6532450  27.1499186  21.6174316  43.3975315
  26.9656878  20.1649570  43.7814140  33.4601145  27.1000028  41.3721323
  33.0286723  26.7270064  40.6033945  33.9493304  27.8492570  41.0322571
   3.0861025  20.1990724  14.2377460   3.3099108  19.4252396  13.7207115
   2.6421099  19.8504424  15.0107634 109.6571255   6.6493642  57.3697758
 110.5957603   6.7632836  57.5188303 109.4279289   7.3395813  56.7474413
 108.5213184 139.2742074  54.8241472 108.3586788 138.3841021  54.5119095
 107.8990078 139.8157746  54.3386889   2.0861559  30.6943655  51.1587000
   2.3845988  30.4196739  52.0257139   1.1816149  30.9762788  51.2949514
  81.9454002   8.4373403  58.0838585  82.2381783   9.1659915  57.5365210
  82.7537823   8.0064446  58.3615017  23.4011202  43.7011909  36.5088534
  24.2498713  43.3095169  36.3028574  23.5303622  44.6394539  36.3703394
  79.2995930  12.6763737  29.7098041  78.9926291  13.2478964  30.4136252
  78.6853361  12.8294837  28.9918351   6.0340052  32.6242089  78.5232925
   5.2900725  32.3351240  77.9948807   6.7959529  32.2264004  78.1020784
  79.1314697 144.7202464  37.3527002  78.2484484 144.7906421  36.9900012
  79.1579914 143.8504405  37.7514052  21.4199572 121.9276304  70.1549435
  20.9426241 122.5453396  69.6010303  20.7655554 121.2756009  70.4056358
   5.0987940   0.0291049  37.0653534   4.5018130   0.3629230  36.3957191
   5.9635382   0.0694639  36.6569209  18.7910109  18.5855973  57.5895405
  18.3346873  18.5187721  56.7507744  19.7187739  18.6149120  57.3557997
 114.6197605  26.3067293  17.8836119 114.0853977  27.0964265  17.7995801
 115.5122375  26.6326833  17.9996574 117.5073624 117.5616474  47.0728827
 118.3527565 117.9603643  47.2791958 116.8619061 118.1629796  47.4443865
 104.8299313 142.7981404   4.3119687 104.4478703 143.6742319   4.3641636
 105.6804562 142.9322771   3.8938090  91.2693596   7.6722771  52.7633858
  91.7145443   7.5596642  51.9235277  91.1652756   6.7824727  53.1005001
 110.5706596  23.1273150  60.7029915 110.9211063  22.8880763  59.8449755
 110.2598667  22.3012948  61.0735703  99.0881252  15.6006348  52.2309065
  98.4732723  14.9194002  51.9586802  98.9616680  15.6732655  53.1769323
  94.4894886  41.4162779  64.9019527  95.3149033  40.9632158  65.0741482
  94.1105556  41.5614414  65.7688856 104.6028900  19.8460698  57.0670033
 105.2556229  20.5189037  57.2605801 104.2735004  19.5780754  57.9248571
 104.3257999  16.7939508  31.9962597 105.1720428  16.6606176  32.4232554
 104.3524456  17.7002907  31.6895509 116.0064316 145.4720771  53.7020493
 115.2531528 145.6477174  53.1381702 116.7605209 145.7726760  53.1948805
   9.9094039  18.0029213  35.0245595   9.6514063  17.5042832  35.7998204
   9.2313796  17.8077865  34.3776894  91.0147095 117.1981568   8.3347684
  90.3082085 117.8268666   8.4824300  91.8162537 117.6976390   8.4905714
  97.5319290  20.2162099  45.7741976  97.6260471  19.7261262  46.5910149
  98.3329868  20.0248575  45.2864170   3.5828429  51.0395098  45.4321766
   4.2582255  50.9724283  46.1071491   3.3534747  50.1320505  45.2318382
 119.7483063  13.4484541  74.9290562 118.8685417  13.1850541  74.6590948
 120.1726818  13.7315381  74.1191149 123.4899044  26.5777588  32.7709126
 124.1073418  26.3983059  33.4799981 123.5938168  25.8396983  32.1703267
   9.7617941  64.3936014  33.1843305  10.4078227  64.2859888  32.4862599
   9.0203314  64.8253584  32.7600121 115.9399223  18.8325465  59.6900225
 115.1394939  18.5969687  59.2209148 115.8252048  19.7569799  59.9102402
  84.4878006   0.2188874  52.8475714  84.1460133  -0.4439678  52.2475386
  83.7141895   0.7044598  53.1338930  74.4133472 132.3332555  44.4568443
  73.6986542 132.3797018  43.8217926  74.9649668 131.6160030  44.1446018
 119.3637466   1.2850429  48.1632376 119.4189167   1.4818239  47.2281122
 119.7198963   2.0626393  48.5930490  19.8290854   3.5741737  20.6582880
  19.5303565   2.6749867  20.5224514  20.2168303   3.5681161  21.5334177
 118.5172081  20.9060359  32.4057984 118.7004375  20.2461886  31.7370224
 118.4571552  20.4095793  33.2219815   1.4660769  68.1133652  32.0001006
   0.7023078  67.9565763  31.4448452   1.1955481  67.8164482  32.8689456
   9.7442084 128.1072898  27.8641248  10.1393157 128.6959476  28.5072470
  10.4249602 127.4593587  27.6824808  10.7442694 142.9580958  11.9983995
  10.7822257 142.1349067  12.4853814  10.0247222 143.4427229  12.4029124
 105.8633804 143.9992907  50.8117867 105.3800869 144.7027374  51.2451649
 106.2836647 144.4231399  50.0634861 117.3772049  18.2373095  18.7876117
 117.0546436  18.0390179  19.6667409 117.3430538  17.3998010  18.3253944
  93.9074898   2.9235697  38.4810495  93.0437756   2.6437205  38.7842131
  93.7244320   3.5860211  37.8148055 107.7155209 116.9959635  10.9523749
 108.5277939 116.5319032  11.1550891 107.1170330 116.7506594  11.6579783
 106.3358307   5.8736533  26.5628600 106.1210537   5.8466858  27.4952650
 105.4890728   5.8159000  26.1202645 101.7933369  19.2394757  32.8897834
 102.2776890  19.1496825  32.0690703 101.7537403  20.1835895  33.0424619
 111.2440491 138.0295522  18.7638664 110.7203484 138.1124462  19.5608020
 110.6099033 138.1087066  18.0512416  79.5684958  33.9916396  57.4127769
  79.9898005  34.7874856  57.7373695  79.1642904  33.6014605  58.1877661
 103.6138344   5.0392658  33.2237983 103.5663128   5.7082623  32.5408506
 102.8107071   5.1573259  33.7310243 118.6010742   7.3342270  11.5468979
 118.2855988   7.0988137  10.6743801 119.5513153   7.2320759  11.4936411
  83.0575371  16.3068843  44.5691156  83.3653355  17.1785343  44.8175526
  82.1419239  16.4374804  44.3224764   8.0961924  26.8197131  54.3585157
   8.3646041  26.5251946  53.4882021   8.4398490  27.7105069  54.4264746
 118.4358692  29.0660024   5.4928571 119.1867256  28.5415220   5.7710135
 118.8212395  29.8060155   5.0237077 122.2803211 131.0957582  41.0358572
 123.1672573 131.4517886  41.0890198 122.1092987 130.7472343  41.9107962
 108.3245564  37.6356339  40.2363825 107.5831985  37.3658109  39.6943331
 108.9786053  37.9461217  39.6102428  12.8495150 139.7977621  98.1318256
  13.1617385 140.6926794  98.2655092  13.6088210 139.2478342  98.3248528
  13.5631781 133.4111805  49.0815306  13.9272051 134.2733783  49.2823648
  14.2718249 132.9508037  48.6319637  87.9901981   2.9119468  39.8009706
  88.2269001   2.1134907  39.3290925  88.8255215   3.2672551  40.1046324
 105.3234863  53.1639004  43.5450935 104.8685551  52.7282667  42.8243351
 105.8629131  52.4774599  43.9375830  20.1180201 145.6657498  29.0978432
  19.4065886 145.0615112  28.8857436  20.9079581 145.2249075  28.7849784
 108.9594269 144.6160073  18.3754790 108.0743885 144.3061192  18.5675788
 108.8356018 145.5074832  18.0496418  88.9469433  15.7605755  87.5792750
  88.6579323  15.7795382  88.4916028  89.8960876  15.6480145  87.6309975
  43.6819315  27.9947329  56.9558811  42.9973841  28.3509111  56.3895226
  43.5028362  27.0549226  56.9861078  15.4219275  31.9320369  57.1229172
  14.6215945  32.2702622  57.5245523  15.1601725  31.0980415  56.7328310
  23.4672862  43.0244541  56.9092417  23.0060988  42.6507568  56.1583185
  23.0671053  43.8852882  57.0319271  89.4278049  32.7385831  42.2244072
  89.1424561  32.0449924  41.6296482  90.3837204  32.6934767  42.2038651
 121.2907124  19.9218178  66.2079573 121.1133194  20.8624077  66.2007141
 120.5524445  19.5352149  65.7370663   3.8816386  34.7545314  35.9280729
   3.6033660  34.9603653  36.8205047   3.1148558  34.9457765  35.3879809
 107.4541759 143.0385820   3.9592239 107.7230263 143.2745729   3.0713829
 107.7532673 143.7681366   4.5019302 120.0905800  15.1303017  30.2584720
 120.6691551  14.4598746  30.6218123 119.5869923  15.4446197  31.0093594
 116.5603924  18.2186270  26.4393497 117.4199581  18.5135043  26.1386538
 116.0315323  18.1706512  25.6429577 116.5810394  54.3296528  43.0104065
 117.2113037  54.4944477  43.7117243 115.7954025  54.8068476  43.2774115
 110.4272175  16.4167464  54.2843103 110.9281921  17.2292316  54.2126942
 110.7162285  16.0291922  55.1104498  96.2878227 134.9797113   0.5823951
  96.3013744 134.0590984   0.8441583  95.7019520 135.0050039  -0.1741436
 114.3302727  17.2365570  24.8061347 113.8694000  18.0236113  24.5156646
 114.0071011  16.5435338  24.2303681 116.2298107  38.7569165  91.5676149
 116.1351681  37.8688645  91.9120511 115.8714104  39.3195271  92.2540911
  16.3601046   3.2796198  23.3434844  16.6639929   4.1843161  23.4170246
  15.5599433   3.2523364  23.8681102   8.0000620  96.0446376   6.8140668
   8.0176955  95.3428573   7.4647754   8.8625651  96.0094661   6.4004397
 113.9116478  13.8875949  56.1372089 114.0835571  14.6015918  55.5232954
 114.7796154  13.6064255  56.4267015  13.6458998  30.5128622 109.2390277
  14.4333869  30.2942705 108.7407077  13.0006629  29.8609138 108.9654208
 113.9719772 117.6814456  46.0242367 114.2486000 118.2242531  45.2859449
 113.7650776 116.8326277  45.6331778   3.7801962 141.1803336  49.4511700
   3.8457614 140.7870747  48.5809517   4.4638568 141.8501810  49.4634199
  68.5775089  17.6701283  18.4055424  67.6449060  17.5914109  18.2048202
  68.8721752  16.7682767  18.5322964   5.7466918 138.7015582  50.9760141
   6.2805205 139.3836916  50.5686378   5.0202780 139.1756446  51.3807249
  87.1573257  11.6828394  45.3343487  87.2017002  10.7936943  45.6860352
  87.7391434  11.6691327  44.5743942 117.4462605  21.3125634  51.2633657
 117.2129822  22.2259951  51.0976744 118.4013653  21.3169360  51.3264513
  90.6322098 129.7878225   9.2102140  91.3617229 129.2736561   9.5561492
  90.4256630 130.4099471   9.9077308  29.3354159  10.6590343  14.2218888
  29.7495490  11.4955497  14.4339371  28.4795790  10.8987606  13.8664770
  82.9275036  25.0372076  44.1199207  83.7363815  24.7021294  43.7330389
  83.1271648  25.9465408  44.3423653  31.6368704 112.0263571  23.0269885
  31.0329943 111.3348956  23.2979918  31.4388209 112.1680731  22.1012878
  84.1842747  13.5616326  19.4103861  84.1143322  12.9228961  18.7009108
  83.6305618  14.2909312  19.1315293 120.1001549  14.0498483  23.6184573
 120.6242275  14.8256052  23.4190106 120.4690742  13.3624804  23.0637908
  91.9146919   5.6524760  25.5238533  90.9812641   5.4825008  25.3971815
  92.3219872   5.3764790  24.7027731   4.6118289  28.6097074  50.1997662
   4.9272662  29.2433286  50.8441639   3.9637023  28.0885768  50.6736708
 107.2803020 140.3640176  44.2542315 106.7329407 141.0839106  43.9405584
 108.1629086 140.7326437  44.2910004   4.8106318   0.7194754  44.9841833
   4.7122698   0.3960675  45.8797073   5.5025130   1.3783936  45.0421333
 102.3508644  20.7454777   7.7836949 102.6737595  21.5975881   7.4906421
 101.5146160  20.6374931   7.3306239  97.7600479 146.2795157  91.0154629
  97.9738903 145.3528111  91.1237335  98.3760643 146.7360092  91.5884972
 104.1874504  26.1098766  68.4765196 104.9430561  25.9834075  67.9026747
 104.5624542  26.1796737  69.3544340 120.5277157  22.0466137  24.7412920
 120.2770424  22.9606676  24.8750877 120.7344151  21.9890285  23.8084507
  76.5970755  21.6528630  23.3468366  76.9393301  20.7751083  23.1776047
  76.4203691  22.0127320  22.4776411 119.8485088  28.2536912  30.8790064
 120.1200676  27.4043441  31.2269950 120.5841351  28.8362479  31.0679960
  93.9863205  16.6412783   8.4532225  93.5382462  17.2477257   7.8635764
  94.4765568  17.2062004   9.0505177 119.1911411 136.6426278  16.7490029
 119.0107250 136.9779999  17.6271868 120.0916672 136.9130588  16.5696752
 102.6594257  12.4376333  21.4462566 102.8721428  11.5153956  21.3032198
 101.7976284  12.5496769  21.0450244  12.5028067  43.7494802  28.8471222
  11.7245799  43.7844658  29.4033337  12.3121863  43.0595064  28.2116437
  99.8021889  11.5458465  26.5120149  98.9483356  11.4860916  26.0835338
 100.3993225  11.8254733  25.8181334 123.3235741   5.1804250  38.5598326
 123.8231087   4.9900326  37.7658248 122.7191544   5.8762407  38.3014679
 108.6197376 135.8226521   5.8302075 109.0071678 135.3407271   5.0995398
 108.5645294 135.1807220   6.5380991 110.2082539  33.1168771   6.3858050
 109.7842693  32.9983115   7.2357500 111.1450100  33.0689812   6.5766805
   1.9750910  41.8642044  17.7761137   1.1218386  42.2873592  17.8716254
   1.8965464  41.0513401  18.2754326 118.7939167 133.9937956  23.2350445
 118.8518620 134.9276204  23.4371519 119.6377277 133.7823708  22.8356504
 103.0365753 136.6720212  49.8457575 102.8795719 137.5949032  50.0454330
 102.3236465 136.4302177  49.2545891 107.8150654  16.7428267  26.0275960
 108.3367825  16.5220416  25.2560377 107.7597046  17.6983249  26.0138798
 101.1057568   3.2465693  31.9417381 100.4565239   2.5965405  32.2104192
 101.9227123   2.9486826  32.3418379 115.9262180  22.5032568  31.9490886
 116.4324284  23.1158781  31.4155316 116.5637493  21.8467999  32.2298932
 116.8177891  11.0761380  46.6605759 117.4185467  10.6944847  47.3006296
 116.3422298  11.7478740  47.1492863  15.7579260  21.6751456  13.7707663
  15.6879073  21.4281845  14.6929049  15.7984858  22.6314282  13.7813318
   7.1981459 143.4534178  25.7915235   6.5843039 143.0409406  26.3992167
   6.6544085 144.0340959  25.2591658  61.0031271   9.9283612  13.9798057
  60.7695723  10.1306534  13.0738461  60.7829189   9.0025592  14.0829110
   9.5322829   2.5200003   9.0908045   9.0573435   3.2762581   8.7462217
  10.0244361   2.8653058   9.8356426  14.4138079 130.4003746  49.8045206
  13.6203604 130.6570894  50.2743816  14.7762614 129.6810586  50.3216696
  83.9286995  21.2932730  14.8343408  83.1510258  21.4859676  15.3580928
  83.6493969  20.5992293  14.2372453 119.2320633  16.6604865  13.1307030
 118.3805275  16.3230515  13.4086299 119.1391182  16.7980242  12.1880066
  81.3972473   1.1885265  24.1347194  81.2314320   0.8340383  25.0082588
  80.6038189   1.6794072  23.9208579 104.5421124 131.8908448 108.8892764
 104.4230270 132.0369143 107.9508131 105.1540947 132.5743444 109.1622961
  97.8184986  44.0827131  40.6966400  98.2230473  43.2274771  40.5512381
  97.4012756  44.2953587  39.8618078 108.4524059  20.2728295   6.2549680
 107.8736115  19.7586644   6.8178785 109.3328285  20.0814867   6.5781814
 110.2985477 143.7904016  24.4023323 110.9238720 144.4395059  24.7246122
 109.5550728 143.8558925  25.0016475  24.7030860  33.5579848  14.2747247
  24.6649485  32.6256537  14.0613329  25.6335860  33.7339115  14.4141555
  82.2635555   9.7829384  15.6152189  82.4140549   9.0283227  16.1845505
  83.1197643   9.9654663  15.2281392 103.8288116 132.9144103  37.3928761
 104.4105530 132.2608537  37.0046997 103.3343601 133.2650740  36.6520810
 124.5727539   3.9904654  33.1358576 124.0598202   4.3553233  32.4147439
 125.4336548   4.3996638  33.0484533  30.4018145  39.5578647   7.6470804
  31.1922103  39.5977759   8.1855178  29.7235327  39.2359352   8.2408273
   4.7946005 140.6304456  29.7286415   3.9772730 140.1575143  29.8852968
   5.4752951 140.0536878  30.0753999  80.7917500 130.9213156  19.2417443
  80.0203609 130.3865070  19.0542150  81.4356232 130.6508214  18.5871518
 113.3596992  18.1799817  32.6364779 112.8571987  17.9168963  31.8654346
 114.1810036  18.5208845  32.2822380  19.1623526  39.7337794  16.0103822
  19.1329699  38.7796426  16.0810387  19.0541773  39.9081564  15.0754368
 116.3514900 142.7157033  10.0803101 115.4358673 142.5974435   9.8275608
 116.8506145 142.3987792   9.3275344 122.4161148   8.9679152  18.8075781
 121.5594769   8.6526042  19.0956485 122.7432442   8.2784212  18.2298064
 116.1895657  28.1749654  27.5955224 115.5169582  28.2393956  26.9175220
 115.9789944  27.3683500  28.0659103 121.0764980  16.7237270  32.8789520
 121.6508198  17.4812996  32.7672791 121.6667461  16.0086787  33.1167340
 102.9179955  36.8952847  42.6992416 102.9928589  36.1046267  42.1649313
 103.7147999  36.9022870  43.2295990 105.9742355 132.5322349  20.5771875
 105.8558655 131.7991037  19.9732518 105.0977993 132.7019138  20.9226012
   8.7826758  39.9984622  45.0953913   8.6609297  39.5032573  44.2853451
   8.1959181  40.7496023  45.0074100 101.0316467   6.9071865  44.4569063
 101.1111927   5.9773964  44.6699667 101.2390137   7.3589462  45.2749205
 106.6343975  13.3548236  46.1182785 106.4314175  12.4276519  45.9942627
 106.2718773  13.7850428  45.3438616  35.5794650 138.6669875  38.7444639
  35.7792788 138.1371326  39.5161915  36.1900263 139.4024880  38.7942958
  93.8693237  14.1013634  59.8887920  94.0458012  14.3048871  60.8073044
  92.9763699  14.4131732  59.7416735  93.7971687  17.5891221   4.5666602
  94.0496063  16.7485237   4.9486282  93.9495373  18.2251883   5.2655423
 110.2336979 145.6916323  46.1772060 110.9468365 146.2311937  46.5185928
 109.9290180 145.1907034  46.9338274 116.7778206   0.0326663  26.2623239
 116.7210007   0.5181029  25.4393077 115.8672523  -0.1378231  26.5031958
 110.2362823  29.5170665  28.3449769 110.9527874  29.9905920  27.9223490
 110.5587959  29.3321419  29.2270303   9.9387770  33.4571195  19.0969276
  10.7635527  33.9410424  19.0545714  10.1380282  32.6908636  19.6348751
   0.7085353   8.6489266 103.2750657   1.5506678   8.2600540 103.5113140
   0.3437548   8.9533484 104.1060271 107.9961872 145.7606659  59.8752213
 107.2421837 146.2731938  60.1668262 108.6875343 146.4083592  59.7382259
  85.5984497  38.4576130   5.9072310  84.9779987  37.9601002   6.4399165
  86.2824821  37.8263450   5.6839937  17.5348311  33.2478046  72.7330017
  18.1111746  32.5348926  72.4576569  17.2294264  33.6386776  71.9143581
  69.2407227 138.4409071  16.9027460  68.4700918 138.0155087  17.2787750
  69.8096514 138.6125124  17.6531482  77.9827929  13.8027906  60.8993578
  78.9090443  14.0242040  60.8030987  77.6409245  14.4606960  61.5047646
  76.8750381  32.4712563  50.5848122  77.6717138  32.9975533  50.6522894
  76.1653233  33.1130838  50.5604362 100.6814480  37.8821850  40.9981108
 101.4702225  37.6128769  41.4687824 100.6765175  37.3401856  40.2091599
   9.4737845  35.9486151  52.1148872  10.4274684  36.0207772  52.0759678
   9.2832594  35.0881386  51.7413712  17.3866873   4.4639042  60.9924507
  17.2853022   3.6411703  61.4710522  16.9646102   5.1183492  61.5490341
  88.7594509 133.4331031  59.6186447  89.7035408 133.4173591  59.4615316
  88.4851933 134.3075306  59.3422508 116.6977501  57.2092867  44.5274544
 117.1991920  57.4513626  43.7488747 117.2911167  56.6517258  45.0307178
 103.7213421 145.6078909  42.4592876 102.7881432 145.4738552  42.2937393
 103.7565041 145.9908892  43.3358192  79.5894957   4.3686587  47.1042538
  80.4478264   4.6434677  46.7817926  79.4264555   3.5321954  46.6683912
 111.2949085   4.3473205  12.5135016 110.9958363   5.2146035  12.2403610
 110.6316757   4.0505004  13.1365943   4.6776705 140.1536781  53.5153532
   4.0226584 140.6907887  53.9611244   4.4657069 139.2559940  53.7712145
  98.0225563  23.6669827  17.5896633  98.4095573  22.9380250  18.0745208
  98.7728882  24.1782737  17.2866392 103.0220413  19.6370971 104.4690945
 103.5136890  20.4193258 104.2188164 102.8730297  19.7384536 105.4091760
 122.1783257  24.8817468   3.1917265 122.3295784  25.0908065   4.1134891
 122.6192951  25.5826831   2.7116668  10.0468855   8.6148983  40.0677776
  10.3100043   7.8511262  39.5543051  10.7746440   9.2294270  39.9730992
 111.3380623 140.6293697  10.8575451 110.6886864 140.7370515  10.1625979
 110.8436966 140.7506574  11.6681778  84.1727543   1.1798642  37.4211931
  84.6587181   0.3736145  37.5945020  84.5138168   1.4894226  36.5820980
  19.0358096  26.5617800  24.4246054  18.8287955  26.8909121  25.2992773
  19.9756747  26.7148185  24.3273520 118.8996792  45.3880072  43.6469746
 118.2784557  44.6795321  43.8154125 118.4793472  45.9194231  42.9708433
 114.7003365   3.8295749  39.0257335 113.7581062   3.9909795  39.0743661
 115.0984192   4.6858668  39.1823506 107.0654774   7.5530416   3.6608672
 106.4453411   6.9300622   3.2819739 107.8525925   7.4643809   3.1234479
  91.3016510 139.0045888  40.9562778  90.8627033 138.8412560  41.7910671
  90.7180023 138.6235882  40.3002071 122.8472233 124.9391336  31.3408351
 122.5079441 124.0924163  31.0506821 122.1743488 125.2769823  31.9318771
  82.5724220  20.4047346   4.0444544  83.1626606  20.2560139   4.7831920
  82.4943542  19.5483327   3.6240843  87.8484726   9.3894953  33.4921527
  87.8047085  10.3456867  33.4882283  87.1812725   9.1217887  34.1241455
 120.8841705 142.2136656  35.1158619 121.1327553 142.8447736  35.7912421
 120.6809521 142.7503113  34.3497372  88.8229656  68.2229376 109.7784507
  89.4641018  68.5178852 109.1317787  87.9767323  68.4752321 109.4090512
 102.0962906   0.5379494  12.3599684 102.4223518   1.4298072  12.2395182
 102.5630093   0.2143204  13.1304669   6.9705420  19.8664427  60.0714636
   6.6786128  19.2188585  60.7130623   7.4011546  20.5434728  60.5934143
 109.9393845  11.5768492  34.9248242 109.9607372  11.6542435  35.8786511
 110.3582859  10.7355309  34.7433496  90.8104420  29.0108395  19.9148917
  90.4701042  28.1329131  19.7426987  91.6096306  29.0649509  19.3908644
 120.5464268 121.6531486  28.1366301 119.8414993 121.3416476  27.5689363
 121.3472366 121.4769120  27.6427865 116.6266918  33.4701729  62.2983694
 115.7893658  33.4493327  62.7617216 116.4710712  34.0439367  61.5481663
 119.1880894  39.5802450  27.9455543 119.9179745  38.9665055  27.8629303
 119.1509247  40.0236845  27.0980835  85.0127029  14.5490789  31.5394545
  85.3911114  15.4282916  31.5340543  85.3331375  14.1553962  32.3509765
  72.2696066   0.8521964  60.6133032  73.1665611   0.5271756  60.5354166
  71.9454908   0.8788478  59.7130442 109.7122574 136.1738629  88.5403331
 109.8930836 135.5132551  89.2090138 109.6785069 136.9999404  89.0227112
  18.1945735 136.9206721  15.2186406  17.3361140 137.3057372  15.3947496
  18.4496813 136.5150608  16.0472715  79.3368483 135.5867440 104.3919411
  78.6410999 136.1852152 104.6639630  80.1220894 135.9187145 104.8271778
  17.4361258  13.9880800   0.4767524  17.8092318  14.3455422  -0.3290062
  17.5356608  14.6907353   1.1190920  48.1698465  45.2227783  37.0261049
  48.9894533  45.6807041  37.2126055  48.1195593  44.5397806  37.6948500
 113.0092716  26.1959553  14.5557392 113.6353779  26.6398621  15.1277304
 112.2699642  26.8008780  14.4947124  85.5079651   7.8519809  24.1911626
  85.6019402   8.2395476  25.0613308  84.6716976   7.3874980  24.2248869
 120.5986309  12.4665618  25.9166479 120.0014019  12.9251683  26.5076089
 120.4419422  12.8655005  25.0607681  96.8640041  13.2805049   0.7426120
  96.1168003  13.8717282   0.6511284  96.5190792  12.4199533   0.5044776
  12.2082835  32.7230811 108.8521223  11.9725257  33.1916332 109.6528146
  12.7307349  31.9801664 109.1543689  58.5737371  16.4308941  32.4318695
  59.1476059  16.0591531  31.7620087  58.8913202  16.0568869  33.2537508
   9.1901522   4.8944455  32.3660612   8.3430224   5.1768959  32.0213509
   9.5384722   5.6681544  32.8090906  22.8330355  33.9477587   9.1775298
  23.4640723  34.6559596   9.3059123  23.2835131  33.3263326   8.6055732
 116.8662071  14.1530240 102.1641978 117.3939514  13.8114738 102.8860464
 117.4297047  14.8009264 101.7411926 121.4493370 144.1275384 104.9062824
 121.2360001 143.6110730 105.6834438 121.0969257 144.9977315 105.0928318
  12.8447276  58.1296968  69.0844449  12.8984862  57.8093863  69.9848589
  12.9597502  59.0769577  69.1599377   3.4869795 134.1486544  12.2511172
   3.2084780 133.3595569  11.7863619   4.1821795 134.5155234  11.7049241
 101.3208580  15.1391625  30.2501845 101.2165451  15.3223085  29.3164778
 102.1857357  14.7349894  30.3198266 118.2893085 145.9091397  33.0150127
 118.1278801 146.5086042  32.2864413 117.6103783 145.2398390  32.9294133
  97.1302891   4.3247285   7.6858771  97.3680115   3.4296697   7.9279327
  96.4827156   4.5859346   8.3405870   4.4067698   9.0236962  84.1413053
   3.5085040   9.0318191  83.8107141   4.8095351   8.2634437  83.7217482
  33.5185557   8.2245761   6.8829662  33.1792574   8.3317924   5.9943658
  33.1955939   8.9910233   7.3567659  95.7267666   9.5127308  87.8708609
  95.4356098  10.1983166  87.2696670  96.1667252   8.8736296  87.3103150
  13.4103041  41.6971254  13.2209969  12.7612811  42.3291397  13.5301197
  13.6021929  41.1566162  13.9873266 109.3484974  28.1348705   7.8948992
 109.6192074  28.4231019   8.7666059 110.1672935  28.0451274   7.4072975
   5.3726798  44.5373011  15.7398272   5.1966696  43.8336611  16.3644385
   5.7460719  44.0936804  14.9782455   4.3760996  25.6673098  22.3250008
   5.2379256  26.0245943  22.1109080   4.3550807  24.8152614  21.8893337
  92.9888630  54.9280453   6.1783284  92.5937939  55.7621098   5.9243846
  92.9434395  54.9227571   7.1344352  95.7214451  37.2799683  28.7088680
  94.9064922  36.8179846  28.5122848  96.0657692  36.8384647  29.4852400
 119.3110561  12.7809298  20.3679585 119.9828625  12.5400114  21.0058188
 119.6280098  12.4219811  19.5391452 113.1701660 117.5057764   0.8129638
 113.5820675 117.6535768  -0.0383429 113.8629532 117.6852483   1.4486298
 123.2160759  22.1724081  87.2881755 123.1328487  22.3023868  88.2328519
 123.6419868  21.3196969  87.2003373  75.4310799  63.8242388   3.8429970
  76.0699224  63.9710140   4.5405439  74.9974012  63.0055952   4.0837687
  84.8178577  53.2508326  24.4646502  84.4449425  53.8980818  23.8661242
  84.4486713  52.4164152  24.1753745 116.3585854  24.5402431  76.4617070
 116.3257790  24.7444892  77.3962864 115.8729458  23.7195754  76.3787016
 115.2926731  33.9093232  42.1508026 115.8215523  34.6241975  42.5050211
 115.9004974  33.4084964  41.6067886   4.0180808   7.2712219  41.1625385
   3.3892088   7.3686844  40.4475212   4.8729640   7.3814684  40.7463026
 110.4622364  60.0713587 100.9812226 110.5348873  60.4596901 101.8530896
 109.7974491  60.5990124 100.5386510 122.9130554   9.9026537  69.5565566
 122.8530407   9.2988384  70.2968534 123.2983017  10.6971550  69.9261316
   0.5923682  32.0790148  11.0300636   1.0608798  31.3707542  10.5883646
   1.2042075  32.8150463  11.0178566 105.8818722   9.7381002  -0.0283376
 105.5184364  10.3819180  -0.6363217 106.0302639  10.2290070   0.7798848
   5.4995566  15.6794751  25.4806733   5.9388857  14.8290563  25.4780245
   4.5803862  15.4747486  25.3090644  96.4958858   6.9363087  -0.2909561
  96.7311287   7.1763366   0.6053024  95.5408955   6.8725044  -0.2790065
 116.8912029  25.0530338  25.7753301 116.3715744  25.6298375  25.2154040
 116.5334511  25.1854897  26.6532278 112.0918751  43.8575268   9.4860214
 111.2450218  44.0556669   9.8857749 112.6629257  43.6492920  10.2254629
  68.3498907  22.9475546 103.6814257  68.1071377  23.3251715 102.8360226
  67.5399971  22.5583649 104.0113285  15.3633338   0.9610141  95.2162429
  16.2002020   1.4255668  95.2245542  14.7864943   1.4969109  95.7605823
  11.0003119 141.0705394  13.6463630  11.6575747 140.7461167  14.2619872
  11.2754374 140.7239557  12.7975881  31.8635302  46.1121750  10.7528627
  32.8165560  46.0228586  10.7519686  31.6714221  46.6212702  11.5403569
  81.0674572   9.7506964  39.9342012  81.6663742   9.4848353  39.2364573
  81.6019249   9.7334796  40.7281017 108.2321262  23.4308696   2.7542657
 107.6058197  24.0701675   3.0937883 107.7858353  22.5886035   2.8417015
  70.6795883 133.4328766  18.1121790  69.7722673 133.3895487  18.4140480
  71.0931206 134.0760679  18.6879647   0.5770712  11.7685318  87.3888096
   0.7806330  11.9257903  86.4668211   1.4072447  11.9077420  87.8445038
  98.7502861  13.6805832  12.1791542  97.8531933  13.8423479  12.4711967
  99.2917442  13.8942623  12.9390204 109.4681740 135.2160198 105.2332636
 108.5119247 135.2575845 105.2427023 109.7300243 135.8712585 104.5864799
  21.5710478  34.1974735 102.8613057  22.0085173  34.5150518 103.6512383
  20.8684569  33.6345768 103.1864830 102.4664307  34.4955349  16.7203748
 102.3519897  34.5207000  15.7703733 103.2227421  35.0585198  16.8855071
 101.1496067  28.1875896  12.9705560 101.4951801  27.3521018  12.6562834
 100.2047253  28.1234479  12.8315723  89.9926281  45.7122469   2.0388411
  90.3203011  45.8644915   1.1524523  90.4068756  44.8930073   2.3099102
 123.9949894 142.9344220  21.8586254 123.0801868 143.1938572  21.7488241
 124.0853786 142.1441186  21.3261962 102.2900677  32.3785377  20.6745076
 102.5396538  32.1708894  19.7740519 101.3338947  32.3342466  20.6742954
 119.6274948  20.6119418  12.5060368 119.1844368  20.6456494  13.3538556
 120.3579521  20.0083232  12.6413500  18.9166003 135.8188898  37.7458048
  18.5158377 135.0364608  37.3670912  19.1836291 135.5497188  38.6247087
 123.3685017  15.3105843   0.6628133 123.2050800  14.4064081   0.3945057
 123.4660912  15.7905447  -0.1595892  96.4596176  15.2232790   9.4108105
  95.8200169  15.4444468  10.0877404  96.5914917  16.0402703   8.9298058
  98.6338043  35.2081800  40.4682541  98.4349155  36.1440277  40.4976225
  98.1495476  34.8841190  39.7088385  75.5007792   9.7817320   6.4063787
  74.9095535  10.2753210   6.9747597  75.8032084   9.0539539   6.9496173
 112.7400780   8.0084085  14.7737706 112.8406525   8.8264525  14.2870247
 113.1562519   7.3476279  14.2202377  89.9551868  18.0381548  24.1315365
  89.9997616  17.5498223  24.9535918  90.8657169  18.1077492  23.8446164
 111.1014748  20.4193139   3.5570607 110.3588104  20.1245189   3.0300254
 111.5752029  21.0242152   2.9861704 101.5389729   3.9415753  59.0480518
 101.9082737   3.0844665  58.8354111 101.3988400   4.3594724  58.1983709
   9.9928504 138.5899831 106.3128894   9.8296576 139.5154453 106.4948776
  10.6789046 138.5944922 105.6453981 110.3996372  11.6855431  17.1611989
 110.7209396  11.9767380  16.3078499 110.7593155  10.8045435  17.2646534
  92.9794025 122.3639555  15.2152956  92.0683384 122.5113887  15.4691684
  93.0993748 121.4174432  15.2924633  90.3934956 141.4083523   7.5418788
  91.0244846 140.7521606   7.2460687  90.9133816 142.0256076   8.0566084
 118.4258080  17.1024632  98.5895892 118.4457874  16.7231429  99.4681951
 119.0294838  17.8439140  98.6350306  77.8420687   4.0506691  18.8493395
  77.5151205   4.0996635  17.9510427  78.7262201   3.6941415  18.7633097
 108.7666321  57.1709442  77.2018322 109.2319489  56.6200829  76.5723356
 107.8773689  56.8171358  77.2183140  91.2302399  18.7614024   8.7492806
  91.1888409  19.7139049   8.6640918  91.1433125  18.4367716   7.8530169
  15.1409751 128.4239633 106.1813166  14.5594531 128.5272021 105.4280581
  15.0402289 129.2378158 106.6750019 103.5119343 126.9140882  80.1805862
 104.4634151 126.9158096  80.2850136 103.3569622 127.4289877  79.3886932
  13.0340224   9.0440100 100.2565756  13.2322341   9.9672520 100.0998315
  13.6767512   8.5683650  99.7303673 109.9580193  42.6780844  94.5392665
 109.2164707  42.0946169  94.7002288 109.6939278  43.1970739  93.7795719
  14.8239165  15.7914865   5.2305537  14.3421870  15.7667708   6.0573316
  15.5125075  15.1348305   5.3348392 124.3934345 128.4289665  34.8039484
 124.5043087 127.4797411  34.7500062 125.2811718 128.7785585  34.7269416
 121.4950562  51.5166616  89.6103843 121.7066383  50.6843948  90.0332256
 120.5539036  51.6231394  89.7487124  11.4329272  40.5992985  20.0501251
  12.2022467  41.0735703  19.7347844  11.6462737  39.6767378  19.9101269
 123.2258797  14.7753370  82.8683289 123.9016533  14.3472898  82.3426541
 123.6779881  15.0414538  83.6689624 108.4008598  23.6738467  31.1432171
 108.4413433  23.0639887  31.8798757 108.4297657  24.5407295  31.5480757
 122.6588726  68.4988642   9.8500234 123.4964085  68.6464405  10.2893233
 122.1254158  68.0403948  10.4992187  17.7645617 138.3884902  23.6709905
  17.8289919 138.4483189  22.7178383  18.2981520 139.1149236  23.9931822
 121.8520641 139.3061460  21.1834097 121.0391712 138.8869662  20.9010506
 121.6965199 140.2417440  21.0541987  77.5565958   7.6729429  98.3256921
  77.7867985   7.3300052  99.1891917  78.2104635   7.2967649  97.7364739
 100.0699139   4.1019663 105.9932488  99.8141479   3.9435568 106.9019421
  99.7087193   3.3589846 105.5097687 118.8572216  26.3704967 108.9241996
 119.5741940  25.9134555 108.4845386 118.0785370  25.8567309 108.7099000
  90.6088257  46.1419439 108.9845934  91.4363766  45.7827616 108.6646193
  89.9364853  45.6068087 108.5629097  94.0518284  50.4886770 103.4372535
  94.1971302  51.1459064 104.1178175  93.2115459  50.0904560 103.6643525
 124.3105125   1.1051184  26.9291306 124.3375683   2.0137690  26.6293740
 125.2255249   0.8241008  26.9246769   1.8809634  23.9885187  46.9668627
   2.6053172  23.7715983  46.3799286   2.2121268  24.7121859  47.4987125
   3.6329012  14.6832538 101.5704539   4.3078452  14.1385829 101.1654689
   3.9376479  14.8141909 102.4683484 112.8926182  25.9672904  26.5368271
 112.9917336  25.5691266  25.6720304 113.1546497  25.2793884  27.1486807
  94.4100761  19.1150200  19.6414554  94.2364216  18.1744301  19.6784091
  93.7495327  19.4570446  19.0390122 102.8796673  12.0729709  11.0293055
 102.2911549  12.8110790  10.8709574 102.6249504  11.7442262  11.8914413
   1.2874728  43.3382034  24.3534160   1.9768363  43.6199999  23.7520814
   1.7049056  43.3415937  25.2147937 107.0474339  49.5159388  98.8599929
 107.9370594  49.8491192  98.9774545 106.9587994  49.3979311  97.9142400
 103.7762165  27.8868151  15.5346704 103.7413883  27.6158023  14.6172988
 104.3885326  27.2743106  15.9422791 108.1737137 124.9600072  99.1893216
 107.7198315 124.5808072  99.9419393 107.8268623 124.4831819  98.4352883
 109.2662239  13.9024460 106.2264361 109.4564438  13.0431187 106.6027372
 109.5178890  13.8220680 105.3064164  10.0842505   2.9850611   1.1019630
   9.3109160   3.4168282   1.4649647   9.9059897   2.0500273   1.2027872
  13.4803992  32.8764558  16.4780641  13.7643176  32.4474764  17.2852802
  13.6031943  32.2135496  15.7985723  91.0896778 135.7793314   5.1143491
  91.6639423 135.0652022   5.3908813  91.6277981 136.5662921   5.2000707
 124.6787262  30.1381540  72.9185256 125.3769112  29.8631716  73.5127958
 124.0557003  30.6009054  73.4788283 101.9538784  36.0423040 106.5547299
 101.0320377  36.2872910 106.6348892 102.3771381  36.4523292 107.3090277
 100.7214451  56.5404320  86.5304049 101.3799191  55.9080410  86.2427887
 101.1741257  57.3835802  86.5100154 123.1834793  25.3781056 109.4627624
 122.4995899  24.8195624 109.0932191 122.7585888  25.8240604 110.1954420
  81.4598083  35.6794715  88.1065973  82.1036053  35.5062628  87.4197587
  81.7382812  36.5102673  88.4919008  92.6076508  35.2505207   7.6880693
  91.6970253  35.0587296   7.4640083  92.8662109  34.5368981   8.2712680
 124.4567013 140.3541625  91.0813209 123.9005756 140.2217860  91.8490657
 124.7190475 139.4713325  90.8205184   0.8417445  14.5747364  23.2994366
   0.2808600  14.0359592  22.7414465   0.2503234  14.9273145  23.9643693
  13.9461356   1.2718953 108.3752092  13.5182601   1.9626960 107.8692988
  14.7845870   1.1361130 107.9338435 113.1608105   6.7020172  49.5702696
 113.2921791   7.4568397  50.1440477 113.1581402   7.0703387  48.6867762
 104.1227531   8.3799523  27.4408364 104.6343994   8.4743190  28.2442951
 103.4521484   9.0601695  27.5026464 116.6937351  32.1836281  98.8535663
 117.2061443  32.2942710  98.0526742 116.0995102  32.9339814  98.8632973
  18.0322104  23.1591463  16.6275239  17.5004702  22.5235844  17.1066308
  18.5592108  23.5874653  17.3020947   7.6964598  10.5257130 105.0605374
   6.7461711  10.4121578 105.0431844   7.8650885  11.0099030 105.8688402
  98.1403446  17.5713456  19.3553662  97.9865837  16.6689920  19.0754592
  97.7199078  17.6309550  20.2132177  77.5200748  20.2645898  33.4839249
  77.9350948  19.4433045  33.7475204  78.0488873  20.5750656  32.7489448
   1.5513163 119.3981833  45.5089808   1.4625006 118.4882826  45.2253914
   0.8880931 119.5022339  46.1912823  10.5481082  38.2463861  26.1532736
  10.6095820  39.0376878  25.6182075  10.5918818  37.5271797  25.5231476
 112.8798580 137.4401296  48.5868597 112.9155350 137.6459051  49.5209980
 113.1291294 136.5174014  48.5351801 112.6469326  20.9783649  14.5076096
 112.8958988  20.9575081  15.4316294 113.1139755  21.7338300  14.1507101
   2.0950156  10.4500115 107.0383193   2.1372252  10.9634650 107.8450515
   2.2270995  11.0906494 106.3394841 109.7794819  27.6259542  86.6123804
 109.5286560  26.8670630  87.1390732 109.7797585  27.3026705  85.7114252
 101.3542843  15.3706527  17.7561665 102.1837807  15.7009184  18.1012702
 100.9834003  16.1105168  17.2752535 113.2789326   9.7032970  75.8535274
 112.9519558   9.1608429  76.5712007 114.2231178   9.7539186  76.0025247
 106.9974709   1.2507051  24.5712042 106.2648392   0.7367858  24.2315412
 107.3384190   0.7300772  25.2984786  81.5074921  16.6636467  26.0063887
  82.3015881  16.1611867  26.1885667  80.8903408  16.0190523  25.6601954
 119.2206287   1.0945108  95.7741364 119.5244789   0.5538578  96.5032419
 118.9433956   0.4650313  95.1084551 112.6679230   9.4156742  89.3726739
 113.1916428   9.3461043  88.5744818 112.3156071   8.5356283  89.5054372
 113.7073421  17.5088489 104.9003267 114.1096401  18.1561863 104.3212410
 113.9472103  17.7942729 105.7819324 119.4696522 138.1460882   7.4590021
 118.9989567 137.3126198   7.4568480 120.1970673 138.0119241   6.8514597
 112.7343178  51.3478661  12.6319778 113.1382370  50.4813671  12.6795197
 112.0875740  51.2724733  11.9303584 116.7791748  47.7127886  95.1988026
 116.3330650  48.2712698  95.8354434 116.4732552  48.0275726  94.3481835
  54.3733311 140.0280196 107.3227147  54.3981981 140.9415389 107.6074884
  55.0721979 139.9608518 106.6720926 122.7987766 133.3722098  27.1777749
 122.4051189 132.5803656  26.8113804 123.4847355 133.0501361  27.7625513
   8.5059672 146.4552292  30.7974029   8.0813628 146.9909838  31.4674091
   8.1526881 145.5761950  30.9342384 110.0783157  65.6493473  69.8960122
 110.4813099  65.3347015  70.7052263 110.7441998  66.2111521  69.4995269
 111.7228508  31.2058830  25.8953977 110.9083176  31.6986942  25.9949470
 112.3672390  31.7041945  26.3980699 109.4036007   3.5516146  42.8512812
 108.6682987   3.7781054  43.4207249 110.1180744   4.1159046  43.1468153
 119.7499275   6.2199152   0.5838327 119.5784187   7.0987189   0.2454243
 118.9818001   6.0143209   1.1166944  95.0385952  56.5888214 104.3439307
  95.1339817  55.8822632 103.7052562  95.8093834  56.5093946 104.9058875
   6.6634493 138.3053751   0.3544914   6.8446570 137.9312468   1.2167113
   7.4573165 138.1346626  -0.1523231  99.2753983   0.0122312  45.9105825
  98.6513424  -0.7119650  45.9588146  98.7332153   0.7857032  45.7556581
  15.3516512  11.3842916   2.3596901  16.1539107  11.2763417   1.8488562
  14.6562605  11.0671818   1.7833973  41.8688899   0.0543510   5.1560134
  42.1132403  -0.5555717   5.8520931  42.6613169   0.5675767   4.9982029
  99.8742008 130.7087464  11.3901198  99.9066639 130.7044835  10.4334795
 100.7144070 131.0819370  11.6566181  24.6287566  14.5159733  18.0578411
  24.8704558  14.2122674  18.9328146  23.9235430  15.1452851  18.2090616
   7.3102789 134.8306591  29.9299312   7.7877169 135.1120443  30.7103872
   7.4393683 135.5407638  29.3011880  72.5988054 139.7306181  78.6669954
  73.0281973 139.6330268  77.8170952  71.9681692 139.0113158  78.7007269
 120.2130508   6.8198884 100.3591218 121.0573959   7.2641587 100.2820810
 119.9592018   6.9448686 101.2735459 115.8327389  14.2505109  24.8595572
 115.5924988  14.3982089  25.7742715 116.6984749  14.6493077  24.7718978
  87.7614117  53.1646585  24.6339631  86.8276501  53.3600998  24.5556211
  87.9735088  53.3699608  25.5445099  97.0607567  30.7989287 106.6070860
  97.8103542  31.3844204 106.7145085  96.4844131  31.2574244 105.9956607
  90.0530338  17.8076029   6.2015331  90.0632381  16.8509102   6.1720932
  89.7417164  18.0705774   5.3354180 105.6585503  30.2169967  96.8426677
 105.5481815  29.3788147  96.3937744 106.0529804  30.7904887  96.1855813
  13.5626536  36.3366246   4.5850369  12.9182749  36.8419862   4.0894330
  13.0772238  35.5750561   4.9022126   4.4340735  28.3394527  10.4583144
   4.8535281  28.8296509   9.7512090   4.8030882  27.4588156  10.3909397
  94.4554043 146.4964736  33.4396219  95.2649498 146.2484821  32.9931116
  94.2418098 145.7400598  33.9859223 122.1685982  11.3790560 102.8520789
 122.7676201  10.8723557 102.3037543 121.3489151  10.8851862 102.8310975
 118.7378311  35.1153207   2.8700423 118.8947582  34.2818928   2.4261925
 118.4418106  35.7042909   2.1759841   4.2686015   6.2249488  21.6593099
   4.6496611   5.7482618  22.3967361   3.3234339   6.1658865  21.7986393
  80.9979534 135.8845711  66.1536646  80.8236885 134.9468994  66.0721254
  80.4012299 136.2944221  65.5274200 108.7660980   3.0706005  10.1245729
 108.2573032   2.3365956   9.7801725 109.6705341   2.7572041  10.1220170
  86.9517517 133.4147549  78.1034088  86.0441589 133.3576584  78.4021664
  87.3118210 132.5423717  78.2631445 123.6376762  23.4835034  94.5548725
 123.8808823  24.2488270  94.0339375 123.9846039  23.6678295  95.4277325
  73.2560253 109.9394894 100.6670570  72.4348450 110.0765705 100.1947117
  72.9889917 109.7956944 101.5749359 104.3138790  29.0521984 102.1646976
 104.5740414  28.4290104 102.8430557 105.0676727  29.6349697 102.0730209
  99.1549015 138.6865044  79.3183136  98.3189106 139.0567303  79.6016550
  99.8150921 139.2588329  79.7092390  66.5916586 109.5084476  89.6664333
  66.0571337 110.3023624  89.6520710  66.1032963 108.8812256  89.1332150
  68.9415693 138.3811092  69.1815376  69.3135500 138.1322670  70.0276661
  69.6508884 138.8429832  68.7345791 100.6371212 143.2072639  97.2600460
 101.3913536 143.1834984  96.6711521 100.1252270 143.9597130  96.9633675
  91.6919422  79.0498400  84.9333382  90.9099483  78.5046530  85.0198174
  92.2191620  78.6084938  84.2673969  99.2962551 121.7010784  98.5463715
  98.5313606 121.1870480  98.2876396  99.7475910 121.8896198  97.7235794
  88.9917755  99.0521240   2.8248922  88.8277245  99.8985386   3.2407132
  89.2770576  99.2722225   1.9380990 109.0749645 145.3616714 104.5496178
 109.7919846 144.9205399 105.0051498 108.9264584 146.1612797 105.0543976
   0.1527815  14.9928456  96.2080574   0.9777957  14.9803524  95.7228374
  -0.0083703  14.0758114  96.4301586 106.9044399 103.5764980  74.3682957
 107.6531029 102.9863644  74.2817402 106.1552906 102.9953289  74.4996548
  15.8216506 125.1015091  67.2267151  14.8849040 125.0101089  67.0524025
  16.0697299 124.2754650  67.6418638 108.2426643   1.6769772  76.5457630
 108.9761543   2.2255974  76.8236685 107.5304127   2.2948532  76.3809395
  76.1107111   5.8670311  62.3325968  75.6392574   5.6645851  61.5245247
  75.7366800   6.6976910  62.6264286   2.5666361  16.5565091  90.7939625
   1.8598681  15.9279232  90.9409428   3.3003169  16.2159901  91.3058090
  75.1784325 136.5702152  44.0694237  74.7290230 136.2989998  44.8698664
  74.4778872 136.8761539  43.4933472 100.3213978 145.8821774  96.5170860
 101.2215137 146.1103821  96.2848091  99.8323441 146.6980839  96.4105320
  80.9838390 124.7041607  86.0834503  80.4351521 125.3785038  86.4839935
  80.7015038 123.8885880  86.4973927 106.2947083 118.1995296  31.7187730
 106.5571880 119.0633488  32.0368139 106.4016628 118.2513142  30.7689802
  89.1341496 100.8059406  93.3827972  89.9773693 100.7134056  93.8262653
  89.0392303  99.9983597  92.8777981 108.6391926  77.9436111 103.5175896
 109.3430519  78.3795929 103.9979362 107.9590034  77.7927160 104.1739559
  75.5761957   1.2888413   9.8157636  76.3646555   1.7468624   9.5245878
  74.8762941   1.6453724   9.2687169  37.5554019 124.3179989  10.2475492
  37.1531420 123.5155678   9.9150792  37.7914363 124.8109627   9.4617311
 110.9672546  83.3659649   9.6844903 111.2361622  82.9154015  10.4850713
 111.7832851  83.7000751   9.3120614 106.2832928  16.0400372  90.6176662
 105.3678131  15.8898716  90.3819180 106.2558174  16.2803059  91.5438175
  95.6482983 113.0473518  72.1620560  95.8723259 112.1238804  72.2771168
  95.1861095 113.0791283  71.3244390  93.3175659 108.9817715  16.9541875
  94.0296459 109.3737316  16.4486829  93.0316639 108.2359600  16.4266912
 101.5779018 143.5513115  90.8033657 101.4937878 144.4956303  90.6714058
 102.5117588 143.4139347  90.9623623 116.6868973  85.1741123  91.0719585
 116.7829895  86.0813618  91.3615990 115.8277893  85.1468849  90.6507397
 110.4820251 123.7119675   4.7261087 110.5340767 122.7759361   4.5327989
 109.5455360 123.9089870   4.7058908  87.2190857  30.2851086 102.7046013
  86.8543053  29.4308644 102.9357815  87.6155281  30.6036549 103.5155201
 108.4182739 122.5192261  88.4877110 108.1473064 123.1435490  87.8146362
 108.5639477 123.0554867  89.2670918 102.3518372  19.1582470  94.0896606
 102.6715565  20.0488453  94.2340755 101.4071846  19.2167645  94.2326069
  99.9015617  21.2299137  97.6528072  99.9842739  22.0009976  98.2138824
 100.3188038  20.5262165  98.1497574 111.5708447  23.2820492  50.1261282
 111.2386990  22.7142124  50.8214474 110.7889080  23.5567265  49.6472168
 102.3485470 144.6861649 105.1078510 102.4830246 143.8638687 105.5790138
 102.9541302 145.3011513 105.5217361  10.5463534 141.5553284  42.9917280
  10.2180033 140.6570244  42.9534856   9.9272090 142.0593357  42.4636499
   0.7257109 116.6519165  17.4380437   0.0465708 117.2810268  17.1947042
   0.2550059 115.9578609  17.8995172 114.7026634 135.1657486  92.0850182
 114.3143177 135.1734352  92.9598618 114.9235249 134.2475224  91.9290733
  83.7796688  99.4104767 104.5318794  82.9005623  99.6870804 104.7905540
  83.7126446  98.4607220 104.4334030  95.0566673 122.9671478  78.4969330
  95.5416203 122.5412083  77.7900934  95.6515026 122.9390335  79.2463350
  94.4357872   7.7156144 100.6285763  95.2765846   7.8839379 101.0539722
  93.8055611   7.6827603 101.3482761 114.9034882 139.0757561  95.5884266
 114.3801403 138.8501453  94.8193836 114.4925880 138.5952663  96.3071251
 109.1804695 127.2846889  98.1396770 109.8400784 127.7877998  98.6172009
 109.0494537 126.4981461  98.6692142 111.8901730   5.3629570 101.0966969
 111.5621281   6.2326889 100.8682442 112.4361324   5.1097565 100.3523540
 119.9722481   9.6227722  86.5247631 120.0977421   8.8178616  87.0273495
 119.2722702  10.0858479  86.9850159 109.2965031   4.5200234   7.8893606
 108.8442707   3.9345818   8.4967939 109.0594101   5.3996163   8.1831781
  86.9377613 126.7401314   0.5772916  87.0067978 127.3622990   1.3014261
  87.4629784 125.9897518   0.8553449 108.6363888 140.2541256  85.0826836
 108.9163494 139.3435478  85.1759243 107.7760696 140.2842522  85.5012226
  76.1512899 120.8391762  99.1357517  76.3145542 120.4406548  99.9905968
  76.2376547 120.1164246  98.5141373  93.5144043 106.1508846  12.5693551
  93.9443111 105.8477592  11.7696420  93.9946079 105.7210732  13.2770959
   3.3447676   1.9053440  90.8675575   3.5988551   1.1881619  90.2867699
   3.3115798   1.5084057  91.7379379 122.9374409 125.5860138  63.0854273
 122.4884701 124.7406387  63.0871677 123.8160992 125.3912354  63.4113932
  98.6244678  13.1782418  31.4290849  99.4665623  13.5969906  31.2508718
  98.1150436  13.3152752  30.6303731 101.5471649 137.9072094   7.2860090
 101.9759846 138.7104511   6.9907991 100.9625244 137.6694202   6.5663663
  53.7737799 124.7360420  91.4049911  52.8885794 125.0589657  91.5734100
  53.7950659 124.5765686  90.4614067 110.5975151 122.9501247  17.8770582
 110.5976009 122.1420574  17.3639718 110.0434208 122.7540779  18.6325589
 113.0747032 127.0705986   5.2172033 113.4597683 127.8586483   5.6005327
 112.9518604 126.4787006   5.9593622 114.0866947   0.7153111  82.5910950
 114.2008209   1.6654568  82.5704384 113.7578773   0.5326538  83.4712887
 111.8034458 124.5048237  11.4357702 111.0994625 123.9884853  11.8282358
 112.6056767 124.0499115  11.6920987  77.7584791 123.1634617  98.5522747
  77.1978092 122.4344730  98.8176918  77.3987675 123.4488201  97.7123833
 102.9205418 129.2777729  35.2211133 102.3743153 130.0623512  35.1730672
 102.5855637 128.7098503  34.5272294  93.8070965 138.7054729  88.4977818
  93.3690166 139.4388866  88.9295387  94.7360992 138.8357735  88.6880779
   3.4402209 128.5335636  55.2676392   3.7030535 128.2311058  54.3983507
   4.1971617 128.3501244  55.8240700  69.4324017   5.1902275 101.2135315
  68.9749670   5.2320748 100.3737545  70.3585720   5.1312237 100.9791088
 104.2687702   0.7018929  23.3515779 103.4762573   1.1508828  23.6458055
 104.2901611   0.8487206  22.4059526  88.7913418 138.4569454  90.1944733
  89.5333481 137.8566074  90.2669525  88.0422211 137.9509163  90.5091095
 119.7991180   9.4887810   6.7863027 119.6114826   8.9227085   6.0375825
 120.2346992  10.2518063   6.4064542  89.4433117 133.2652187  64.0086412
  89.7824001 133.7958622  64.7295284  89.5775509 132.3611355  64.2929649
  84.0996265  83.1788349 105.6125641  83.4204292  83.8249588 105.4191017
  83.7238598  82.6366997 106.3062000  90.6226635 138.2807636  81.7596436
  89.8801231 138.5074234  81.1997414  90.2821350 138.3556938  82.6510715
  75.4070044 121.3819408  38.9124814  75.1546574 121.7508793  38.0660573
  76.2151718 121.8405056  39.1422883  68.3418226   3.7465077  19.5513765
  68.6214876   3.4351330  20.4122297  67.9144526   4.5847874  19.7271100
  61.6152477 103.0849552  66.1317253  60.8982229 102.4958229  65.8971167
  62.2827816 102.5116348  66.5084505 115.7640076   6.5932541  78.4936905
 114.9852371   6.3903027  77.9754639 116.0121059   5.7581597  78.8902998
  58.0072689 106.9508743  78.0360889  57.4617767 107.0315361  77.2536802
  57.4787283 107.3325157  78.7369585   0.6474143 115.2552700  93.5149860
   0.4509764 115.2339554  94.4515705   0.9125929 114.3597221  93.3054352
  85.6772423 144.6992016 107.1112919  85.2244949 145.2209568 106.4487076
  86.5704060 145.0433826 107.1180153   8.6157351  14.5483189  98.6768246
   8.0113917  15.2034359  98.3277798   8.3515387  13.7303143  98.2557869
 120.1302242 141.0571003  57.6687860 119.9816132 141.1178112  58.6124277
 119.7149754 140.2333260  57.4134350  77.7106762 122.1369076  73.6515665
  76.7765570 121.9355679  73.5957670  78.0456161 121.5369511  74.3179703
  86.8217468 119.9058628   0.4084817  87.6877117 120.2725410   0.5870191
  86.2788105 120.2083969   1.1364404  87.1432400  85.5822563  66.6306591
  87.4223518  85.7267475  67.5347900  86.5950966  86.3396072  66.4252663
 108.7935448 127.0594501   8.5065786 109.2601681 126.4951801   7.8900663
 109.1389465 126.8136978   9.3647996  91.8185806   1.3998871  66.6452694
  92.4656963   0.7400303  66.8943787  92.0277691   1.6087895  65.7348680
 115.2872849   0.8950310  96.0919666 114.6866703   1.3054924  95.4698563
 114.8272705   0.1087170  96.3857937   3.2493144  17.7170544  88.2243538
   2.9343539  17.4915295  89.0996647   4.1779738  17.4853688  88.2368946
  97.9432583  18.1335430  16.3329736  97.4072456  18.6724453  15.7511560
  97.3445511  17.8650074  17.0298711  92.5594521 134.5357418 102.9997444
  92.6823711 133.5985088 102.8490543  93.1039238 134.9585438 102.3356438
  87.0264530 113.2669353  35.8467046  87.4337006 114.1173363  35.6817666
  86.4537239 113.1254292  35.0929204 117.1405220   1.6327553  84.3010044
 116.8911266   0.9229737  84.8928070 117.6338959   2.2411328  84.8511791
 118.3149910 133.3787537  80.0813103 119.1627598 133.6029243  79.6975517
 117.8236198 132.9825020  79.3617439   1.4672404 121.3593388  70.5059767
   1.9590407 120.6558704  70.9296560   1.7968207 121.3744736  69.6074343
  17.8097563 129.5949268  77.1957397  17.9057532 130.4522705  77.6104450
  18.6771994 129.1963959  77.2660112  82.7083397 112.9230213 101.6714668
  83.3201790 112.3401356 102.1210670  81.9373989 112.9444027 102.2383976
  79.0110779  22.7715664  10.4194299  79.5762300  23.5048275  10.6626169
  78.1922293  23.1821232  10.1416723  65.5899143 137.0319271 100.6988716
  66.1586714 137.0195961 101.4686775  65.8507538 137.8191853 100.2209377
  87.3056602 117.3394966 109.2094135  86.9783020 118.1031704 109.6846867
  86.5171337 116.8640327 108.9479065  93.3285141 103.9731884  17.4958936
  93.3355713 103.4899807  16.6696397  92.5691986 104.5520687  17.4283258
  80.2959347 137.5146484   6.3481656  80.9680748 137.1094322   6.8961183
  80.7711029 137.8278542   5.5785219  69.8195410  10.4327374  81.9684315
  70.2051830   9.8640995  82.6348877  70.4173040  11.1784058  81.9147587
  74.6331072   4.3860417  25.9586660  74.2986584   4.0000801  25.1490918
  75.4306507   3.8917618  26.1480180  75.6955767 118.7441349  19.8930494
  75.0633621 119.4211006  19.6516744  75.2971554 118.3003235  20.6417314
  79.7550631 141.4725971   1.5423433  79.8944998 141.2926102   0.6126157
  79.6900797 142.4261570   1.5945760 100.3957558   2.7696305  79.0640593
 101.0561562   3.2902794  79.5212555  99.5966339   3.2935219  79.1203022
 105.4704189 119.2615223  20.1929036 105.6121349 118.6604977  20.9242860
 106.2014103 119.8773766  20.2438775  93.0187130  91.2621593  66.3717794
  93.0496025  92.0344257  66.9364691  92.0911026  91.1569881  66.1603594
 105.2305603  24.7403889 101.9772530 106.0032558  24.2941456 101.6308022
 104.5199299  24.4779187 101.3921547   3.8487177 138.1500912  90.5097961
   3.4155589 138.9926624  90.6464577   4.6688204 138.2203484  90.9984112
 118.1490135 115.8264828  91.4925480 118.3518696 116.6974831  91.1513329
 118.3796024 115.8730507  92.4203873 108.5525417 103.4665680  81.2632370
 109.0067482 103.5135365  80.4219723 109.1828918 103.8119602  81.8953705
 100.3631210   0.4845219  88.7401009  99.4764519   0.4159623  89.0941620
 100.2742767   0.2317696  87.8211498 102.3718071   0.7884770 100.5891705
 102.3020458   0.6907254 101.5388012 103.1571388   1.3203030 100.4601765
 122.4366474 112.2880077  38.7396375 122.8717613 112.5918198  39.5362607
 123.0641365 112.4694061  38.0399362  65.4180336   0.3658657  89.5170307
  65.1464081   0.2654534  90.4293728  65.1523161   1.2555676  89.2845535
 109.4126892 137.2084618  79.2540455 109.5592117 137.2842407  78.3111668
 109.4752312 138.1066036  79.5790958 107.7816200  31.1793881  83.1639481
 106.9183636  31.5873509  83.2317257 107.7049255  30.5782490  82.4230099
   2.2474795   1.3916092  70.3982067   3.0977469   1.3634091  70.8369255
   1.6099005   1.2884980  71.1046743  14.0781622  16.6266041  10.9218637
  13.7526923  15.7516651  10.7102243  14.5269328  16.5188580  11.7604486
 117.9285717   6.7727833   8.8042489 117.2651863   7.0000248   8.1526986
 118.3612251   5.9980183   8.4453813  99.7455215 132.1177387   8.1668989
  99.9394989 132.7697849   8.8402692  98.7905598 132.0523357   8.1648580
  84.3610764 135.5272198  86.2404060  83.9830780 134.6887589  85.9752178
  85.0101376 135.2977085  86.9054413 121.6459751   4.7261124  87.7817059
 121.1314774   4.3857651  88.5136127 122.4703312   5.0072937  88.1787109
   9.7885638   8.2373886  61.7810202   9.0407591   7.6873665  61.5475655
   9.5112734   8.6941128  62.5752163 121.6757298  12.5278454  99.2049980
 121.4521408  11.6037636  99.0940189 122.6322079  12.5403004  99.2400646
 107.5325298   1.0635548 105.5520821 106.8738365   0.6967430 104.9623299
 107.2943974   0.7271653 106.4160156  94.1452217  11.8233471  96.6785622
  94.9237061  11.4045220  97.0456886  93.4924316  11.1242943  96.6408348
  80.3178978  20.3098278  93.0440331  80.6782913  21.1456662  93.3402443
  80.4809761  19.7078877  93.7701893 111.1788464 146.3254642  80.6726074
 112.1085358 146.2882328  80.4478455 110.8405685 145.4617310  80.4364777
  80.3426552 120.1175594  92.4811649  80.3551388 119.8945618  93.4119415
  79.4295120 120.3406620  92.3005486  75.8697510 125.8590603   4.9668256
  75.6655502 126.7452717   5.2654210  76.7767000 125.9109783   4.6651975
 108.3116913   4.8050289  13.4691850 107.3769665   4.6248036  13.3689443
 108.4363079   4.9059563  14.4128553  91.6338158 105.7297611  96.0327625
  91.1148262 104.9332905  95.9209442  91.6409302 105.8802605  96.9780350
  54.1159725 122.0159435  95.6691360  53.6856890 121.3377666  96.1898804
  54.1318893 121.6613197  94.7801876  97.6441097 131.5007210  98.9371967
  97.0114040 132.1868610  98.7247753  98.4538746 131.7812920  98.5108280
  88.8602638 136.4057446  54.0929548  89.4624043 136.6945267  53.4072057
  88.4859657 137.2156334  54.4396726  80.5329418 130.5800629   6.4484350
  80.0843525 131.2006760   7.0227567  81.2932873 131.0617065   6.1226693
  95.2857494   0.6261330  90.7749844  94.9408245  -0.2372570  90.5473518
  96.2365150   0.5172329  90.7545185  96.6397953 136.1025524  72.4828243
  96.2174225 136.3834190  73.2945824  97.3635674 136.7176056  72.3641825
  88.1327534   6.5470200  66.5645885  87.2489262   6.6275196  66.9231844
  88.3254242   5.6105309  66.6103649 120.1644516 139.0962505  95.9616089
 119.8983192 138.5214710  96.6792583 119.4308281 139.0679455  95.3474140
  75.5494356 138.4710312 101.6338062  74.6529865 138.1604099 101.5068054
  76.0929823 137.6941681 101.5023422  86.4845467 121.8688393  56.2129402
  86.8004131 120.9852314  56.0240269  87.1748734 122.4451733  55.8850336
  93.7876129  -0.0141639   3.1590310  92.8455353  -0.0380630   2.9912797
  94.0454197   0.8836537   2.9500047 101.7145920 126.7227840  10.7717744
 101.3487816 127.2400951  11.4892713 101.5334702 125.8147717  11.0145704
 111.9616508 141.0644436  95.8563232 111.8315125 140.1261520  95.7188416
 112.9116535 141.1694050  95.9083080 111.0640907  15.6204205  10.4476968
 111.1113548  16.0357266   9.5865861 111.3824749  14.7295933  10.3017656
  95.8033371 128.1024837  82.4549961  96.6210747 127.8112888  82.8584099
  95.3426647 127.2925472  82.2358799 108.7706852 142.0373821  94.5661640
 109.6960068 142.0796967  94.3248558 108.5480881 141.1087894  94.4998074
  77.4405479 133.1492996  22.1664182  77.3961687 133.9533329  21.6489354
  77.3759079 132.4452686  21.5211240 105.9484100  39.4723111  71.6889715
 105.3772449  39.8266583  72.3704720 106.7180443  39.1559773  72.1620703
   4.1091090 127.1231747   4.6741048   4.6993666 127.7422142   4.2444269
   3.4293490 127.6722145   5.0648824 102.0447636 132.1817207  97.2437954
 101.9003201 131.4133835  96.6915035 102.9109573 132.0421696  97.6264954
  73.0493832 134.7477245  54.0127993  73.5529804 134.0406513  54.4161177
  73.5038948 134.9260616  53.1894827 108.4820652 136.1340046  20.9023897
 109.0672016 136.8830967  21.0151044 107.6346397 136.4414787  21.2242070
  -0.0074644 133.2915211  10.4529516   0.2196150 132.8574657   9.6305982
   0.7708579 133.1892300  11.0006563  -0.0700159 143.6484718  92.1641064
   0.3619986 142.9077435  91.7387676   0.1579600 143.5595608  93.0895042
   6.1331015   9.4264965  62.1193790   6.1335593   8.8071041  61.3895988
   6.6202479  10.1826649  61.7920542  80.6708050 140.7580757  10.4733411
  81.2928581 141.3951397  10.8246557  79.9510813 140.7529736  11.1043779
  68.9456511 115.6185627  93.6844349  69.5778513 116.2420273  93.3268738
  68.1140757 116.0925961  93.6818695 110.7098961 114.7469330 108.2297993
 110.4347229 115.1362038 109.0598488 110.6218815 113.8036823 108.3667755
  51.7291451 112.3201275  56.9648409  51.4481497 111.5708733  56.4396000
  50.9300184 112.6241016  57.3952293 101.2125587  12.6201992  71.9433355
 102.1298218  12.8696423  72.0557117 101.0018921  12.1204548  72.7320719
  78.9497662 131.1875725   3.6426297  78.5277224 130.8307743   2.8610936
  78.8224554 130.5150414   4.3117563   3.1111746 136.9555759 104.0427494
   2.6061659 136.3153648 103.5414314   2.6603728 137.0094109 104.8854351
  13.0904418   5.2672654  77.2392845  12.3580866   5.8521538  77.0448589
  12.6927691   4.3990307  77.3044968 118.0437374  17.8124600   5.4441015
 118.0591011  17.7567463   4.4886533 118.3596420  18.6950474   5.6376687
 123.2929134  95.4640865  30.7841817 123.8682652  96.1170006  31.1828080
 123.8181019  94.6641636  30.7612459 113.6180592   4.7958641 107.9159260
 114.1622543   4.0104943 107.9732037 113.0216599   4.6214276 107.1878433
 113.4635925 103.7245655  73.3314753 113.4062672 104.1936398  74.1638899
 114.1326904 104.1968441  72.8360081  75.6273460   0.0252228  87.4421310
  74.9225950   0.4738789  87.9093170  76.1491489  -0.3845615  88.1320858
  87.8369427   8.7589722  72.3397493  87.7103519   7.8782254  71.9869184
  88.4408379   9.1780835  71.7266560  72.1474409 128.5386562  37.3691503
  71.4223576 128.6150932  36.7489568  71.8841743 127.8327656  37.9596082
   3.9489298  28.7401371  21.0669366   3.2330161  28.3150654  21.5391771
   3.9086562  28.3684140  20.1857892  79.8952198 106.7321205 109.5347500
  79.5221138 106.1594200 108.8646603  80.1397324 107.5272274 109.0611935
 117.0957756   5.3921490  25.9154931 116.6831207   4.5907383  25.5934659
 117.9962826   5.3434639  25.5946485  84.5479488 138.4663773 107.5820065
  84.5603848 137.5442791 107.8385258  84.8743057 138.4690857 106.6821671
  18.6226206 110.1285267  99.5648956  17.8297549 110.6592369  99.4878578
  19.0983420 110.2889442  98.7499237 102.2111320  91.7599010  14.7854844
 101.9957638  92.4828529  14.1962568 102.3285007  92.1744156  15.6402627
  49.4174623   5.7795887  22.8046647  49.9320745   5.8608513  22.0016710
  48.8357449   5.0369912  22.6422254 111.7038250 126.4763546 102.4748898
 112.0005226 127.1820164 103.0495548 110.7575321 126.4365673 102.6133633
 103.9975834  55.7041340 106.1811447 104.4610977  56.1555844 106.8865299
 103.0926895  56.0068493 106.2569904 111.8080139 122.3811436   6.9231073
 112.6740074 122.0395470   7.1458379 111.5928173 121.9630909   6.0893480
  89.0664673 128.9072037  82.3629570  88.6896038 129.7587013  82.5846672
  88.9575672 128.8366890  81.4145851 108.4942532 117.7262974  88.9268875
 108.8802814 118.5897446  89.0740871 109.0034485 117.3560429  88.2058716
 111.6804028 145.3260994   9.6724550 112.0666504 144.8604679  10.4142324
 111.9151783 144.7978306   8.9095346 104.7618103 124.0472412 105.0567532
 104.3503666 123.7142086 104.2592430 104.1515255 123.8142204 105.7563877
 111.7500687 118.9217758  92.5699234 111.5444374 118.8538647  93.5023022
 112.3683453 118.2091045  92.4084854  87.4142838  21.6411763  47.1841097
  87.2836971  20.7317715  47.4527216  87.1683025  22.1556645  47.9528904
  93.0094719 145.3425121  94.6448898  93.9484406 145.3012943  94.4635773
  92.6383686 144.6092129  94.1541958 103.6786938  84.9172974 104.6204376
 103.9644337  84.3455410 105.3329468 102.7555180  84.6985817 104.4933891
  96.6670513   6.1393242 106.7372131  96.4479351   5.2173691 106.8721771
  96.9266701   6.4531021 107.6034546   1.4816695 118.3333111  13.3549825
   1.9098788 118.0494881  14.1626397   0.6367808 117.8834629  13.3609906
 103.9576244 139.6822548  85.0843811 104.7995281 139.6567726  85.5391026
 103.3511925 139.2397118  85.6782055  87.1182442 123.0420113  45.4477453
  86.3419247 123.4200382  45.8608437  87.1340656 123.4260178  44.5710897
 120.1880741 126.8239498  92.8671074 119.8889065 127.5031281  93.4716225
 120.8083534 127.2716999  92.2917747 115.9327030 129.8339272  67.6078176
 116.6379356 130.0893211  68.2025051 115.7595634 128.9170647  67.8213882
  81.3013840  39.4872647  68.8731098  81.0918045  40.2715855  69.3802071
  80.7623863  39.5601826  68.0854607   4.9249297 144.8318005  71.0806894
   5.0436812 145.6296253  70.5653238   5.4391413 144.1695786  70.6188583
 116.9351101 126.5364456  59.3872404 117.0347023 127.4082565  59.7696924
 116.8019581 126.6984081  58.4532833 106.8240356 126.9524097  88.5090923
 106.4333344 127.6611996  89.0201664 106.4581203 127.0602512  87.6311970
 107.6842690 141.8804932  51.3094139 107.3397160 142.7118111  50.9831905
 107.1058559 141.6503048  52.0365143 103.7127209  99.9142170  60.0240707
 103.2999897 100.5942631  60.5564547 104.0045452 100.3715801  59.2354679
 102.4911499 132.0641804 101.6382599 101.6117191 132.3319530 101.9049454
 103.0647182 132.7487755 101.9826126 121.4093685 124.6437550  93.7928677
 120.9842777 124.5018959  94.6386814 121.0297394 125.4601669  93.4679508
 102.8650188 122.0280075 103.5225773 102.9485893 122.2726440 102.6009464
 103.5670662 121.3934708 103.6665535 104.9043751 128.3633995  69.0576792
 105.5701542 127.6757145  69.0657377 105.0102520 128.7893200  68.2070255
 108.1997967 133.7111855  68.4629440 108.1919193 132.8441429  68.0574703
 108.7083530 134.2531013  67.8596783 118.8858891 103.9950466  93.1208515
 118.0026054 104.0547848  92.7568817 119.0481663 104.8593712  93.4988022
  76.7719364 104.2121696  97.3058701  75.8211470 104.2436886  97.4118805
  77.0299292 103.3809566  97.7043152 106.8115711 132.2779083 101.1869717
 106.4422512 132.6125717 102.0041752 106.5920639 131.3462162 101.1887741
 106.8644524 139.4291973  79.5649385 106.1968327 138.7648201  79.7355270
 106.9585228 139.4351673  78.6123896 120.3266621  14.0234738  88.6828232
 119.6808720  13.9903622  87.9770660 120.9939289  13.3866673  88.4269714
 112.0169640 133.3789158   9.4707719 111.8805218 133.0519867  10.3600065
 111.8774033 132.6152706   8.9107744   9.9848395 131.4425373  95.6749535
   9.9188166 130.6533813  96.2126446   9.1875201 131.9340992  95.8721161
  94.5529652  19.6412640  85.1244450  94.3843269  19.9150639  86.0260105
  94.8260593  18.7268811  85.1989269  96.4277077 114.7205257  59.2588234
  96.9734669 114.0588665  58.8338852  97.0330524 115.4317951  59.4683170
 114.4793034 120.4585457  94.3738937 114.0894699 121.1995697  94.8377228
 115.0390339 120.8597469  93.7090778  84.2355919  95.7024765  76.6749620
  83.8026810  94.9461937  76.2789106  83.7209415  95.8890152  77.4601793
 106.6176033 118.1445408 102.7309990 107.2930050 118.2244492 102.0574379
 107.1053123 118.0484867 103.5490131 121.7847824 139.9266911  86.6042233
 122.0866585 139.2023087  86.0561562 120.9852409 139.5986271  87.0157337
 117.7845478 106.0998821  74.5215082 117.5335217 106.0999489  73.5978079
 118.7349510 106.2132645  74.5114279  13.0136519  21.3312321  90.6101418
  12.9747897  21.9366246  89.8697281  12.4518900  20.6005268  90.3518105
  93.3819962  11.5586071  92.4184132  93.8403702  10.9274178  91.8636703
  94.0702915  11.9471245  92.9583454 122.1644592 116.8447399   2.8599874
 121.4279747 117.0784569   3.4249727 122.4401283 117.6744461   2.4703256
 104.5812893 134.8474979  62.3821926 104.3627167 133.9214230  62.4862766
 103.7868595 135.2421474  62.0225382 102.1806431 109.6140480   2.3992101
 101.2618351 109.6382713   2.1319333 102.6008511 109.0383434   1.7602769
  99.8615646  93.6385632  94.2014122  99.1379452  94.2646885  94.1772747
  99.4381332  92.7813053  94.1560936   3.5817748 144.7292709  98.9650822
   3.4496432 143.8916492  98.5210419   2.7639132 144.8809147  99.4387150
 117.3614025  24.2808514  36.6327786 117.6755142  23.9870625  37.4879074
 117.3810959  23.4945469  36.0872889 119.1508389 135.9510994  94.3744564
 118.9691830 136.1759472  95.2869701 119.1997337 134.9951744  94.3684959
  78.3638096 122.5030804  15.8151857  78.5493326 122.9550743  14.9920789
  77.4088573 122.5070190  15.8806363 119.5885754   1.7828541  71.1514378
 119.3860817   2.4905377  70.5395508 120.0193310   1.1178093  70.6143999
  87.7156258  13.2999401   4.3220750  87.8269196  14.2297345   4.5203630
  88.5304070  12.8930168   4.6166364   0.1679640  27.7597218 110.0160789
   1.0472613  27.6887112 109.6445656  -0.3393239  27.0875340 109.5610332
 103.5747528  10.5451088 106.0629272 104.4729710  10.3882294 105.7716942
 103.4686947  11.4950161 106.0113430 118.8712311 117.6356983  80.2697945
 118.9067268 117.1008396  81.0628223 119.7865868 117.7399540  80.0100422
 111.9252110 123.4842873  75.5253506 111.6537762 124.3979359  75.6137037
 111.8213654 123.1175900  76.4034033  92.8046989 131.8755054 102.1653461
  92.0256519 131.6900349 101.6410160  93.4233379 132.2631741 101.5462875
   4.1411620 125.2863598  14.7389070   4.5195036 125.7589912  13.9974824
   4.8945933 125.0394344  15.2751867  85.6141281 130.6894112 102.2442245
  86.2139606 131.3431835 102.6034069  85.4492092 130.0901318 102.9721642
 115.5188942 131.3917255  85.9937954 114.9476719 132.1118164  86.2610149
 115.3298378 130.6915569  86.6185093  77.9049540 143.0305576  83.5682392
  78.6713886 143.5945606  83.4647369  77.3763180 143.1993198  82.7883053
  10.9018355   4.9029713  79.3385649  10.6611853   5.6948262  78.8576412
  11.5283137   5.2036457  79.9968529 107.1766567 126.3538361  69.1401052
 107.7438641 126.9068623  68.6028242 107.7375221 125.6268787  69.4106627
  62.2986412 125.3394890 101.9315243  63.1682777 125.7387066 101.9558620
  62.0116186 125.4457474 101.0245705 101.1115074 124.3852901  56.4746428
 100.6870079 123.5625744  56.2314034 100.9594154 124.4639969  57.4163961
  73.5965872 139.5470810  76.0566568  73.6086988 139.1060638  75.2071953
  74.5181656 139.7177505  76.2510777 115.0386143  13.6787205  97.7070713
 114.4717884  13.2050972  98.3158588 115.4332447  12.9948693  97.1659088
  95.3624630 126.9125652 100.7399178  96.2935543 126.9706821 100.5256271
  95.0772381 127.8230000 100.8173752 108.6627960 140.6199741  66.7023611
 109.5336437 141.0166931  66.6806746 108.5728741 140.1929092  65.8504438
  85.6852627  81.6909981  70.6788921  85.4585457  82.4102688  71.2683773
  86.4275551  82.0211029  70.1726675 116.7870522   2.8250866 103.6915874
 117.2801495   3.6312275 103.5391903 116.5920544   2.4942284 102.8148174
  50.0133085 119.7818947  53.4034967  49.0848970 119.8292637  53.6316156
  50.2035236 120.6273842  52.9970598  66.3732100  74.8636007  70.4724455
  67.1402836  74.8231983  71.0435820  66.0130548  73.9769554  70.4920244
  46.2142324  23.9897328  42.9365206  46.6147375  24.7105770  42.4505281
  46.9219923  23.3554821  43.0507755  87.2272205 106.2534428  97.9113293
  87.7822685 106.9009113  97.4766636  87.7037811 106.0269737  98.7099648
  10.0086527 144.9508286  91.2226391   9.2884474 145.4218960  90.8035755
  10.7867270 145.4676247  91.0134506  84.6623611 130.7144928  78.6615562
  85.4158115 130.1285076  78.7334108  84.0222263 130.3582096  79.2776060
  45.4721355 115.9357452  92.0839691  46.2138224 116.5292358  92.2018433
  44.7521019 116.3558388  92.5543976  64.9134827 110.3363514 106.0774040
  64.2161083 109.9152088 105.5748653  65.4431248 110.7878590 105.4202557
  89.9487495  89.3073082  81.9326687  90.0365353  90.2510548  82.0663548
  90.7735825  88.9422798  82.2530365  91.5267944  89.9902439  86.1095524
  90.8607960  89.5331097  86.6230679  91.9791603  89.2953873  85.6312466
 110.7910156 133.3270264  86.6268349 111.0054684 134.2328072  86.4036655
 111.6192055 132.9514599  86.9256401  91.6446686 140.2206993 102.9575825
  90.9543800 140.1349831 102.3000336  92.1817017 140.9498310 102.6474190
  10.6653529 134.2590618  64.0114212  11.5252810 134.2922401  63.5923243
  10.1614791 133.6460876  63.4760666 114.8713398 127.8834343  71.9520521
 114.9539757 128.7919998  71.6623878 114.5395374 127.9468155  72.8476667
  85.7609463 122.7264977  95.2375603  86.0595608 121.8185806  95.1850891
  85.5066967 122.9471684  94.3415165   7.2262984 107.1862984  54.6346903
   7.8590613 107.4145603  53.9537001   6.8425112 108.0235481  54.8953724
 114.1386223 101.2116528  12.0155469 114.3834877 100.3373528  11.7124597
 113.2386208 101.3274288  11.7108671 106.0466003 126.3585091  96.0788345
 105.7164860 125.7115173  95.4554081 106.9249439 126.5696621  95.7623386
 114.8569584 144.1443253 101.6069221 115.1184654 144.2523384 100.6924915
 115.6595421 143.8785934 102.0557690  83.8206577 137.8333187  90.5747795
  82.9660988 138.2608318  90.6313419  84.1547775 138.0790615  89.7121048
  73.1027746 140.9408951 102.9194927  72.4796772 141.5818691 103.2617378
  73.9302254 141.1584091 103.3487320  91.9674301 137.8504753  69.4799328
  91.1501980 138.2497501  69.7781754  92.6532745 138.3445644  69.9290800
  68.7396622 125.1304436 102.3342991  69.0101957 125.9942245 102.0229816
  69.5581150 124.6436787 102.4313736  81.5100193 125.8312607  24.9965119
  80.7833958 126.4450264  25.1039147  82.2895718 126.3427067  25.2132130
 120.6351948 129.2146873  89.3197632 120.1017761 129.7354507  89.9201775
 120.0052071 128.8363171  88.7064171  83.5055542 112.1011257  64.9013472
  83.5131454 112.6676083  65.6728840  83.2921124 112.6876736  64.1756439
  87.1534729 121.9048023  62.4207354  86.6496181 121.8802547  63.2342196
  88.0237293 121.5925694  62.6685095 104.3886280  16.5415745  36.1680341
 103.6985874  17.1642475  35.9392309 103.9812946  15.9568005  36.8070650
  60.5032921 106.7212868  76.5285349  59.5645618 106.7163658  76.7156172
  60.5582952 106.6353893  75.5767870 122.6920986   5.8108692  83.4868813
 122.7390671   4.9994927  83.9925480 122.0084858   5.6487065  82.8367996
  52.8677320 135.1732540  80.8180523  53.4169960 135.1627636  80.0341988
  53.4522295 135.4686546  81.5161514  91.3968945 105.0227642  59.7216988
  91.7428780 105.2846909  58.8685131  90.9152794 104.2142391  59.5468903
 123.6347485 115.5596161  19.3458978 123.5461521 115.8233643  20.2617685
 123.4331799 114.6238804  19.3455545  24.9219733 124.0201855  95.2800846
  25.5184775 124.6699619  95.6518459  24.1735297 124.5309448  94.9715614
  99.1318321 142.2905254  87.9376221  99.5753098 142.4654198  87.1075821
  98.2798767 142.7177143  87.8486443   8.9717131   4.9350338   5.6114427
   9.6996337   5.5561810   5.6348363   8.4758883   5.1169281   6.4097539
 115.8488560 143.8460732  49.6221399 116.5054607 144.1028595  48.9747095
 116.3519859 143.6729336  50.4178286  92.3335075 119.9078083  73.5302544
  92.2309017 120.2153778  74.4308710  91.7681408 120.4830742  73.0148268
 120.6418037 138.4885979  98.7454510 121.5109921 138.6970139  98.4029579
 120.5535984 139.0372467  99.5248413  76.8960857 124.0448284  55.6067657
  77.3194838 124.0184975  54.7487068  76.9429731 124.9642467  55.8688784
 100.6492233 130.5531406  58.1538820 100.5376625 131.4894772  58.3183527
 101.5933418 130.4093838  58.2187843 115.3259468 144.9021626  47.1011162
 114.6900272 144.2817116  47.4573183 115.2871418 145.6521606  47.6945972
 116.2298870  11.2838536  10.3063909 115.6363678  11.2024765   9.5598356
 116.9400692  10.6710701  10.1156846  97.1244335 101.6335678  80.9001255
  96.3198376 102.1478748  80.9661198  97.3814011 101.7077541  79.9810505
   3.9847785 123.2699871  81.3465786   4.4187480 123.1420898  80.5030441
   4.1915064 122.4791336  81.8446255 100.0288486 137.6078033   2.3419801
 100.3762054 136.7180729   2.2791044 100.7957554 138.1719017   2.2426168
 118.7058735  25.7867794   3.6408750 118.1545067  25.1998501   4.1583101
 119.3590450  26.1106282   4.2611257  98.8862133  12.0708256  62.7872992
  98.5509300  11.5820389  62.0356989  98.1532478  12.6224881  63.0605364
   6.1743861  16.0050183  90.5170918   5.5958682  15.7135182  91.2217712
   6.3437014  16.9267254  90.7120323  69.7221708 133.4096813  74.4391680
  69.7721195 132.6243019  74.9840593  68.8256502 133.7246132  74.5545197
 120.2852726 145.0452232  97.9456997 119.6693611 144.9763012  97.2162247
 120.0848484 145.8896637  98.3494091 119.3588066 109.6471310 102.7738953
 119.5181847 110.0953007 101.9432449 119.6127510 110.2837276 103.4420872
  83.0227184 109.8685360  79.8191023  82.0856380 110.0212574  79.9407053
  83.0682373 109.1344166  79.2065382  60.5809116  12.2278290  71.2909174
  60.3931379  12.8981190  70.6338835  61.4317989  11.8724614  71.0341454
  81.0576725   3.7041169  75.0398540  81.5609932   4.2683964  74.4529295
  80.8494091   4.2626076  75.7888126   3.6047011 127.9372501  95.2021503
   3.2587176 128.5011864  95.8938885   3.0611258 127.1502972  95.2404118
 124.9491215 128.5127068  98.4816837 124.2720604 128.2118416  97.8756332
 124.6665287 128.1882572  99.3367290   9.6326094 107.6109600  99.6348476
   9.7498351 107.3328972  98.7264633   8.7768298 107.2617531  99.8836899
  10.0642710 130.1797009  39.3006730  10.1989680 129.3896008  39.8239613
   9.4843608 129.9015045  38.5917783 102.6986027 122.1294689  59.0532160
 102.4010468 122.9073715  59.5249796 103.5718346 121.9556522  59.4046259
  98.6201286 140.7660389  75.1016188  98.3826542 141.2820721  74.3311930
  98.5078144 141.3682175  75.8371496 108.9451885  10.9840565  92.4092007
 108.8830757  10.2628117  91.7829609 108.8978004  11.7738133  91.8704319
  90.1031876   9.2738991  38.7735152  89.8065472   8.5455113  38.2279062
  91.0377884   9.1118412  38.9019251 110.5819511  54.6910839  93.7336159
 110.5242252  54.1632061  94.5300198 109.7907734  55.2297383  93.7454319
 108.9527130 118.2985687  79.5558548 109.8823547 118.4408283  79.7340822
 108.5171604 118.4938431  80.3855515 119.6385002 102.8774357   9.5731965
 119.1864395 103.7203598   9.6099511 120.2097511 102.8783131  10.3412477
 119.7469997  11.1857682  59.2749119 118.8731194  10.8764344  59.5133972
 119.8598289  11.9939308  59.7752953  74.4853735 143.2798195  39.1448236
  74.3070745 142.4705601  38.6657190  73.6195564 143.6379337  39.3406630
 113.4159184 120.9875107  23.7447873 112.7323055 120.3331280  23.8886682
 114.1006470 120.5178261  23.2685796  96.8874168   9.6584111  65.7047939
  96.9039154  10.1212006  66.5425158  96.2329578   8.9701825  65.8242130
  97.6796722 108.3711243  84.6158695  97.2111511 107.8252125  85.2472973
  98.5254097 108.5437584  85.0295830  61.7624331 120.1978588  57.7462626
  62.4193859 119.6830940  57.2775793  61.4476156 119.6135139  58.4359455
 101.5849686 140.4862595  87.0417690 100.8184719 140.0569248  86.6617775
 101.5729141 140.2264595  87.9629612  73.9765692 122.4111176 102.8370190
  73.8625860 122.3704147 101.8875027  73.1923628 121.9913101 103.1905937
  55.8052874  12.3103695  89.8985386  55.1615143  12.3876267  90.6026745
  55.3979921  12.7502423  89.1523075  80.4380417 113.3478546 103.7541580
  79.9093437 113.5231113 102.9756927  80.4180527 114.1682243 104.2469215
 120.9413815 117.4029732 101.9898415 120.4041958 116.6158581 101.8998337
 120.5467129 118.0325890 101.3864708   7.0140486  14.3029576  74.8890924
   7.2034579  14.1641789  73.9611387   7.8444033  14.6000653  75.2612066
  15.3634101 123.8299942  76.2959528  14.8565703 123.9164639  75.4885721
  14.7408515 123.4799767  76.9332409   3.2088118 136.3399601 109.2410183
   2.7169066 135.6537914 109.6920681   3.1999617 137.0796967 109.8484230
  16.7064601 145.9502792   7.2211496  16.2579756 146.7918587   7.3038713
  17.2329455 146.0365486   6.4264146  94.8779774 109.2634964  86.2895584
  94.4760513 109.6863842  85.5307007  95.1539516 108.4054470  85.9673405
 110.2022076  93.7550735  76.7713070 110.8300018  93.1311893  76.4067841
 109.5484161  93.8678074  76.0813141  80.7205868   3.3808689  99.4616795
  80.2856064   3.8027840 100.2026367  80.9659958   2.5155239  99.7890759
 109.4294643   1.8401127  79.9768782 109.8644638   2.5363903  80.4690170
 110.1019573   1.1677342  79.8678970  67.0329094   3.9839726  73.6832333
  67.4191904   3.8419800  74.5474434  66.8990278   3.1032353  73.3330822
  85.2379608 138.1583691  88.2654858  85.4124165 138.5252380  87.3987579
  85.9341049 137.5148487  88.3977318  92.6618004   4.6375923  82.6724434
  92.7700615   4.8740082  81.7512321  92.5632858   3.6855011  82.6653957
 113.2878780 137.3964882  34.4508266 113.6288452 138.2270050  34.7828150
 114.0247536 137.0056248  33.9812779   6.4615088 128.4157085  86.5786362
   5.6507807 128.2920647  86.0850143   6.7395907 127.5290966  86.8084526
 119.8519993 122.1636581  85.7775688 120.0239658 122.8149128  86.4576626
 120.0471401 121.3245106  86.1946869   1.1475688 136.2541485  69.6839714
   1.1435252 136.9142914  70.3770971   0.6900435 136.6707993  68.9537001
  80.1957798   7.0372753 106.9472313  80.9430218   6.6081314 106.5304565
  79.8032188   7.5640564 106.2510681 104.9420738   5.9305840  75.8007669
 104.4319820   5.1606922  75.5491495 105.1248264   6.3774090  74.9742222
 117.9040813 112.2042274  46.0456419 117.3465633 112.7797890  46.5692186
 118.4143639 112.7995777  45.4966497 104.3473244 139.5133209  18.1842557
 105.1736546 139.9964428  18.1862775 104.3302250 139.0715885  17.3352472
 113.8871861  96.2841129   6.2669317 114.3371010  96.7803192   5.5831281
 113.5311508  96.9521809   6.8527261 105.3326416  97.0194912  88.5175228
 105.6130695  96.2005806  88.9261532 104.6405506  97.3486233  89.0910244
  50.9070110  16.7843609  70.9895325  50.4767704  17.0469075  70.1757812
  51.7831039  17.1655064  70.9310341 102.9877663 138.2366848  -0.0390967
 103.8767910 138.5752392   0.0669423 102.5125313 138.5689068   0.7224885
  80.3487778 109.3744087  93.2032204  79.8733091 110.1498222  92.9050541
  79.9387503 109.1483593  94.0380955 122.1495724   4.3437748  71.2817192
 122.8156853   4.5952206  71.9214821 122.5561428   3.6394673  70.7768583
 114.3292236 118.7424088  74.2548180 113.4541035 119.0735435  74.4566774
 114.1730022 117.9549217  73.7335873  98.3626461 107.0260429  90.2943993
  99.0458107 106.4745808  90.6757164  98.1519985 107.6568508  90.9828377
 114.7581196   2.1372776  52.9980659 114.5883942   1.2792950  52.6090956
 115.4164505   2.5331478  52.4269962  85.3143215 132.5223160  37.8200507
  85.7890129 132.8376961  38.5890961  84.4114780 132.4200916  38.1211424
   9.4107085 133.4588146  46.3326263  10.1927310 132.9489803  46.1210918
   9.4573145 133.5868740  47.2800779  77.1228456 135.3623104  69.6142101
  76.7415142 135.2631378  68.7418652  77.4293280 136.2687492  69.6399975
  82.9811382 125.2324963  65.7774448  82.7170467 124.8799133  66.6272545
  82.3741531 125.9554768  65.6190062 118.6740971 119.9050140  93.9355564
 119.4070339 120.5141258  94.0251446 117.9061890 120.4674816  93.8346481
 113.8998985 117.2910404  92.0568085 114.1776943 117.6060295  92.9169559
 114.4399166 116.5165234  91.8995094  82.4414539 113.1831360  83.9691734
  82.5247765 112.4414635  83.3698273  82.3456573 112.7830505  84.8334599
  89.1742134 130.8943748  88.9163971  89.6469975 130.8798599  88.0842304
  88.2516098 130.8332920  88.6687946   0.9732180  17.7761631   8.4443617
   1.5201026  17.2261792   7.8834176   1.2365943  17.5461178   9.3353969
  27.8778773  11.1338597  99.1186714  27.6727706  10.2215939  99.3234062
  27.3757582  11.3200074  98.3252811 112.7140713 116.6984940  83.2009220
 112.7986813 117.6243114  82.9730034 113.4765148 116.5164089  83.7502384
 124.2292976 124.2915058  88.4745789 124.7192192 123.6889744  89.0341949
 124.2699528 125.1308155  88.9329815   4.9061709 111.4414597 100.4765034
   5.5093699 111.5958500  99.7494984   5.4427748 111.5543747 101.2610626
 111.0241413  64.2926598   7.2928277 111.0986614  65.1101017   7.7852384
 111.6158962  64.4062710   6.5490857  71.3834238 132.9091835 104.6389675
  71.0583162 133.4770298 103.9403343  70.7904816 132.1577740 104.6323013
  93.5739708   5.2512436  85.3012371  94.4340801   5.3175145  84.8864460
  92.9708862   5.0847226  84.5768166  81.4457226 121.4403534  70.0323391
  80.9803581 121.5006447  70.8666182  82.3348522 121.7330551  70.2323532
  83.3409691 130.0642872  94.3829250  84.2460537 130.2039146  94.1044331
  83.3768559 129.2789745  94.9290276 110.6362438 130.3673267  66.5333176
 110.9790802 129.5125103  66.7940569 111.4156151 130.8942127  66.3566589
  15.0382643  24.9795704  40.6595365  15.7914000  25.2848416  41.1653272
  14.8445922  24.1132145  41.0175268  95.6727505 118.2518578  87.0952129
  96.2070274 117.4630451  87.1877384  94.9211025 118.1006050  87.6682568
 111.2010002 118.0214787  99.4981956 111.7097569 117.2373199  99.2920303
 111.8482685 118.6494255  99.8190689 119.4286633 146.3036060 107.7500820
 120.0973606 146.9829750 107.6632404 119.5929241 145.9142494 108.6089420
  87.9016209   1.1290722  73.7891006  87.5869656   1.2520199  74.6847010
  88.2134533   0.2243595  73.7668705  95.8863163 128.6669064  75.1722813
  96.0899639 127.9985714  74.5179987  95.5528545 128.1742287  75.9221506
  93.5348225 118.7591839  60.7725906  93.5829926 118.2541180  59.9609137
  93.6914539 119.6637344  60.5014801   1.1656504   1.7835980  99.0411472
   0.9660082   1.6215115  98.1191444   0.4859191   2.3925286  99.3299389
  90.9677887  14.9789028 108.9687443  90.8760262  14.5216160 109.8046303
  91.2077141  15.8735257 109.2102337  83.4967613 115.0354004  69.0830040
  84.2942715 115.5509281  69.2032242  83.1602287 115.3102016  68.2300901
  77.2371578 104.2188358  94.3916988  76.7233133 104.2778492  95.1971245
  76.6019583 103.9707279  93.7199879  28.7645083   0.1502686   2.6746217
  29.2816191   0.7722550   2.1627942  29.3287116  -0.0799484   3.4128038
  86.6759300  86.6780376  88.3125877  86.0082817  86.4289665  88.9516830
  87.2737694  85.9309292  88.2872295  86.1350250 143.0226707  96.3668346
  85.7694435 142.3467541  95.7961178  85.6687450 143.8216496  96.1209774
  78.0622816 111.7666245  35.6666589  78.3130360 110.8459759  35.5907822
  78.8625622 112.2504425  35.4624462   4.3147498 127.9475021  80.5413723
   3.7652426 128.4714699  81.1242390   4.8728018 128.5871887  80.0991058
   1.7550021 128.9442253  59.7164011   2.1096831 129.6755028  60.2220392
   2.0506793 128.1635189  60.1846886  80.7047462  17.5741749  87.4636650
  81.2053108  18.2825070  87.8685379  79.7951460  17.7601414  87.6966476
  82.5157928 144.5289898  69.0174103  82.9773140 145.3546429  68.8707113
  82.1758842 144.5998096  69.9094200  90.3547001  13.3179169  73.3579588
  90.4254627  12.9230481  72.4888802  89.4627666  13.1162148  73.6407804
 109.5587349 136.6329575  70.2163267 110.1157188 135.9293175  69.8833179
 108.7895679 136.6194916  69.6467352 121.5339756  39.2221241  93.2897663
 120.7695293  39.1264515  93.8578224 122.1137047  39.8162442  93.7663937
 114.1746998   0.9120159  56.6305208 113.5166550   0.2681713  56.3684607
 114.3836784   1.3828736  55.8237648 116.2874889 142.6013088 105.9537315
 115.6864071 143.3462524 105.9522247 116.7065811 142.6334572 106.8137074
 112.0377064   2.6023083  98.5826969 112.8514481   3.0912285  98.7051868
 111.4646721   3.2056694  98.1095982  76.3664150 137.1407032  49.1800976
  76.7555189 136.5418148  49.8174143  75.4223299 137.0314884  49.2941475
  89.6604919 121.1552906  55.3163528  89.8407173 121.7784214  56.0202360
  90.4998493 120.7231998  55.1582384 111.9072819 141.8941402  60.5596781
 110.9640980 142.0495129  60.6096601 112.2152042 142.5035763  59.8888540
 116.1729050  28.9379101  60.2685690 115.3354263  29.1488819  60.6813288
 116.8117237  29.4788342  60.7328272  93.4492588   0.0297623  84.8733139
  92.6964569   0.4903202  84.5026207  93.3398724   0.1154309  85.8203697
  89.6672535 107.5666618  69.3751335  90.0000000 107.0666790  68.6297989
  89.2098045 108.3090973  68.9804649 102.6124859 139.9976826  47.9173946
 101.7643070 140.1683998  47.5079107 102.8884411 140.8477592  48.2600975
 108.8220310 101.4789486  74.0219498 109.7545338 101.3427734  74.1896296
 108.6753559 101.0941410  73.1578636 100.1679707 128.1275558  44.7231627
 100.8568859 127.7883339  45.2946091 100.5530357 128.1095219  43.8470221
   2.4526625 122.5532246  95.0134373   2.5795394 121.6757584  94.6526241
   1.6918021 122.8969765  94.5453072 102.2171307  19.2510777  77.7703190
 102.5458717  19.2013340  78.6679173 101.6265774  20.0043850  77.7729416
  89.3375301   3.1148320  82.4286652  88.6177826   3.4617977  82.9557514
  89.4581127   3.7611084  81.7329407  71.6944647   8.1817990  42.4492216
  72.5779772   8.4251099  42.1727562  71.3031244   7.7795105  41.6738176
  99.5576286  16.0385685 103.1426239 100.1672554  15.3443890 103.3930397
 100.1194859  16.7722683 102.8931713 108.5566330 115.0985336  58.0078316
 108.0065823 115.2769089  58.7706232 108.0782318 115.4818153  57.2726727
  95.9689808 136.7559338  44.6482372  95.8009243 137.6100540  45.0463295
  96.0930729 136.9454002  43.7182188 100.6778717 139.6556473  62.6854563
 100.4054642 140.1740265  63.4426308 100.7637691 138.7643623  63.0237770
 112.5866508   3.5629349  71.0342312 113.1011486   3.3065300  71.7995977
 111.7446423   3.1235962  71.1535311  95.8642578 121.8937874  39.5555782
  94.9398136 122.0263386  39.7654939  96.1416721 121.1832142  40.1338148
  86.7667103 121.7306423  77.1897316  87.5292206 121.2971878  77.5730371
  86.0408211 121.1290741  77.3553467  93.5099411 141.3457584  60.9827423
  93.8495255 140.4920292  61.2511921  93.6821461 141.9179344  61.7305326
  86.5276909 141.2702084  44.5277929  86.4477634 142.1573544  44.1773367
  85.9087181 141.2442684  45.2574730 114.5733547  11.3863163  79.7773170
 114.1903114  10.5413704  79.5415735 113.9608860  12.0330792  79.4268656
  98.8728714  88.5198116  88.5216427  98.1643772  88.7558174  89.1204453
  98.8099861  89.1594124  87.8122807 113.9230347   4.7129994  59.0103960
 114.8781395   4.7614746  59.0511084 113.6612701   4.4107514  59.8800850
  84.7223949   7.2617417  42.9019213  84.8266792   8.1155949  42.4820423
  84.2552090   7.4505024  43.7157631 107.4834728   7.5599366  54.4268608
 106.8962193   8.1799870  53.9945459 107.5712681   7.8953915  55.3190470
  99.1976929  38.2764988  83.9199352  99.0076351  37.7840977  83.1214046
  98.5688305  37.9451542  84.5610142 106.2287712 133.9764977  34.6552849
 105.3888988 134.3884182  34.8581719 106.0460663 133.4204578  33.8978744
   3.0287390 131.4648628   5.6228137   3.4652739 132.1897793   5.1754063
   2.8692656 130.8195496   4.9340680  92.5448608  22.2933750  87.5473690
  92.0207977  21.8891888  88.2388973  92.3670292  21.7626744  86.7708683
   4.4647341 146.0032177 109.3308926   5.2043086 146.5573215 109.5803738
   4.2463141 146.2814617 108.4414577  64.5224810 119.6825314  70.0743628
  64.0696573 118.9364815  70.4675436  65.4395580 119.5633602  70.3213406
  97.7404594 124.2605686  50.2126503  98.1523228 124.4550133  51.0545492
  96.8268967 124.5225048  50.3267622  84.2535686 142.4099827  58.8051319
  84.1596889 142.1308994  59.7159195  85.1731682 142.2443295  58.5974455
  66.7527962   7.5203972  56.1031246  66.1762857   8.0017834  56.6965294
  67.6328707   7.6751023  56.4462852 101.7788124 113.8958073  43.0337763
 102.3089314 114.6927834  43.0406380 102.3423767 113.2367706  42.6284504
 103.1691742 140.1346874  64.9262762 102.2188377 140.1002407  65.0354385
 103.4560680 140.8129215  65.5377769 121.5086937 130.6271267  53.8208342
 121.5431404 130.1377296  54.6427441 121.6697121 129.9699020  53.1438112
  79.2573404 133.2227516  47.1352005  79.4939518 133.9197731  46.5233135
  78.3074284 133.1413841  47.0498657 105.0001526  23.3570462  57.0578718
 105.8901787  23.0171757  56.9653368 104.9856663  24.1425305  56.5110397
  75.9068871   9.3553048  76.7363834  76.2411785   8.9138584  75.9556150
  75.6366444   8.6436539  77.3166847  92.0744514  95.7937717  65.1904392
  91.6610813  95.4839230  65.9962654  91.7757225  95.1820850  64.5175028
 107.7512264 130.7573700  42.4986601 108.2675552 130.7274818  43.3041048
 107.1520424 130.0143814  42.5705576  87.3740673  11.0195904  56.8250942
  87.1438122  11.3879471  57.6780462  87.2622871  10.0751953  56.9339705
 106.5039349  13.8444882  59.5478678 107.1405602  13.7297039  58.8423395
 106.0070229  14.6234112  59.2977095  94.4993401 142.6528168  73.5026932
  94.9810696 143.4446526  73.7417746  93.8138866 142.5797749  74.1668129
  12.4823790 122.5185680  80.5936146  12.7179175 123.2275391  81.1920357
  11.9185191 121.9447327  81.1122799  98.7183094 143.0410194  81.9516373
  98.7195206 143.9500999  82.2513008  98.2780743 142.5587177  82.6515007
   2.9720526 121.1227894  57.5544930   3.2102900 120.1960182  57.5784111
   2.0258647 121.1231995  57.4097157 120.8143044 122.0576191  83.2361221
 120.6623459 122.1790695  84.1733456 121.6426849 122.5066471  83.0676270
  83.7352753   2.4663620  86.0048199  84.3464375   1.8562107  85.5919838
  83.9192295   2.3927384  86.9412899  73.9022303  12.4376755   1.0412923
  73.1305599  12.8247433   1.4547387  74.0524864  11.6264611   1.5266744
 113.9459515 118.8356304  64.7879791 114.0211868 118.7215710  63.8405848
 113.0617809 118.5337162  64.9961090 111.8105125 132.2141457  94.2278671
 112.5413990 132.1451664  94.8420906 111.1269283 131.6609383  94.6059132
 105.6113720 132.9859829  56.7215776 105.0280571 132.2959232  56.4056826
 105.1290894 133.3976460  57.4386358 100.9473324 138.6408997  97.1842766
 101.5562725 137.9872036  96.8406200 101.4964199 139.2327690  97.6985073
 110.1302147 123.8340569  61.9019413 111.0718727 123.6676884  61.8590879
 110.0345325 124.7434235  61.6188765 103.8271046 108.3050442  84.4176960
 102.9588890 107.9493999  84.6073151 103.8207626 109.1763973  84.8138428
  63.9524794 126.8757725  71.0648441  63.6472988 126.4456272  70.2660561
  64.7785330 127.2890568  70.8137083 105.3001690 109.0500450  23.7950277
 104.5338917 109.5117569  24.1354227 105.9513664 109.1195774  24.4931269
  94.0367985  14.9218159  87.8910828  94.3169022  14.2240124  88.4834194
  94.6276093  15.6501370  88.0826473  92.2024059  40.1097851  67.4961758
  92.7107716  39.7496395  68.2228756  92.5775909  40.9779148  67.3484707
  80.0882530 128.5420704  71.1723852  79.7592545 128.2833481  72.0332289
  79.6046543 127.9921532  70.5559731 101.6578865 129.6966171  95.9958839
 101.6003132 129.8569584  95.0539684 101.8265247 128.7572384  96.0690784
 112.3210526 144.7633648 100.7682228 112.0039654 143.8979340 100.5099297
 113.2468510 144.6286583 100.9706593  90.7356262 140.3696537  87.3858070
  90.1137352 140.3869534  88.1132603  91.2337112 141.1819363  87.4771309
  77.1951246  17.9924946  53.0712318  77.1565437  17.9780751  52.1149206
  76.8878937  18.8669949  53.3101702  69.9430466  14.4209462  59.2512274
  70.6755924  15.0287991  59.1506147  70.3452349  13.5531025  59.2150354
 106.8204212 117.7552986  47.2653723 106.7793560 118.3954048  47.9758692
 106.7393398 118.2776737  46.4673853 113.1044292 125.2308750  53.6813831
 112.7560806 125.4548836  52.8184223 112.3291492 125.0525570  54.2137146
 106.5865898 103.5616779  61.7095137 107.4883366 103.4153748  61.4237213
 106.0709763 103.5243988  60.9039116  76.7309237 131.9082832  46.5341187
  76.5133381 131.0097027  46.2862539  76.0114193 132.4340439  46.1846590
 124.6483517 104.4034481  18.9594316 123.8976669 104.7583389  18.4832525
 124.4844151 104.6366978  19.8731863   0.6995612 140.8274364  38.7683439
  -0.0947923 140.9963036  38.2616735   0.3933364 140.3586769  39.5446968
   8.9580947  16.2392788  72.6664448   8.8658839  16.5014248  73.5824251
   8.4509116  16.8886357  72.1792650 103.5817337  99.7229862  65.5059338
 103.0852509 100.4738045  65.8315372 104.4831753 100.0394058  65.4466867
 112.6011658 139.9605465  78.9955902 112.9994869 139.2285538  79.4665194
 113.1187344 140.7226276  79.2555523 105.3969288 133.9304066  46.3805866
 104.5600700 133.4925747  46.5361595 106.0402298 133.2216454  46.3727379
 103.7765503 116.2772942  51.8555355 104.4558239 115.6818581  51.5388632
 102.9664898 115.7711220  51.7936611  97.5561333 137.4121284  42.3344946
  97.9208660 136.5294456  42.2706747  98.3215809 137.9862690  42.3604679
 115.9585762  45.7354527  73.0611277 115.8637333  46.6839199  73.1484842
 116.9026089  45.5948239  72.9885292 103.9108276 113.9024162  63.9196348
 103.7857151 114.0661049  62.9848671 104.5919228 114.5216274  64.1821671
  92.2183323  -0.0763530  72.9860878  92.2866726  -0.4611225  73.8598776
  91.6641140   0.6947213  73.1065941  92.1060371 144.6755314  62.1300745
  92.9220390 144.2280388  61.9061756  92.3814392 145.5456829  62.4185658
 103.6661816 127.4463844  24.5899534 104.4106483 127.5317097  25.1855397
 103.5633755 128.3183098  24.2086101 100.8829021 111.1514950  87.8694344
 100.2710819 110.4154396  87.8806591 100.9162521 111.4212513  86.9516373
  16.4638739  95.4842758  71.2271881  16.7243319  94.7550964  71.7899370
  17.1941119  95.5887794  70.6172180 115.0705814  89.0361500  71.7961836
 114.5918560  88.8382626  72.6011086 114.7213078  89.8805714  71.5112305
 108.1703281 143.6122227 100.0513935 108.6914062 143.3115768 100.7959270
 108.5522175 144.4583035  99.8178482  66.4208412 136.9603634  20.7434177
  67.3211002 136.7242241  20.5198002  66.3082504 136.6508865  21.6421819
  14.8558074 143.9239120  35.6073809  14.9791747 143.9526844  34.6585989
  15.3365832 143.1452084  35.8879209 102.7365208 131.1555958  65.7126999
 102.2121334 131.9088745  65.4409885 102.2150421 130.3953457  65.4551888
  95.4851055 121.5830898  45.3245163  94.9509335 122.0397091  44.6745968
  95.7516575 122.2671127  45.9387636 108.7309074 129.7276592  54.4108915
 107.8871059 129.7529507  53.9596748 109.0210533 128.8194942  54.3254852
  89.1029835  99.5057869  56.2076378  88.5700798  99.3696785  55.4242373
  88.4749031  99.4925785  56.9298315  21.7282897 142.1076679  25.2630520
  21.1316805 142.3568916  25.9688687  21.1901408 142.1395779  24.4720912
  73.4519768 146.0470772  26.9210052  73.0830288 145.6539631  27.7119327
  74.1192007 145.4242039  26.6327977  83.1842995 137.9267120  54.2416191
  83.0923557 137.8902817  53.2895422  82.4059582 138.3974934  54.5395708
   2.8302985 125.1693153  58.5515928   3.6909323 125.3119469  58.1576395
   2.2093611 125.4315281  57.8719568 107.3761654  16.1532955  96.0940170
 107.9495907  16.6762143  95.5336857 106.4906693  16.3942128  95.8218002
  91.7959690 130.6269741  77.0845461  91.4937592 131.2563515  77.7393675
  92.7420902 130.5756664  77.2204113  67.8676128 133.3983994  42.9668236
  67.4671173 132.8904057  42.2612953  67.1833324 134.0092850  43.2403564
  81.4612007 123.4780121  63.2206917  82.4058533 123.5071659  63.3723927
  81.3648891 122.9898453  62.4029827 106.5359688 117.1346664  68.4483862
 106.1859226 117.1395016  69.3392706 106.6985607 116.2103939  68.2599497
  83.6463547 139.0874100  71.6055107  84.2132187 138.3675385  71.3285971
  82.8012753 138.6732197  71.7802143 105.9822083  34.2328053  60.1234818
 105.6962776  33.3810597  60.4536438 105.3646851  34.8570042  60.5046225
 101.7019844 133.6885071  27.8490710 101.7045021 134.5544720  28.2569075
 101.7043877 133.8666725  26.9086027 102.8087902  11.5157299   8.4740678
 102.7862549  11.2320214   9.3879834 102.6657486  12.4613743   8.5132448
 101.6139317 136.7502975  56.2601185 101.1335564 137.5245380  56.5534163
 102.3024178 136.6333675  56.9147491  83.4317493 118.6856842  55.5048752
  82.8533554 117.9916573  55.1886225  83.7400341 118.3717346  56.3549519
 104.6982861  21.7823773  69.5617914 105.2104282  21.2774639  70.1934624
 104.1655922  22.3685246  70.0992727  85.6498146 129.8151207  68.9079046
  84.7670269 129.6265125  69.2262554  85.7549953 130.7576084  69.0378094
   9.5099383   0.5556374  39.1796994   8.6385565   0.7123165  39.5435333
   9.3976718  -0.2035350  38.6076188  78.3660698 131.2956715  44.2719555
  78.2422972 132.1092129  43.7830162  78.2421064 131.5453434  45.1876688
  86.0026741 114.6761799  44.9803638  85.6264782 115.5558777  44.9513578
  85.3674507 114.1602898  45.4769373  86.2198162 124.2226315  42.7494192
  85.4195499 124.5805073  42.3650837  86.1762524 123.2847118  42.5632906
  90.5821705 131.2493706 100.2790642  90.4510975 130.3512001  99.9752045
  89.9459743 131.3583374 100.9858990  95.4834652   5.6269818  63.1264019
  96.2443924   6.1631470  62.9033375  95.5477715   4.8673230  62.5475979
 110.3138924 135.5638027  36.9193578 109.5930862 135.4068279  37.5293088
 111.1003494 135.3317070  37.4131513 118.5498047 142.9965591  65.5175686
 117.9127789 143.7101650  65.5519915 118.0550766 142.2209072  65.7818270
 102.5285435   6.3787823   9.8668233 102.4508286   6.9648152  10.6196538
 101.6942024   6.4685135   9.4063226 114.8323917  22.2247105  77.0007992
 114.9262428  21.2854748  76.8418503 114.3092632  22.2812062  77.8004122
 111.2568665 141.9567108  44.8554564 110.3826714 142.0974922  45.2190304
 111.4388943 142.7518940  44.3546724  24.1172152 118.2073402  78.3023787
  24.6016913 118.6806393  78.9787626  23.1967955 118.3467102  78.5251760
  99.2621517 144.6466351  85.0790977  99.7620010 143.8653946  85.3158474
  99.9217033 145.3341961  84.9870682  75.5817270 124.9957848  50.1866531
  76.3331079 125.5887890  50.1883268  75.7761049 124.3648338  49.4935799
  84.6794987 132.1165752  44.7005606  83.8191795 131.9555473  44.3130779
  84.6058178 132.9857826  45.0946045  75.1883745 110.4100418  34.8433590
  75.6495190 109.9938393  35.5716085  74.2656326 110.3809166  35.0962043
 117.9206944 124.0552616  91.1681271 117.8134346 123.9946270  92.1173573
 117.7244854 123.1747150  90.8481789 116.7048168 136.6100121  96.1599922
 115.8848572 136.4008236  95.7126331 116.6898251 136.0719776  96.9515228
  13.5629016   5.8447056  86.1141014  14.3394785   5.9264736  86.6676998
  13.9055281   5.8379345  85.2203465  86.0306549  10.1871758  96.8153095
  85.6397343  10.8560448  97.3774719  85.6240654  10.3257161  95.9599018
  99.0419579 137.9147434  28.6916733  99.6536827 138.5469627  28.3144116
  99.0455532 138.1080532  29.6291447 106.3021851 117.8838921  43.9339209
 106.5514755 118.6726856  43.4523773 106.4129353 117.1728897  43.3026981
  84.7101688 118.2855606  71.1021042  84.2117691 117.6445389  71.6089773
  85.6193447 117.9957867  71.1773109  97.2000599 120.3655338  97.3726654
  96.9119453 120.1498222  96.4857101  96.4517212 120.1459122  97.9276371
 102.1273422  12.9124432  84.8115826 101.3777733  12.7541809  84.2377090
 101.7604351  12.8937226  85.6954765  95.8533192  13.3361702  65.8111191
  96.4036560  12.7243882  66.3000774  96.1809540  14.2015248  66.0561991
 109.7667217 143.1903934  63.8732004 109.9549294 143.7579441  64.6206617
 110.5938530 143.1436062  63.3937263  89.8861122 101.1479473  85.6588364
  90.0602341 101.9532871  86.1460114  90.7526398 100.8268929  85.4092598
 115.6712723  12.4684506   1.3315622 114.7220421  12.3600273   1.3902036
 115.9163094  12.8847199   2.1579496 105.7213783 137.7642345  93.3591366
 105.5514717 138.7037277  93.2904625 106.1910343 137.5463009  92.5540543
  11.8009120  12.9596978  85.2927113  10.9221297  12.9640560  84.9132919
  11.7290240  12.3877507  86.0568714  87.2878265 131.3883400  98.4433842
  88.1472206 131.5226269  98.0438423  87.2711468 131.9935989  99.1847420
 105.3524971 121.7539406  59.9772358 105.2366352 122.0835590  60.8683872
 106.2425423 122.0138550  59.7395468 123.0940628 123.9569759   3.6404268
 122.2524738 123.5260105   3.7895242 123.7034035 123.2392693   3.4676973
  94.9808502  98.3135605  60.1132011  94.3659973  98.1325245  60.8241272
  94.7310829  97.7033520  59.4193125  97.8658104 117.2128963  36.9222999
  98.5123444 116.6979599  37.4050570  97.3040962 116.5605259  36.5038133
  63.6206245  18.8273411  39.0816879  64.1429806  18.7125187  38.2878399
  64.1803551  19.3403225  39.6645975   4.2012816 112.9926777  63.0563307
   3.6877375 112.2072601  63.2450819   4.5368319 113.2700443  63.9088011
  79.1573429 115.2862358  59.4629717  78.2440329 115.4537964  59.2305374
  79.3149757 114.3853569  59.1804790 109.6114254  95.9569454  98.2470989
 110.5307293  96.1197758  98.0358982 109.6395111  95.3545094  98.9904022
 102.9216194 118.4165382  58.5300875 103.3417511 118.5142612  57.6755857
 102.0371532 118.1110001  58.3285761 122.4196339 114.3605232 108.8439369
 121.9828701 114.6131134 108.0305099 122.7409363 115.1848698 109.2092419
 110.4263020  40.3963642  84.1092873 110.7366276  40.1633816  84.9842930
 110.5905342  41.3367825  84.0394306  98.5694313  46.8256359  46.6814232
  99.3076134  46.6188984  46.1082077  97.8701115  47.0922070  46.0846615
  83.9558506  17.0834523  57.9683971  83.2680893  16.5996533  57.5110626
  83.9419460  17.9536991  57.5699902  89.1469765 145.4711151  54.2076778
  89.8611069 145.4912281  53.5706186  88.4731674 146.0364532  53.8300705
 105.1087761 116.9210052  90.1751614 104.4988251 116.9048977  89.4376469
 105.8561993 116.4013672  89.8792267 104.6513271 123.8641167 101.9823074
 105.0316429 123.4256268 101.2211800 103.7176418 123.9266872 101.7809391
  93.7320995 138.0325890  46.5948153  94.5814228 138.2992554  46.9466352
  93.5877705 138.6157227  45.8495951 109.6743202 117.2400188  60.3781462
 110.0388241 117.5629139  59.5540667 109.1434860 117.9659367  60.7059860
 122.9289436 119.5345783  54.9867153 123.3369064 118.9883232  54.3148470
 122.1710014 119.0284252  55.2792311  93.9579773 122.3070908  72.5244236
  94.1533852 122.4119759  71.5932703  94.0807438 121.3725471  72.6911306
   6.6780120 140.2717495  71.6884947   5.7806807 139.9746990  71.5375090
   7.1281558 139.5043087  72.0415163  96.1854553 135.4943085  87.4949455
  95.2775574 135.1974297  87.4331474  96.3071632 135.7014656  88.4215069
 108.3336163 111.8496418  98.3966351 109.1457176 112.3556995  98.3715343
 108.6126518 110.9594631  98.6110020 108.3749008 114.2793941  38.3013773
 109.2231178 114.6719074  38.5080099 108.0926132 114.7256184  37.5029898
 121.9033718 105.0849533  83.4626198 121.0969543 105.4393482  83.0880260
 121.6161060 104.3351460  83.9836788  84.6164703 137.3996258  64.5421600
  85.2775574 137.4875546  63.8555193  83.9052010 136.9104290  64.1286135
  79.2556953 116.7580700  51.2269306  79.8521185 117.4960327  51.3530636
  79.8176146 115.9847641  51.2766790 109.8422337 128.4403992  50.9615755
 109.2013073 127.9643726  50.4335260 109.4822502 129.3242073  51.0359287
  78.8812208 127.0918083  60.5287123  79.7647810 126.9339752  60.8613443
  78.5722113 126.2294388  60.2510977 108.1978798 125.7779408  59.0091610
 108.1719017 126.6568184  58.6308289 108.7717342 125.8618546  59.7706604
 108.8786697   8.2099324  35.8267379 108.2827377   8.9334278  35.6326866
 108.4305382   7.7061634  36.5061641 116.9572639 119.5785141  35.7476783
 116.4203262 119.8352718  34.9980092 117.8378773 119.8816299  35.5265784
 124.3041515 117.6579475  53.4952497 124.8305321 116.9313526  53.1617546
 124.4102859 118.3499622  52.8424978 119.7387505 117.5082302  94.8178196
 120.4878712 117.2722816  94.2706585 119.4152451 118.3265305  94.4410419
  90.8309650 130.0298500  18.6480403  91.6239262 130.4791641  18.9405501
  90.1478767 130.3371239  19.2440271  89.9843884 118.1818962  80.3314114
  90.3329563 118.4871387  81.1689949  90.2427006 118.8571644  79.7041035
 109.8980522  29.8841458  84.2733574 109.6140480  29.6646481  85.1607132
 109.1867924  30.4180508  83.9194107  98.9918232   7.3700219  32.9607439
  99.0526104   8.3249073  32.9877019  98.6009216   7.1310883  33.8011837
  97.4662971 121.1922932  85.8098412  97.7609253 120.6504154  85.0778675
  98.2283211 121.7262268  86.0345078 105.6746197  15.7224446  27.3791122
 106.6077805  15.8248692  27.5660539 105.5785084  16.0143071  26.4725757
  94.2879677 116.0088539  79.1461802  94.6730995 115.7925892  78.2969856
  94.9724770 115.7965088  79.7806787  94.2110729 121.1205292  58.6259365
  93.6409569 121.8289757  58.9247704  93.9617729 120.9817028  57.7122545
 104.6769047 105.2331066  77.6405239 104.4834042 105.0862503  78.5663891
 104.9439716 106.1511326  77.5943375 120.0108910 132.6750946  53.1296825
 120.1655197 132.3747730  52.2340679 120.2122498 131.9148731  53.6753511
 124.4388390 137.0690727  65.3745842 124.5222187 138.0091476  65.2147532
 123.9460278 136.7410278  64.6224165  85.9229469  -0.1086254  67.3326921
  85.3285694  -0.4404564  66.6597652  85.4841900   0.6691342  67.6773930
  87.2595882  35.6568699  94.1019535  88.1009674  35.2749997  94.3519306
  86.9094086  36.0185986  94.9160576 105.9605694   1.1451226  65.4137611
 105.9616184   2.0540600  65.7138824 106.8619537   0.9839325  65.1348877
  63.5995817 122.5868988  89.0541077  63.1839371 121.9757938  88.4458065
  64.2081022 123.0883408  88.5114479  99.2546272 101.7827511  57.8456974
  99.6360588 100.9048367  57.8472567  98.9864635 101.9289970  58.7528515
  92.7513885 139.2792034  57.6026154  92.6608753 140.0808430  57.0874405
  92.0860481 138.6898136  57.2474003  83.0168819 141.6671658  61.2822104
  83.4758091 141.1591339  61.9511795  82.1032810 141.6691780  61.5677834
  87.1748066   0.4705887  70.6518793  86.8696880  -0.0387878  71.4026594
  86.4407158   0.4552727  70.0377893 121.9420815  23.6313420  48.4810257
 122.7134418  24.0161496  48.0649137 121.2202072  23.8422947  47.8888893
   6.4026480 114.9155426  74.1874695   5.4786616 114.6803474  74.2721176
   6.6492205 114.6077347  73.3152962 112.4055004 126.9225883  39.9232817
 111.6064358 127.1705151  39.4582510 112.4508095 127.5295734  40.6620359
 121.6027546  95.1109219  54.4529438 120.8400631  94.6382236  54.1196394
 121.3057709  96.0171700  54.5351267  81.7263603 139.8753643  33.0085826
  82.3207378 140.4474163  33.4940815  80.9135532 139.8902321  33.5139179
 102.0596504   1.4718132  56.4741468 101.9072723   1.2746220  57.3983335
 101.3483620   1.0264569  56.0137701 124.5467663 139.1606140  85.4060555
 124.8058605 138.2773399  85.1435280 124.3588161 139.0869427  86.3417244
   2.5498801  22.4748974  34.6257854   1.7981940  21.9839650  34.9577308
   3.2239752  21.8111401  34.4799638 111.5706635 140.8939171   7.5173703
 110.9139061 140.8717918   6.8213788 111.8654442 139.9867630   7.5974504
  91.8191433 120.6180286  41.2534714  92.3413563 121.3638401  40.9580183
  91.4457321 120.2540970  40.4507542 117.2171307   7.5807553  29.7030878
 117.7600765   7.0293980  30.2665138 116.6165733   8.0203038  30.3050494
  56.5219116 131.9214439  45.0859213  55.8177662 132.5493431  45.2476215
  57.1019459 132.0120907  45.8419466   6.5380126 118.7896347  11.2566566
   5.7122641 119.0863991  10.8741593   7.1148997 118.6535645  10.5050516
  15.8404093 138.4619331  52.7952862  16.0404234 138.4150791  53.7301826
  16.6815978 138.3152103  52.3627377  83.4155750  22.8190976  41.1960745
  83.6624336  22.0199566  41.6615582  83.7299061  23.5291272  41.7558098
   2.9040270 117.5082397  37.7456045   2.8587466 117.4847317  36.7897654
   3.5560351 118.1821156  37.9379940  86.7652130 135.4773521  47.8302765
  87.5925159 135.8757496  47.5599146  86.3154793 135.2784920  47.0090437
  75.9008360  21.9417172  30.7864714  76.7830992  21.9729405  31.1564207
  76.0340786  21.7029553  29.8691535  96.4836884 112.4025249  52.3988342
  96.6080666 111.5410042  52.0006561  95.6189728 112.6825237  52.0986748
  66.8072224 132.6787853  40.3997040  67.3893547 132.4857426  39.6647954
  65.9896946 132.2311974  40.1816559  80.4137135 121.7339420  26.8827367
  79.7357416 122.4093151  26.8613601  81.0164928 121.9773483  26.1801410
 116.9773960 118.6794567  12.9427123 117.1179485 117.7782249  13.2329774
 117.7573299 118.8901329  12.4293470  89.1607761 125.0698757  14.0748167
  89.0150833 125.5618668  13.2667601  89.1303444 124.1519547  13.8051426
  99.1078377 130.8171749  51.8480682  99.2201996 131.7638683  51.9339514
  99.9999619 130.4732513  51.8025923 116.2600708  82.7494717  81.2470341
 117.0942879  82.8427982  80.7870197 116.4492321  82.1467113  81.9661522
  55.9649038  18.3843594  57.5961399  55.2036047  18.3779126  58.1763268
  56.4739752  19.1445904  57.8774166  99.2821503 125.1113796  46.0565376
  99.7716236 124.4332981  45.5908585  99.5418453 125.9288025  45.6315613
  77.7666855 142.9126167  50.1191950  77.8056049 143.7136269  50.6417894
  77.4060106 143.1927586  49.2779636  98.9437008 128.3687592  23.7837005
  98.7289047 127.4752998  23.5157013  99.8981953 128.4129143  23.7269330
 110.5069160 134.8998833  28.3764410 110.8513641 135.3012753  27.5786519
 110.8302212 133.9993191  28.3502960 124.1413116 141.7169094  55.6129789
 123.4947681 141.7279434  54.9072218 124.2954350 140.7874584  55.7820988
 117.7254868 131.2591553  27.5065637 117.0415020 131.4693642  26.8707848
 117.8288651 130.3097439  27.4420452  95.1182842 137.9367256  20.4866910
  95.3213978 137.0017529  20.4581428  94.2640686 137.9832458  20.9160900
 101.6984558 128.2349014  48.6228657 100.8189201 127.9348564  48.3934927
 102.0367813 127.5586128  49.2097330 123.6062431 127.7838898  22.4597669
 123.0484104 128.4109020  21.9994307 123.2248402 127.7218628  23.3355021
 105.6600761 109.8995018  71.2945127 106.5304279 110.2385521  71.0853434
 105.4932213 110.2022934  72.1870995 123.8444996 112.4360371  35.8867931
 124.5494938 113.0268669  36.1516476 124.1989994 111.5591335  36.0337663
  85.5088806 126.9308758  47.7627134  86.0776043 127.3731518  47.1324921
  85.2442646 126.1238003  47.3213053  91.4928246 139.3064785  17.0914364
  92.2903824 138.8455582  16.8312383  91.5074539 140.1167488  16.5820467
  99.3244171  26.4091091  28.3671427  99.8236084  26.1230641  29.1321397
  99.6970844  27.2618656  28.1431365  83.8683605 129.1233253  38.7873864
  84.0332317 128.9335918  39.7109938  84.3872070 128.4736538  38.3130884
 105.6523132 128.2169724  33.6252427 105.1560688 127.8148746  32.9122925
 105.7813644 127.5089264  34.2563152 108.2700920 134.2341137  18.6078465
 107.7354336 134.4301891  17.8384769 108.0986404 134.9584961  19.2095935
 100.8420849 134.2103386  19.4189167 101.4052391 133.4737206  19.1812527
 101.3139629 134.9827671  19.1075969 106.7319393 123.7841129  46.3408327
 106.9746780 124.1786671  45.5031872 106.2601566 124.4763756  46.8038893
  86.1556721 110.2413464  32.9467916  87.1127224 110.2259636  32.9539466
  85.9030247 109.3379974  32.7560925 115.3459740 139.6556854  51.0902596
 116.0361099 139.6541786  51.7535448 114.6333313 140.1564693  51.4872456
  81.8921852 122.6395798  60.6340647  81.8249702 121.6937256  60.7647514
  82.1288300 122.7377224  59.7117853 107.4510574   4.9224549  24.4088769
 106.6232109   4.7961502  23.9452600 107.1932316   5.1354199  25.3057599
  93.8136196 129.9127579  27.7273393  93.1691551 129.8752117  27.0205879
  94.5933628 130.2906513  27.3206258  80.8589649 140.2941227  59.2835426
  81.3599396 140.1971149  60.0933838  80.8595657 141.2359810  59.1129017
  86.5885067  96.4858437  93.9918232  87.1090221  97.1880627  94.3819427
  85.8939648  96.3200474  94.6292877  91.9602013   4.1214543  57.1156216
  91.0595036   4.2300015  56.8103647  91.8770695   3.6491280  57.9440117
 109.0262985   7.4151211  47.3053694 109.9295425   7.6920681  47.1515036
 108.8833427   7.5720959  48.2387257   2.5681525 114.0800190  61.1361551
   3.4032374 113.6918736  61.3973331   2.5369483 114.9162483  61.6009045
 117.9876137 144.3576622  72.2569323 118.6608124 143.6847496  72.1558094
 117.7683449 144.6136284  71.3610363  79.3966770  16.6195660  53.8322353
  78.7450886  17.3115712  53.7190914  79.0818596  15.9019451  53.2825518
 115.0884438 113.0933762  82.2742176 114.4214058 113.0298328  82.9577827
 115.6910038 113.7670135  82.5894356  93.9745903 107.0375729  26.3378286
  94.7594070 106.4904404  26.3072896  93.5317516 106.8677807  25.5063844
  96.8718338 115.4122257  66.8005276  97.1213531 116.1994362  67.2845411
  96.3341808 115.7358170  66.0777235  91.3463783  22.1191769  66.1652565
  91.1195660  21.9525891  67.0801497  92.0275784  22.7904110  66.2057734
  79.9218178   2.9069214  93.6473465  79.0959549   2.8163033  93.1719780
  80.5117035   3.3308583  93.0240154  85.4240227 142.9758167  29.9722910
  85.3603077 142.3771572  30.7164502  84.6577930 142.7731705  29.4355774
  82.8279209 144.2949677  57.6531839  83.4427643 143.6663437  58.0313730
  83.2649803 145.1417160  57.7438736 116.1098766   7.1757202  46.8092728
 116.2657642   7.0808392  45.8696318 115.1756096   6.9970684  46.9163036
  69.0801525 117.8114700  33.0872822  69.9370384 117.7453804  33.5087276
  68.8061285 118.7154293  33.2421970  97.8789997 128.8788128  59.2607403
  98.1429100 129.1355324  60.1443005  97.6998901 129.7063732  58.8143158
  89.4908905 122.1661568  23.3868122  90.3786087 122.0302105  23.0555868
  89.1983414 122.9733467  22.9636192  26.8087988   4.5115261  18.4030640
  26.7550879   3.8972454  17.6709414  26.8010073   3.9562397  19.1826940
  66.4108515 133.8140106   7.0917243  65.8701849 134.4982433   7.4863642
  65.9125948 133.5264874   6.3266724  54.6762323 134.0972519  46.3962889
  53.7311029 133.9637089  46.3247204  54.8705482 133.9433098  47.3208284
  94.7973251 110.7922173  36.6141653  95.5457973 110.1997185  36.5435934
  94.8788166 111.1782169  37.4862838 107.0949650  27.1400051  64.7110271
 106.9840145  27.9801731  65.1560354 107.8842831  27.2519665  64.1812420
  59.2319059 124.9699497  81.6033268  59.2313814 125.3399944  80.7205486
  59.4501638 125.7080936  82.1723080  71.3942862 139.0496922  51.3476706
  71.9056892 139.8429775  51.1882877  70.7243109 139.3188667  51.9760895
 109.9313736 112.4629879  80.6318951 110.1305771 112.9807186  81.4119625
 110.5331421 111.7199993  80.6774521  87.7202892 135.7232285  34.3208289
  88.2545567 136.5151405  34.3813682  88.1760502 135.1750851  33.6820436
  96.2372875 139.2650032  47.0277834  97.1423626 139.3273449  47.3330212
  96.2401676 139.7057629  46.1781025  81.0417461 114.9088097  46.6255617
  80.1949501 115.3493500  46.5542412  80.8753204 114.0184021  46.3161850
 110.0391483 123.2544613  13.8613105 110.2470779 122.7065182  14.6181142
 109.3848038 122.7528858  13.3750057  16.6507083  12.9876499  38.2952976
  16.8438273  13.4588318  39.1058087  15.8452159  13.3900051  37.9704499
  79.4067717 119.2234802  99.0078565  80.0923061 118.6483765  98.6679646
  78.6267948 118.6699200  99.0458401 116.8995762 129.5130825  48.3682203
 117.1582508 128.9033604  49.0592766 116.7739391 128.9610291  47.5964165
 109.0058708 108.4285164  23.9754486 108.5063076 107.6592445  24.2490983
 109.2531490 108.8573837  24.7946906 101.5442371 130.2816486  16.2453353
 100.9603786 129.6974659  16.7291570 101.0583210 131.1035442  16.1774909
  54.5176220  11.1848240  69.0646648  54.8541594  12.0692520  69.2087507
  53.6172581  11.2155037  69.3881369  91.1783218 137.6310825  60.6450844
  90.4425430 138.1201744  60.2767801  91.9053459 137.8060818  60.0475550
  78.3811903 127.2274113  66.4931345  78.3847380 126.3690472  66.0695505
  77.4705172 127.5172615  66.4393806 117.3403263  11.1034756  27.7145410
 117.7299118  11.9746952  27.6408172 116.9462013  10.9440022  26.8569493
  94.0464211 146.1148548   7.9672140  94.9552536 146.1514854   7.6690286
  94.0876293 146.3594913   8.8917059 113.5478878 130.4076767  40.3591251
 113.1619740 130.2142239  41.2134504 114.4912529 130.3238869  40.4979420
  75.9729004 139.3908024  34.0249848  75.2854538 138.8486671  34.4119406
  75.5578232 140.2424145  33.8882470 106.3829231 127.8750992  80.2367496
 107.1152782 127.3305511  79.9480391 106.3399506 128.5805607  79.5912123
 110.0759888 109.1255283  32.5101852 110.5181885 109.4872379  33.2782102
 109.2440128 108.7931919  32.8472137 114.4106579 136.3287640  65.6410074
 115.3633690 136.4159393  65.6097746 114.2616940 135.4184818  65.8968067
  63.7707663  14.3605976  50.1272869  63.1009340  14.2209034  50.7966518
  63.3460760  14.1087895  49.3072462   3.0549937   3.6909275  98.6341985
   2.4507838   2.9996376  98.9048990   3.3027487   4.1255837  99.4502433
 104.6043015 140.8666992  59.3711185 105.1944542 140.7053089  60.1072645
 103.7376595 140.9408092  59.7706985 117.7107143  22.5108509  46.2137985
 117.3538494  22.8049069  45.3756952 117.8293991  21.5672093  46.1057234
  73.7555265   6.4785080  65.4325056  72.8747892   6.8517094  65.4679441
  73.6170626   5.5327015  65.4824924  80.0683117  18.5900097  39.0764880
  79.2679501  18.0851536  39.2206264  80.0740147  19.2365818  39.7822762
 106.7077637  10.4434376  59.0975761 107.4227047  10.4919510  59.7321987
 105.9126854  10.4737549  59.6297073   3.7517100 141.3589954  38.6575556
   3.9478903 142.1617031  38.1744313   2.8028327 141.2591076  38.5808206
 102.9931355 122.9269886  20.4019952 102.4515820 123.5104084  20.9335685
 103.3357334 122.2852325  21.0240912 100.6474590 145.1255703  34.2409754
 100.4937840 144.5664310  33.4794164 100.9363365 144.5228863  34.9262190
  89.2728615 138.9440346  59.3398190  89.5673275 139.8035145  59.6411896
  88.4816074 139.1261387  58.8328838 100.8376312 143.9022446  54.4143677
 100.2449608 144.5085621  54.8586035 101.4856529 143.6702156  55.0795460
 116.5001297 106.2679100  33.3876419 117.1945572 105.6669331  33.6575103
 115.7903481 105.6970978  33.0933547  74.4426823 133.2852364  56.9832802
  73.6746788 132.7937794  57.2746277  75.1627779 132.6566696  57.0343161
  91.6074753  11.6571789  41.8649721  91.7797375  10.7432061  41.6386604
  90.6577682  11.7481976  41.7875242   8.3479529 132.3186493  30.5266523
   7.4996501 131.8821621  30.6046700   8.1341200 133.2502270  30.4749632
  81.3890171 115.6809425  27.8521061  82.1491814 115.5555248  27.2840834
  80.7283306 115.0823212  27.5037169 112.2192001 134.5577240  38.9308667
 111.8008232 133.8058376  39.3502331 112.6136589 134.1996002  38.1356406
 100.1083469 114.5180321  59.9163389  99.8366928 113.6094093  59.7865677
 100.9939957 114.5571136  59.5553303   6.0426550  24.7871952  69.8098660
   5.7867175  24.6884137  70.7269096   6.6672545  25.5125408  69.8123217
  99.5804024 109.8511410  54.7483063  99.7749233 109.6587849  55.6655788
  99.3293285 110.7748127  54.7453070 106.3415623 118.6740971  51.7278051
 107.0482826 119.1709805  51.3156414 106.1910629 117.9364300  51.1366796
  88.7102795 132.2389507  70.9404516  89.1560364 131.4379025  70.6650543
  88.4705925 132.0780182  71.8530750 102.2435665 143.9779091  46.2832022
 102.1946621 144.7518253  45.7220411 101.4007092 143.9570141  46.7363834
  92.8741646 141.0508728  42.4896049  93.5058594 141.6856480  42.1515751
  92.5389481 140.6081200  41.7099667  58.0799341  18.4277516  19.8064148
  58.9676237  18.7702351  19.9110639  57.8053999  18.7340336  18.9420927
  77.1294498 120.9466743  50.7899714  78.0195284 121.2964153  50.7490635
  76.5696383 121.7215633  50.8388567  91.4449978  84.8829842  71.7233181
  92.0377541  85.1778793  71.0320044  90.7913113  85.5788898  71.7913151
  83.5652637 123.1023693  38.8598990  83.5090065 123.4973431  39.7299933
  83.6452103 123.8468742  38.2636189 102.7347946 127.7356911  73.9441729
 101.9556713 128.1852055  74.2714834 103.4666443 128.2716274  74.2498016
  99.8040199 135.0730419  39.9526310  99.9767399 134.1327000  39.9989963
  99.8751163 135.3745651  40.8583164  95.6797123 139.7907448  44.2685175
  94.7415733 139.9084473  44.4177437  95.7653427 139.7318840  43.3169746
 100.4907894 111.5258598  35.8845210 101.4395905 111.6520405  35.8935547
 100.1539993 112.1990299  36.4758325   0.0367385  12.7043419  14.2354524
   0.0354415  12.8521519  13.2897353   0.9016257  12.9972630  14.5224738
 123.4699726   8.5086327  34.3475437 123.7362766   9.3660050  34.6795368
 124.2066860   7.9329663  34.5527220 116.3299847 135.4343796  52.0336962
 116.2731743 134.7294617  52.6787472 115.9339046 135.0680256  51.2430382
 121.8601513   6.1959343  58.2295370 122.0031452   5.5087834  58.8803911
 122.5791931   6.0893231  57.6067638 103.9842510 146.0242748  35.9830117
 103.8045311 145.7087898  35.0973463 103.7046337 145.3083992  36.5536070
  93.9893436 132.2846889   9.4361639  94.3426800 132.9272175   8.8209093
  94.4123173 131.4614582   9.1919810   0.9301692 127.3776340  66.6537619
   1.8550997 127.1312332  66.6563892   0.5721980 126.9727898  67.4438190
 101.5518761 113.7215424  17.5580704 101.9026089 112.8329468  17.6181781
 101.4867592 113.8902664  16.6181099 120.4197502 143.6812115  18.2048464
 121.1390018 143.6999226  17.5735295 120.5650520 144.4499779  18.7563109
  74.3778896 140.3513718  38.3009219  75.2470875 140.0556469  38.0302238
  74.1692114 139.8138809  39.0649843   5.5716830 131.9926548  11.3160157
   5.8797103 131.9050694  10.4139709   5.8122759 132.8848457  11.5657020
  51.9212008 145.8052254  34.9801087  50.9931421 146.0214233  34.8895860
  52.2169256 146.3266850  35.7263374  96.6051674 123.4316730  47.3452711
  97.2888088 124.0989304  47.2850323  96.2425900 123.5389614  48.2246208
 110.2177620 140.3931713  30.0309062 111.1387539 140.2344608  30.2378392
 109.8356533 140.6948757  30.8550429  60.1413202 127.1140957  44.1687441
  59.6399975 126.3077354  44.0475416  60.9113073 127.0035362  43.6109543
 109.8160172 131.9246101  18.5932362 109.1726971 132.6331806  18.5760832
 110.2223873 131.9490337  17.7269208  83.6030388 132.7044487  70.9713793
  83.7469292 132.2702408  70.1305532  84.0667629 133.5381413  70.8928728
 110.6921387 145.8634472   5.7964915 110.7462788 145.4402924   6.6533691
 111.6038227 145.9993839   5.5384636 100.9144020 141.3668346  40.6753397
 100.8764172 141.1338520  41.6029787 100.4926300 140.6338978  40.2268457
 119.1640377 133.2474995  49.2264795 118.3546162 132.8269482  48.9362955
 119.5167732 132.6554012  49.8907328  65.3619432 137.7014446  41.7898512
  65.0670910 137.3793411  40.9380627  64.8386669 138.4882641  41.9426107
  67.0417833 135.2678680  39.2021322  66.7076206 134.5798779  39.7776651
  67.8372145 135.5772686  39.6354818 109.8750782 138.3847332  50.3234720
 110.3239536 138.7584591  49.5651436 108.9987278 138.1722832  50.0023603
  23.5872202   4.4119435  30.0608754  22.9888278   4.2323857  30.7860708
  24.0191012   3.5742359  29.8936868  18.0537634 144.6130371  25.1858926
  18.0520850 144.9788284  24.3013430  18.6996489 145.1364708  25.6603122
 102.5553513  20.8130818  11.5831757 103.3631229  21.3030987  11.7368722
 102.1833134  21.2061482  10.7936728  95.5251312 128.0594349  50.3189802
  96.0502720 128.8596058  50.3323364  95.7100105 127.6375771  51.1580801
 111.0194492   4.2063790  36.4380884 111.6475201   4.8190480  36.0554767
 110.2588940   4.2499047  35.8585143 101.4343643 141.8115044  93.0851841
 100.8239746 142.4110603  92.6560020 101.9640541 142.3733234  93.6508846
 106.7039108 130.4299450  38.0026746 106.2251282 130.3479004  37.1778941
 107.2397709 129.6381092  38.0483389  90.4442883 119.8145485  38.7987685
  89.9359703 119.0088654  38.7054014  90.9292221 119.8884010  37.9768109
  65.2359533   8.3992939  22.7775812  65.1013088   8.1551724  23.6932826
  65.6522369   9.2602902  22.8179598 119.7465134 141.2261105  23.3833528
 119.1083717 141.5475464  22.7464199 120.5848312 141.2649059  22.9229712
  65.8926153  13.6831265  25.9990549  65.1360559  13.5087948  25.4391837
  65.5886078  13.4780293  26.8832183 103.2266521   3.8541775  75.0428391
 103.2769108   3.1964760  74.3491983 102.9649544   3.3620529  75.8210182
  87.7667236  19.7298985  36.8888211  88.3920193  20.3480320  37.2671533
  87.1465397  20.2795582  36.4097857  64.2797518 104.2719555  10.5925560
  65.0102043 104.6748543  10.1231503  64.6805286 103.8806534  11.3687551
 113.2708168  23.3322316  47.8589249 112.8020954  24.0849667  47.4984646
 112.7572346  23.0744343  48.6244249  81.0055637 139.4943810  54.9900055
  81.1627102 139.8837280  55.8502054  80.0928402 139.2075729  55.0200462
   1.2104922 145.2144623   4.5685181   1.9090396 145.0024986   3.9493722
   0.5444556 144.5439148   4.4169158  61.4520168 139.1651154  58.1659603
  60.5726767 138.8064861  58.2858944  61.3097715 140.0112915  57.7417183
   1.9012671 129.1896152  20.1729441   1.5963965 129.6133518  19.3706155
   2.1964579 129.9115753  20.7278109   2.9257136 134.3815994  97.5227070
   2.2134333 134.2767239  98.1534958   3.2123786 133.4879684  97.3343754
  99.5936489 111.4085007  14.5944142  98.7312412 111.1684322  14.2555106
 100.1074123 110.6031322  14.5340061  87.5884724   7.9801064  21.8442917
  86.6696072   7.8234368  21.6266656  88.0503750   7.2171574  21.4967442
  93.4673882 118.8586712  63.6795902  93.6045456 118.5907364  62.7709532
  92.7003384 118.3610439  63.9628601  76.0610056  89.2996788  38.5617542
  76.4437294  89.8935127  37.9159117  76.7455292  89.1903305  39.2218328
 102.1213341   3.5179501  64.9076986 101.6658783   4.1614132  64.3647909
 102.8153801   3.1769352  64.3435621  58.4970474 143.9248562  71.9431257
  58.2075071 144.5764446  71.3045120  57.9459095 144.0799141  72.7102184
  92.2445488   7.6013260  86.3060474  92.8449345   8.3466797  86.2910938
  92.7530861   6.8768006  85.9417915 109.1855717  14.4304447  46.4208698
 108.3759975  13.9402752  46.5642929 108.8939381  15.2964573  46.1359167
 116.2536240  10.7984619  25.4978037 115.4161549  10.4680615  25.1726532
 116.7237663  11.0748177  24.7111511  90.6666756 140.9048748  60.6920815
  90.3048134 141.6393757  61.1878538  91.3328171 140.5314159  61.2691498
  83.3098698   4.4370537  56.2887192  82.8983212   3.6799603  55.8720016
  82.5947952   5.0616436  56.4103365  93.7249851 139.6608067  29.1041780
  93.2284641 138.9486313  29.5072985  94.5947647 139.5998859  29.4991422
  90.6923389 112.4397278  63.7246132  91.4498997 112.7796364  64.2008305
  90.8851242 112.6236248  62.8052378  87.8338814 117.4809933  45.8259773
  87.5835991 118.2165241  45.2668858  88.6288166 117.1328259  45.4221392
  96.6666031 127.6029301  41.4505768  97.1226406 128.1653881  42.0766020
  96.0366821 128.1826591  41.0223770  84.6249199 122.3776150  50.5659151
  84.8600483 121.7120552  49.9194145  85.4248047 122.8899193  50.6840372
  94.9922371 145.7638550  21.7902994  94.7408104 144.8765564  22.0466733
  94.7812843 146.3023853  22.5530052  98.6934757 136.2263012  12.4494624
  98.5109425 136.8865585  11.7809010  98.7441063 135.4023743  11.9648731
  97.1152020  11.4179974  25.5934381  96.8548584  10.9518509  24.7989845
  96.6774082  10.9465008  26.3021374  85.6778622 141.9437408   7.8827286
  85.7188606 141.0835457   7.4648571  86.4454460 141.9693184   8.4540284
  13.8312369 137.8859329  56.2134600  13.0069571 137.5543594  55.8573151
  13.9009314 137.4773693  57.0762730 100.5673504 124.2285919  40.3867912
  99.8573589 124.2119217  41.0285568 100.3839016 124.9971962  39.8465753
  99.5014572 136.4535999  59.4786263  99.7199249 137.3487663  59.2194366
  99.6151829 135.9384727  58.6799097  90.4526329   5.9031754  64.6595573
  90.0378609   6.7654972  64.6839666  89.7840405   5.3261738  64.2903852
  78.4927607 145.4035187  27.4095058  77.9856682 145.7514477  28.1430173
  78.6291122 144.4817257  27.6284528  74.8688173 133.2933044  30.4078102
  74.8329496 134.0955639  29.8869228  75.8007479 133.1631374  30.5832911
  97.2343731 142.7369213  71.3259172  97.0965767 142.2051525  72.1097994
  96.9585705 142.1736050  70.6028366  86.8440723  98.6939240  41.3835907
  86.7373657  99.2317390  42.1681929  87.4846935  99.1680813  40.8534908
 110.4603958 124.9611568  70.7535601 110.3603554 124.0712738  71.0916901
 110.8508015 125.4501438  71.4779282  96.6301441 127.8352737  37.1378756
  97.1420288 128.4555244  36.6187429  96.2203312 128.3717823  37.8164339
  83.3985710 142.6175690  67.1579075  83.1852150 143.3438206  67.7437925
  83.1101513 141.8363762  67.6299191  69.7050714 143.4144974  66.4138556
  70.3125286 144.0335274  66.8188572  69.3433046 142.9186153  67.1483326
  87.2839069 112.4261475  30.1323032  86.5899086 112.9897976  30.4742193
  86.9145107 111.5437698  30.1665974  81.6606617 105.3245258  24.7464967
  81.4374256 106.1385918  24.2951870  81.4719772 105.5020142  25.6679773
 122.1363544 113.2136726  71.5497637 121.9052601 112.6787281  70.7903862
 123.0315971 112.9512787  71.7640781  68.4822941  27.1637898  51.3407183
  67.6544094  26.7113095  51.1792135  68.5881329  27.1373921  52.2916842
 103.9288521  11.6278057  36.3881207 104.0345001  12.2532063  35.6712174
 102.9916763  11.4334183  36.4002347 104.8652077 125.3730011  37.2587061
 105.3368855 125.8977604  36.6118884 104.5193672 126.0133457  37.8804636
 119.6865654 115.2792740  32.3310471 120.6269932 115.3928185  32.4687147
 119.2922401 115.5044651  33.1736779 100.5299568  75.7590580  34.3791580
 100.5153370  75.6672573  33.4264827 100.9765053  74.9710846  34.6888876
 113.4046459 137.3184395  13.8894749 114.0315723 137.8347969  13.3829415
 113.1796074 136.5855026  13.3164191  76.9727564  25.6542187  23.0759907
  77.8687620  25.3177433  23.0897665  76.7852974  25.8737545  23.9886212
  68.1990051  12.4414807  81.0096169  67.2514772  12.3954087  80.8819294
  68.3926773  11.7330628  81.6235161  85.9089851 109.3426228  68.1094074
  84.9746704 109.5416737  68.1699276  86.0481930 108.6484337  68.7535715
   2.7650481   3.0017453  25.4657531   1.9893389   3.4306698  25.8270431
   3.4836608   3.2949524  26.0259819  73.4973717  -0.0350494  44.0564251
  73.6285305   0.8820801  44.2970419  73.5602474  -0.5112476  44.8843861
  98.6076736 115.9885597  23.2442069  98.1694603 116.8115520  23.0276871
  98.1729031 115.3345299  22.6969934 103.5315132 138.4735298  30.8352661
 103.2783699 139.1122627  31.5017343 104.2850208 138.8697815  30.3977180
  92.2756100  19.0298825 104.8203569  91.6057396  18.3658772 104.6572491
  91.8706417  19.6298580 105.4466697  92.0881271  13.0505352  39.4475269
  91.8876934  12.5357991  40.2292585  92.8062057  12.5775700  39.0269375
  80.6864834 121.9402885   6.8098646  79.7297382 121.9168949   6.7918414
  80.9340858 122.2772121   5.9488159  87.6201725 145.0733471  28.4325480
  88.2627583 145.2826595  27.7546787  86.7745113 145.2717209  28.0303741
 121.6026688   4.5775681 104.0522584 122.2011566   5.1615029 104.5181676
 121.6758633   3.7419777 104.5134100 100.7454300   2.1444016   6.2170863
 101.0494328   1.4715939   6.8263030 100.7017612   2.9424172   6.7438686
 116.7760468 143.7077332  32.6949596 117.1052742 142.9508209  33.1796455
 115.8705044 143.4811020  32.4831343  83.6178780 126.7695808  59.0165567
  82.9007149 126.1400414  59.0912962  84.3400574 126.3684464  59.5000553
 105.8773136  96.0751438 106.2015122 105.3520012  96.8585014 106.3646983
 105.4317570  95.3821659 106.6888546 101.5279961 121.7143726  18.4258878
 102.1921921 121.2570953  17.9101551 102.0263290 122.3171616  18.9777482
 101.2058067 112.8690529 107.2629639 101.2768459 112.4915504 108.1397074
 101.6695309 113.7042236 107.3235006  82.1559906 146.1253071  12.1271896
  82.6258373 145.2935123  12.1871936  81.2533951 145.9078979  12.3601961
  17.3591071  17.2271138 109.1152431  17.9227000  17.6229458 109.7800037
  17.9213362  16.5917378 108.6720378  85.4599953 135.0819016  16.1812675
  85.1676846 134.4177818  15.5569792  86.3060474 134.7611427  16.4935839
  85.2912235  24.1680317  53.7423325  85.7181072  25.0247174  53.7516546
  84.5219898  24.2897778  53.1858301   0.8413535   5.4389172  40.1282215
  -0.0414438   5.5105000  39.7652173   1.1672717   4.6001988  39.8017812
 111.0584354 112.5920010  62.6634455 111.8435955 112.1939087  62.2875881
 110.3334141 112.1885109  62.1861839  89.5449162 121.9344425 107.9852074
  88.7551212 122.1240425 107.4787324  90.1452923 121.5386105 107.3534680
 107.8139687 115.1317978   8.0864376 108.5454941 114.6508884   7.6993519
 108.1467724 115.4347801   8.9312309  98.9145947   9.4246941  16.0090494
  98.3816147   9.8874359  16.6556048  99.7623825   9.3069916  16.4375663
  68.0011654   3.1118470 107.0586204  68.8439035   2.8142624 106.7158904
  68.1287527   4.0446549 107.2313341 112.2375584   1.7781811  49.8312712
 111.9427586   2.6702290  49.6480465 111.7459011   1.5187340  50.6104994
 102.5901413 112.8061295  28.2433343 103.4611034 113.0860519  28.5249496
 102.6467514 111.8514538  28.2030892  95.3383923 125.3828049  33.8543749
  95.6206226 125.7318306  34.6998072  94.6524239 124.7519112  34.0726590
 101.5112209   4.3823033  47.5262594 100.5770683   4.3460160  47.7318525
 101.6613197   3.6256008  46.9595957  93.6699581  95.6307507  16.0950577
  93.5841751  94.9209309  16.7314839  92.9297352  95.5099297  15.5003154
 103.1238937 129.8380947  14.0227759 104.0276718 130.0062084  14.2895448
 102.5938606 130.1853943  14.7401822  96.0198498   8.2073479  29.3081713
  96.9171715   8.3829003  29.5913959  95.7942104   8.9526825  28.7515783
   1.8933135 138.9085197  10.0777900   2.6407271 138.6578369   9.5348674
   1.5702181 138.0821323  10.4368317  93.4189606 143.4622765  22.5638247
  92.5927830 143.6677551  23.0013633  93.6628914 142.6016998  22.9046035
  80.7701492 109.2794609   7.7887726  81.2185478 108.6512661   8.3549315
  80.7642746 108.8633442   6.9267726  97.3585415   5.9992962  34.8619246
  96.5510273   5.9615593  34.3493438  97.1424103   6.5579300  35.6085491
 113.9027786  19.8170262  10.6993330 114.3843365  20.3214627  11.3549972
 113.2875347  19.2888050  11.2079287 105.3762341  12.6025944  27.7060914
 105.5180073  13.5487156  27.6749015 105.6230927  12.2945385  26.8340850
  93.6015987 107.0455742  35.9280872  92.8982258 107.6162052  36.2377453
  94.4040871 107.5353336  36.1080050 122.8286839  17.3447209  17.5265300
 123.6388206  17.0601063  17.9495108 122.8528118  16.9342785  16.6621292
  12.5010901 146.1894703   2.8311884  13.2581359 146.1880589   3.4169444
  12.7004748 146.8656921   2.1837294  18.3779460  10.7530766  30.8144355
  18.0295973   9.8902207  30.5900002  18.3077174  10.7991104  31.7679429
  87.1794510 133.2727051 100.7390317  87.7801228 133.8619804 101.1952945
  86.4665031 133.1286049 101.3612666  94.5169544  24.1511326  18.0453384
  94.6432114  24.9736195  17.5722587  95.2692795  24.0958004  18.6345482
  99.6306896 140.9433651  55.3604317  99.6832848 140.8760738  56.3138151
 100.4592228 140.5793858  55.0485516 105.8217335  92.4395180  18.4480953
 106.2381744  93.3013439  18.4400082 106.5421677  91.8267632  18.5955191
  72.2539473   8.8116722 106.5374022  72.7612352   8.7258892 107.3445775
  71.8371916   9.6705990 106.6065794 113.4975338 124.4935989  40.4264641
 113.5803699 124.6001625  41.3740969 113.3786106 125.3836060  40.0948429
  88.0686665 141.1784935  17.8373134  88.6181068 141.8293285  18.2740819
  87.3860264 140.9737206  18.4762919  52.9138851  16.2706738  42.0542431
  52.5808382  16.4195233  41.1692858  52.2134924  16.5796833  42.6288700
   4.7869425 144.2690563  38.2571125   3.9570170 144.3940258  38.7173676
   5.0141936 145.1402855  37.9322124 110.8753777  24.3854695  17.5927198
 110.2940273  25.0069790  18.0309010 110.7348061  24.5433026  16.6591454
 116.3478088 120.0729656  20.1525116 117.2179699 120.3080368  20.4746795
 115.7917404 120.8100224  20.4050159  87.5769520   0.9030323  43.2432079
  87.2127342   1.6118412  43.7734604  88.1063461   0.3929978  43.8562632
  74.7736883 113.0832195   7.0108080  75.2535725 113.4032917   6.2469369
  73.8797808 113.4004593   6.8822861  98.7931252  10.9300976  10.2292442
  98.3821869  11.7370110  10.5395114  99.2647266  11.1903935   9.4379997
  92.1076870 117.9349232  13.4830868  93.0173492 117.9600811  13.7799048
  91.5962315 118.1656647  14.2585945 109.1780281  34.4717579  51.4761639
 108.9220905  35.1585369  50.8604956 110.1237106  34.5804768  51.5766811
 119.7115326 140.5772018 103.2790592 120.0937462 140.1092911 104.0214881
 118.8651562 140.8870983 103.6013004 118.4465790  10.0214749  48.6142778
 118.1728077  10.4094582  49.4453907 118.2681942   9.0865689  48.7161016
 103.4852791 124.6676064   0.3971839 104.2428398 124.4256783  -0.1355529
 102.7637100 124.1534805   0.0349192  87.5387859  10.9328728 103.3668705
  87.8274059  10.2210884 102.7956518  88.1669426  10.9300595 104.0891185
  97.0198631 140.8084774  23.2180023  97.6346493 140.0847530  23.0975842
  96.6456699 140.9520149  22.3487473 121.6532898  21.5496235  32.8976750
 121.0060215  22.1196347  33.3128357 121.5974617  21.7625218  31.9661188
 107.5615978  13.5542660   6.5036345 106.6128635  13.4620457   6.5909678
 107.8960323  12.6596146   6.5669227  81.2527466   6.1564045  56.4002228
  81.3695526   7.0065384  56.8243265  80.3218079   5.9612160  56.5073109
  75.2828264 118.5570145  47.5533867  74.5415115 119.1372967  47.7264881
  75.7466936 118.5052395  48.3890772  69.2085075  82.6259613  18.1910610
  69.6866465  82.6825237  19.0183556  69.3174934  81.7164993  17.9131305
  77.8196716 123.6282921   0.8513809  78.5725832 124.2193413   0.8562590
  77.7736807 123.2915974   1.7462295  67.5449848  11.1337929  46.4092875
  66.9061852  11.8395310  46.5097904  68.2863283  11.4027100  46.9518137
  78.6484289 129.4029140  18.4972429  79.3802500 128.8640881  18.1966817
  78.0067873 128.7734127  18.8262475  71.0065222   8.5808258  14.7207248
  71.9447565   8.7053757  14.8636723  70.5909586   9.2582016  15.2543056
  89.7692585 124.2032909  33.3105755  89.6968365 124.3145466  34.2585254
  88.9507866 123.7770844  33.0562234 109.2242908  11.8979149  37.7767944
 108.7234020  11.1764508  38.1573510 108.5686874  12.4382668  37.3358583
  75.8994865 121.8477249 109.6854611  76.5390301 122.5023174 109.9660320
  75.6215429 122.1409702 108.8177159  85.1832962 134.8531818  26.4420772
  85.5012608 135.6752586  26.0688090  85.6174374 134.7927570  27.2930145
 107.9500294 126.9493961  49.4679308 107.3547554 127.0052147  48.7204313
 107.3737812 126.8572330  50.2266598  95.1460457  10.3589993  27.3128486
  94.7459507  10.9360390  26.6623235  94.4913864  10.2913170  28.0078793
 117.2998810  99.9625683  82.0037540 117.6936626  99.1749477  81.6285022
 117.1393681 100.5319309  81.2512287  91.7495823  21.6455059  43.1032133
  92.2184753  22.1685963  43.7533951  92.2681141  21.7361050  42.3037529
  94.5189285 131.1124611  68.5173273  94.7533894 130.3681564  67.9629993
  94.1662598 130.7160473  69.3140173 100.1984119 107.5522232  23.7604809
  99.6754074 106.8074417  23.4638524  99.7411728 107.8712463  24.5385504
 100.2805805   9.1873436  71.9382334 100.4461765   8.2455330  71.8959618
 101.1419392   9.5752888  72.0924997  48.2721615 105.3761864  48.2923317
  47.6007605 104.7103310  48.4409857  48.7363291 105.0778389  47.5101757
  26.5636378  87.9532814  50.6733656  25.7037860  88.3443546  50.8280945
  26.7152529  88.0714130  49.7356606 118.1244946   0.4736786  16.6574264
 117.7135086   0.4716282  17.5219035 119.0205860   0.7689076  16.8189371
  78.5005617   0.9561520  15.7693887  78.7045145   1.4128666  14.9532688
  77.6664162   1.3312512  16.0517561  77.5170946  16.5809613  88.4955033
  77.8199244  17.3595600  88.0282816  76.7341280  16.8716603  88.9631423
  91.5124035 127.0091438  28.9855957  90.7932949 126.3813400  28.9150405
  92.2070694 126.6399193  28.4403086  54.9670744 130.5772591   7.6689351
  55.7364511 130.0769615   7.3969287  54.6740103 130.1478481   8.4726489
 116.7164803   6.3112717   4.4365788 116.4220905   5.4209881   4.2443162
 117.4084187   6.4781933   3.7965873 109.3329048 145.0326633  37.9505920
 108.9179325 144.5020485  38.6306500 109.6698189 145.7980824  38.4162688
 109.6652317 127.0678139  54.8849487 110.5324936 127.4713230  54.9204588
 109.8168945 126.1528397  55.1217365  80.3954029 117.9919624  43.0198908
  79.6069908 117.5679684  42.6809597  80.0753975 118.7870979  43.4460306
  98.2135010  12.1198063  54.3947887  98.7516975  11.3527184  54.1994715
  98.6013699  12.4887734  55.1882935 114.3877316  88.7774849  10.4647386
 115.1526070  89.2993927  10.2222085 114.5848751  88.4585571  11.3454497
  16.2886363 129.9630165   0.4738936  16.4611846 129.0215683   0.4849475
  15.3468257 130.0320816   0.3175520 106.8806458  13.1241207  32.3523283
 106.3608456  13.5596829  33.0278540 107.7844429  13.2029801  32.6575446
  57.2203398  18.3746701  28.3631611  56.6511154  19.1208630  28.5513258
  56.7390728  17.6166516  28.6948657 100.4450035  17.4620800  16.3232970
 100.9198761  18.1703739  15.8885014  99.6471500  17.8756504  16.6528845
  97.9612827  15.5320340  40.8872938  98.8378048  15.6397419  40.5180407
  97.3777962  15.5513172  40.1287413 111.8352318   2.2620659  30.3069353
 111.3567448   2.7428036  30.9823394 111.9783974   1.3949185  30.6861305
  83.6419487  26.0569554 108.2013951  82.7792645  26.3985043 108.4366556
  84.0911388  25.9433728 109.0389820 116.2600613 132.2282410   5.0697541
 115.6494141 132.1902084   5.8058900 117.1216106 132.3159885   5.4775238
  91.1241627   4.9898606  53.8561630  91.0297489   4.0520459  54.0229702
  91.1228561   5.3891831  54.7260904  72.6379967  10.7311039  25.8125544
  72.2496128  11.6057949  25.7948160  72.0973682  10.2167874  25.2130389
 105.7322311 121.5932655  27.7490735 105.6930351 122.2030354  28.4858751
 105.6571293 122.1494198  26.9736505  77.3860598 117.4567986  43.3988667
  76.8112230 117.0147610  44.0236855  76.9336891 117.3767471  42.5591183
  80.4697704 132.2961521  32.4371791  81.3277721 132.2490501  32.0154572
  79.9543905 132.8680611  31.8683815   2.7319937 121.8894768  23.9289165
   1.8687945 121.4853954  24.0174556   3.2682448 121.4568901  24.5933986
  95.3178501   4.9918156  18.0162108  94.3842697   5.0846463  17.8263843
  95.6591702   4.4698410  17.2900701  64.7318268 125.3026772  42.6660395
  65.6474590 125.0360775  42.5837374  64.2705059 124.5015717  42.9143095
  67.5270796 129.9430370  45.8551216  67.2207785 129.0555859  45.6684589
  67.7643824 129.9244499  46.7822552  81.7065620   0.8874970  17.9577208
  81.5464020   0.1197892  18.5065508  81.8877888   0.5276089  17.0894659
  94.1518784 134.8922634  27.4156094  94.1424751 135.5630016  26.7327762
  94.7561169 134.2258644  27.0884418 114.7704506 136.1705303   9.5339298
 113.9137745 136.5061283   9.7979498 114.7152805 135.2270699   9.6858209
 103.8177013 121.4821720   1.0961337 103.9544392 120.5354023   1.0619755
 103.6394024 121.6652966   2.0185791   0.2128916  11.1321526   1.0960466
   1.0966426  10.8022766   0.9335836  -0.3470964  10.3585129   1.0318646
  88.1424236 138.6779404  16.5757227  88.6662102 138.8266182  15.7884634
  87.8526592 139.5513821  16.8390989 113.5865116 128.0655575  74.8005247
 113.0287933 127.9210663  75.5649233 114.4309902 128.3285618  75.1664543
  94.7728634 117.5775242  33.6437869  95.3031826 117.6507568  32.8502917
  94.7368813 116.6377354  33.8219309  71.9233513 126.6201782  10.3503132
  72.5669670 126.0638428  10.7890546  71.8501425 126.2528706   9.4694269
  66.1451769 135.5490494 103.7728109  66.5282679 135.2403164 104.5938822
  66.8865299 135.6091785 103.1703033 111.2734318 131.7003441  69.3802261
 111.5251160 131.4508533  68.4910440 111.4279079 132.6442909  69.4169235
  96.8253994 137.0780182  49.2188072  97.3333931 137.7929974  48.8354397
  97.1776772 136.9814777  50.1035738  60.4371405 141.8161201  23.7195396
  59.7971106 142.5160122  23.5901499  60.2072668 141.1572266  23.0643725
  19.7131758 134.8740673  49.6635056  20.4924517 135.0819778  50.1789951
  19.3204527 134.1263771  50.1140070 117.8346443 142.0570564  21.7294765
 117.4670982 141.1931992  21.5426612 118.1636906 142.3650646  20.8850312
  77.8954649   2.4258786 103.4695169  78.3155251   1.6636353 103.8679823
  77.1907663   2.0591526 102.9355272   2.7245551  14.6782093  25.0556993
   1.9687205  14.7529393  24.4731450   3.2271319  13.9438801  24.7029757
  58.4865046 110.4711533  46.6933584  58.9570093 110.6053829  47.5160599
  59.1417408 110.1042366  46.0998297  71.1319447 144.2329693  15.8658421
  71.0806274 144.1054153  14.9185681  72.0558262 144.4196320  16.0326755
  60.2451897 136.0746765  95.8586796  59.9556160 135.6863594  95.0330933
  59.9581051 135.4543972  96.5288111 112.0172882 131.7720890  51.1778593
 111.2837696 131.3327026  51.6081190 112.3790550 131.1114788  50.5871439
 112.7929115  11.1053448  21.4652276 113.3864784  11.2638169  22.1992517
 113.1707478  10.3529911  21.0097814  89.6224022 137.4049568  35.1594901
  89.9786091 138.2852364  35.0392723  89.7152615 137.2349548  36.0968852
  10.4270297  11.3334446 101.4543583   9.7363883  11.0835915 100.8405008
  10.2761965  10.7819157 102.2220179 101.5169621   1.0054760  59.1754150
 100.9009361   1.4868050  59.7277498 102.0317841   0.4826718  59.7901249
  78.1885386 120.3310490  40.5098391  77.8327274 120.5727100  41.3649607
  77.4540854 119.9226856  40.0515366  65.6259060  36.6877537  74.1780853
  65.9562063  36.1224156  74.8763132  64.6764183  36.5689831  74.2027426
  94.0402031 142.1988773  32.6067710  94.2284870 142.9752445  32.0794773
  94.8744869 141.7317772  32.6517200  91.0858440   1.1358624  18.2679713
  91.9929981   1.3261490  18.5069072  90.7902908   1.9203072  17.8058708
  73.8239622 126.7567635   2.8738168  73.5219288 126.3816357   3.7010354
  74.4814730 127.4034977   3.1300196 122.6894951  13.8873654  16.9460547
 122.9587555  14.4084912  16.1896515 122.0540714  13.2642346  16.5936422
  88.2277966   2.1127396  35.6054711  88.7343407   2.5119858  36.3127470
  88.8450432   1.5234642  35.1718879  98.8114548 131.9999409  75.6545973
  98.2279015 132.5291348  75.1108599  98.4230709 132.0365524  76.5286922
  94.1666508 127.2474003  40.0015020  94.1419315 126.8431282  39.1342211
  94.4892406 128.1345749  39.8431039 120.7553482   2.2497635  35.7712245
 120.5359554   1.3309365  35.9257221 120.3627968   2.4501400  34.9215293
  98.4140587  18.5946827  51.2311602  97.6974297  17.9602604  51.2442827
  98.9769268  18.3353405  51.9606543  96.4855003  96.1446190  43.5300446
  95.5929565  95.8291912  43.3882380  97.0136452  95.6632996  42.8931618
 116.6867733 137.0882225  47.2763634 116.4258385 136.5303898  46.5435791
 117.4480629 136.6474438  47.6536942  87.3182964 140.4486656  11.1735201
  86.4672756 140.0209904  11.0781324  87.2881603 141.1817932  10.5588353
 116.9433594 106.3027573  97.3816212 116.4973450 105.5479717  97.7658161
 117.6965618 106.4522934  97.9530724  66.3904858 141.3022900  97.7091356
  65.6170559 140.7723904  97.5161644  66.2590075 141.5989017  98.6096712
  90.6592751 140.2783966  11.8909252  89.7272205 140.4941368  11.9220066
  90.7310486 139.6262550  11.1939430 124.5974159  19.9454289  48.6834621
 123.7786961  20.2424603  48.2863617 125.0710106  20.7518177  48.8875723
 117.5804520 107.4169159  10.5785489 118.4421921 107.7099609  10.8747840
 117.1398926 108.2176781  10.2940774  88.3782578 128.4275723   9.3639493
  89.2177105 128.8500690   9.1821462  88.1613541 127.9670906   8.5533100
   0.6019621  28.8428288  37.8758621   0.2438860  27.9635029  37.9975033
   1.4899474  28.7908726  38.2294321  11.1563044  12.1762162  19.8648107
  10.2438956  12.0666867  20.1326489  11.5798026  12.5860100  20.6191039
 123.6570263 132.9695892  18.4642768 123.7691116 132.2631073  17.8282404
 124.5058918 133.0349064  18.9017677  86.3668537 141.3379288  24.8942661
  86.0892010 140.5877876  24.3684888  87.0794582 140.9997177  25.4365230
 112.9577541  11.8923836  64.2561817 113.4924316  12.6610260  64.0573359
 112.5594807  12.0904332  65.1037598  38.0180865 128.5496044   9.9074435
  38.2954722 127.6779747   9.6254051  37.1379977 128.4184074  10.2602458
  84.6189404 140.2426243  21.5467143  84.1679192 139.5347214  21.0866284
  84.0980053 141.0225868  21.3556123   3.7553053 108.2983208  25.2293515
   2.8302985 108.2333565  24.9919057   4.1243392 108.9080715  24.5904112
  98.5075760 133.6761951  11.0178077  97.8499126 133.9799500  10.3921521
  98.0068684 133.4543514  11.8028629  87.5604820 125.1363087  30.5527401
  87.6714039 124.9239635  31.4794755  86.7178249 124.7480869  30.3172588
  92.6698685  11.7141991  31.7597985  92.7327061  11.2296563  32.5829053
  92.0918846  12.4507408  31.9589758  56.6889477  98.6423492  27.7704763
  56.2169409  97.8211212  27.6325417  57.6014185  98.4300518  27.5741196
  87.7306175 120.1204967  22.5447702  88.5970402 120.5166149  22.6376534
  87.1208477 120.8213615  22.7754450 124.2812443 136.3754940  29.7869921
 124.7107697 136.9539356  30.4171872 123.9923000 135.6262207  30.3078794
  94.7926617 142.4135876  99.9484959  94.9429131 143.3381081 100.1457485
  95.4929447 141.9531441 100.4109206  81.4589214 143.6762524  55.3590584
  80.9751987 144.3429947  54.8715067  81.7621708 144.1281986  56.1464691
 103.5815716 140.0851536  26.4846301 103.6278057 140.3017998  25.5534172
 104.4773769 139.8424435  26.7188382  66.4035845  10.7691937  16.7882109
  65.7489967  11.4544373  16.9230938  66.5845060  10.7924157  15.8485508
   1.9427424 119.4411659  39.5468903   2.2198897 120.2230453  40.0244665
   2.5329238 119.3983078  38.7945104  96.5505886  -0.2579612  29.3336630
  96.8209362   0.4198628  29.9530888  96.9592667  -0.0032348  28.5064268
  92.4329948 120.6917763  29.8320174  93.2264900 121.1514664  30.1063871
  92.6676559 119.7646141  29.8711538   8.0881339   6.6571598  14.6871710
   7.8998118   6.0518818  13.9699447   7.6428443   7.4675732  14.4398189
  87.4613857  14.5984440  39.7088599  87.3868275  13.6969357  40.0218582
  88.2696724  14.9235516  40.1053524  92.4074745 133.7199593   6.4881396
  93.1945801 134.0109253   6.9486135  92.6235867 132.8412437   6.1760938
 106.3971901   3.3508187  28.6274672 107.3217869   3.5931950  28.6784673
 105.9589386   3.9494782  29.2322683  82.9999447 137.2358990  46.2253284
  82.4189186 137.1984386  45.4655600  82.4390602 137.0093918  46.9671726
  80.1408100 136.8056870  21.9704962  80.5600071 136.4477730  22.7530551
  79.9125338 136.0367489  21.4481306 105.4397488  29.1148930  22.5762606
 106.3449287  29.4046955  22.4627113 105.5069065  28.3232098  23.1100798
   1.7935305   9.4899636   3.6746454   1.6508322   8.5898762   3.9673954
   1.1254626   9.9996739   4.1330302 112.7063942  19.8160916  24.6249533
 112.4632263  19.8871594  23.7018871 112.0624256  20.3549748  25.0844574
  84.3877888  14.1404896  11.7933929  83.9041138  13.3838158  12.1246386
  85.2182102  14.1208821  12.2690499 112.2619534 121.7884922   9.9274462
 111.3571262 122.0565510   9.7673029 112.5698376 122.3817825  10.6126106
  71.9787550  14.0414791  14.8861635  71.0898590  14.1982823  15.2047670
  72.5434828  14.3032246  15.6133556 104.8003674 131.0974693  79.9161577
 103.9516068 130.9194946  80.3213310 104.6328354 131.8273449  79.3199682
  78.2493401 126.4130020   3.8069737  79.1139555 126.5656662   4.1882443
  78.3323050 126.7069626   2.8998154  84.9352837  18.2199841  49.9295425
  84.6352386  17.5775891  49.2864752  85.6753063  17.7961140  50.3642035
   2.6413470 144.4419384   0.5965650   2.1019011 144.3026447  -0.1817901
   3.3274870 145.0436878   0.3078951  16.5847331  13.0167752  60.4297018
  17.2041541  12.9516774  59.7028446  15.7580405  13.2685261  60.0180769
  56.4405251 132.9943180  35.1593781  55.9181309 132.2339535  35.4146695
  57.2926903 132.6299953  34.9199843 110.7463360 134.8806572  16.9167733
 111.2352848 134.1194248  17.2293019 109.9342060 134.8681164  17.4232543
 108.6962891   4.0344601 102.3824664 108.9973450   4.8914223 102.6844814
 109.4967556   3.5173111 102.2928216  68.1591082  22.7770977  20.6665587
  68.4411669  22.1048146  20.0463009  67.2295237  22.5977879  20.8077979
 111.5673733 106.5447426  42.8838253 111.2075424 105.8476830  42.3353195
 111.3727474 106.2692261  43.7796164  99.4955730  10.4605656  19.5385599
  99.5987034   9.5094567  19.5070970  99.5122147  10.6725388  20.4718447
  68.8463926 124.5365429  39.9469352  68.4729052 123.6569500  39.8915958
  69.6552038 124.4857979  39.4375372 103.2962894 127.3909283  32.1184921
 102.9233742 126.7733860  32.7476311 102.8587055 128.2206345  32.3091269
  61.2623072   6.3788491  11.6812479  62.0414066   6.1589985  11.1704636
  61.5359449   6.2741833  12.5925112 109.0171242 122.5546360  46.9187880
 108.1063461 122.8478432  46.8913889 109.2018700 122.2631645  46.0259581
 111.0221863  99.3202114  44.2390490 111.4658737 100.1630211  44.3341446
 110.1339436  99.5468807  43.9635849  93.9836884 133.3127213  78.8331652
  94.7140694 133.9102554  78.6727905  94.3213940 132.4508572  78.5895061
  90.0569057  12.8382473  56.8693590  90.8710861  12.8246861  56.3662052
  89.7984219  11.9187050  56.9315052 104.8693943 131.6361904   5.1357740
 104.6580982 131.5127087   4.2103913 104.0388489 131.8878937   5.5395836
 108.5395336 130.6920624   4.5693061 109.4205761 130.3203011   4.5269787
 108.0515957 130.2299786   3.8876724  75.0622272 114.4157982  87.9564604
  74.9993563 115.0884628  88.6345466  74.1748333 114.0641689  87.8848966
  41.9129753 138.3636665   9.6822011  41.1575174 138.2309151   9.1095883
  42.6538181 138.4575748   9.0833962  70.4534960 127.5870895  21.8134713
  71.0260916 127.6892090  21.0532498  70.2890825 126.6455078  21.8647194
 102.5671577  23.5268956  29.1154575 102.4914646  23.7996464  30.0298500
 103.3996296  23.0562573  29.0740228  93.3742619 140.2680779  84.6699341
  92.8895378 141.0825253  84.5359286  94.2832565 140.5461025  84.7824558
  72.7810812 145.4982471  51.3004827  73.5489655 145.4039764  50.7368326
  72.7967978 144.7208023  51.8586636 103.2064819 133.5661221  17.2157776
 102.5977135 134.1154957  16.7219830 103.8234901 133.2425404  16.5594006
 117.4278450   0.7922154   7.0598739 116.9870472  -0.0491542   6.9414479
 116.8092346   1.3173275   7.5676262  68.6624336   1.9774990  27.6636386
  68.3114910   2.7253895  28.1471014  69.5005178   1.7907505  28.0866885
  72.3450279 137.3524857   4.1971701  72.5289202 137.6709366   5.0809145
  71.5154552 137.7674484   3.9608428   2.0482379 132.8441715 103.4987076
   1.2931853 132.3888588 103.1261297   1.8088656 132.9966068 104.4128712
 106.7296219 110.1865387  13.2770455 106.2826061 110.2504730  12.4330533
 106.1136341 109.7168541  13.8393533   0.1478701 105.3575516  24.5251369
  -0.2818651 106.1809158  24.2935681   0.9225588 105.6228542  25.0208330
 114.4309139 138.1229687  98.5808381 114.1476631 137.2601223  98.8833257
 115.3670883 138.1506157  98.7784167   8.2376700 143.9226723  12.9375970
   8.1521636 142.9852200  12.7640665   7.3433047 144.2168522  13.1102419
  92.3643208 138.1597996  14.2398536  92.4251175 139.1132832  14.1814268
  93.2730198 137.8651333  14.3004441  98.8671398   8.2922917   6.3800830
  98.0793381   8.3074837   5.8366036  99.0767002   7.3628693   6.4721924
 101.2073135   4.6300965  56.4500141 100.4502106   4.0826874  56.2417746
 101.8326473   4.4511776  55.7477427  97.2416592   3.7044888  15.8410549
  96.8290043   3.4390622  15.0191700  97.2654724   2.9046612  16.3663495
  95.1667309 135.1538181 107.9240353  95.0201893 134.6852875 107.1023079
  95.5925751 135.9699631 107.6617437  85.2449226   7.8488236  20.4986668
  84.4793224   7.4475079  20.9098029  84.9226189   8.6814766  20.1536298
  57.5640917 136.8606853 105.8416732  58.1782103 137.5681877 106.0379677
  56.8792582 137.2764206 105.3178444  98.2730484   6.4383583  21.5020251
  97.4700165   6.0207920  21.1905575  98.0318165   6.8226509  22.3448515
 106.6237068 101.9558334  88.7218293 105.8733273 101.9444084  88.1276687
 106.2503815 102.1774101  89.5749172   1.3205367 114.4232750  33.0357862
   0.5640917 115.0076294  33.0862498   1.3058596 114.0894127  32.1388173
  27.9090148   3.8135605  28.1020069  27.7235728   4.7458248  27.9891968
  27.1731692   3.4836750  28.6176944  98.0115604  16.1422329  26.8836212
  98.4035397  16.9992810  26.7161274  98.3210087  15.5924969  26.1637068
 117.0842075 141.7799664  99.6448299 116.8068790 141.2014961  98.9344140
 117.9951477 141.9909668  99.4401296  60.5135059 141.4708328 106.7438706
  59.7483730 141.8770885 107.1510118  60.8747768 142.1535206 106.1784937
  20.5261546 130.6334305  48.8371754  19.9872809 129.8574829  48.6830425
  20.7403975 130.5949402  49.7693014   3.9140349 140.0583076  18.9405370
   4.7233897 140.2111244  19.4282115   3.2728415 139.8187256  19.6096432
  17.8607302 133.3177185  10.4986858  18.3146029 132.6360416  10.9942019
  17.2528582 133.7064934  11.1276388  15.7502108 146.2958813  11.9877017
  15.6813746 146.2786674  12.9422677  15.0486403 146.8837070  11.7075384
  16.4644652   6.4469796 100.8714011  15.5987483   6.5767269 100.4841723
  16.3203078   6.5311509 101.8139335 100.9910202  10.1472740  29.9870992
 101.4140701  10.4981881  29.2034483 101.4257240   9.3080216  30.1385140
 106.9082355   9.6816807  62.1880674 106.6288471  10.5404072  62.5055075
 107.5767040   9.4011383  62.8131056 107.4881935 124.1613388  34.4372916
 107.8494644 123.6447906  33.7169552 106.8880272 123.5636520  34.8831701
 100.6066704  36.1508351  20.2121496 100.4109097  36.9608097  20.6831694
 101.5292931  36.2314205  19.9702895   4.5305377  11.9227105   5.1155990
   3.6580782  11.7357617   5.4621345   4.6838027  12.8415947   5.3355908
  94.2127037 121.7994022  22.8580284  94.6488094 122.2659397  23.5710359
  94.8343658 121.1180305  22.6020908 109.7576618  17.3015385  22.5543118
 109.8621941  16.9363385  23.4329057 110.4383945  17.9714756  22.4908614
 115.6540775 130.1755047  18.2349670 115.7511044 130.2483368  17.2854853
 115.6933880 129.2349434  18.4082949  57.0023060  93.2515717  74.0941318
  56.5590382  92.4075699  74.1802224  56.3585949  93.8178635  73.6684879
 101.3582230 138.6990833  11.2102139 101.8113136 138.5679150  12.0431221
 101.6500759 137.9710579  10.6615460  73.2910681   3.0056839  28.3935666
  73.8790989   2.8432255  29.1311693  73.8710356   3.2643967  27.6773691
  88.6744976 135.0358582   6.2786651  89.3923092 135.6238174   6.0435480
  89.1074657 134.2299747   6.5603185   2.4342948 136.4609909  18.8508570
   3.3695918 136.2756634  18.9350951   2.1968585 136.1097050  17.9926872
 106.0259914 123.9927673  13.2569289 106.5820217 123.6734009  13.9676118
 106.6336823 124.1718674  12.5393784  75.9436178 112.1060562  92.3129567
  76.5319061 112.4906540  92.9627498  76.2652159 111.2118244  92.1982583
  78.4808350 140.6402016  97.7215942  77.5276852 140.7279491  97.7280244
  78.7775230 141.2964535  97.0910915  37.2803622 133.5724354 104.5621302
  37.8051501 134.0968513 105.1669585  37.9024439 132.9532719 104.1801753
 104.5203876 113.6143970 100.6272712 105.0457191 114.2428970 100.1320537
 104.9772930 113.5268688 101.4638194 116.3623333 134.3814278 106.2871768
 116.1041069 135.2606678 106.5637445 117.2771740 134.3041897 106.5579539
  81.0038280 143.0196285  42.0012522  80.7990837 143.0319786  42.9362154
  80.3882313 143.6413574  41.6130209  76.2749195   5.5867176  39.0682793
  76.0880899   5.7594948  39.9910307  75.4338217   5.7060032  38.6271930
 112.5540352 145.6835270  60.9434795 112.8660870 145.0275993  60.3200960
 113.0716801 146.4646912  60.7484245   1.7619734 117.0950985  20.7432842
   1.0094863 117.6604652  20.5690479   1.5453368 116.2683868  20.3121853
 116.3245773  77.8354788  41.9876194 115.5000877  77.9655123  42.4561596
 116.8087196  77.2080135  42.5243950  93.6870861  96.3498306  91.0233566
  94.6329784  96.2335491  91.1128410  93.5472775  96.4603806  90.0828978
  67.9502821 116.0667324  48.9263391  67.7568579 115.1823235  48.6154795
  67.1429920 116.3521194  49.3542051 115.5198574   3.5918980  22.6318407
 115.3402233   3.0367546  23.3906388 115.1846313   3.0940991  21.8861485
  92.2494793   4.0508347  33.3373022  92.9487419   3.4437065  33.0951190
  91.9197750   4.3819504  32.5019050  83.2893658 143.2266521  32.8465581
  83.7657547 142.4728584  32.4985981  83.4391975 143.9214420  32.2054267
 123.6161423   5.6641846  23.6071110 123.1704807   5.8941059  24.4224334
 123.1312561   6.1337929  22.9284477 102.3830509 140.3416538  99.5796653
 102.6689148 139.4548702  99.7990271 103.0465508 140.9106064  99.9699207
  91.7588711 104.2979908  10.5272758  91.6852474 104.3910885   9.5774633
  91.2886429 103.4882164  10.7257235 104.1415501  86.7438221  14.5261550
 103.6660862  86.1446762  15.1016462 104.4374275  87.4469852  15.1042950
  95.8885765  33.6233502 101.5897580  95.1080990  33.6107426 102.1437755
  96.3647175  32.8280621 101.8286010  99.5218372 144.0019512  79.7097667
  99.0096188 143.3938980  80.2428063  99.5440197 144.8098755  80.2226003
 116.4792347  12.9676705  12.7512467 117.3489571  13.2878762  12.9905772
 116.6417217  12.3298149  12.0562804  98.0206966 122.3265839  61.8443879
  97.9818726 122.4820995  62.7880725  98.8646603 121.8963623  61.7070683
  71.4615488 136.2331676  27.3483658  70.7066774 135.9255505  26.8465996
  72.2183323 135.8643723  26.8928504  75.9344006   1.0497361  27.0259309
  76.3184738   0.9883099  27.9005432  75.1353455   0.5252819  27.0778680
  90.0347233  20.1649456 103.2640465  90.5355358  20.6794148 103.8970848
  90.6774807  19.9062710 102.6036068  84.0495014  23.7432270   2.5630873
  83.3494091  23.3175831   2.0681904  84.6503353  23.0326825   2.7875057
 106.5097523 123.2835197  29.8595428 105.8032036 123.6769390  30.3716254
 107.1247482 124.0013695  29.7088766   1.5400916 136.3862228  28.1099868
   0.8629065 136.4755917  28.7805629   1.1000758 135.9467983  27.3823071
 109.3552494  26.6945248  13.6254787 109.3894577  26.0025006  14.2859137
 108.5243511  27.1407490  13.7889338  80.0074387 129.4368076  35.9121799
  79.5415115 130.1654911  35.5021071  80.3654003 128.9378548  35.1779175
  88.7509632   7.4618607 108.6906926  89.1046810   7.2943001 109.5642138
  88.0637169   8.1130963 108.8314483 102.9270363  86.6420460  20.2547407
 102.0699310  86.2423992  20.1067901 102.7373314  87.4396610  20.7487655
 101.4916039 113.8676643  14.8671508 101.0931969 113.0515099  14.5648324
 101.0338116 114.5525742  14.3797636  79.2444658 131.7948532  99.7925713
  78.9810801 132.5596523  99.2807766  78.4535265 131.2583733  99.8458871
  75.4663324  10.3130608   2.2014615  76.1826658  10.8009510   2.6077488
  74.8374081  10.1765232   2.9100102 110.6451130   0.0785714  93.2748970
 110.0394726   0.7643013  93.5563286 110.1542664  -0.4217357  92.6229819
  95.0167370  15.1314335   5.3840423  95.9471130  15.3372937   5.2931684
  94.9864197  14.4522457   6.0578340  85.9644318  16.7069607  54.3382645
  85.9360600  17.0374852  53.4403896  86.7477798  17.1068173  54.7160435
   8.6806040 133.4232330  34.8428822   7.7592402 133.4871864  34.5914555
   8.9232951 132.5207615  34.6358013   1.7371779 144.5472240   7.0278680
   2.4934130 144.9926853   7.4098545   1.7008048 144.8672581   6.1264896
  65.3704929 140.8924961   6.3352883  65.4538202 140.4048443   7.1547306
  65.5027914 140.2359962   5.6513757 104.9238777   4.8682099  80.6783637
 104.4636917   4.8367863  79.8396310 105.8164883   4.5906525  80.4723557
  93.7899208 126.9421577   0.2734607  94.4817638 126.8066025   0.9209304
  93.8138485 126.1552143  -0.2709476  80.6349659 110.6157398  80.8235511
  80.1866627 110.8351898  81.6403135  80.1634026 109.8528957  80.4889926
 117.6124191  10.7256680  88.1853779 117.8159142  11.4297562  88.8010749
 117.5018024   9.9505406  88.7359866 102.8320408 117.6189518 100.9341934
 102.0223713 117.1084976 100.9240510 102.5557423 118.5014153 101.1815032
 112.0977974 138.0384541  89.3271478 111.8278980 138.3413887  88.4601864
 111.3601303 138.2556820  89.8971423  81.8668652  17.3613720  32.5094652
  80.9758472  17.3127346  32.8558135  82.0672321  16.4658337  32.2372413
  76.0571718 134.5395565   3.5030052  75.6040764 134.6718693   2.6702809
  76.9842339 134.6489334   3.2912761   3.8988429 137.7656841   8.5993671
   4.5737296 138.1756783   8.0583805   3.9341479 136.8384266   8.3644670
 107.1252060 131.8574715  23.0916047 108.0011654 131.5518665  22.8559828
 106.7062950 132.0531368  22.2534728 102.6893997  14.6763974  37.4501061
 102.4737453  14.2137127  36.6403937 101.8422604  14.9466496  37.8044510
 108.5523319 131.4666271  39.9464774 108.2367420 130.7383060  39.4115210
 108.0902958 131.3699722  40.7791948   0.1333647 123.8098335  36.8417335
   0.8217841 123.4004974  37.3658895  -0.1710195 124.5429420  37.3766470
 114.0864182 108.4083271   7.1002638 114.0457058 107.8590965   7.8831619
 114.1653728 109.3006516   7.4375260  93.8668919 126.2338829  97.6121505
  93.9176655 127.1891022  97.6470681  93.2005215 126.0535336  96.9490870
  97.1726513 128.8292122  10.5014408  97.8226948 128.5748768   9.8464650
  97.4616814 128.3981228  11.3057172 103.6058807 144.5485306  97.8605303
 104.2058945 144.0556812  98.4202667 102.8886986 144.8009968  98.4420308
  74.8107719  15.6570225  49.5982218  75.4671764  15.3077107  48.9954376
  74.0943813  15.0230007  49.5658445  94.9386311 117.9227448  13.6532748
  95.2660561 117.0262814  13.7265575  95.6485939 118.4657860  13.9957547
 118.4009171  97.4558640 103.8893988 118.8159657  97.6245308 104.7352847
 117.6403809  98.0369186 103.8756778  88.9340019  18.6940365 107.8495193
  88.9020920  18.5624104 106.9019511  88.8094711  17.8190976 108.2172056
  87.1399212 131.6363335   1.1999772  87.7966499 131.0780144   0.7837823
  86.6779041 132.0479202   0.4696561 108.6030293 141.2091064  21.7996120
 108.8691616 142.0755672  21.4919519 107.8765774 141.3804436  22.3989010
  61.1700296 145.4825687  19.0012169  60.2162266 145.5444813  18.9496517
  61.3326216 144.6438694  19.4329298 123.5928917 122.4538803  20.0287271
 123.1575680 123.2380772  20.3630376 122.9957676 122.1142197  19.3621635
 100.6691742 103.5160732 101.8346008 101.0609913 103.5195351 102.7079310
 101.4158535 103.4723854 101.2372740  72.2922945 145.9348965  13.6524391
  72.5437307 145.7847214  12.7411425  71.3354540 145.9099007  13.6441338
   7.4180155 130.1377201  24.8142624   7.4404269 129.4987297  25.5265975
   8.0318194 129.7942638  24.1650200  64.8994112 124.8141193   6.7747039
  64.6212721 123.9032459   6.8705553  65.8313704 124.8041916   6.9928437
 113.6870384  30.7503872 103.9427313 113.8605690  31.0418110 103.0476435
 112.7435303  30.5904179 103.9638629  99.6234703 131.8071461  88.8376840
 100.0986195 132.2614193  89.5334538  99.0230465 131.2223625  89.3000230
 121.6501331   0.5950337  26.9856739 121.4326859   1.4923363  26.7330956
 122.6058578   0.5858212  27.0378685  80.6613255   3.3521538  18.1446576
  81.1298275   2.5179177  18.1729698  81.3136005   3.9829426  17.8398991
  67.6069498 131.4036465   4.2686939  66.7261839 131.4480972   4.6408665
  67.9823589 132.2677422   4.4379082  81.9491196 144.1594601  26.8447804
  82.3001099 144.4908905  26.0182261  81.1894226 144.7141647  27.0219803
  74.5952129 139.9058247  30.8985114  74.3649960 139.6036434  30.0199223
  74.2503119 140.7976151  30.9431052 106.9797802 135.5357838  12.6718795
 107.8611183 135.6322575  12.3110759 106.9546986 136.1457539  13.4091258
 118.2709599   9.5753746  99.3209394 117.4549103   9.7014408  98.8367864
 118.1143665   8.7971382  99.8557761  67.5971746 135.1663589  16.9185352
  66.9426346 135.7998180  17.2127092  67.6816463 134.5527935  17.6483560
  96.1100674 138.3036232  27.5270581  96.6565609 137.9139328  26.8446183
  96.4012051 137.8832054  28.3362079  58.3512735 121.6538334  39.6508002
  57.5948191 122.1799469  39.3915391  59.0549707 122.2908115  39.7745013
  91.8223572 125.3573990  81.4066919  92.2857189 125.4986858  80.5811223
  92.5024796 125.0736523  82.0175608 109.6516705 144.2973042  95.9965666
 110.4512691 144.0523338  96.4622518 109.1402721 143.4891224  95.9572145
   9.0283614 122.5593185  61.2663078   8.6185294 121.7075825  61.1152792
   8.8239317 123.0661964  60.4804897 102.8542614 145.1262474  10.5458808
 102.3873806 145.7617188  11.0885072 103.6939621 145.0041485  10.9888494
 114.1433334  22.0817356  33.7992048 114.8166275  22.4323826  33.2161474
 113.6962318  22.8557568  34.1416049  97.8992462 138.8009644  19.3074191
  97.6528645 137.9398251  18.9698231  97.2463512 139.3975353  18.9412737
  89.1712952 114.8893738   4.2126596  89.2211723 115.0561619   5.1538956
  89.5290184 115.6806183   3.8099200  35.2304506 120.9991074  82.2779664
  35.0757718 121.2459278  81.3661631  34.4019938 120.6159687  82.5662287
   3.9049082 116.0301685  47.0085581   4.5345336 116.6628170  46.6627892
   4.2000323 115.8633137  47.9037102  82.8498363 137.1510220  96.6645976
  82.0970249 137.5573730  97.0939990  83.0321789 137.7171612  95.9146162
  89.8007965 143.4600353 109.4332466  89.3764591 143.8277245 110.2084721
  89.6825218 142.5142670 109.5213524 120.4201698   8.8316326  16.5522397
 119.6066666   8.3314495  16.4869189 120.3315926   9.5201187  15.8931625
 109.4832802  31.9009762  98.6370596 108.6819839  32.3766690  98.4182950
 109.4942951  31.8776112  99.5939108 109.2472553  24.3802815  15.2783847
 109.7295189  23.5633068  15.1511765 108.3316898  24.1097050  15.3473675
 102.8043365 140.8749199  15.7227623 103.1849670 140.3624344  16.4360082
 102.4908733 140.2205563  15.0984383 111.0790062   5.1062470  75.1465281
 111.1422825   4.1866570  75.4045685 111.8534851   5.2567654  74.6045312
 102.8761673 122.3022079   3.6281276 102.1325684 121.8502712   4.0269315
 103.3160210 122.7326870   4.3612337 122.9748440 124.4807816 106.3788419
 123.5266304 123.8553619 106.8485367 122.6378155 125.0620174 107.0606094
   6.7453890 113.5145760  34.8034978   5.9645968 113.9951992  34.5285630
   7.4698382 114.1161251  34.6315932 114.4482613 116.7479992  22.4592161
 114.9341011 116.2419128  21.8080115 113.5343647 116.6790104  22.1830583
  11.4782649   7.3912602   6.6917598  11.7778521   6.5302353   6.4000046
  12.2797232   7.8527336   6.9386315   7.6755362 139.8858547  17.7061212
   6.9968539 139.7253895  17.0504761   8.4295016 140.1900291  17.2008944
  76.9800377 120.5744267  54.9979019  76.6311359 121.4120197  55.3027391
  76.2248087 119.9863243  54.9973249   4.0559035   5.7062130  90.7881840
   3.8382178   4.9738102  90.2116104   3.2959204   6.2858563  90.7364377
  90.0041962  16.7873555  10.1664889  90.8227539  16.2991505  10.0778115
  90.2361202  17.6873761   9.9375969 103.9270115  16.9495373  25.2894330
 103.7842464  17.8422146  25.6040311 104.3017197  17.0605641  24.4156528
 119.3633461 115.9143925  10.9839225 119.6578884 115.2284908  10.3847504
 118.7190914 116.4119244  10.4803038 109.2927361 143.6515236  42.2134829
 110.1212692 143.4019661  42.6227236 109.1549587 144.5588589  42.4854994
  24.6490222  78.8237429  19.6541548  25.4681616  79.0775061  20.0794053
  24.0206557  78.7456942  20.3719997  89.9463367 120.9220314   7.6032883
  89.6249962 121.6425896   7.0612860  89.1593552 120.4318237   7.8411645
   6.7018920 134.3766594   8.9410406   6.3658457 134.6161747   9.8047149
   7.4584036 133.8196182   9.1244268  70.4094887   1.6301136  58.3663853
  69.9436951   1.2538891  57.6195773  70.5319500   2.5503998  58.1333741
   3.4703475 141.8836689  98.4161433   3.8589697 141.3777733  99.1297766
   2.9689055 141.2420082  97.9130825  57.6974916 118.0283451  99.2217132
  58.5845327 117.6852226  99.3296739  57.7965832 118.9772034  99.2996331
  82.5921059 109.7649574   5.0180495  83.2274532 109.5096779   5.6869245
  82.4588490 110.7022095   5.1595730  48.5712290 136.5479374  17.8762257
  48.8227177 136.8795490  18.7382102  48.1940699 137.3054600  17.4288654
  43.5481596 141.0289288  52.8982019  44.3799829 140.8124924  52.4769497
  43.0931187 140.1902962  52.9747820   6.3601428 140.5698013  20.1034403
   6.7012148 140.1110458  19.3356848   6.9364863 140.3008461  20.8187938
  88.2583523 127.1218967  37.1507120  88.6320591 127.3627186  36.3030219
  88.5829067 126.2360668  37.3125935   0.4394084 142.6198196  59.7617912
   0.5090647 143.5495186  59.9786472  -0.2756185 142.5748539  59.1270161
  79.4528246   8.5627632  43.5262251  78.8404274   9.1548615  43.0896139
  79.0633202   7.6948052  43.4205866 101.5695572 140.6879807  19.5343924
 102.4665928 140.4350948  19.7526121 101.0411072 139.9266148  19.7737420
  17.4127894 138.5957050  31.2349248  18.2593279 138.2532215  30.9480500
  16.8061667 137.8647804  31.1166263  72.4744511  38.9297848  45.5242872
  72.1012211  39.8106747  45.5555296  73.2080412  39.0019970  44.9136639
  84.4413662  19.8800450 103.7107339  85.1681137  19.4218426 104.1327974
  83.7967014  19.1949444 103.5338517  95.9426975 107.6696110 106.6109317
  96.8654442 107.4584198 106.7529287  95.5336857 107.5437927 107.4671530
   2.3805552 143.1656933  21.1999321   1.6299182 143.0608845  21.7845678
   2.4911242 144.1130829  21.1195970  59.3527460 138.1742001  11.8771362
  59.0199518 138.4069252  11.0103500  60.2828217 138.3981228  11.8446553
 118.7274361 132.3809910   6.5509963 119.2934895 132.9741669   7.0449233
 119.2548180 131.5912724   6.4308536  90.8793736   4.1504650  35.5912995
  90.2687168   4.6310597  35.0324059  91.6280079   3.9652806  35.0242972
 113.1604290  22.2516613   6.8430674 113.6482620  21.5982228   7.3443282
 112.7344227  22.7938061   7.5070232 112.6620102 138.5857201   7.8725469
 113.2447529 138.7068081   8.6222017 113.1395435 137.9940224   7.2910935
  96.2610626   2.1609478  20.6242108  96.3255215   2.3273831  21.5646243
  95.7099915   1.3812523  20.5561924   6.1897879   2.3960572  67.8635931
   6.3029414   3.0639248  68.5398960   7.0157652   2.4026280  67.3799086
  99.9319077  15.1398068  38.1405306  99.5699501  14.2568188  38.0659986
  99.4346428  15.6567936  37.5067401   3.1191855 131.6083908 107.2421464
   2.5227099 132.0985413 106.6762810   3.8057070 132.2362041 107.4674512
  69.5598030 103.8195324 101.2167426  70.2039719 103.1542969 101.4590880
  69.8194504 104.0953541 100.3376880  72.7240181  24.6553784  31.4938116
  73.6599112  24.5104390  31.3547730  72.3506355  24.6715145  30.6125879
  91.4034271 128.6454105 101.7902907  91.2754536 127.9584599 102.4444719
  90.5237579 128.9836216 101.6228988   2.6767951 113.9312172  13.2630086
   1.7932253 114.1700935  12.9828668   3.1077033 113.6281204  12.4638355
  83.0819702 109.3651295  90.2547073  82.8876781 110.2984810  90.3404045
  84.0369987 109.3146324  90.2947617   5.6969195 101.2241459   6.8091432
   4.8013716 101.5189934   6.9743100   5.6503993 100.2701378   6.8718664
  94.4363594  97.9368114  98.2023430  94.6881676  97.9079151  97.2793102
  94.2075634  98.8528633  98.3596230  95.1862431 131.6713142  87.6241779
  94.8329735 131.6591454  88.5137177  94.4206429 131.7996025  87.0641518
 123.9413261 109.2187023   7.3652116 124.0414906 108.2797909   7.2082464
 124.8045731 109.5050907   7.6635591  92.2612572  24.0137844 101.8765354
  93.1566715  24.0223866 102.2147560  92.2624493  23.3237629 101.2131214
 116.5019608 112.9571247  12.0989362 117.3282719 112.6699448  11.7103711
 116.0995770 113.5071087  11.4267484 103.1153584 106.2853718 101.8628311
 102.8132439 105.8304024 101.0767174 103.0555725 107.2143078 101.6398239
 108.3560467 110.9711361 102.5153542 107.4567699 110.8954048 102.8343964
 108.3765411 110.4300117 101.7260551  67.4894381 121.2405109   3.8669149
  66.9562864 120.5091476   4.1784898  66.9063997 121.7328167   3.2890359
  70.6419706 121.5507984  65.6557131  70.9892225 122.2171307  65.0627041
  69.7262192 121.7981339  65.7839823 121.7034626  88.9756870  79.4774818
 122.1451283  89.7970676  79.6931124 122.0304394  88.3508492  80.1247025
  20.7050353 135.3925323  73.3104753  20.4951888 135.4431152  72.3779297
  19.8616343 135.2438641  73.7380409  94.3274117 105.6212425 107.9084110
  93.7415218 106.2483406 107.4844837  94.0303040 105.5928898 108.8178921
  18.8092166 106.3123322  15.1230756  18.6348086 106.4094830  14.1869203
  19.3056231 107.0966434  15.3568879  86.4104939  64.4341803  11.8550054
  86.7531395  63.9784765  12.6238767  86.9804573  64.1561222  11.1380235
  92.2375298 135.3745937  85.6661606  92.9161358 135.1809883  85.0194454
  92.1130371 136.3217831  85.6064796 109.8217106 130.3905678  91.1879921
 110.6268406 130.8883667  91.0459137 110.1209354 129.5288944  91.4781857
 124.2104912 132.5723743 101.7908192 124.3054485 131.7509270 101.3086891
 123.3184052 132.8612041 101.5985394 112.4514675 104.0990829   9.5234338
 111.9744396 103.5901260   8.8679639 113.3177185 104.2329597   9.1388265
 105.3655243 100.8618927 107.6585674 105.0697231  99.9905396 107.9221439
 104.7503376 101.1270428 106.9748497  90.9002304   6.5365773  78.8966274
  90.9958267   7.4634629  79.1156340  91.4735699   6.4086705  78.1408787
  90.9569263  75.6980276  10.9865896  90.8566475  75.7616186  10.0367776
  91.7213917  76.2393808  11.1834947   2.8764945 137.5910950  83.5402584
   2.6711302 138.4918880  83.7904930   2.9896575 137.1312904  84.3721294
 120.4296494 114.3204689  21.5764943 120.8040905 113.4648705  21.3667718
 119.5018291 114.2362404  21.3567487 101.3172913 113.0962658  22.2808591
 100.7423019 113.5630512  21.6744558 100.7216454 112.5955868  22.8383104
   5.1071292  22.3270016  96.8176270   4.4353991  21.9651585  96.2396240
   4.6295958  22.5906163  97.6042080   9.6737509 130.8971405 107.9729748
  10.4741698 131.0049915 107.4592304   9.6624690 129.9690056 108.2067966
 123.8626766 124.6378422   6.7049161 123.8268757 124.3925190   5.7803766
 124.1549587 123.8436985   7.1522847  64.0214634  88.7163639  95.3126335
  63.8150263  89.5194435  94.8344135  64.7834921  88.9439678  95.8452988
 103.7734699 112.5578785  81.2863636 104.3440723 112.5135326  80.5191040
 102.8924942 112.6535320  80.9244633  96.2223625  -0.1721115  12.4790136
  95.4423714  -0.1250095  13.0318395  96.0980797   0.5203419  11.8299428
 108.1444263  24.1989689   0.0511495 108.0253601  24.0204983   0.9839956
 108.7545395  24.9360447   0.0242750  77.5966501 117.7628422  15.8192769
  77.5060606 117.1901131  16.5808622  76.8067551 118.3033657  15.8307687
 115.0777817 133.5214615 100.8835793 115.3508186 133.9730740 101.6821575
 114.2463589 133.9331150 100.6479645  91.2932301 113.3929157   1.6137925
  91.0148144 114.2889500   1.4244977  92.0644855 113.4945297   2.1715299
 105.6262112 141.5066624 102.8352642 106.1467743 142.1613503 103.3007050
 104.7617626 141.5535069 103.2436371 107.9871464  18.9113217  14.9602739
 107.2178650  19.2400341  15.4254571 108.7227631  19.1211109  15.5356828
 108.8582802 132.9501629  81.3113117 108.3496761 132.1449947  81.4075661
 109.1659927 133.1463146  82.1962166 105.2804756  94.1475677  69.9985075
 105.0800991  93.2117748  69.9793530 106.0811234  94.2317200  69.4807196
 114.9145031  97.3900700   3.8736574 115.4844475  96.7970943   3.3839933
 115.1163864  98.2584476   3.5252420  87.7632141  95.9105492  13.0685560
  88.1136036  96.7578697  12.7937929  86.8555832  95.9167290  12.7645913
  84.7850800 112.2566414  94.3070984  84.4044781 113.0685711  93.9722157
  84.2037868 111.5683746  93.9836311 101.5671253  87.1868801 109.4879532
 101.3056183  86.3215542 109.8026657 102.0196819  87.0147514 108.6622429
 100.5246735   7.9792290  98.1740189 100.4203415   8.6092644  97.4609947
  99.6335220   7.8194504  98.4847641 106.7848110 115.4237080 106.1459541
 106.1139679 115.6887245 106.7752075 107.3758030 116.1749744 106.0952759
 104.3095684 121.1299706  22.0966951 104.6940136 121.2037563  22.9701845
 104.7735691 120.3971100  21.6919080 106.7196751  87.2501945 106.5475559
 106.6077328  87.8888702 107.2516823 106.6453648  87.7644730 105.7436752
 103.2235146   2.1731167  38.4404317 102.9407501   2.7323513  39.1639844
 103.8507462   1.5680771  38.8363401 100.1998329  95.1880741  78.3490705
  99.4520855  95.4576206  78.8823986 100.1814365  94.2314529  78.3769035
  81.7100620 135.0266361  92.8030014  81.4207840 134.1265297  92.6535034
  81.2529945 135.2958965  93.5997581  95.2185726 111.4998817  10.8985845
  94.6780491 110.9747887  10.3083745  95.4350281 112.2828197  10.3922406
 119.5424366 134.6232510  75.4127359 118.9820385 133.9738846  74.9878597
 120.3558636 134.6042061  74.9085474  14.7160273 116.0833359   0.0847379
  14.7902613 115.4394341  -0.6196078  13.9434748 115.8095264   0.5791227
 106.4815426   0.9910279  93.9256191 105.5252934   1.0148125  93.9610767
 106.7395782   0.5332451  94.7256660 114.5933533 102.6308250  99.5168877
 114.9860954 102.7887821 100.3753948 115.2726173 102.8852177  98.8922882
  71.3323021 128.9659119  92.6782322  71.1395502 129.4494152  91.8749332
  72.1561337 128.5145855  92.4942970  92.2782040 117.1351337  94.8049927
  92.6438522 116.5029144  95.4237270  91.4384937 117.3877430  95.1888084
  73.5532284 101.9403744  27.9908506  74.3504620 102.0039749  27.4649183
  73.3098269 101.0157299  27.9459802  60.9426594 136.8992329  67.5548983
  61.6083527 137.4236012  67.1097898  60.4848385 137.5222492  68.1192303
 106.7074394  92.1588230  98.6981106 106.0634327  92.7869797  98.3711529
 107.4423218  92.2302055  98.0889511  90.1926613 134.8452663  87.3848057
  90.9955025 134.9825287  86.8819904  89.8876286 133.9783669  87.1170616
  99.7469139 138.4878635  86.7715836  99.3317604 138.4004211  87.6296234
  99.5507336 137.6639938  86.3255119  89.6824455 110.2508259  54.9125997
  89.0022755 110.6392574  55.4627744  90.4693317 110.7588100  55.1100484
  78.3910894 126.7831802  15.0436155  77.5362492 127.2010231  14.9392835
  79.0018272 127.3739243  14.6028749  66.9136620 137.3158550  14.2826597
  67.2014666 136.7731476  15.0167409  66.9028044 138.2065392  14.6330873
 103.7753868 105.8977318 106.9474888 102.9045963 106.1351013 106.6287327
 104.1914749 106.7348099 107.1534061  75.1444769  18.2755833 102.6201248
  75.3215408  18.6564427 103.4802628  75.1804161  17.3300724 102.7648354
  91.2663078 106.0212231  93.2484150  91.3933945 106.1046219  94.1934681
  90.9282875 106.8743134  92.9759979   5.4011756   4.2341881 109.5616341
   4.9926692   4.6934491 110.2954102   4.6687441   3.9816552 108.9994907
  86.7484760 143.1800365  88.3594131  86.8181705 144.0210629  87.9077053
  86.6385841 142.5392342  87.6568985 106.3642693 106.0791683  84.4750404
 106.9743347 105.3430939  84.5224762 106.5106773 106.4560699  83.6074352
  78.3604288 119.6673679 107.3026466  77.7519798 119.3801498 106.6218185
  78.8109827 120.4198647 106.9192791  81.4403343 128.9160633  84.3907928
  80.7702541 128.3026218  84.0892982  82.0490074 128.9863586  83.6553955
   4.4091731   2.8370171 106.7869091   5.2911311   2.7806454 106.4192104
   4.0630751   3.6647683 106.4533329 117.8508854 140.2792454   0.8499852
 117.2134018 139.9043465   1.4576856 118.2478619 141.0024834   1.3353387
 114.0346718  97.4553967  19.6645871 113.4728622  96.7648029  20.0162641
 113.7008095  97.6088810  18.7807313 108.3756542 128.9482212  59.0607643
 107.6333046 129.5484638  58.9910746 109.0832901 129.4831848  59.4203281
 109.2768669 133.8080597   4.1051332 109.2205429 132.9165936   4.4491521
 109.2164040 133.7026596   3.1556741  85.3887749  23.5144024 108.5563374
  85.4937363  24.2218762 109.1924858  85.2956009  23.9608746 107.7147865
  64.7572708 144.3106079 102.1882820  64.8825121 145.2389431 101.9914436
  63.8413191 144.1405964 101.9683838  92.8246689  82.6003265  92.0838833
  93.6419582  83.0985451  92.0900440  92.5694370  82.5702381  91.1618328
 122.3838615 100.1442242  16.2549440 122.7823925  99.7740269  15.4673139
 121.5410233 100.4874802  15.9582273 108.6651993  88.5248470 102.3160839
 109.6089935  88.3688450 102.3498058 108.5830116  89.4373989 102.0391083
  94.5625401 120.9323311 103.3889484  94.1042709 121.7156124 103.0844879
  94.5759106 121.0179996 104.3422127  93.8474751  79.8242140  91.8794727
  92.9516125  79.5036745  91.7750072  93.7789917  80.5166435  92.5368023
  92.2814846  92.7372646  94.7550297  92.1745110  92.0138645  95.3726768
  92.9448795  92.4289989  94.1376972  83.6685371 138.3294868 102.8312111
  83.0728245 139.0749073 102.7556610  83.7060165 137.9623604 101.9480038
 110.7054996 127.1992016   0.8729688 111.5929127 127.4079037   0.5811254
 110.8307648 126.6608524   1.6544572  82.5188351  95.1189804  94.5645905
  83.1954384  94.4584465  94.4158459  82.9806232  95.8444405  94.9849319
 108.2920456 117.6530647 106.3180161 109.2487240 117.6509476 106.3495636
 108.0686378 118.4748173 105.8809185  96.1572933 138.6578369  81.2261105
  95.2372742 138.9046192  81.1318302  96.1986923 137.7587128  80.9003830
  90.9267521 127.0632839 108.2723904  91.5258980 127.1036053 109.0178013
  90.1180935 126.7010117 108.6344147  75.1289892 128.1698322  19.4047204
  75.4045486 128.7242508  20.1347295  75.2007914 128.7341976  18.6349431
  99.2504025  94.1423988  89.6304989  99.4961071  93.2446194  89.4072437
  99.6195889  94.2819405  90.5025482 107.3401165  95.9175205 104.0270805
 106.8868065  95.7745552 104.8579216 106.6483784  95.8768177 103.3667278
  97.3294067   9.8263913 108.3928585  96.5546417  10.3799420 108.2950687
  96.9837284   8.9344387 108.4270191 107.4173260 115.5024052  90.0028992
 107.5358105 115.7680225  90.9148407 107.9617405 116.1110401  89.5034885
  15.8341151 109.3348598  83.4039974  15.9651213 108.5778904  82.8329754
  15.4975730 108.9640903  84.2197800 122.2608089 109.6712303  98.3303547
 122.2441483 109.5374489  97.3826885 123.0343533 110.2142334  98.4820175
  85.5053139 101.4049625   7.1472398  85.5755806 100.6281281   6.5924302
  84.5635605 101.5369511   7.2563688 111.3362408   0.9062271  76.9261503
 111.6401386   1.6597348  77.4322081 111.9471169   0.2044850  77.1511459
  43.4338665  93.0332756  31.0302011  43.0952883  92.1564865  31.2113897
  43.8476515  93.3043098  31.8496839  13.9778166  35.6261616  57.8552818
  13.6545401  36.4083653  57.4082136  14.9102336  35.5959492  57.6409960
  85.1619911 138.4783363   1.1691514  85.1527405 138.0941391   2.0458165
  84.2385292 138.5400391   0.9249440 110.9431648 123.4790707 109.5044899
 111.8538570 123.4439373 109.2118263 110.6038666 124.2939472 109.1342354
  99.0511131 142.0196152 106.2538910  98.9859486 141.4275837 105.5045605
  98.5664654 141.5777493 106.9511032  95.8177948   5.5756550  70.7912779
  96.3934231   5.0668698  70.2202940  96.3703156   6.2864285  71.1164713
  95.8209705 108.3493328  12.5456849  96.6154194 107.8154373  12.5395528
  95.1988697 107.8592110  12.0080892 107.8003979   8.2818489  79.7161722
 107.6248741   7.8726940  78.8688135 108.5842037   8.8111477  79.5688009
  67.4657822 106.5382957  70.9519482  66.9911623 107.0531368  70.2993393
  68.1241655 107.1401119  71.2992001   7.5417834  87.3748970  94.9422169
   7.3385649  88.1541729  95.4595852   7.8313571  86.7286491  95.5862236
 104.8815727  90.4671669  58.7869263 104.1296959  90.7872772  59.2853737
 105.2245140  91.2440968  58.3453369   5.8271723 102.7397346   2.0576803
   6.5406828 103.1523514   2.5443784   5.4165011 103.4594440   1.5785161
  77.3319197   3.4285813   8.6845247  76.6117811   3.2840996   8.0707208
  77.4284124   4.3802147   8.7208120  65.7990551  71.9589186  15.7596628
  65.4356098  72.1819878  14.9027101  65.8768654  71.0049868  15.7458822
  84.7775459 114.6383476   5.2758542  84.1161442 115.3286552   5.3233568
  84.2920208 113.8598061   5.0031320  98.4692669  82.0265770  79.0858316
  99.4019985  81.9889641  79.2975903  98.3848095  82.7866936  78.5102177
  90.0768471 129.7951603  11.9664422  90.2339363 130.3288460  12.7453748
  90.8590412 129.2489529  11.8886033 105.7231998 115.0891113 103.3078861
 105.9593105 115.8859444 102.8329659 106.0671329 115.2256203 104.1906643
  43.8706207 112.2619057  91.7228127  43.9287329 111.3528252  92.0167923
  44.7676182 112.5906754  91.7822838  90.8432388  12.2977715  70.4970980
  89.9793243  11.8859177  70.5131817  91.0270023  12.4326592  69.5674372
 117.0296574   7.9475289  86.6966534 117.1978188   8.7423115  86.1904144
 117.8156948   7.8329449  87.2307396  88.6369228 122.5563049  10.3974000
  87.9510403 123.1977558  10.5827657  88.3577728 122.1353722   9.5843068
 109.0356922  94.0439892 100.3422165 109.0459251  94.2098427 101.2848759
 108.9917183  93.0907536 100.2672005 101.5438843 140.0150681   2.0327321
 100.9937382 140.3618240   2.7351037 102.4312973 140.0363350   2.3909036
  91.2908173 100.0078773 101.4608192  91.7015076  99.3024254 101.9607258
  91.6295338  99.9002361 100.5720425  77.6577330 102.0118713   6.9770376
  78.3121443 101.6063118   6.4082662  76.8176556 101.7483330   6.6014711
  63.3784103 144.3484497  98.9039993  62.7210665 144.2542267  99.5933819
  64.1685390 143.9515495  99.2706013 107.4385357 103.2396889  98.1712246
 106.9936085 102.5737286  97.6470375 106.9435215 104.0426445  98.0086231
   2.6563292 107.1734810 106.7075253   2.0623999 106.5985394 106.2249088
   2.8536158 106.6933537 107.5117588  75.2483606 115.5323315 100.2481747
  75.0123024 115.9883404 101.0559940  74.4169140 115.4116726  99.7895241
  96.6518688   9.1374379  34.2759967  96.6798019   8.3552342  33.7249947
  97.4177361   9.6458512  34.0091586 123.1052017 103.5726833  39.6341173
 123.3505154 104.0184116  40.4449025 123.9390278 103.3760834  39.2071382
  95.8467007  83.7722778  78.2825899  95.0415993  83.2612038  78.3653641
  96.4135647  83.4406567  78.9789486  97.9939556 114.6413231  51.2297384
  97.5900936 113.9984894  51.8127385  97.6019859 115.4762650  51.4855901
 100.2580261 123.1430054  70.5870771  99.7342682 123.9376259  70.6894588
 101.1607552 123.4565639  70.5323029 114.4657898 133.0779266  96.1524963
 113.8163471 132.5722790  96.6411400 114.8868847 132.4369621  95.5797100
   3.0800753 116.3691616 105.9047318   2.6996928 117.1373367 106.3306999
   2.6304179 115.6255245 106.3060379   4.5130568 126.9684601  65.2562618
   4.5116072 127.5379372  66.0256290   3.6758643 127.1440506  64.8267221
 117.4510288 130.3163815  84.5121384 116.9544792 130.7907200  85.1789665
 117.7619648 130.9972763  83.9155293 112.5124741 130.2164745 101.8168449
 111.7979145 130.6181812 102.3110771 113.2426167 130.1840687 102.4349594
 102.2972298  98.4872818  70.0976944 102.6985931  98.1814098  69.2843199
 101.6127777  97.8444672  70.2835417  80.8864498 115.6534481  84.0226364
  81.3545513 114.8215103  84.0932274  81.2000942 116.1685753  84.7659397
 116.5128231 103.5184383  97.4203300 116.5301418 102.9800987  96.6290569
 117.3424721 103.3277225  97.8579807  98.8242531  70.7487154  79.3028975
  97.9238129  70.6963730  78.9824390  98.7776184  70.4245281  80.2023220
 117.5332069  95.7633781  82.4847126 118.0340385  95.5548954  81.6960812
 116.6309357  95.5328560  82.2633553  88.1856441 110.1724911  11.5553991
  87.9642677 110.8770275  12.1643773  89.1355515 110.0811005  11.6299669
 102.3508739 131.5179062  11.9568960 103.0357075 131.6199875  11.2959710
 102.7041340 130.8735561  12.5702897  54.5040321  90.5298328  90.9746647
  53.9186525  90.6504917  91.7223358  53.9514256  90.6895638  90.2095890
  86.6214180  80.9750080   1.3666765  87.3806381  80.4995823   1.0293523
  85.9094048  80.3356457   1.3449231 105.1580429   2.0155411  97.8144073
 104.3146610   1.9185047  97.3722267 104.9344063   2.3296814  98.6905003
  71.1995554 107.9163933  98.0735111  70.8731413 107.3929787  98.8054371
  70.6457090 107.6658440  97.3341084  86.3610840  87.1322346 105.3597450
  86.6422558  86.3074875 105.7559490  86.0129356  87.6427078 106.0907936
 109.4565010  11.1997586 107.0794010 110.2014923  11.3614350 107.6582623
 109.6772861  10.3859024 106.6265011  78.4573984 110.8993816 102.9702568
  78.5891533 110.1957130 103.6056519  79.1794872 110.8001328 102.3497963
 106.4687538 124.8342133  90.5345631 106.3298321 125.7478428  90.2851295
 105.8045101 124.3487263  90.0453663 122.6961327 102.4544907   6.6348401
 122.9679298 101.9510174   7.4022332 122.0723629 103.0947971   6.9771043
  88.8070679 138.2193279   9.8993055  88.3192539 138.0205345   9.1000882
  88.2469273 138.8321877  10.3756181  91.7754173 131.8696022  14.0852872
  90.9391785 131.7762852  14.5416108  92.1345806 132.6953411  14.4099275
  96.8137360 104.9442387  64.3316650  96.4617443 104.1316319  64.6949863
  96.2439919 105.6294250  64.6811771  95.9602356 103.9509296  92.5007057
  95.4941082 103.5038090  91.7942715  95.3703690 104.6556282  92.7684307
  49.0176344  75.9195042   8.1563989  49.4647217  75.0733376   8.1378404
  48.7392139  76.0233879   9.0662996  16.7334967   7.1397477  78.3057261
  17.0031291   6.2213593  78.3147049  17.4934607   7.6157742  78.6405182
  84.9882698 116.4674854 108.5569572  85.1179028 116.0634613 107.6989460
  84.2493248 117.0629787 108.4321022 109.0339756  86.0428810 108.8046265
 108.9698505  85.9105206 109.7504616 108.1454468  86.2746716 108.5344315
 121.3704777  76.9539690  13.2503263 121.2407207  77.4955130  12.4717847
 122.1516323  77.3173857  13.6673967 109.1330528  93.3012295  87.3183250
 108.9319897  93.5558605  88.2188702 108.2909012  93.0313110  86.9520473
  80.5830765 139.0115452  82.9394531  79.6596336 139.1012192  82.7039909
  80.7679749 138.0784702  82.8326035  95.3826809  93.3123779  20.2721063
  96.0827637  93.7420368  20.7635442  95.8391285  92.7346706  19.6604387
   2.4492484 128.5604191   6.3503782   1.6043025 128.1195354   6.4393941
   2.2669249 129.4741344   6.5697423  75.9627104  89.6797371  96.6843510
  76.6248131  89.2692184  97.2405243  75.9667778  90.6002617  96.9467545
  13.5036593 132.9063702 104.6069622  13.5425597 132.0170593 104.2550564
  12.7892237 132.8810406 105.2434921  89.1466141  73.5352564  19.3918744
  89.0830421  72.8969669  18.6813966  89.6056271  74.2803526  19.0041009
 112.4156380 100.1303196  68.1105423 112.0273304  99.2569351  68.1619596
 113.1463337 100.1043129  68.7283039 102.9146385 115.7286453  22.3584691
 102.2900391 116.4185810  22.1346322 102.3765659 114.9444771  22.4670926
 119.6499538 133.5507965  91.8521023 119.1710758 134.2938900  91.4850521
 119.9242020 133.8476086  92.7198124  91.3891888   1.3570385  83.5626507
  90.6455326   1.9500904  83.4554005  91.6283607   1.1088734  82.6696587
 114.1165447   2.0894604  89.5555210 113.8598633   3.0115967  89.5596504
 114.2219639   1.8660431  90.4802895 105.1275253  95.9557819 102.0645905
 104.4604397  96.4995956 101.6456604 105.8140182  95.8670235 101.4034843
 122.1079159 108.8837147  95.8918667 122.0557690 108.6347866  94.9690723
 121.6162014 108.2032490  96.3516521 119.9233723 142.7772522   0.1452104
 119.4961452 142.3560905   0.8910886 119.9277973 143.7085724   0.3662530
  76.9117498 136.1329079  96.7084408  76.9737244 135.2151680  96.4435959
  75.9762335 136.3313198  96.6676235  88.2721996 120.0090599 103.8115215
  87.7082729 119.7163963 104.5274639  88.4757042 120.9199333 104.0239334
  10.0278979 107.5803566 104.2576790   9.9474364 107.8961468 105.1577091
   9.1446047 107.6573658 103.8969803 115.3095627  96.2121582 105.3590012
 114.7770309  95.4416275 105.5562687 115.7871246  95.9760475 104.5637512
  97.6767254 117.8291988  67.8278255  98.3685780 118.4804630  67.9437447
  97.0966434 118.2106972  67.1688938  96.0498428 112.4892044  97.8459549
  96.0540485 111.7348480  97.2567463  96.9106197 112.4712086  98.2642460
  90.5689716 113.8889027  97.3058891  91.2105846 114.1949654  97.9469013
  90.2978897 113.0298996  97.6297283  87.1402550  93.8123989  88.3444405
  86.4698792  93.1709290  88.5796833  87.7938652  93.3087921  87.8592491
  71.7074585  99.3817329 102.7416420  71.7987919  98.4580135 102.9753494
  70.9119463  99.6652699 103.1922054  88.6429405 103.0023670  81.9231892
  87.8826141 102.9658985  82.5035286  89.0290070 103.8626099  82.0879936
  86.7395782 138.3064461  29.2184106  87.0014477 138.0596066  30.1053850
  85.9194088 138.7858677  29.3355123  86.0291290 102.3512173  97.9432392
  86.1746025 101.8583965  97.1356583  85.6218052 103.1681442  97.6552200
  96.7297363  99.6807766  95.7631493  96.3323212 100.2161884  96.4498997
  96.3120270  99.9789143  94.9551487 110.7732010 118.5549641  17.6666776
 111.1555195 118.1863976  18.4630624 110.0055218 119.0388393  17.9712621
  98.2413578 116.7901802  84.4340515  98.6222649 116.5769005  85.2859020
  98.0215836 115.9411144  84.0506077 110.9965611 113.0808258  98.1378078
 111.6446877 113.5183334  97.5857735 111.4590740 112.9057407  98.9573574
 106.4191437 129.2991066 104.2635441 105.4658604 129.2131519 104.2730331
 106.7413902 128.4025383 104.3561077  99.0099621 127.7050781  47.9951620
  98.3541584 127.0170593  47.8821564  98.4998226 128.5104179  48.0812311
 108.5306549  97.2006798  81.6443825 108.5968113  97.3096180  80.6957054
 108.5962772  98.0898380  81.9927120  97.9855442  91.0875416  93.8410091
  97.7528572  91.3877487  92.9623890  98.3980751  90.2351570  93.7014389
 106.3132381 110.4903221  80.7811832 105.9171009 109.8732948  81.3964748
 106.0409164 111.3518333  81.0971832 100.6243420 109.7625065   6.2288228
 100.1548290 110.0748825   7.0022718 100.4699421 110.4361916   5.5666009
 101.3319016  83.1931782  71.1326122 100.9123707  83.9433765  71.5538216
 101.0797501  82.4437141  71.6720152 124.4194221   2.0778160  72.4700165
 124.8421097   2.6792984  73.0830336 124.2124748   2.6187878  71.7079449
  83.9384556 106.4213467  83.8007450  83.6256599 107.0138073  83.1170845
  83.3426380 105.6732750  83.7604046  96.3978386   1.7973690  52.8189230
  96.2432861   1.5096836  53.7186861  95.7422829   2.4786263  52.6693296
  98.4944248 101.6209030  48.1286144  97.7201366 101.6184044  47.5658464
  99.2324257 101.6619968  47.5204325  77.9787970 125.1163769  73.7901402
  78.3141661 124.3654633  73.3003521  77.6402998 124.7404766  74.6027565
  85.1564503  86.8912315  64.0257645  84.2056465  86.7914391  64.0731144
  85.3264904  87.1369839  63.1164074  84.8614979  16.0992794  83.1937790
  85.7317924  15.7863026  82.9470539  84.3244267  15.9520703  82.4152374
 119.7915936 124.5411968  82.5401497 119.4078732 124.8687744  81.7267132
 119.8509026 123.5943794  82.4127197  56.0661459 114.0924549  84.9931812
  55.2065277 114.1461086  84.5755577  55.8809948 114.1493797  85.9305763
  98.0587959  93.4319019  71.3358736  97.3696804  93.1270885  71.9261646
  98.2061100  92.6973152  70.7401371  93.1105995 112.5693989  89.2241764
  93.8753128 112.6021576  88.6493969  93.1575584 111.7067814  89.6363735
 115.3006172 114.3979263  78.0206776 116.1308956 114.3801785  77.5446987
 114.6427059 114.5741749  77.3481321  67.9890823 130.3393459  82.8376865
  67.3046160 129.7333813  82.5538921  68.7955618 129.8252964  82.7980423
  97.7967358 127.7764988 106.8221283  98.0289268 128.6679554 106.5620804
  97.8015995 127.2794342 106.0041237  93.1134319 145.3226471  89.9194336
  92.4550152 145.1814365  90.5997181  93.8435173 144.7573471  90.1716995
 102.7091885  92.6423645  90.7009315 102.1426868  91.9367504  90.3888035
 103.4464931  92.6453495  90.0905228  90.3977394   9.8028069 102.4787331
  90.6649208   9.8125630 101.5596294  90.1046658   8.9048081 102.6334381
  91.8826580 126.2377739  74.2366266  91.1798286 125.6177235  74.0422249
  92.6178646 125.6887245  74.5091295 117.1992302 104.4163418  59.9192190
 116.5217686 104.2325592  59.2684555 116.8332672 105.1212692  60.4534197
  82.0399284   0.7423477  97.1773529  81.1067581   0.9087448  97.0441341
  82.4713326   1.2128430  96.4640713  95.5333710 144.1060066  90.7372761
  95.2369595 143.2707787  91.0988998  96.4809704 144.1027546  90.8724880
  77.5178337 100.1888084  65.8378363  77.1454191  99.3190956  65.6924677
  78.4587479 100.0713825  65.7069731 105.3328133 118.5754490  78.7119627
 106.0495377 118.2329082  79.2460108 104.8533154 117.7974892  78.4271955
  99.3546486 114.8675156  90.3840542  98.4821892 115.2608967  90.4016209
  99.3108463 114.1589069  91.0260677  90.0655842 104.9707985  77.2729778
  89.2553616 105.3936672  77.5574875  89.9303436 104.7961521  76.3416100
  78.7793159 132.2684193  78.7610388  78.1457329 132.8998852  79.1017103
  78.9389896 131.6712761  79.4918919   3.1292754 106.4289856  13.9741842
   2.1817332 106.3359547  13.8755266   3.4965449 105.7404804  13.4198324
  95.8897591 129.7632885  64.5948315  96.1515427 129.5838261  65.4978800
  95.0971508 129.2420292  64.4671392  92.2925282 125.9444046  50.9529591
  92.9012680 126.0648823  51.6817665  91.5807533 126.5590668  51.1313009
  85.4173088  82.7387810  88.8469028  84.4930649  82.9411983  88.9919186
  85.4094410  82.0349884  88.1981754 102.9006577 123.4636021  81.7043114
 102.3327255 122.9880810  82.3105717 102.3034286 124.0161037  81.2000370
  91.4528084  97.2374821  87.6148415  90.8956146  97.5328255  88.3349419
  91.7723465  96.3799381  87.8954411  86.3733578 111.4876556  83.0547619
  86.5780830 111.1578178  83.9297009  85.4349899 111.6745281  83.0827522
  87.0685577 101.0510254  76.0641575  86.7034531 100.3295040  76.5763426
  87.5895977 101.5510845  76.6924047 115.1707554 123.1195736  64.5939875
 114.8826313 122.5408936  65.2999163 115.7645702 122.5814629  64.0704823
  92.3340130 105.7364178  98.6556149  92.4197674 104.8370552  98.9718914
  93.0822945 106.1964417  99.0359783   8.5091429   1.1161309  77.7445078
   7.6489573   1.1982136  78.1562948   8.3242827   0.7743149  76.8697405
  60.1190901 107.0409679  70.7006121  60.9183264 107.0683479  70.1745796
  59.7348404 106.1856747  70.5081129 103.9822769  79.5157576  75.4272270
 103.0653667  79.6349955  75.6747961 104.1723919  80.2547836  74.8493624
 115.4019356  78.7625790  62.2932100 116.0986805  78.5919285  61.6594505
 115.1267624  79.6609879  62.1105289 113.2891178  90.6466770  99.8608112
 112.4491215  91.0760975  99.6988869 113.7735367  90.7515717  99.0419292
 113.2863808  72.3600388   6.1895696 112.9434013  73.2478857   6.0879270
 113.4823418  72.0753288   5.2969495 105.0670338  92.8681660  89.3148327
 105.7128811  92.2110653  89.5742989 105.1258087  93.5421944  89.9919319
  68.4046173  93.5826206  66.9337702  68.7264872  93.8755608  67.7863026
  67.8606510  92.8203964  67.1321344 123.4868717 100.1156712 107.9764748
 123.2113934  99.2947102 107.5685978 122.9470825 100.7849979 107.5559235
  73.7100792 113.0992317  79.0685034  73.7763357 113.3971405  79.9757481
  74.4820309 113.4672928  78.6385632  96.5711117 103.5776329 106.6804695
  96.0584354 104.1180229 107.2816086  96.3818932 102.6778507 106.9465733
 122.5930691  87.2287464  81.2044144 122.8170109  87.6536942  82.0323563
 122.9026222  86.3286686  81.3057613  12.5886183  88.5867214  94.3610096
  13.3997851  89.0938282  94.3938732  12.7149706  87.8907299  95.0058842
 123.4112358 145.1713657  85.8568764 124.2769814 145.1026344  85.4544067
 123.4161472 144.5110703  86.5498543 110.8238125 112.7131844 101.0220718
 110.2661133 113.4506226 101.2698364 110.6865788 112.0660591 101.7139053
  91.2786388  95.2560711  82.7593613  90.9385300  95.8450985  82.0858574
  92.1649456  95.5744457  82.9306316  69.0845490 124.6822453  68.4391165
  69.1618872 124.0449429  69.1491127  69.9878502 124.8585129  68.1760359
  89.9369526  89.8133755 100.7133007  89.6692562  90.7112312 100.9093285
  90.5764103  89.6002960 101.3929462 101.2351227 112.7292061  80.1680470
 100.7088375 112.3353291  80.8638287 101.0075665 112.2298717  79.3837547
 116.8423176 112.5177860  71.4775801 117.3598862 111.7499638  71.2350798
 116.3852119 112.2558498  72.2767496  99.8663998 110.9607601  91.5486908
 100.0506210 111.7701054  92.0254040 100.5273724 110.3429604  91.8612289
  74.8627424 116.5901470  81.8125629  74.6608543 115.6831837  82.0425606
  75.7797527 116.5693951  81.5389061  93.0042648 107.6927090  48.4065914
  93.9123726 107.3950577  48.3519840  93.0688763 108.6433697  48.4976530
 104.8206997 102.7923584  76.2873602 105.3154945 102.2642899  76.9139051
 104.8965454 103.6880112  76.6164255 114.2429924 121.8633556  72.8575182
 114.7745705 121.3519192  72.2475243 114.8625851 122.4672222  73.2669973
 106.2268829 138.2628250  58.3398247 106.0298347 139.1746140  58.5543919
 106.7942238 137.9665089  59.0515471  98.6508751 120.7418728  71.4796782
  98.9716434 121.6389370  71.5724325  97.7201557 120.7966900  71.6964388
  89.6018410  89.1340351  17.3651639  89.8276329  88.4789848  18.0255834
  89.9080276  88.7576675  16.5400354  99.6481037  97.4268913  71.7376995
  99.2860222  98.1575394  71.2364101  99.5460796  96.6682529  71.1630011
  79.7253132  86.1294460  79.0414572  79.8667288  85.1834869  79.0041590
  78.9830875  86.2373924  79.6361637 114.5097065 142.3302078  54.0998459
 114.6265316 141.9206524  54.9570751 115.1170540 143.0700397  54.1031027
 108.2275009 116.5108299  92.7851295 109.1594505 116.3030243  92.8524876
 108.0955982 117.2247410  93.4089661  67.7895069 137.7224636  94.9179745
  67.8862906 137.3785019  94.0299797  68.6607838 138.0471230  95.1453590
 120.6067657 139.6691036  90.1075840 121.1423111 140.4604053  90.0505257
 120.7490444 139.3472672  90.9977627 110.8189392 145.6278229  89.7442627
 110.6868649 145.1716900  88.9131546 110.2614498 145.1595688  90.3656960
  93.3635998 111.9887447  98.7220764  94.2125130 111.8981075  98.2892323
  93.1174088 112.9023933  98.5775757  63.4097576  92.6215744  82.6734257
  64.1050339  92.2725582  82.1157455  63.1296349  91.8747807  83.2026482
 100.5649281  85.1525784  39.1011810 101.2136745  84.8918343  39.7549176
 101.0549736  85.6892490  38.4782290  83.5047626 107.8470135  61.3742399
  82.6375389 107.5022316  61.5870047  84.0386009 107.6430798  62.1421385
 115.9965515  62.6359653  58.5172892 115.3961277  61.9559288  58.8226891
 115.4581928  63.1983042  57.9603481 101.0027027 125.1714420  80.9233570
 101.5912628 125.9259796  80.9009457 101.0410976 124.8113346  80.0373173
  81.0477638 114.0358925  63.6067200  81.2086105 114.6640301  64.3108559
  80.4766083 114.5017719  62.9960012 103.3758926  76.5719128  69.4507647
 102.8807163  75.9918261  70.0291538 102.8493309  77.3698902  69.4038963
  87.9858971  88.6013508  67.3502111  88.5507965  89.0983486  67.9419088
  87.2243881  88.3716297  67.8827190  63.0627012 119.2261982  81.7992783
  63.7819862 119.7154045  81.3998508  62.7913857 119.7639084  82.5432396
 106.7514896 130.1389408  64.2890167 106.4991283 130.5521107  63.4632874
 107.0168781 129.2529869  64.0422487 116.9065475 100.8527851  60.8341599
 117.2965813 101.6953182  60.6012535 116.9974709 100.3201675  60.0440454
 113.3194256 121.1993027 102.5595951 113.5281944 121.1240292 103.4907150
 112.4461174 121.5907192 102.5408173 122.4613571  96.4032459  70.1960897
 123.2468510  95.9257126  69.9292803 122.0489311  95.8393478  70.8504295
  84.8236561  98.2839489  85.4065418  85.6088257  98.7703514  85.6578445
  85.0606346  97.3651123  85.5322361 104.4505024 101.9727421  71.7334032
 103.7083912 101.3683605  71.7481852 105.2179241 101.4075851  71.6445684
 100.8499718 119.3133163  70.3744507 101.4034271 119.1692734  71.1420250
 100.0821018 119.7719002  70.7154989   1.8259650 143.9473724  76.4348078
   2.5314646 144.5771599  76.2869358   1.4492922 144.2030048  77.2768259
 107.6297569 120.7293224  99.3379307 107.1686745 119.9379253  99.0598679
 107.0429134 121.1371803  99.9747276 117.0722771 119.6241093 107.7250385
 117.8456783 119.6913719 107.1650696 116.3632011 119.9947739 107.1996403
 121.2850571 120.2402592  81.0352516 121.3587284 120.8019543  81.8068123
 120.4006958 120.4004955  80.7059002  98.3829784 122.0458221  64.6596384
  99.3142796 121.9334316  64.8500967  97.9497910 121.9290638  65.5051899
  87.6869392  95.9016037  81.2600899  88.1664944  96.6893673  81.0037899
  87.6110268  95.9665203  82.2120667  91.6602993 122.9386425  93.0259991
  91.4184475 123.5082340  93.7562752  92.4693203 122.5139523  93.3112431
  88.4478283 124.2278481  55.3906918  89.0392590 124.6229744  54.7501326
  87.6487064 124.7516918  55.3338957  83.2964230 117.1514130  72.9270887
  83.8218403 116.4453697  73.3034945  82.6759720 117.3828697  73.6182499
 108.5374928 100.1409435  50.4900599 108.2749081  99.7571373  51.3267088
 109.0370560  99.4495869  50.0556755  88.8541794 124.8137760  92.2654819
  89.4036865 124.7091198  91.4887428  87.9994583 125.0727367  91.9210815
 103.7352657 114.4417667  69.7358131 103.0318069 115.0396824  69.4831038
 103.7425900 113.7762070  69.0479088  11.5972739   7.4109249  97.0709133
  11.5161830   6.5829449  97.5443172  12.0634966   7.1823769  96.2667751
 102.1703720   1.4141827  19.4000856 102.4753189   2.2159844  18.9754239
 101.2672806   1.6056996  19.6530382 100.2289104  77.2930574  13.4376756
 100.4766083  76.6986656  14.1458932 100.9438896  77.2230244  12.8051225
  79.0029478  91.8560219 106.6022587  78.0512190  91.7924404 106.6822720
  79.1630459  91.8780518 105.6587982  97.6532555  81.9672108   7.1929780
  97.5006962  82.1660614   8.1167833  98.6062431  81.9614506   7.1034280
  73.2629490 141.4972687  89.7568130  74.0605640 141.0445595  89.4827938
  72.7680969 141.6219902  88.9470005 116.4013290 139.7146130 101.4439869
 116.9208813 140.4185009 101.0555935 116.5009975 138.9807415 100.8375835
 104.7176647 145.0204659  63.0473566 105.0180626 144.1117764  63.0307913
 105.4634953 145.5252361  62.7230597  94.7540855  89.7846603  64.9001122
  94.4235420  88.9390945  65.2034044  94.2270279  90.4305458  65.3705025
 118.8145828 127.6692677  69.5128822 119.3648338 127.1339035  70.0845861
 117.9192638 127.4106216  69.7313738 122.4492741 136.5678787  79.1855383
 122.8583717 137.4323559  79.1462135 121.8050194 136.5753555  78.4776449
 103.6445999 113.3823204  85.6077480 103.9457512 113.8509560  86.3861561
 103.6379147 114.0448570  84.9169254 110.3908539 103.8442802  37.8325415
 110.9667587 104.2541504  38.4779716 109.7197819 103.4050751  38.3550262
 124.0138245  90.0663948  66.4223957 124.7088528  89.5740891  65.9855795
 124.1707230  90.9765911  66.1710596 116.2172222 126.4606953  70.0579929
 115.3483391 126.2287617  69.7301292 116.0469627 126.9446373  70.8661032
  69.5643663 108.8843346  94.0159035  69.7741365 108.5397625  93.1478596
  70.4019976 108.8927650  94.4790840  10.5598860  67.2081757  71.3337517
  10.7171183  66.2959623  71.5774298  11.3453417  67.6722622  71.6234303
 100.8442593 116.7837334  75.7344103 101.6833115 116.3256073  75.7827950
 100.9707165 117.4437809  75.0528097  94.6894073 129.6020031  84.4082260
  95.0481892 129.2417336  83.5972309  95.4584122 129.8590279  84.9169445
 105.4879189 129.0563679  89.7278595 104.8177624 129.4589138  90.2801991
 106.2188816 129.6739960  89.7495365  87.4768162  94.7916603  70.4137182
  87.6590538  93.8682652  70.2394581  86.6102314  94.7921944  70.8202362
   0.1423102  84.8673344  61.1642981  -0.2266569  84.1834068  60.6054258
   0.1976615  84.4645691  62.0308685  69.1526699 119.9840641  68.0402040
  68.9143991 119.7966862  67.1322680  69.5828962 120.8383465  68.0034924
  96.9998837 134.2345238  63.3079529  97.3051167 134.9752617  63.8317537
  96.1255836 134.0446758  63.6482191 102.7434158 123.8492870  69.7645950
 103.4643745 123.9392090  69.1414118 102.7106667 124.6925831  70.2162695
  90.3182316 126.5844059  71.7041874  90.0648212 125.8393478  72.2490835
  90.4429436 127.3030376  72.3240614  67.9417276   6.0311489 105.5993938
  68.7911606   6.4375763 105.7711792  67.4273539   6.7199974 105.1785183
  87.2475624 126.3219547  97.9911995  87.2824860 127.2491932  98.2262611
  86.7573071 125.9124565  98.7040710  98.8994122 124.9924374  82.7136803
  99.1700649 125.1309872  83.6213017  99.7091198 125.0656033  82.2084618
 100.4101562  76.8246460   0.0047437  99.8949432  76.6174412   0.7843915
  99.7644901  76.8884754  -0.6990203 113.8538361 101.3187027  72.0795727
 114.1804695 100.5525494  72.5513220 113.9043999 102.0315742  72.7163458
  76.7797089 107.9665470  67.6542044  76.2697697 107.7956009  68.4460211
  77.5216055 108.4908962  67.9556513 100.8143330 139.1598034  74.8024130
 100.0320721 139.6987534  74.9200392 101.2242603 139.5027256  74.0083122
  93.4123707  24.3188076   2.3475877  93.6817074  23.5266285   1.8826715
  93.8452148  25.0313740   1.8773309  83.2013607 110.4875565 103.0433559
  82.7229500 109.8548031 102.5076675  83.0204391 110.2230740 103.9453220
 110.4471588 127.5571251  81.4760113 110.7815552 127.9196167  80.6556416
 111.2050247 127.1305752  81.8759155 110.6069946  89.8985100  61.2899446
 110.4570866  89.1252136  60.7460928 111.5274429  90.1180267  61.1456490
 122.1207905 122.4560070  87.7952766 121.2988186 122.9389000  87.8813839
 122.8013039 123.1159592  87.9279232  99.6427822 117.1019077  81.8549347
  99.5321369 118.0127239  81.5821552  99.2609692 117.0664787  82.7319717
 105.2656174 119.1080379  91.5578938 105.3611755 119.8501015  90.9608650
 105.2682972 118.3395863  90.9871864  88.6076164  84.2128754 101.1407471
  88.0531025  83.5820484 100.6816292  88.7603951  84.9079227 100.5005836
  79.5210361 101.4587975 103.1771564  79.9830580 100.8960724 102.5557804
  79.9522734 102.3095226 103.0963421 102.9165649  98.1193733  63.6057091
 103.2867050  98.6648369  64.2997551 102.0424938  97.8903008  63.9215565
 100.6969166 109.0012169  68.0180264 100.3590965 109.1934299  68.8927650
 100.0776386 109.4248676  67.4236822 113.9099503 133.8262367  63.8262320
 113.0279732 133.8615704  63.4559679 114.4217968 134.4258881  63.2834005
 102.6256371 107.2787857  80.4452229 102.8365898 107.5751495  79.5598459
 102.6497650 106.3234806  80.3901386  95.7359695 120.8057976  92.4549198
  95.1792908 120.8418655  91.6770744  95.1977158 121.1803246  93.1522369
  65.1923609  25.6287747 104.3764687  64.2959929  25.9197598 104.2088985
  65.3619957  25.8854275 105.2828789  88.0816364 122.7223301  90.0504684
  87.4045563 122.0737457  90.2431774  88.9059258 122.2497177  90.1663113
 111.6709900 105.7860470  87.8075027 111.4709091 104.8760319  87.5882435
 111.2850857 105.9140301  88.6740685  94.0478897 101.7895031  28.2968211
  94.1936493 102.1991158  27.4440598  93.4848690 101.0385990  28.1087446
  90.8909225 101.2442780  81.7354870  90.3112698 102.0058060  81.7178822
  90.9545994 100.9705448  80.8204746  76.9674492  92.6188946  67.5059652
  76.2208652  92.8292370  68.0668592  76.5930271  92.5395012  66.6286182
 107.0577908  95.9075928  96.8838501 107.9644489  95.8014202  97.1718121
 107.1257687  96.1273479  95.9547043  92.7116776  22.6276570  76.7369938
  91.9328976  22.1741467  77.0595646  93.2058907  22.8464299  77.5270128
  77.0344067   0.2562504  89.9355507  77.8457832   0.4641705  89.4722271
  77.2782278  -0.4408283  90.5445385  62.6051569 133.3175373  64.1681957
  61.7887354 133.3369732  64.6675062  63.2858467 133.5041618  64.8147726
  80.4410839 113.5458660  86.5128326  81.2776947 114.0046215  86.5893745
  80.0807858 113.8425922  85.6771469  87.3423767 101.7821789 108.0718327
  87.6491642 100.8868980 108.2153130  86.6477966 101.6956043 107.4189281
  13.1847697  20.7232075  73.6557436  12.3109370  20.8447438  73.2844257
  13.0674010  20.0545483  74.3305254   8.7256747 105.2770710  67.6099014
   9.2221480 104.4842911  67.4068213   8.7121802 105.3127956  68.5663414
 107.5826740 104.7460747  91.1501217 106.9361877 104.0402222  91.1423206
 107.3431587 105.2984715  90.4059982 113.5391331 128.4525013  92.0445061
 112.7879047 128.0243969  91.6338730 113.1588840 128.9855957  92.7426815
   3.4035330 107.5778580  98.3076763   3.2813960 108.3780193  98.8186073
   2.5926428 107.4871063  97.8072262 108.4165573 135.5030060  49.6119404
 109.3094540 135.6723213  49.3114567 108.4372997 135.7011318  50.5481863
 107.9086494 109.1633797  58.4302807 108.4349632 109.3648148  59.2040110
 108.3401871 109.6348095  57.7177000  64.9737835 126.2946033  92.5647926
  64.3629265 125.7714748  93.0838585  65.5156136 126.7438316  93.2135105
  96.0909653 136.8307114  95.2176571  97.0143795 136.6642857  95.0283337
  96.0531330 136.9145107  96.1704254  12.7623683  80.7581139  69.0674019
  12.3180514  79.9230289  68.9209366  12.9302245  80.7780933  70.0095606
  63.9277411 117.2472286  66.5456390  64.7433996 117.7429962  66.4738989
  63.2760906 117.7932835  66.1058569 100.0761986 111.3600826  47.9171276
  99.5089626 110.8842564  47.3104382 100.9103203 111.4379215  47.4540901
  72.6248455 104.8822975  83.4212685  73.2339048 105.0296688  84.1448402
  71.8093538 105.2941036  83.7069798  93.0641937 102.2620869  83.4685898
  92.4090004 101.7893410  82.9552937  92.6596737 102.3735428  84.3289280
 109.4971085  20.5576496  82.4284172 108.6952305  20.2698498  82.8647614
 110.0940037  20.7761937  83.1440830  76.5750599 114.3685055  85.7473755
  76.4084578 115.2597904  85.4406166  76.1632156 114.3314266  86.6106510
  79.0503597 116.1024761  62.1475410  78.4508610 115.4154301  61.8563318
  79.2835855 116.5720844  61.3467264  69.4274569  93.1366825  74.9427795
  70.1059484  93.7790108  74.7346830  68.8434172  93.5929394  75.5485487
 102.1106815 115.3079796  89.8047638 101.1969185 115.0423145  89.9081707
 102.6022434 114.4868183  89.8217487 115.8070278  68.3574677  67.7413511
 115.1661110  68.2951784  67.0331240 115.2869129  68.2877016  68.5418797
  74.1247606 107.0603943   8.4054509  74.3200159 106.8772697   9.3244592
  73.9754725 108.0054188   8.3760110 121.9228268 146.1820030  44.3677425
 122.7716446 145.7603931  44.5018530 121.5084362 146.1659050  45.2304459
  14.5426207 134.1137600  65.2475357  13.9510565 134.1214752  66.0000134
  15.3407508 134.5354271  65.5659914  89.6514416 105.5601025  67.3132420
  90.2482510 104.9848938  66.8345165  89.0505409 105.8908653  66.6455889
  97.6906109 140.3448677 104.5058632  97.2342300 139.6878910 103.9801884
  96.9904041 140.8677578 104.8963928  76.6660261 113.8411808  75.4655027
  76.7540836 113.0242348  74.9745178  77.4751806 113.9040279  75.9729958
 106.0558987 115.5247116  84.8162270 106.4941216 116.3168716  85.1271629
 105.2506256 115.8414078  84.4069958 100.4443455 124.6458817  64.4504499
 100.6910610 125.5464935  64.2400455  99.4894409 124.6675491  64.5130825
  95.5372524  87.5248528  96.7685699  95.5677986  86.7571068  96.1977196
  96.4441299  87.8282261  96.8107033  21.0620432   9.3425255  72.5555038
  20.7725363   9.9892502  71.9119453  21.3367491   8.5898571  72.0318031
  68.0108929 146.1311913  87.9004860  68.0029392 145.2132511  87.6292896
  67.1504116 146.2716866  88.2955456  91.7572403  17.4148350  71.1452007
  92.4354076  17.9494839  70.7323170  92.1101284  16.5252095  71.1280918
  88.3483124  95.7410812  63.5591555  87.7123737  96.4434528  63.4231901
  87.8233051  94.9407387  63.5664225 113.4005165 127.5039577  50.0174332
 114.0662384 126.8161774  50.0155449 112.7106190 127.1679497  50.5895948
  74.8637676 118.5144520  58.1028366  74.9451685 117.5848198  58.3158731
  74.7346020 118.5324478  57.1545649 110.0239563 104.0657043 102.2981930
 109.5702648 103.6709499 101.5535069 109.8672104 103.4600163 103.0226231
  10.2055579 128.7990093  73.7914228  10.0371295 129.7411060  73.7736273
  11.0880023 128.7202549  74.1537905 111.9495678 138.3894920  86.0935879
 111.5221500 138.6790180  85.2875328 112.8843498 138.4060860  85.8882999
  77.2877836   5.6346970  75.4991198  77.8167057   5.5804711  74.7031736
  77.3169374   4.7513752  75.8667135   3.6029559 133.5107899  78.2742357
   4.4995337 133.6194515  78.5913754   3.5838156 133.9850140  77.4429846
 105.7751656 136.9718647  82.5492382 106.6920280 136.9681931  82.2743130
 105.2874374 137.1853256  81.7537594  66.2678099 134.2907143  99.9270725
  66.8125916 134.3620014  99.1432571  66.4185858 135.1098156 100.3988552
  92.9999733   4.6052151 105.2521706  93.1387806   3.7177353 105.5828381
  93.8819790   4.9461823 105.1037312  77.1672630 145.9514904  78.9675951
  76.3114309 146.3553619  78.8238239  77.0847416 145.0751114  78.5915661
  72.7962780 113.8217449  50.2748823  73.0888081 113.8492203  51.1858749
  73.4226131 114.3727303  49.8054743   5.4392081 123.4356976  50.0091982
   4.9444228 124.2548656  50.0289822   4.8867255 122.8341866  49.5100164
 112.6260567 122.5631714  83.4741974 112.3156548 122.5982094  82.5693989
 112.0315647 121.9509602  83.9078045   2.0431643  92.2213364  72.7176476
   2.1939498  92.8262997  73.4439468   2.9150324  92.0556164  72.3590136
 105.3919506 100.3837585  84.1039944 105.3664684  99.6257973  84.6880245
 106.1836433 100.2567863  83.5811901 115.6923580  98.2095909  92.4286556
 114.7921562  98.0279732  92.6986408 116.1747742  97.4137783  92.6526737
  31.5372019 125.7580566  99.6496296  31.9650012 126.5693092  99.3756199
  30.6230193 126.0048294  99.7896671 106.6169262 137.1308327   8.2824270
 106.9446182 136.4897346   7.6516763 106.0171127 137.6793003   7.7768270
  91.3860512  21.7238407  57.2104788  90.5717182  21.2343769  57.3267603
  91.6514397  21.9617443  58.0988503  71.4953375  90.0141811  84.3428612
  71.3033676  90.9324265  84.5331669  70.9116840  89.5227146  84.9208260
  93.3077240  87.8093433  85.3023434  92.9106045  87.0616817  85.7490349
  94.1621685  87.4892807  85.0130081 120.9827232   8.2205563 102.5778103
 121.4612865   8.3319359 103.3992767 121.6278934   8.4114819 101.8969727
 107.9338551 106.5965748  82.3719883 108.1291771 106.7628765  81.4498043
 108.7918949 106.4966202  82.7842999 102.7568626  88.5955238  76.0785580
 103.1009197  87.7237797  75.8838272 103.2635021  89.1835976  75.5184507
   0.8031207 122.4547482  39.6144176   0.4925566 123.2674313  40.0135660
   1.6268187 122.2665024  40.0642157 123.4515476 115.6516933  38.8659692
 123.2771015 116.5823174  39.0064335 124.0633488 115.4148102  39.5629740
  91.8915939 132.9304028  49.7294855  91.8861580 132.4679565  50.5675459
  91.0485268 133.3827400  49.7000647  88.0844212 106.5196609  48.7680244
  88.7039661 106.9458485  48.1757736  87.8974819 107.1803093  49.4349766
 106.8090439  16.7928105  64.5676994 106.6830254  15.8573704  64.4085503
 107.7191925  16.8664151  64.8548412 107.6244926 124.3508720  86.8082619
 106.9882584 124.1353607  86.1263657 107.9273319 125.2307320  86.5838242
 101.8183804  16.6320210  66.3430643 102.2068214  17.5029736  66.2605429
 102.2256470  16.1208897  65.6437063  94.4574070  81.3678360  63.2753277
  94.4835949  80.4266262  63.1031132  93.7245274  81.6873360  62.7489758
  89.9504757  82.7854156  65.5186224  89.8841000  82.1376324  66.2201929
  89.3445015  82.4735069  64.8465061 109.1394329 122.0151615  78.6070108
 109.3115425 121.2965775  77.9985380 108.1851673 122.0867538  78.6293221
  82.1932220 106.9326401  48.6342382  82.9042435 107.1405411  49.2404175
  82.5086975 106.1714935  48.1470442 121.0819435  92.8156471  73.2623196
 121.4129925  91.9477940  73.4935570 120.1351643  92.7521706  73.3880568
 102.4673748 109.2225456  34.6405840 103.4090805 109.0816975  34.5426941
 102.3965645 110.0655556  35.0884295  84.8991013 125.3182507  71.0728550
  84.3047714 126.0122108  71.3582277  85.4767227 125.1743412  71.8224287
 104.2240906  85.3056908  71.1299992 103.7574100  84.4831181  71.2776709
 104.9810314  85.2598190  71.7141008 106.6362190 116.2018204  27.6183629
 105.8618641 116.6566181  27.9496789 107.3349476 116.4449596  28.2257247
 107.4809456 112.9381657  66.4354753 107.1040344 112.6454735  65.6057119
 108.2810974 112.4214840  66.5305567 121.3438034 107.3210144  76.2517881
 121.9169998 107.9536629  76.6847277 120.8107758 107.8485966  75.6570053
  90.3952980 125.2807331  53.7869978  90.2616310 124.8583031  52.9385185
  91.1604881 125.8410931  53.6576748 109.1624165  86.2891483  81.6009903
 109.8698807  85.6488991  81.6771412 109.0139580  86.3711357  80.6589317
  83.1077003   9.1121464  75.1020288  82.3324013   8.8524418  74.6043348
  83.8084888   9.1502648  74.4511175  10.7282191 143.3791065  60.1159811
  10.1176100 143.7648869  59.4878387  10.8657485 142.4864388  59.7990370
 103.6167240 139.2851734  82.4196053 103.4523487 139.4355202  83.3505249
 102.9518414 138.6478615  82.1588516  82.1643639  87.0199490  59.3910456
  81.5917015  86.2529469  59.3907499  81.8006706  87.5906563  58.7140989
  85.3175640  18.2986431  35.2239227  85.3882217  19.0195828  35.8496141
  86.2151527  18.1514149  34.9257898  85.3953648 121.0636806  72.0077705
  85.2160931 120.2047825  71.6251469  85.2328968 120.9474850  72.9438972
 100.8057976 131.1316299  77.4342632 100.2273178 131.4023685  76.7213154
 100.5608368 131.6948223  78.1684542  27.9188758  90.7165432  42.8143644
  27.9232340  91.0032749  41.9011354  27.6078253  89.8119450  42.7799034
  90.6937504 118.2147121  55.7335043  90.6006050 118.3930302  54.7976828
  89.8126888 117.9746723  56.0204506 121.8398666 127.3189926  90.8296680
 122.7637768 127.1191597  90.6790257 121.6946507 128.1439972  90.3665066
  98.3954525  70.4395628  48.6923742  99.3082809  70.1661825  48.6015415
  98.3458996  71.2700129  48.2189512 111.4934731 119.2193508  68.3852243
 110.8100319 118.5495663  68.4082079 112.3133278 118.7258434  68.4081650
 108.3749962 125.7400799  66.1492825 109.1559601 125.5147552  66.6548014
 108.2981682 125.0391006  65.5020142  92.6155758 145.6141376  75.7752991
  93.1083584 145.8376312  76.5648937  91.6992664 145.6331539  76.0514259
 104.7526646  73.4979248  72.2152090 103.9521313  72.9736376  72.1926785
 105.2385235  73.2268143  71.4363194  90.2641296  84.7337627  75.7367659
  90.6272411  85.6180954  75.6884480  91.0014439  84.1865540  76.0072327
  65.5344391 113.0287743  78.5153103  65.9775352 112.1827602  78.4508514
  64.6425152 112.8119373  78.7867689  83.5667610 138.5928154  49.0947056
  82.8417015 138.9311600  49.6201086  83.4533310 137.6425552  49.1137552
  79.2416286 132.3115826  35.0496316  79.8713446 131.9546700  34.4232845
  78.9016294 133.0991936  34.6250272  17.6976233 108.3609962  55.4036093
  17.0959120 107.6714420  55.6840944  18.1093054 108.6635017  56.2130785
  95.7113838  23.4552174  64.8325491  96.3502502  22.7443867  64.7796154
  95.0415230  23.2236080  64.1892147  98.2187557 111.0373497  34.1165829
  99.0481472 110.8602333  34.5604038  98.0110073 110.2207851  33.6623859
  91.9092846 123.6063480  68.3405638  91.6807079 124.4674015  68.6906672
  92.8629780 123.6256123  68.2609987   0.4427939 144.2662716  65.0639534
  -0.3063650 144.5864773  64.5614862   0.0785857 143.5848713  65.6289959
 114.5479393 130.7555294  70.4383850 114.3851471 131.6119480  70.0430632
 113.9627266 130.1603317  69.9698877 101.1854553  78.0179977  66.6522455
 100.9630585  78.8178301  66.1757612 101.5556908  78.3269072  67.4791241
  84.3508434 143.3436489  37.6709294  85.0219631 143.0471039  37.0561981
  84.5846081 144.2522430  37.8607798  84.8763466 119.3510151  43.5443544
  84.9122620 119.4026661  42.5892258  84.5372200 120.2033615  43.8177252
  74.6209812 119.0871143  40.4731989  74.4485569 119.6692657  41.2132025
  74.7106457 119.6741486  39.7224736  -0.2254075  94.8717880  70.0733757
   0.6451159  95.2309322  70.2449608  -0.2232236  94.0197563  70.5095863
   5.3392821 112.4692059  58.8624382   5.7105857 111.7584705  58.3397388
   5.2890902 112.1131516  59.7495365 108.5335255 106.6949749  60.2344179
 108.4017944 107.0309067  59.3478298 107.7262402 106.2206268  60.4332161
 101.5905952   6.2914830  65.4532385 100.6954575   5.9528523  65.4360914
 101.7783260   6.5183716  64.5424652 100.2310371 126.8704987  68.5435629
 100.8566189 127.5200748  68.8643980  99.9402618 126.4090729  69.3301821
 119.9593544 100.4911423  89.0074825 119.2306805 101.0371113  89.3027592
 119.5415592  99.7115993  88.6414242  71.0347223 127.3357582  62.0690489
  71.3414955 126.6908073  61.4317465  70.7634211 126.8151283  62.8250694
 101.1762428 131.9940090   2.7032796 101.8554401 132.6683044   2.7193681
 101.3583946 131.4894390   1.9105188   7.7454501  63.5047388  40.0071907
   8.0579978  64.4094706  40.0078869   7.6507407  63.2847691  39.0804338
 108.2229328 100.3659534  55.8733130 107.6823330  99.5763588  55.8506393
 107.9118443 100.8904934  55.1355362  82.6543140 113.1868267  61.5933847
  83.4266376 113.7170696  61.7898464  82.0425224 113.3826351  62.3030376
  88.7123775 110.7410526  60.8951473  89.0068054 109.8541260  60.6880045
  87.7794170 110.7398224  60.6811190 112.7226257 138.9774132  66.7302656
 112.8649902 138.0500507  66.5405941 111.8120861 139.0252686  67.0215702
 109.5777702 118.6162472  49.2340517 108.8121319 118.9047909  48.7372780
 110.2921772 118.6205769  48.5970068  86.7120838 130.9421253  66.5046549
  86.5960503 130.0521088  66.8372917  87.5553894 131.2226486  66.8601465
  77.1654510 121.5180302  63.8154745  77.6637650 121.3434315  63.0170822
  77.2251987 120.7053375  64.3176508  80.8027554  91.6376400  76.7647600
  81.6179466  91.8670750  77.2109222  80.1985264  92.3445988  76.9913530
  74.9399614  89.8305798  71.9754314  74.9853563  90.7850742  72.0312452
  74.0141106  89.6434879  71.8204308  92.4934101   3.6617833  50.0772238
  92.6966858   4.4531327  49.5785379  92.0649147   3.0841236  49.4456148
  88.6455727 130.0015163 102.0798302  88.0014801 129.4408703 101.6473198
  88.2020283 130.3106117 102.8697395  88.7780666  95.3386211  41.4403439
  89.2632389  96.1139774  41.1580753  87.8702354  95.5233669  41.1996269
  68.4411955 145.1780796  78.1433487  68.3583450 146.0408974  78.5494375
  67.5480127 144.8342896  78.1270027 119.5792103 138.3020973  19.7555113
 119.4538116 138.9104462  19.0272117 118.7414837 138.3069420  20.2185822
 119.1587257 103.3209801  62.4301624 118.4829330 103.6909294  61.8621254
 118.8842201 103.5593796  63.3156252  83.3840466 102.2540665  27.9940462
  83.1644630 102.5792599  28.8671231  83.5442543 103.0438805  27.4775648
  10.8034831 127.8736877  60.5581284  11.2011271 128.7328911  60.6991291
  10.8559065 127.4426079  61.4111519  88.2452583  88.8826084  97.7049828
  87.6661968  89.5093632  98.1386948  88.4960270  89.3138313  96.8880463
  54.7506380 133.7086010  75.4533720  54.1789913 134.0960407  76.1161947
  55.5922842 133.6008072  75.8963633  80.0067711 128.6863899  53.9482880
  80.3760338 128.4462833  54.7981262  80.1178455 129.6358204  53.8985062
  19.5182162  89.3318844  66.8111753  18.6429339  89.5331764  66.4801168
  20.1095706  89.8147488  66.2337875 120.2748489 139.1232967  42.7029276
 120.4056263 140.0539875  42.5214005 120.7937050 138.9575768  43.4900475
   8.3458262 132.1481609  80.0274181   8.9742213 131.5252399  80.3925514
   8.8874846 132.8394222  79.6466398  78.4565735 118.9247799  45.6820011
  79.0060997 119.6685410  45.4348660  78.0867004 118.6151028  44.8552418
 109.4700146 137.5398827  93.0723858 109.2862034 137.7338791  92.1532440
 109.1870975 138.3234501  93.5437679   3.7345248 132.5937748  71.6201735
   4.1819316 133.3385086  72.0219707   3.1853991 132.9830074  70.9395933
 105.2302647 120.3569031  66.6276550 105.6992531 120.2652931  67.4570417
 104.5833969 119.6514511  66.6390991   2.8660708 102.6904392  12.6276088
   2.0281821 103.1095219  12.4313200   2.8994113 102.6578331  13.5836720
  71.2832975 139.1538143  46.7671871  70.7882071 138.7582207  47.4845648
  71.4865255 140.0371075  47.0749474  94.5978355 121.0257816  82.9065228
  95.2188492 120.3013706  82.8302956  94.6516895 121.2918377  83.8244247
 108.7450600 131.3720989  87.2330189 108.7203979 130.9900093  86.3557339
 109.5129395 131.9435120  87.2238922  99.6660614 123.6739063  48.2958412
  99.2252445 124.2396736  47.6619530  99.4363785 124.0444756  49.1479874
 118.8117313 129.4773293  86.8848801 118.2395267 129.9263763  86.2626553
 118.6688519 129.9336815  87.7140713  97.9159164 107.1063137  62.8901005
  97.1276951 107.6400948  62.7899790  97.6136303 106.3135338  63.3332157
  10.3479224  99.3263817  64.0226841   9.4339114  99.0421391  64.0177059
  10.7899886  98.7013721  64.5972872 105.4864597 136.4263344  30.6827188
 105.8570099 136.5294266  31.5592432 104.8632240 137.1480942  30.5997491
  84.5233440 107.5114822  50.3525305  84.7469521 108.4272480  50.1863480
  84.8996639 107.3253441  51.2127399 117.1789169 127.2718143  11.4487970
 116.3811684 127.1186829  11.9551408 117.8905582 127.1068573  12.0673323
   5.3600722 132.9764462  87.2830391   4.8260623 133.3824539  86.6002369
   4.9830657 133.2950974  88.1031322  82.9125118 121.0757351 104.1429138
  82.5673294 121.8891144 103.7748241  83.3797741 121.3493633 104.9322319
  78.5141802 107.4511337  76.0572815  77.9290295 106.7250919  76.2733936
  77.9288387 108.1567478  75.7821083 105.2805138 118.9987469  73.9323092
 106.0508728 118.6894608  73.4557295 105.6344891 119.5652676  74.6178722
  85.1476097 139.0536308  46.4614010  84.9612713 138.9140511  45.5329466
  84.4997787 138.5177040  46.9189167  83.0359745 123.6375046  35.2950287
  82.1312237 123.4915924  35.0186872  82.9599571 124.1086388  36.1247778
   6.7460948 115.7372189  79.2781353   6.7508536 115.2213001  78.4718847
   7.5936442 116.1820412  79.2828512  95.3100777 120.0545883  73.9574146
  94.4855976 119.7512150  74.3374586  95.6833458 119.2766857  73.5429716
  64.4661999 108.9601326  82.1539211  64.8875332 109.4227600  81.4295673
  63.6421871 109.4278526  82.2898388  85.4790974   1.9129067 100.1529217
  85.1483822   1.7986279  99.2619705  85.6935978   2.8439408 100.2112007
  81.9723606 127.1618748  40.3317595  81.4696693 126.8854332  41.0979891
  81.3436890 127.6430225  39.7937036  73.5136414   1.7840176  71.3214684
  73.9475346   2.6328736  71.4075661  73.6571646   1.3550167  72.1650267
  94.8021793 134.8876190  75.7947159  94.9833584 134.1147041  75.2599192
  94.7269058 135.6033039  75.1635599 104.2003345 112.0108509  42.2457695
 103.7768459 111.3866234  41.6565037 105.0830936 112.1145916  41.8905210
  88.5443497 128.2931805  79.7538137  87.7345467 128.3977032  79.2542839
  89.2381668 128.3280373  79.0952969  93.5194778  96.3629246  73.8781929
  92.8443813  97.0348740  73.9728355  93.0412292  95.5349636  73.9227772
 104.3761539  97.8199959  54.1214514 103.8832188  97.0075703  54.2363596
 103.7063217  98.4878731  53.9748573  11.6789561  98.9552212  35.5772710
  10.8376532  98.4988213  35.5898333  12.3147231  98.2930565  35.8485174
 113.0733585 126.3845158  56.6914368 112.5408459 126.7843819  56.0038519
 113.7544155 127.0318985  56.8738842  88.8184166 108.5068798  74.4733667
  88.1677723 108.3117104  75.1477671  88.4665871 108.1067085  73.6781883
  96.9154835 115.9484673  86.7551422  96.8210316 116.3054371  85.8720303
  96.8365288 115.0014591  86.6403961 100.7387352 123.7016964  14.0608096
 100.6997681 122.8433800  13.6389065 101.2714386 123.5599613  14.8433506
   0.2260905 103.5516548  59.1174555   0.8489638 102.8663921  58.8752174
  -0.5887765 103.0823326  59.2962408 101.5941429  95.7675743  56.6950274
 100.8329582  95.3459930  57.0939016 101.9657040  96.3034630  57.3957300
 105.1596546  10.1030617  17.8696990 105.0199413   9.1586571  17.8003454
 104.6774578  10.4715233  17.1294594  98.4726906  99.3327332  70.2455902
  97.8462219  99.3470860  69.5220184  98.3958435 100.1986885  70.6461430
  66.5462112 102.4178219  60.4588366  66.6024923 103.3469582  60.2357626
  66.9622517 102.3522472  61.3183928  65.4475355 138.2458305  80.4278660
  65.0295544 137.5660610  79.8992491  66.0392952 138.6909294  79.8212814
 120.1665115 122.9746628  61.1913586 120.0173569 122.1164989  60.7944441
 119.7934437 123.5959053  60.5659723  83.7211132 134.4974709  66.2972784
  82.9280758 134.9881840  66.0816097  84.2314148 135.0951290  66.8437529
 123.8947487 130.0641060  91.2016678 123.9791965 129.2573452  91.7098427
 123.9169598 129.7758293  90.2891827  98.0679893 126.7197990   1.4616638
  97.6367664 126.8063831   0.6114949  98.2360744 127.6207542   1.7378218
 100.1444817 104.2354202  98.2013512  99.4558239 104.3608475  97.5484753
 100.1299572 103.2966042  98.3874702 105.0710392   6.3878804  36.3248897
 104.5222569   6.9986229  36.8168950 105.4025841   5.7788544  36.9847274
  62.7438641 137.2398186  64.1423321  63.5665607 136.8097019  63.9090824
  62.9825306 137.8517628  64.8386002 124.1656208 114.3543911  65.5089617
 123.9384174 113.9811802  64.6573019 123.8801765 113.6962605  66.1427021
 102.2003269 130.3603363  68.1987667 102.3711777 130.7562542  67.3441982
 101.3678455 130.7418823  68.4773779  54.0431070  84.3604660  57.7255011
  53.9960146  85.2679729  57.4247646  54.9730396  84.2133045  57.8981209
 118.8290405  11.2478333  93.2872295 118.8565731  12.1130734  92.8787708
 117.9632092  11.2018471  93.6927605 101.6171741  85.5821800  53.0838346
 100.9579945  84.9448776  52.8089714 102.1869469  85.6815338  52.3211288
  98.9703083 134.2228889  67.8463364  98.5469627 133.7491035  68.5622549
  98.7191200 133.7407684  67.0584965 110.9500694 127.7021122  66.1423969
 111.5117073 126.9348240  66.0325193 110.6563091 127.9127979  65.2560854
  83.3395100 107.5741386  73.3166790  83.8037777 106.7485142  73.1787205
  82.5444317 107.4927425  72.7899408 118.6961365  89.0445042  57.5900698
 118.1560802  88.3421707  57.9524136 119.3495655  88.5929108  57.0559168
  87.6246166 128.3772945  55.6953621  86.8676567 128.9608288  55.6430912
  87.6376629 127.9257393  54.8514652  56.3719320 119.2735195  59.6986437
  56.6827631 120.1646614  59.5390177  55.9431696 119.3188858  60.5532455
  71.4792490 112.6463223  65.5003929  70.6895971 113.1859970  65.4626083
  71.1682892 111.7862988  65.7830811  97.9963207 137.9450607  75.5315828
  97.1654224 137.8206825  75.0729227  98.3251762 138.7838268  75.2082348
 106.2567425 127.3223591  60.5682802 107.1638203 127.2917175  60.8723974
 106.1234570 128.2325363  60.3036404 101.8959713 117.6895142  25.8257103
 101.8927288 118.1112862  26.6849685 101.4581966 116.8504620  25.9691048
 102.5499344  13.1838684  62.2678852 102.2723484  13.4898072  61.4044142
 102.0801640  12.3591976  62.3922205 102.2614479 108.3073139  44.3309546
 102.3841763 108.9557934  45.0242376 103.0266571 108.4132195  43.7657452
 100.5236816  92.1402931  57.0148277 101.1485767  91.7086124  57.5973940
 101.0266113  92.3308277  56.2230015  84.0650272  90.8752346  72.0883083
  83.3094311  90.4708195  72.5146341  84.2635441  91.6403389  72.6281643
  53.2043600  86.4045811  73.3767223  53.5420990  85.5573845  73.6672974
  52.9084921  86.8327713  74.1800547  92.7612400 123.6422539  60.2413082
  91.9365788 123.9039040  59.8317862  93.4156609 124.2244339  59.8552704
 100.3687668   0.0583725  15.3026104  99.4220161  -0.0701065  15.2443671
 100.5125618   0.9395581  14.9575388  71.2915468 138.6985588  15.0204730
  70.4901791 138.3149624  15.3766870  71.9779730 138.0701351  15.2443743
  86.3036346 135.5298805  53.2589388  86.3102722 135.8625507  52.3614311
  87.1344185 135.8265305  53.6304808 106.6585732 139.4247627  40.8953619
 106.3736820 140.3375244  40.9393501 106.6199970 139.1178894  41.8012190
  85.3295040 100.5284023  61.2139750  85.9663773 101.0677147  61.6827631
  84.4886017 100.9564590  61.3748789  74.7399187  86.8267822  79.0325928
  75.0307083  85.9432316  79.2584562  73.9566708  86.9646454  79.5652723
  21.8703681 120.0322628  80.5400944  21.1255675 119.6625519  80.0659561
  21.5168219 120.8092403  80.9731579 115.3510475 112.6923084  57.0998621
 114.4656372 112.8952408  57.4016762 115.8376408 113.5078907  57.2193432
 117.8750896 111.1686897  89.6916199 117.8876114 112.1257496  89.7020721
 117.8902817 110.9391022  88.7624836 106.4867306 111.2252522  54.9069405
 107.0253181 111.2150383  54.1157055 106.0489655 110.3740215  54.9096918
 122.1446609 133.6846828  60.5293703 121.3032436 133.3266830  60.2463913
 122.1596909 134.5724392  60.1717424  79.4712114 131.0878944  56.0131550
  79.8191214 131.2826824  56.8833590  80.2418327 131.0697842  55.4456615
 101.3106155  74.5674324  75.3658676 101.4327145  74.5637035  74.4164944
 100.4336548  74.9293280  75.4931498  80.3672218 120.8339024  72.4877787
  80.9069538 120.0440216  72.5195217  80.8235550 121.4586258  73.0514431
  99.0763283  91.2321091  59.1783857  99.5176220  92.0244312  58.8722610
  98.5026455  90.9823895  58.4539843 116.5148830 110.9995461  67.3567104
 116.5723419 110.2503872  66.7636728 115.7315826 110.8309460  67.8803873
  82.3979568 128.1833744  86.8896008  81.6027355 127.9829407  87.3832512
  82.0996189 128.2846928  85.9857368 116.4517498 111.5805531  76.0211706
 115.5553627 111.8234062  75.7893610 116.9557571 111.7340279  75.2220106
   6.9711810 122.0310783  75.9199762   7.1051531 121.1262035  76.2018967
   6.0304957 122.1765900  76.0208082  20.8826094 103.2198811  54.4589424
  20.0165778 103.2525253  54.8653269  21.2914115 104.0513802  54.6991777
   9.0846949 100.6337547  61.1650753   8.5529070 100.9517956  60.4355001
   9.7465449 100.0774193  60.7543707  89.9778938 127.8769875  57.4355078
  89.3010044 128.0891323  56.7928123  90.8025169 128.0245876  56.9724417
 107.2611237  94.7985935  72.5219202 106.5968513  94.8929596  71.8392229
 108.0398273  95.2200794  72.1583128 116.1115742 107.8107071  70.1984549
 115.7058525 107.9993725  69.3522739 116.2081432 108.6675167  70.6141233
  76.4671421  80.2260876  70.0556326  76.5288639  81.1513519  70.2929163
  77.3191595  79.8604584  70.2935696  99.0491867 103.3909988  64.2171335
  99.9999523 103.3199883  64.3022251  98.8764858 104.3322563  64.2380047
  17.5198966 116.9236946  82.4222469  18.4219294 117.2395515  82.4751377
  17.6014739 115.9705830  82.3880672  74.0586185 136.7090416  46.4752913
  73.6101723 137.5469685  46.3612127  74.2836666 136.6825008  47.4052811
 120.2955723 123.2028675  72.7452230 119.8112965 123.7159252  73.3921242
 121.2029171 123.4925461  72.8403378  99.9238777 136.0579109  88.9042950
  99.3653488 135.4431725  89.3800926  99.8360634 136.8817139  89.3837357
 108.5837269 111.1364460  56.5399837 109.3758392 110.9501553  56.0359192
 107.9163551 111.3191223  55.8785629 123.6893463 107.0781422  70.2068424
 124.3168926 106.7307472  70.8406639 122.8887463 106.5773487  70.3633213
 106.4194489 131.2957573  47.0842361 105.8237934 130.9436798  47.7456427
 107.1538353 131.6484642  47.5867462  -0.0995035 121.0675716  85.2432823
  -0.1131696 121.9820023  85.5258656   0.5072051 121.0546875  84.5030308
  86.8132591  90.0762081  85.2968216  86.8400764  91.0123158  85.4948521
  87.5553036  89.7085094  85.7768154   6.9635516 134.2584419  52.5318050
   7.8948622 134.1440392  52.3425961   6.7821818 133.6300755  53.2307291
   4.6721297 110.8919525  43.7585163   4.5882731 109.9384499  43.7529802
   4.8261290 111.1135197  44.6768951 118.4392548 140.4272461  74.8778677
 117.6360416 140.5583858  75.3817368 118.9141941 141.2537479  74.9648714
  98.8121033  91.0819340  77.7490807  99.1600609  91.6310692  78.4516525
  98.9222717  91.6080093  76.9570303  13.0673533 139.0891647  71.9268894
  12.3028689 138.5132313  71.9358635  13.5976439 138.7719440  71.1958694
  87.8027916 122.7268791  71.9323969  87.8470802 123.4710503  71.3319969
  86.9014263 122.4132252  71.8589926  87.7609730 104.7258949  69.0887308
  88.3607864 105.1746178  68.4928226  88.3029842 104.0672588  69.5230675
 105.9500790 106.2765217  74.5457220 106.4318371 105.4518700  74.4817257
 105.4652405 106.3351727  73.7224865  65.7028675  29.3662815  38.1867981
  65.0390100  29.9394970  38.5701203  66.5115929  29.5973568  38.6437464
  94.2524910 105.2176952  80.1770210  93.8921738 104.6440887  79.5007181
  94.6769238 105.9243679  79.6905088 119.4500351  88.1893063  64.6017218
 118.8367271  88.9185524  64.5106554 119.5245838  87.8273487  63.7187386
 124.0112782  88.5095882  48.3882713 123.2139587  88.7597752  48.8550901
 123.8369560  88.7402725  47.4757862 111.8613720 118.8267136  37.2660732
 111.8254566 118.3362198  36.4448833 112.4304008 119.5723248  37.0750093
  92.0915413 123.2846069  54.7298002  92.7009869 123.8813114  55.1642466
  91.4839649 123.8596439  54.2645931 121.0706997 109.5773602  69.7822857
 120.3546047 110.1227379  69.4567108 121.6238594 109.4258213  69.0159464
  94.8737049  82.0331955  94.3810368  94.8987389  82.7258587  95.0411987
  95.0710773  82.4797535  93.5577202  99.8612499  97.3310375  38.6473775
  99.0504837  97.2249413  39.1450047 100.3684998  97.9691219  39.1491556
  94.7749043 108.9292049  51.8902206  94.2609692 109.7295761  51.7829227
  95.6390572 109.1511822  51.5435219  63.6668158 108.0728436  59.7037983
  63.4234428 108.4973717  60.5264664  63.4407997 107.1518040  59.8335505
 121.3299084 105.2439499  25.9339070 120.8485413 105.2125645  26.7606664
 122.1953773 105.5755806  26.1731029 106.3790798 107.5332069  64.0385532
 105.9562492 107.4504089  63.1838083 106.1804676 108.4267521  64.3184710
 117.2445488 144.2724419  69.5047665 116.5645313 144.6318817  68.9350176
 116.8405437 143.5014057  69.9029207  75.2728271 103.6259556  92.8040218
  74.6073437 104.1043568  92.3095608  74.7798395 102.9689598  93.2955170
  88.5037041 107.9396534 101.9989014  88.0821705 107.0880699 101.8834209
  89.1797924 107.9660225 101.3218212 102.7094746 131.4788914  44.8535347
 101.8885994 131.9597530  44.9592400 103.1671810 131.9382381  44.1494513
 112.9414654  91.8880558  64.4650602 113.0011463  92.1332264  65.3883982
 112.8706264  90.9335232  64.4747925  83.8139629 145.9592152  40.7476377
  84.3393040 146.7158127  40.4872513  83.1531143 145.8783722  40.0599051
  95.5884552 131.5986252  75.3032589  95.7577896 131.8157578  76.2199926
  95.6424427 130.6435490  75.2694225  15.7030039 144.2267799 103.1645336
  15.9687834 144.7129631 102.3840024  14.9540263 144.7145748 103.5070589
 101.5815830 145.7999516  44.3102074 101.2396717 145.8928776  43.4210014
 100.8063889 145.8400345  44.8702955  75.1698446 119.8083591  29.0165377
  76.0542870 119.4916248  29.2000556  74.6971607 119.6896172  29.8403716
  86.1501217  17.7494030  65.7053995  86.4100361  18.2433491  64.9277830
  86.9587612  17.3361760  66.0080147  74.3881702 134.2254734  41.7873573
  74.0445566 134.9228859  42.3457336  73.6171818 133.7150097  41.5398884
 101.1766529 115.2440929  51.4268208 100.5794907 115.3338432  52.1694946
 100.9289932 115.9530640  50.8333063 122.4397182 135.1906013  25.0266552
 122.3831177 135.0193405  25.9667087 122.1512890 134.3750763  24.6168375
 105.2584362 122.3349953  77.4014187 105.5300522 122.6115894  76.5262270
 105.5473518 123.0432510  77.9768705  73.6853600 113.8437748  52.8178358
  73.5528994 113.3489418  53.6264324  74.0895844 114.6635246  53.1021786
  87.2778225 138.6682320  50.2074194  86.9915581 137.7562618  50.2583504
  88.2183456 138.6149216  50.0376844  93.2970238 123.0371189  40.2740717
  93.0981636 123.8655567  40.7103872  92.5850296 122.9207897  39.6449757
  90.7479095  88.5103512  39.8515964  90.4592705  89.1735744  39.2246556
  90.7687569  87.6970387  39.3472958 106.7826176 120.4083157  45.7483912
 107.5078011 119.8404789  45.4878139 107.1930599 121.0951424  46.2737846
 102.3204517 118.6989689  14.9273944 102.3866749 119.5552635  14.5047772
 102.3556328 118.0719757  14.2049861 102.2146225 121.0280609  37.0954943
 101.4034843 121.1217117  36.5959835 101.9887257 121.3250637  37.9769683
 103.9757347   3.8631707  60.4352474 104.7700596   4.1776924  60.0035620
 103.2599640   4.2217999  59.9105692  92.6010799 130.3386593  33.8248563
  92.9913616 130.8687973  33.1299686  91.6646290 130.3358078  33.6266518
 114.0007591 121.9888306  17.6279771 114.8413277 122.4456978  17.6587224
 114.2336845 121.0638809  17.5476933 109.8424053 128.4481144  63.3551836
 109.8404217 129.3784046  63.1297922 108.9396763 128.2623768  63.6136818
  93.4298706  13.4985142  25.9653568  92.4951267  13.3832913  26.1362457
  93.6496162  12.7967434  25.3526092  95.1961899 145.3075218  46.9366360
  95.1515007 146.2298870  47.1885633  94.5609283 145.2223587  46.2257004
  88.2436085 142.1809769   9.1043997  88.7951851 142.9422855   9.2844152
  88.7831688 141.6208649   8.5463870 111.6861629 105.2845001  35.8666539
 111.1753654 104.9953461  36.6227651 111.2503815 106.0854149  35.5753374
 118.8163567 126.8404770  32.8527999 118.5280228 127.6986504  32.5419450
 118.6697102 126.2549496  32.1099067  45.3513861 118.6139393  44.7731209
  45.3690577 119.3902397  44.2134094  44.9981356 118.9270401  45.6058359
  49.2043686 120.4656315  31.0140634  49.0300560 119.6046925  30.6337571
  48.3524799 120.9020901  31.0193062 117.8384304 143.5912228  37.0028257
 117.9322338 142.7651501  36.5284538 117.0156574 143.9599228  36.6813707
  81.0313702  19.6162205  62.9994965  80.8109760  20.5341893  63.1576204
  81.0038757  19.2106037  63.8660669  93.7072468 124.9938393  56.1268139
  93.5205650 125.8303547  55.7006502  93.9677429 125.2312851  57.0167542
  95.9061146 104.4703102  57.1928835  95.2486801 104.7799969  56.5698957
  96.0868931 103.5700417  56.9225931  10.3509455  94.6637440  59.9734402
  10.0192195  95.5277443  59.7291040  11.1725836  94.8431301  60.4305601
 110.1225758 116.2173271  55.6147099 109.7500992 116.9454002  55.1173210
 109.4727135 115.5185699  55.5394650 122.3884106 139.2984772  78.6076593
 121.5323257 139.1521072  78.2052612 122.9030132 139.7300339  77.9256201
  89.1139603 141.4672756  37.2188210  89.5461464 141.7703247  38.0173254
  88.5543633 140.7465839  37.5081038  77.2019863 135.4910374  20.8322263
  76.2976217 135.7786751  20.9572005  77.5291967 136.0342693  20.1152468
  61.2723255 122.6254368  68.4783745  61.2299061 123.2930088  67.7937031
  60.8202028 121.8693447  68.1040287 111.7409420 133.2630253  23.2668161
 112.0671272 132.5570774  22.7087188 110.8917427 133.4933567  22.8899264
 117.6082897 114.2463589  76.3676548 117.8356552 114.9865150  75.8048916
 117.9421234 114.4904137  77.2309160  17.6836711  99.1828728  66.0293341
  17.9482966  98.3125591  65.7314205  18.2052165  99.7861099  65.4998827
  83.3160686  89.7530937  65.8315897  83.8444901  90.4982376  66.1175156
  82.4716187  90.1356792  65.5933380  60.3306580 132.1292591  39.1317916
  59.5311785 132.5585651  38.8272309  60.0921965 131.7518520  39.9785113
 101.9257832 103.1255150  31.8275690 101.9232178 102.8825665  30.9017181
 101.0463428 103.4677696  31.9878197   3.5684138 118.4245014  11.5339756
   4.1067534 117.7868462  12.0028281   2.7046328 118.3535194  11.9402623
   0.5264502 106.7049885  47.1449471   1.2337905 106.0785484  46.9917297
   0.0144415 106.3190079  47.8556442  16.7830115 122.3303986  60.7306194
  17.7055674 122.5771046  60.6653643  16.4125662 122.5610447  59.8786783
  92.8056812 141.6914654  75.5555201  91.8795490 141.4558601  75.6103516
  92.8166771 142.6437378  75.6519365  99.5543766 105.9946251  61.0326481
  99.4715977 105.0426674  61.0889244  98.8453960 106.3295555  61.5816450
  14.7637873 121.4012146  52.1700144  15.4931765 121.3219070  51.5552616
  15.0409251 120.8993149  52.9365158  75.8534050 116.5648746  45.6186199
  75.6373930 117.1838665  46.3160563  75.5891132 115.7124233  45.9646177
  13.1866866 135.7588291  30.7719564  12.3917323 135.2315331  30.6929779
  13.1556159 136.1069870  31.6630507  88.3127403 121.2387276  47.0837831
  87.8944969 121.9341469  46.5761423  88.4005737 120.5118179  46.4672470
 120.9601402 130.0956059  18.3916199 121.1537838 131.0095501  18.1831956
 120.9887505 129.6460819  17.5470233  70.9236336 100.5580330  22.0619059
  69.9724531 100.6642532  22.0476317  71.2444687 101.3343239  22.5208855
 107.5970459 112.0631886  62.3371172 106.9840717 111.9991016  63.0695009
 107.0643425 112.3749638  61.6055059  59.7281361 136.7035675  46.1776447
  59.1669750 136.0370827  46.5740299  59.5275545 136.6603947  45.2426958
  87.4574757  88.2756424  47.9925919  88.1457043  87.6425743  48.1970453
  87.6476097  89.0262222  48.5553598 100.5288315 119.5113754  65.2795506
 100.1544952 119.2714024  66.1272049 100.7101250 118.6742878  64.8521662
 103.6418343 104.4860935  46.5228367 103.8438320 103.6137295  46.8610907
 104.2358875 104.5987225  45.7807779 106.3047504 125.5986977  22.9089284
 106.8925667 125.7662201  23.6455679 105.8066750 126.4101696  22.8106141
  70.5378151  87.4388027  31.0344124  70.3228521  86.5886116  31.4180899
  69.8112631  88.0073261  31.2896180 110.9235001 124.7489071  25.4214239
 110.4267025 125.1243401  24.6944594 110.2579594 124.3719959  25.9969521
 103.3655643 105.3537655  49.7085810 103.4681511 104.7568607  48.9673567
 103.3398438 106.2249184  49.3127823  78.4237957 146.1827850  10.6432009
  77.6294756 146.2235641  11.1757660  78.4015036 146.9828606  10.1182127
 119.5455265 113.3145046  68.3668184 118.8504791 113.9707565  68.4165001
 120.3560734 113.8177395  68.4442949 118.7201214 137.1949005  34.0694141
 117.9541492 137.7252197  33.8496971 119.0054798 136.8280602  33.2326174
  87.8834057  73.2029057  89.3894005  88.2060146  73.4476471  88.5220718
  87.0862675  72.7021980  89.2159462  64.8381042  90.3437710 102.8838634
  65.4450655  90.3591442 103.6238575  65.3900337  90.1535797 102.1252918
  87.3562717 105.1548386  45.4738283  86.8468857 105.2637291  46.2768841
  88.2520485 105.0062275  45.7767010 121.0136700  -0.3468437  19.0874124
 121.1010075   0.2304726  18.3289254 121.2769604   0.1942234  19.8318267
 100.0270748  81.7970181  43.7233925  99.6556664  81.8045712  42.8412199
 100.0814533  80.8692169  43.9524364  77.2124100  60.7290411  86.2605381
  76.9404745  61.5104008  86.7419529  77.7903605  61.0602808  85.5731678
 116.7205238  98.4020519  42.6338148 117.5997543  98.6225891  42.3263454
 116.7077351  97.4452114  42.6565695 111.7641258 118.7787056  42.3143625
 112.1024418 118.3820629  41.5115881 112.3114014 118.4149265  43.0103350
 124.1332626 134.0656185  65.7685852 123.1836605 134.0911579  65.6509590
 124.4160461 134.9697018  65.6310606  96.6415501 104.5275021  33.3689523
  96.7335606 105.1407146  34.0981603  96.0173512 103.8734531  33.6833262
  99.7783947 128.2844734  54.1408873 100.0092506 128.7528324  53.3386612
  99.3975925 127.4608231  53.8362122  73.5927486 120.9936047  65.3605604
  73.9578485 120.3190804  64.7878838  72.7507687 120.6371975  65.6438923
  79.3943357 130.5186176  40.2795744  79.3169117 130.8635139  39.3900347
  78.8393068 129.7387695  40.2832460  97.1121693  93.4834862  45.5877686
  97.3408794  94.1901493  46.1915445  96.1593723  93.4151268  45.6489801
  62.2112417 141.7641068  46.4214754  62.2784328 142.1274471  47.3044825
  61.6933918 140.9663677  46.5294981  88.8256168 134.6559429  29.0956211
  89.5624256 134.3146229  29.6024251  88.4464359 133.8843155  28.6748505
 114.3951511 139.6157455  58.6842203 113.5982513 139.0857506  58.6676264
 114.4752216 139.8994160  59.5949078  97.4350452  75.2678108  49.0771246
  96.9466496  74.7245216  48.4586334  96.9031906  76.0577440  49.1739130
  64.6014547  32.5002079  35.9819150  64.6360874  31.5816670  36.2489605
  65.5020905  32.7125531  35.7369709  40.9367132 103.4707546  11.4791644
  41.0477114 104.2047977  10.8749366  41.1586952 102.6976871  10.9602094
 106.9640255 127.9989052  56.6760159 107.8150368 128.3225727  56.9713974
 107.1635818 127.4722481  55.9020376 122.6336193 102.1157455  22.8644466
 122.4427509 101.1779785  22.8841877 123.3290005 102.2323132  23.5118151
 106.7089653 138.6010647  47.3696899 105.8864307 138.7622070  46.9074202
 106.7710972 137.6473522  47.4226475 102.7478313 133.0401611  47.8098249
 102.2273731 132.2602367  47.6173162 102.9123497 132.9918861  48.7515450
  97.2652149 132.4738121  22.2172856  97.6341820 132.6618385  21.3543010
  96.9235516 131.5827847  22.1427321  71.2671995   5.1930504  10.7764733
  71.8174982   5.7387143  11.3383067  70.9825039   4.4762783  11.3434100
 101.3677025 136.8374634  76.2995148 101.2669373 137.6452351  75.7959557
 100.9391308 137.0212841  77.1354389  22.1505004 111.5367508   8.1382215
  22.8392058 111.9291019   7.6015896  21.3479643 111.6719818   7.6343518
 107.0799923 108.8502407  37.6669168 107.9637241 109.1020489  37.3988867
 107.2035122 108.0505562  38.1782699 114.9223900 108.9937019  55.6540251
 115.6284523 109.5561504  55.3356504 115.0755692 108.1514263  55.2258587
 106.7832470 114.9623299  52.4790668 106.3154125 114.5234585  51.7686033
 107.5101089 115.4103279  52.0463943  98.1612778   3.7907677  37.7502918
  97.5730324   3.5631638  37.0302987  98.8564968   3.1341534  37.7082753
   3.0018263   8.4597569  60.1552820   2.3764639   8.3520775  60.8719158
   2.5959044   8.0108433  59.4137001  80.7931423 142.0503902  25.3565598
  80.5190182 142.6927567  24.7019935  81.3786697 142.5356770  25.9378362
 119.2965508  13.9531689  63.2130575 119.3246555  13.0011731  63.1173801
 119.7789288  14.1270047  64.0213442  90.7815647   1.4466553  49.0408182
  90.1035023   1.3480835  48.3724260  91.5450001   0.9996968  48.6752605
  80.5066776 119.4041729  39.8281908  79.7632122 119.7800636  40.2995682
  81.2722874 119.6695328  40.3377533  67.2307730 129.5530510   8.3620393
  67.5829124 130.4431248   8.3592635  67.1061707 129.3418884   7.4367744
  97.9516792 100.1526737  38.5531545  97.3476219 100.8462620  38.2880521
  97.5054932  99.3410969  38.3112764 112.0535183 134.1643429  57.0939445
 111.4989281 134.5074368  56.3932657 112.4857998 134.9371624  57.4574137
 124.2595673  11.2741356  38.8920093 124.3444633  10.4912167  38.3478999
 124.8592377  11.1240940  39.6228385 111.4965439 135.4362583  54.6877766
 111.7299843 136.3586044  54.5828724 111.8722439 135.0053024  53.9200783
  99.6481609 119.4140053  36.6628575  99.9982834 119.2797375  35.7821655
  99.2154598 118.5875130  36.8771505  92.7400875 139.7280598  44.9302053
  92.0410633 139.1690159  44.5909834  92.6676178 140.5365658  44.4229650
  13.7897330 107.0798111  64.5273495  13.7205153 106.3022518  63.9734125
  12.8842478 107.3596191  64.6616030 113.0099964 110.8942604 108.0323757
 112.5534344 110.0665474 107.8818125 112.9716110 111.3457870 107.1892353
 105.7384109  98.5536957  39.0474463 105.9239388  99.4312572  38.7132478
 105.7688332  97.9912758  38.2734990 116.2435627 108.5324764  38.2469487
 116.8248081 107.7719879  38.2407069 116.7179394 109.2005634  37.7521086
 110.7825089 117.9988003  57.9407883 111.6252995 117.5841618  57.7563810
 110.1341820 117.3954296  57.5776863 103.5003090 122.5725842  65.9047747
 103.9133835 121.8902493  66.4339352 102.8498840 122.9659653  66.4865255
  83.9955807 118.9706421  68.5312796  84.8748779 118.9968109  68.1539536
  84.1393471 118.7995148  69.4620228  98.7843323 113.1118011  37.7776504
  99.1701794 113.8783455  38.2016420  98.2542419 112.7015686  38.4609890
 113.1278801 124.6703243  91.5081501 112.7761650 125.0994205  90.7281494
 112.6832581 123.8231277  91.5365028  95.5348873 128.4453487  87.4538621
  95.3092766 128.0309296  88.2866868  95.2564049 129.3554306  87.5559982
 116.9743824 113.4332466  20.4978967 117.2099209 113.4543896  19.5703685
 117.0354557 114.3454742  20.7813692  87.3283958 113.3907986  22.2603679
  87.6079845 113.9432144  22.9903626  87.0629311 114.0093994  21.5798616
  78.7190533   6.3429432  38.4221077  77.8304529   6.0308628  38.5930872
  78.7592983   6.4418297  37.4708796  58.3793402   6.2889462  25.0564551
  59.2355776   6.2870007  25.4843330  57.7513790   6.3339787  25.7774758
 113.0090046 134.3016052  45.6117535 112.0672417 134.1932583  45.7443094
 113.0923748 134.5755100  44.6983767 116.0408020 121.5726089  40.0529718
 115.7786274 121.4728260  40.9681416 116.4973068 122.4134731  40.0249243
 107.7828026   0.1844197  16.2238157 106.8761444   0.0954228  16.5175712
 107.9714298   1.1190014  16.3087249 120.0897217  98.5730171  34.8077917
 119.8371506  98.5045433  33.8870597 121.0308456  98.7463474  34.7857332
 105.5756950  92.5886250  10.3458190 106.0705185  92.6957130   9.5334685
 104.7010899  92.3243046  10.0604486  80.6261730 118.8460064  51.5788746
  79.9854660 119.4053936  52.0179892  81.4549255 119.3169498  51.6660595
 112.2928333 127.3349190  77.2985649 111.6010857 127.4941158  77.9407263
 113.0878735 127.2363758  77.8224182 118.1557274 113.9254856  28.5633445
 117.6577473 114.1326523  27.7725649 119.0709400 113.9540195  28.2844019
  95.1518059  65.0964689  61.5221262  96.0313034  64.7209501  61.4808655
  94.7336292  64.6468925  62.2564554 102.4983501 105.1778603  54.8760080
 102.3462009 104.4626141  54.2583418 101.9496155 104.9635792  55.6304693
  93.2222939 123.1374073  52.1431923  93.0824947 122.8653431  53.0502033
  94.0765095 122.7722359  51.9125557  69.2853498 134.2802715   4.6549538
  68.6544943 134.9158955   4.9929410  69.4964600 134.5962524   3.7764236
   3.0456954 114.7051334   3.9498177   2.6313239 115.5501747   3.7753424
   2.3750620 114.0591812   3.7279364 104.0513992  95.8516788  47.3415518
 103.7552166  95.3193188  46.6032457 104.9672222  95.6020069  47.4647045
  95.7069302   2.2715836  10.7834172  95.6984234   3.1813698  10.4860127
  94.7834778   2.0503407  10.9039235  98.5734367 135.0071907  37.1952581
  97.6665688 134.9022579  36.9074869  98.5045719 135.2702999  38.1130052
  75.1065111 105.7791519  44.8056841  75.7877398 105.2406406  44.4029856
  74.2850590 105.3921127  44.5029402  92.7413082  98.5966587  37.3957062
  93.5769653  99.0275192  37.2160673  92.0877934  99.1582680  36.9788742
  80.3247738   6.5464001  74.6049643  80.9352303   6.8333226  73.9258146
  80.0720501   5.6615429  74.3415451  76.0477161  97.4086094  76.9225025
  76.9947100  97.5428772  76.8849802  75.9318018  96.6935349  77.5481749
 110.2312183 123.2198906  93.6102676 109.6372128 122.4886227  93.4410667
 110.2361107 123.3089161  94.5633030 100.8091927 119.9912167  59.5046139
 101.7500210 119.9149990  59.3456697 100.4204750 120.0236893  58.6304998
  82.8454113  92.0147038  28.1053162  82.3466301  91.4517879  28.6974025
  83.6168385  91.4967251  27.8755045  87.3889828 105.1973438  54.8610544
  87.1005535 104.3025208  55.0408792  87.6616859 105.5369473  55.7134295
  79.1488361 132.2186470  38.2383060  78.6975527 131.7993069  37.5056863
  79.7167301 132.8709030  37.8280830  77.4971819 113.6637497  51.9435596
  77.5701761 114.6179962  51.9612741  78.1818342 113.3823872  51.3366652
 114.3290520  78.9984417  37.4679804 114.1766739  78.4042120  38.2027626
 113.4522533  79.2428112  37.1717739 110.2518654 111.3248253  19.0182364
 110.1442242 112.2750282  18.9762139 111.0428143 111.1963081  19.5417929
  99.9331760 122.2709942  54.9719381 100.0331593 121.3320637  55.1289558
  99.2379379 122.5414371  55.5717182 110.4279232 102.5495815  43.9261198
 110.0987816 103.2848454  43.4091234 110.0782585 102.6989174  44.8045635
  71.0883236 107.0661831  31.2219429  70.9417200 107.0105267  32.1662116
  70.6570053 107.8796005  30.9601259  83.9967823 118.3618832  30.4449296
  83.1477451 117.9464054  30.2941179  83.8430691 119.2906570  30.2717853
  81.5456772 130.2564430  66.4305830  81.7973423 129.3853188  66.1239195
  82.1831131 130.8457375  66.0273075  53.2409573 118.4294796  61.7020798
  52.8788757 118.6694241  60.8491087  53.4977674 119.2630577  62.0963287
 116.6667843  97.7207279  45.6252193 116.0395718  97.8022575  46.3436794
 116.5455341  98.5181236  45.1097775  81.3801670  81.7419624  30.9897304
  80.5476284  82.1599483  31.2097406  81.1314011  80.9384251  30.5329275
 113.2505322  96.1578655  33.8353968 113.4952927  96.2067604  34.7594810
 112.4200344  96.6308117  33.7822485   7.4788027 120.3032970  26.8056560
   8.1101065 119.5851231  26.7619205   7.2152930 120.3348923  27.7253294
  96.9308758 123.9541340  31.7536759  97.6170444 124.5544624  31.4621258
  96.4649487 124.4364834  32.4366713 112.8828049 121.1505413  35.9315681
 113.2393837 121.9429302  35.5300784 113.5446358 120.8874035  36.5710759
   6.0324698 120.9576797  59.4356441   5.6963854 121.8383694  59.2693329
   5.4572325 120.3825665  58.9310980  86.0541534  95.8758354  40.9556150
  86.3897228  96.7591572  41.1084557  85.2123451  96.0113525  40.5206108
  93.0412292 131.5681267  19.8274934  93.7034416 131.0423565  19.3788540
  93.2336998 132.4688625  19.5670068 104.2015171 100.0076103   6.2376034
 103.4050751 100.2430916   5.7617307 103.9996719  99.1623688   6.6389376
 113.8214874 134.8946190  27.8905153 113.2036304 135.2169037  27.2343040
 114.4503307 135.6081963  27.9982615 120.3833961 101.0044861  51.2299299
 120.7602119 101.5248585  51.9394684 119.8234367 100.3664207  51.6721487
  96.9424057 120.8501434  31.7921901  97.4711704 121.5438652  32.1863961
  96.1210918 120.8664799  32.2835231  13.5550051 142.3504925  76.5228176
  12.8322440 142.9155350  76.7959261  13.2532244 141.9536781  75.7056904
 100.5071640  96.3280296  31.3120675 101.2193871  95.6930351  31.2362599
 100.2743721  96.3171387  32.2404647   9.3219023 101.9454956  33.5391831
   9.2331915 102.3071384  32.6573801  10.2425700 101.6912651  33.6022854
  75.3486109 122.8348541  69.1129398  75.1086426 123.7022305  68.7869072
  74.5259571 122.3455334  69.1198301  80.7230091 112.4293423  34.7280622
  81.6035652 112.0964050  34.9012923  80.8541012 113.3528614  34.5132208
  89.1647053  91.2074661  35.5138969  89.5377064  91.0505772  36.3813567
  89.7471905  90.7406521  34.9147105 111.6905975  83.3828545  28.4470844
 112.2058105  82.6115513  28.6835098 112.3224068  84.1019154  28.4463835
 101.7077732   4.9744397  29.7708392 101.6701126   4.3710785  30.5129790
 101.8041801   4.4073468  29.0057635  89.1609573 121.1444187  79.9570513
  89.1946888 122.0862961  80.1243019  89.9955463 120.9465694  79.5321512
  95.4808426  74.8439312  65.0792170  95.3383732  75.4535723  64.3551493
  94.8930264  75.1505232  65.7696486   9.0341788 141.3244343  24.6104479
   8.5263281 142.0814610  24.9024034   9.3881636 141.5867805  23.7606835
  16.0367327 129.6994877  16.8026960  16.2783938 129.1974163  17.5810027
  16.8132811 130.2229309  16.6046870  99.6160221 104.3600368  81.7052460
  99.2144871 104.5591259  80.8594513  99.8338032 103.4293556  81.6538429
  99.6064186  95.3988934  50.7520437  98.8347912  94.9471569  51.0937548
  99.5725155  95.2495766  49.8071718 112.8164768 133.4936237  36.6108704
 113.4954357 133.8160801  36.0182023 112.0544147 133.3540154  36.0487199
  19.6864634 130.6381989  66.0813522  20.3562193 129.9549770  66.1107969
  19.9370413 131.1873817  65.3384924 101.9050217 112.3273182  39.2414689
 101.0673618 112.2838116  39.7026348 102.0018864 113.2503796  39.0073609
  98.0067825 124.9572754  60.8088255  98.0803013 124.2206669  61.4156485
  97.8924370 125.7219601  61.3731003 112.6080704   7.1604328  39.1618037
 112.2406578   7.3378163  40.0276995 112.4482536   6.2273293  39.0203738
  92.7552032 118.8404846  32.6406980  93.5712624 118.4706020  32.9775548
  92.7543259 118.6118603  31.7112017  65.0421906  95.1920605  54.6660566
  64.9739981  96.0610867  55.0614882  64.6325636  94.6063709  55.3027773
  82.4316025 100.3027821  73.2959318  83.0538940 100.3530407  74.0215063
  81.8519211 101.0534573  73.4251213  69.8681164 138.2889557  58.9436674
  69.9563313 139.2234325  59.1312838  70.0528336 137.8585815  59.7784662
  75.9030628   0.8277684  19.3508375  75.9529066   1.2580090  18.4972358
  76.8118763   0.6197052  19.5676196  79.8374081 126.5442276  32.1517301
  79.9672318 126.5967464  31.2048292  79.1399002 125.8981133  32.2623754
 102.3861217  88.9880657  63.6009216 102.7937317  88.2514477  63.1454229
 101.4724445  88.9698124  63.3161449  71.9683647 136.2651443  64.2923117
  72.8728867 136.5214443  64.4722795  71.7092514 136.8079567  63.5477018
  81.8688965 139.6196175  42.5281334  81.8247700 140.0614262  41.6801405
  81.9245529 140.3309536  43.1662035   0.7695132 134.6047115  23.0525088
   0.5338221 134.9706268  22.1999931   1.7191916 134.4924831  23.0107045
  89.7610188 130.3814411  33.2136250  89.0539837 131.0094357  33.3617949
  89.5764542 130.0123501  32.3499465 106.9121647 138.2439327  36.1559606
 106.5822315 138.8815308  36.7890882 107.0372772 137.4432564  36.6653705
 116.2973499 109.2343712  64.8067045 117.1955872 109.1931343  64.4785452
 115.9872437 110.1020527  64.5474911 102.6119900 115.0098515  38.3676505
 102.4413490 115.9321880  38.5584688 103.4486103 115.0122833  37.9025793
  89.1382790   4.3792992  61.4031315  88.5517883   4.7417908  62.0671129
  88.9654446   4.9017792  60.6199503  88.7442112 114.1050816  51.7611027
  88.8124371 114.6600246  52.5380325  89.5497417 114.2760754  51.2731361
 103.8628674 136.0442829  54.6718740 103.0573940 136.2363148  55.1520491
 104.5553398 136.1109352  55.3293562 117.1485615 122.8031158  66.9741440
 116.9871330 121.8610382  66.9225693 116.5705204 123.1072140  67.6738739
  90.0460052 104.3182278  45.8865213  90.9997559 104.3989277  45.8779716
  89.8663425 103.6730766  46.5704346   2.0198374 133.0691719  51.1597204
   1.5775900 133.9043236  51.3119459   1.7433577 132.8083801  50.2812147
  74.2881918 101.1749935  61.6552591  74.8638535 101.2735462  60.8968830
  74.1930914 100.2285671  61.7623806  90.2845478 136.1671638  45.3883219
  89.8897552 135.3412628  45.6680536  89.8871326 136.8271351  45.9564161
  78.8931561 124.1711617  26.3964891  77.9980612 124.5035172  26.3287759
  79.4385290 124.9570656  26.4304280  99.3413258 126.0816765  20.6264925
  98.8097572 126.7892838  20.9911370  98.7100029 125.3963852  20.4072905
 108.7106133 117.6851845  29.0383554 108.1575108 118.4525490  29.1848421
 109.4430637 117.7987385  29.6440387   7.6088744 120.7264519  52.1169949
   8.5146456 120.4986382  52.3265553   7.4813681 120.4048538  51.2244987
  93.2972431 111.3427258  33.6365414  93.9521027 111.0502148  33.0026436
  93.7541580 111.3269901  34.4774985 100.9227180 122.9897404  44.8733330
 101.1501503 122.0632648  44.7948313 101.7014217 123.4543324  44.5667315
 104.7337151 114.3650913  61.0968256 105.3176498 113.7013721  60.7297659
 104.6945953 115.0469685  60.4262018 114.7460270 104.7004318  32.2943521
 114.0915489 105.3309536  31.9937825 114.2572498 104.0954685  32.8523350
  66.4045095 107.5594139  61.6192341  66.8049717 108.3537102  61.2657547
  65.6069374 107.8651428  62.0512438  79.9277496 112.5564194  12.8225756
  80.3972816 112.1238232  12.1093953  80.3404999 113.4171200  12.8936994
  83.3525658 136.3192081  29.4069219  82.8693390 136.7362118  30.1202464
  83.7352753 135.5361176  29.8025680 110.4345608 123.4583378 100.0719597
 109.5248604 123.7259388 100.2025672 110.8522034 124.2187500  99.6675011
  83.8271141 121.0741520  18.0009615  83.6009693 121.9433975  18.3318806
  83.3136082 120.9823513  17.1983910 106.9776440 120.9563637  14.2875493
 106.4899158 120.9538555  13.4639287 107.2218323 120.0409698  14.4240928
  69.3383741 127.8318405  50.7457018  69.2231894 127.3411846  51.5594673
  70.0558329 128.4378052  50.9308910  70.6585264 109.4375801  40.5185509
  69.7248268 109.3206501  40.6939411  71.0762596 108.6816883  40.9312916
  11.4138060 109.8953819  48.0265856  11.9152957 110.6368065  47.6874256
  12.0730525 109.3127060  48.4035635  74.3642187 108.1436443  32.5503874
  73.9168739 107.2976303  32.5694895  73.8967323 108.6763573  33.1937480
  57.5242138 106.3465595  19.0273309  57.2056627 106.9539165  19.6950758
  56.7300844 105.9964752  18.6235690   9.1144877 108.4299469  47.2043085
   9.9013453 108.9741325  47.2351265   9.4231539 107.5500870  47.4206495
  85.5996609 126.4884377  23.0993867  84.7386646 126.1650467  22.8341603
  85.6903553 126.2087917  24.0103221 101.1392212 122.7031136  74.2365932
 101.2430668 122.0514488  74.9299669 101.6178608 122.3388958  73.4919548
 101.9072342 103.3377743  37.6363778 101.9303894 103.9524174  36.9029546
 102.3679543 103.7904072  38.3428431  93.7109852 111.1286736  44.7538137
  92.9384995 111.1425495  44.1887522  93.5240841 110.4460716  45.3982925
  12.1741992 131.3389587  19.0721571  11.5027552 130.9648132  18.5017097
  12.1644335 130.7822037  19.8507190  67.3177290 139.5518970  48.1878471
  67.3209143 139.3961143  49.1322803  68.1712484 139.2369652  47.8902721
  96.2579918 116.0653305 103.9786299  96.3858032 115.1706219 103.6633822
  95.6840611 116.4689922 103.3275553 116.2779617 139.8803425  37.2505498
 115.5718994 140.4973221  37.0580506 117.0791340 140.3598404  37.0397520
  94.2340851  90.4870033  32.9709601  93.7978458  91.1988640  32.5027895
  95.1681423  90.6596947  32.8528643 117.0521164  99.3478203  39.1419291
 117.1761131  98.4278584  38.9084101 117.2793198  99.3918896  40.0707293
  75.2397728 125.9842587  25.0484729  75.8258963 125.9421635  25.8040667
  74.4947624 126.5030479  25.3518724  75.1686716 101.6195202  16.3776982
  75.1346874 100.7915592  16.8568313  75.7625389 101.4489746  15.6466258
 115.1522160  87.5024605  27.6499510 115.3664684  88.0959415  26.9301462
 115.2920055  88.0241776  28.4402108 113.3669090 129.0168571  11.5998960
 114.0515423 128.8737202  10.9464252 112.6896667 128.3766747  11.3814199
 109.9030399 115.2121353   1.9843841 109.5855713 114.3091393   1.9902119
 110.7914257 115.1514244   1.6332196 101.3711929 109.5710850  22.6354241
 101.1049747 108.7220573  22.9882693 100.8445930 110.2073193  23.1192851
   5.2381831 130.4416275  95.5312248   5.0711852 129.5645809  95.1860770
   5.3508216 130.9877491  94.7532173 113.7860775 111.5928459  27.3202491
 113.3614159 112.3327827  27.7542925 114.4975948 111.3450336  27.9106379
  63.4043217   8.9564495  27.7058268  62.5044632   9.2040139  27.9184294
  63.4454441   8.0187207  27.8934431 102.2139263   2.6339417  28.3809209
 103.0974197   2.2821217  28.2718468 101.7891502   2.4805146  27.5369692
 106.5538788  96.3902569   6.9069117 105.8289719  95.8335304   6.6226745
 106.3606644  97.2474575   6.5272886  92.6137829 140.5538273  72.1873140
  91.7109299 140.6629467  71.8887043  92.8611660 141.4157867  72.5220728
  99.7953987  91.9427109  31.7364526 100.6871128  91.6104984  31.6329479
  99.7861958  92.3362732  32.6089501  84.9150658 106.8147469   7.6921731
  84.6373272 106.1508369   7.0610511  85.8101559 106.5661812   7.9229951
  98.4344292 132.4439812  65.0387383  97.9123116 132.8057766  64.3226862
  99.0472889 131.8465233  64.6101665  71.1706877 123.5351467  51.6869926
  71.2177563 122.5814056  51.7532444  71.5893745 123.7380886  50.8504820
  93.0445480 135.5330849  46.4146996  92.5519466 135.7374763  45.6198406
  93.3414650 136.3837624  46.7378569 104.6598911 102.7022648  12.8682458
 105.1763630 103.2065201  12.2395790 103.8612747 103.2159710  12.9888701
  74.7922850 134.1704559  18.2897902  74.3029881 133.9905643  17.4870086
  75.6386328 134.4985390  17.9860032 124.7089577 132.5079536  41.3066339
 124.4273758 132.8848171  40.4730129 124.3033218 133.0653954  41.9706726
  92.1827126 115.7905388  27.8799939  92.6766396 115.0220394  28.1657743
  91.2909126 115.4676723  27.7508497  76.1312866 116.7199898  17.8546393
  75.2610159 116.6095257  17.4716818  76.0019875 117.3469639  18.5662758
 122.7523708 129.3960667  76.6125679 122.4305058 128.5141373  76.4259148
 122.6723766 129.4842052  77.5623369 100.1266098 106.2816238  30.1185799
 100.2966022 106.0483074  29.2059469  99.4885445 106.9934177  30.0689650
  78.8184452 125.9581470   8.6470675  77.8815079 125.9569836   8.8429809
  79.1288185 126.8055153   8.9662337 119.7042656 125.4486942  54.7727633
 120.6095123 125.7550144  54.7187328 119.1771412 126.2432766  54.6891022
 107.6062298 125.1801586  44.2123556 107.0614338 125.4726696  43.4816933
 108.2766533 125.8580303  44.2976189  97.5911617 118.8245106  55.6316471
  97.4289036 118.8822651  56.5732241  98.4418201 119.2458534  55.5089045
  99.1663647  98.6938858  64.1109943  98.4736156  98.1690788  63.7098646
  99.1553688  99.5176888  63.6237001 116.2049198 124.3796539  97.3177239
 116.4755535 124.9963188  97.9979595 115.5554485 124.8596954  96.8039235
  80.9891796 124.9478436  50.8560514  80.6729984 125.8383560  50.7035685
  81.5289021 125.0168705  51.6435528   9.4510203 138.4367561   2.0926635
   9.9516421 138.5194874   2.9043061   8.7254840 137.8541183   2.3170942
 116.9713974  64.9127197  18.3273005 116.9666576  63.9560986  18.3601522
 116.0975075  65.1668882  18.6238766  14.2961054 128.4393978  26.2269020
  13.8278514 129.2732716  26.2670684  14.2615634 128.1895447  25.3035307
 108.2025242 127.6618671  28.5417628 108.2278919 128.3584976  29.1977358
 108.7032318 128.0094910  27.8037357  95.6623363 125.3008461  22.9922724
  96.4806271 124.8130512  22.8990459  95.2574730 124.9408531  23.7814021
  89.2155743 109.3420124  18.9956582  89.8338318 109.6734333  18.3443820
  88.8830662 108.5278606  18.6177301 121.3876629 134.7044373  33.7947512
 121.6929626 134.5758057  34.6927929 121.1674786 133.8247490  33.4883165
  99.4829369 115.8696651  69.1540766  99.3427277 115.2233315  68.4621048
  98.7994480 116.5245914  69.0121603  85.8137417 134.8890495 105.4503410
  85.3126144 134.1899014 105.8702131  86.6400242 134.9145031 105.9328830
 112.4637318 142.7992630  39.0220833 113.0313110 143.3410835  39.5702744
 111.9565582 142.2778702  39.6443081  15.1643591 113.8530254  26.8132377
  14.7619277 113.7932110  27.6796675  14.6949988 113.2065201  26.2860036
  79.1719580  92.8181839  29.8497510  79.5358419  93.7021542  29.8006201
  78.7402105  92.7840042  30.7033658  62.8407812  90.5240822  23.4873819
  63.4592342  90.9487343  22.8928876  63.3446741  90.3687382  24.2862535
  64.9170399 127.4345589   6.2363702  64.7044754 127.6359558   5.3250587
  64.7324705 126.4994526   6.3243419 102.0071602  19.3444043 109.7764289
 102.0460701  19.7798710 108.9249103 102.3012257  18.4503727 109.6018886
 118.9146900 101.5486717  30.7187676 118.4032440 101.3024616  29.9480295
 118.3058262 101.4522934  31.4510417 123.2893753  93.7563610  39.2053390
 123.7236309  94.2800808  38.5320091 123.4936619  92.8505325  38.9730239
  74.2920923 122.1241856  36.5868998  74.1648436 123.0491734  36.3760900
  73.4382343 121.7223454  36.4266419  91.6336060 130.9918880  -0.0142642
  92.1348667 130.2292061   0.2743323  90.7451153 130.6598377  -0.1429591
 108.9420986 109.3454742  26.7890453 108.9521503 108.4755230  27.1881819
 109.8659611 109.5822906  26.7075634  86.9746017 115.1090145  20.3745341
  87.7144814 114.6511364  19.9755859  87.2081661 116.0356140  20.3188992
  71.7317200 110.1240063  20.8253217  72.1259594 109.2712116  20.6421447
  72.2627592 110.7453442  20.3271580  93.0891514  88.7644100  94.1510090
  92.9275417  89.6248150  94.5380756  93.5387135  88.9529705  93.3272513
 117.3918247 124.8089027  28.4588122 116.7580032 125.5205631  28.3691597
 117.0969009 124.1454983  27.8349996  64.4865990  14.5517712   1.5416487
  63.8082027  14.4170933   2.2033684  64.7097254  13.6696797   1.2444051
  88.6227131 121.9148254   0.9792255  88.6191368 122.8130150   1.3100883
  89.0060425 121.9832039   0.1048027 111.1610985 111.8735027  15.0078726
 111.2554646 111.1495018  15.6268668 110.3566933 111.6753769  14.5283926
   4.5409995 114.7302437  29.4712114   5.3272658 114.5742989  28.9480519
   4.8132639 114.5527458  30.3715420 106.9943619 101.4716625  48.5152197
 107.4301815 102.2311783  48.1286764 107.5965118 101.1705971  49.1956711
 101.0231876  81.4909554 103.0415281 100.0855541  81.5483665 103.2253250
 101.3984585  82.2614002 103.4679350  97.3040104 118.1323433  48.8333416
  98.0351639 118.6201954  49.2123365  97.4279308 118.2114792  47.8875017
  89.7634792 123.1886482  26.8105412  90.0269699 123.5171318  25.9509468
  90.5463219 122.7565193  27.1520853  12.7410727  94.8025417  42.3359823
  12.1030646  94.8126602  43.0494738  12.2100573  94.8137856  41.5396595
  79.4092607 120.0486851  15.2885342  79.0725899 120.9308720  15.4454732
  78.9466810 119.4996452  15.9216321  91.9147873  10.7918053   9.8221076
  92.1112442  11.4204293   9.1275126  91.7378807  11.3327580  10.5917192
  49.7064734 103.4178734  40.3520489  50.2672100 102.7424622  39.9704313
  49.8342705 103.3297348  41.2965775  89.3477440 141.4764214  30.2012801
  89.9666405 140.7925320  30.4572058  89.4569016 142.1584320  30.8639860
   0.0317793 142.6011658  18.4295630   0.9857112 142.6588917  18.3756721
  -0.1315565 141.8143082  18.9495671  87.1015930 130.1076126  11.1436105
  87.6440430 130.8921814  11.0634077  87.5100040 129.4728470  10.5549610
  90.5374336 107.5848675   5.4481924  91.0077095 107.1637535   6.1677361
  91.1820316 107.6443195   4.7430751  86.7346764 116.9712830  37.5829291
  86.3772964 116.9914722  36.6951776  87.6819515 116.9128799  37.4585080
  90.3907013  89.5119286  33.8673925  90.7549095  88.6271000  33.8929343
  90.6023598  89.8328495  32.9907823 113.8345814 111.7058945  37.3861980
 114.0413666 111.8932247  38.3018303 113.1008911 112.2860432  37.1828175
   2.5214511 138.7497139  26.4259529   2.7799540 138.6613655  25.5085635
   2.2663909 137.8654671  26.6891432  88.6084652  15.9108334  45.3848648
  87.7917385  15.5069142  45.6781816  88.8119888  15.4684620  44.5607805
 109.2770767 135.9608555  11.3776195 109.4483852 136.7296982  11.9214666
 109.7704124 136.1217117  10.5732727  76.1065674 133.8491917  98.2712289
  75.9225750 133.1799221  97.6120957  77.0159721 134.1005802  98.1099399
 123.0305576  96.5497112   1.8083081 122.6845360  97.0987225   2.5119328
 122.3620987  95.8769608   1.6786748  28.3502989 112.1394157  39.2509294
  29.1773062 111.7124367  39.0273619  27.7539187 111.8910694  38.5446072
  88.6152172 135.2406406  38.9188528  89.0326691 134.4647312  38.5447836
  88.0219460 135.5474854  38.2332087  83.6294174  80.5817699  32.6994085
  83.6179161  79.6653271  32.4232936  83.0794907  81.0320091  32.0582461
  87.3538113 113.3328342  66.6715097  87.1539116 113.7161350  67.5255299
  88.1965256 112.8963470  66.7962217 105.8406925  92.1730900   0.7616905
 106.2310219  91.3642502   0.4305433 105.7216072  92.0156002   1.6983071
  87.1154881 132.7260399  14.1735005  86.2363720 133.0204487  13.9353573
  87.6958275 133.4100819  13.8395369  85.0969410  92.3575211  21.3976645
  85.4103184  93.2605267  21.3466930  84.1435146  92.4322319  21.3575101
  85.7113934 126.2905121   5.2150232  86.6272354 126.4792442   5.0104469
  85.6403065 125.3389454   5.1395351  73.6870956 103.7625217  21.3632011
  73.8077879 103.0693531  20.7142067  72.7606678 103.9939785  21.2969542
  77.4895859 139.0354538  41.4978838  77.7710342 139.1480350  42.4058199
  77.6168489 139.8963070  41.0991764 105.3057480 146.5382767  30.9261656
 105.9699821 146.3988972  31.6011429 104.4722939 146.4535904  31.3892150
   1.8057757 128.4383774  22.7858734   1.9081145 127.9784298  21.9526792
   0.8588439 128.4928703  22.9146361  89.5698261  91.8761253  96.6429516
  90.1121426  92.2249126  97.3503860  90.0302315  91.0880661  96.3544687
  92.5710201 137.9359627  36.6337466  92.3483181 137.3663807  35.8973956
  93.2166958 138.5463333  36.2776828 108.6845303 101.7679787  11.4641929
 109.4049168 101.1764526  11.6818357 108.8878632 102.0785522  10.5819046
  73.5156345 135.6141758   7.6437759  72.6170540 135.4039860   7.8979468
  73.4325981 136.3908958   7.0905554  87.5225353 120.5973434  29.7317719
  88.3139324 120.2127075  29.3549585  87.7677441 121.5003586  29.9334121
  92.2402000 113.3896542 103.7396672  91.7159748 112.5890446 103.7185796
  91.8097401 113.9406395 104.3933883  87.9525375 114.5659161  77.8596640
  88.3758831 114.4517899  77.0087862  88.3446598 113.8917542  78.4146214
  87.9364014 124.9256897  22.4147511  87.1621704 125.4631615  22.2476363
  88.6738873 125.4872990  22.1761441  89.5181084 127.7396870  34.8053408
  89.7884274 127.3662758  33.9664578  89.7913265 128.6558914  34.7588444
  90.2404022 145.8125496  16.3179302  90.6594849 145.1198101  16.8285334
  90.5666161 146.6254139  16.7040062 111.8547630 134.9353027  13.1630611
 112.4426270 134.2258453  13.4224880 110.9810543 134.6180630  13.3916068
 101.1694622 139.0680981  26.9097853 102.0256329 139.4777775  26.7857742
 101.1008072 138.4355068  26.1947060 109.0979290   3.7541180  28.9435363
 109.7006512   3.6235123  28.2114816 109.6334839   3.6090641  29.7235227
  94.9569416 121.2159157  33.7119436  94.5533657 122.0504284  33.9505768
  94.8689270 120.6743431  34.4962788  79.4485140 118.1931305  24.2452240
  79.7626209 117.5159454  23.6460757  78.7836504 118.6661053  23.7447357
  99.3015003 104.0719700  41.0132933  99.9976730 104.6909428  40.7931709
  99.6090984 103.2333088  40.6693983  87.2838402 145.4271889  33.9675045
  87.5499535 145.5010605  33.0510116  88.0732918 145.1353073  34.4233561
  77.0380545 143.4528351  36.0424471  77.6156998 143.2116890  35.3182888
  77.1929693 142.7809334  36.7063570 112.4876022 142.9829311  63.2852983
 112.5271320 142.0562172  63.5216713 112.4645901 142.9852676  62.3283768
  99.4795132 140.8899784  32.8967857  99.4749928 141.7824364  32.5507522
 100.3096676 140.8200741  33.3681655 114.4891262 103.0629730  16.0354459
 114.5654678 103.1669998  15.0869834 113.7745667 103.6493778  16.2839651
  14.7883063  96.7780685   6.6486406  15.1188498  97.6156998   6.9731927
  14.5047312  96.3116169   7.4349248 117.0612431 123.9535332  12.4055851
 116.7769146 124.8116684  12.7202094 116.8892288 123.3610535  13.1374407
  61.9992876  79.7644997  41.9585896  62.3825026  79.3866348  41.1670113
  62.6877451  80.3273106  42.3128462 112.6917362 101.5237522  33.9282179
 111.8610954 101.7214489  34.3608689 113.2133007 102.3190784  34.0362597
 115.1922035 111.0972404  59.2807293 115.5143166 111.5233135  58.4864092
 115.5152798 111.6464996  59.9949884   5.8260279 131.8140316  42.0754194
   6.0883360 132.6256466  42.5098085   6.6279727 131.4931583  41.6629076
  89.4230461 115.3991222  22.8712058  89.3901253 116.0179043  23.6007595
  90.1759148 114.8405552  23.0646920 109.5634365  92.1029854  45.0901413
 109.8640537  92.0542336  45.9976006 109.9890900  92.8849030  44.7384977
 115.7566452  88.8617134  95.4713448 115.0950623  88.7609959  96.1557444
 115.2632523  88.8144588  94.6524676 121.2292194 122.1567345  22.5867629
 121.7811584 122.6831818  22.0084429 120.5615425 122.7664185  22.9009724
  69.2266369  87.2444916  35.4826021  68.8105154  87.4885273  36.3093543
  69.6940470  86.4328575  35.6801343  77.0367146   3.0660706  25.6624293
  77.6883411   3.4919052  26.2194633  76.8412018   2.2424298  26.1092114
   0.4979640  99.4842243  10.3439748   0.8760195 100.3488255  10.1834738
  -0.1806421  99.3916512   9.6752799  99.0956783 124.6761799   7.8112406
  98.8216686 124.1427040   7.0652121  99.9601364 125.0056171   7.5654703
  94.7036648 135.1322079  57.9063606  93.9041138 134.6216297  57.7788734
  95.0218105 134.8675251  58.7694693  81.0526657 118.1379700  14.4642472
  80.3936768 118.7827396  14.7216249  80.5500507 117.3478508  14.2659700
 118.6568737 122.7795410  42.5055885 117.8568554 122.2589207  42.5774622
 118.3656216 123.6837196  42.6233625  57.1176004 140.3683472  80.6215199
  58.0589581 140.2821350  80.4710516  57.0303965 141.1669064  81.1420401
  96.2512302  93.0521011  95.4414686  96.0159016  92.2127056  95.8367642
  96.0138607  92.9573727  94.5190176  60.9782600 137.6387405  23.7966967
  61.2991571 138.4806252  24.1199517  61.2070990 137.0147133  24.4855022
  94.7408676   6.4725380  60.0939083  94.1312313   5.7796746  60.3479052
  94.2468262   7.2831421  60.2167082  96.2924957 134.2435169  36.2677264
  96.4217472 134.6640682  35.4176307  95.7703495 133.4652615  36.0730124
  78.8943529 122.6668644  42.7711821  78.2507420 122.1323109  42.3061609
  79.1748476 123.3177185  42.1278000  57.7253437 116.1455536  36.9176745
  58.4725714 115.6381893  37.2346401  58.0859184 117.0126343  36.7322731
  59.9830151 133.9481926  42.4541426  59.6439409 133.0848598  42.2176790
  60.8037519 133.7660599  42.9117966  99.0746593 103.2993793  52.2537708
  99.7735977 103.9433765  52.1397686  98.9795017 103.2145977  53.2024479
 113.6771107  92.0632458  34.1193414 113.1310749  92.4079990  34.8258948
 114.2615700  92.7868652  33.8934660  72.9836082 132.2113800  24.9015284
  73.0460453 131.8874168  24.0029860  72.1644688 132.7062035  24.9213529
  94.8492908  92.6738262  25.4799271  94.9024773  92.4148464  24.5599651
  95.7310200  92.9784489  25.6943583 105.3604984 132.7101231  15.1498389
 104.7657490 132.8528595  14.4135416 105.6715107 131.8120575  15.0358999
 124.6810722  62.1680689  23.4131002 124.1916370  61.4278936  23.0541849
 124.1193390  62.5126123  24.1073442  88.1625843  74.4067955  46.2989521
  88.6810589  74.9407244  46.9009018  87.4258709  74.9673271  46.0554457
 112.3971081 115.4863548  15.2498353 111.5109348 115.6783772  15.5564976
 112.4057674 114.5378876  15.1211417  70.3276730  80.7217789  30.7257915
  70.3802299  81.5900230  31.1253142  69.3917799  80.5215454  30.7102156
  94.5666981 100.7197475 106.3404786  94.2881489 101.5221500 106.7818289
  94.0218925 100.6771564 105.5545994  91.8392467 121.3577747 106.4864739
  92.3790169 120.6073952 106.2378522  92.2623730 122.1067619 106.0667008
  80.8828354 141.0783768  39.8725581  81.0497284 141.6762352  40.6012201
  80.9482670 141.6282368  39.0917850 103.8618088 101.9042969  54.7157335
 103.2928085 101.1554050  54.8935986 103.4799290 102.3165417  53.9408398
  96.6990662 120.3093243 108.7270836  97.0626926 121.0129166 108.1895239
  96.1451721 119.8107719 108.1263525 118.7131119 115.9775639  25.4450750
 119.5782089 115.7039928  25.7500267 118.1968403 115.1715946  25.4348302
 120.9503269 119.2333889  25.9424424 121.2347889 118.3480740  25.7154346
 121.7189026 119.7806644  25.7811594  89.5485306 101.7541027  41.2663746
  88.9883614 101.2472725  40.6785297  88.9390755 102.2834682  41.7807388
  95.1481628  90.0067329  21.0137653  95.9695053  90.1801968  21.4736986
  94.8623085  89.1560078  21.3466191  86.8170166 127.3653316  69.5467758
  86.7146873 128.2868290  69.3088770  86.0912991 126.9224167  69.1069984
 113.0907917  91.3527584   7.6185364 113.5796642  92.1358109   7.3654127
 113.0865383  91.3719940   8.5755336 112.0848846 108.9012909  23.8994598
 112.8733063 108.4892845  24.2528367 111.3810349 108.2852745  24.1028047
  77.0208788  83.9071465  19.5263803  77.2466946  84.4160938  20.3049755
  77.8569889  83.5582161  19.2175150  83.5351181 132.4091339  68.0386782
  83.4781075 131.6850281  67.4152613  83.6714840 133.1841755  67.4937391
   0.9055644 103.3915806  56.1006880   1.2808447 102.5275230  55.9309959
   1.4933329 103.7856007  56.7452908  83.6162186  94.2585373   5.0779063
  84.5406342  94.3584156   4.8505053  83.1480694  94.4412136   4.2632309
  98.4737015 121.6437817 106.8588304  98.9486408 121.0078335 107.3938348
  99.1156578 121.9413948 106.2141945 103.8956547 107.4056625  98.4576281
 103.0900764 107.6859188  98.8920566 104.0369892 108.0577564  97.7713116
  25.0476676 117.4668980  52.5178051  25.8969050 117.8950787  52.6259041
  25.1039820 116.6821480  53.0629921  80.6146717 132.8226566  40.9506178
  80.7402897 133.2597256  40.1083422  80.2596188 131.9631577  40.7238531
 123.4209061 109.9388504  21.4574790 122.6193333 109.4233894  21.5469956
 123.3847523 110.5653477  22.1802664  96.4817333  89.1941261  27.3682475
  96.2354183  88.3538818  26.9815254  95.8271599  89.3450165  28.0501556
  70.0550222 116.0395813  96.4640089  69.8694992 116.2355042  95.5456253
  69.5692205 115.2337837  96.6398760  86.4372158 134.6729279  56.1792707
  87.2994041 134.5492268  55.7823133  86.5945530 135.2664089  56.9136047
 119.9514389 118.0616188  47.9716158 120.8685970 118.3133507  48.0797243
 119.5624542 118.1970596  48.8356590  33.6562377 112.9549313 100.3901359
  33.2024794 113.6190605  99.8712220  33.7713175 112.2188187  99.7892030
 114.7875786 123.9649296  56.9310188 114.6804333 124.5373440  57.6906776
 114.2834473 124.3904495  56.2374735 119.7121811  79.2839098  36.0972238
 120.4383945  79.0531063  35.5179405 119.4221306  80.1419258  35.7875133
 115.6365967 141.5402985  43.9581919 114.8361683 141.0192204  44.0215206
 116.2361813 141.1354256  44.5849371  75.1782370   7.7842408  45.7452059
  75.0688410   8.4769612  46.3966703  76.0570145   7.9238777  45.3923845
  82.2937202 103.6318111  34.5979118  81.9601631 103.3558846  35.4516292
  82.7481365 104.4558239  34.7732472  86.2684059  87.0366955  25.3266072
  87.0418930  87.5769234  25.1650548  85.6485558  87.6276493  25.7541442
 109.7957230   6.7677956  12.2919142 109.0396976   6.2066918  12.4645913
 109.6366596   7.5522499  12.8168595  18.1869917 109.1248035  22.6900220
  17.6658946 108.6674309  22.0301008  17.5699835 109.3060684  23.3990169
 108.9516544 138.6695004  17.1726954 108.7259102 139.5070934  16.7681038
 109.1050720 138.0803394  16.4340532  72.5558329  87.9116821  39.0540433
  72.8673840  88.7961483  39.2460990  72.6302099  87.8327847  38.1030035
 122.4970627 124.7825813  21.0133457 122.0034504 125.3682613  20.4392695
 123.2801247 125.2807426  21.2476134  98.3943176 129.8203373  36.0595345
  99.1649914 129.2825413  36.2413836  98.5665321 130.6462860  36.5116215
  80.7933712 132.7813721   2.4579945  81.1967564 133.3361244   3.1256506
  80.1049519 132.3073101   2.9244426  87.0914173  81.5686321  34.4299316
  87.2482491  80.9116459  33.7516928  86.1752701  81.8199444  34.3126774
 109.6912003 112.6143932  29.2491531 109.6913147 111.8274784  29.7941232
 110.1765442 113.2608318  29.7617888  84.6096802 139.6957588  37.2158313
  84.9059010 138.8738823  36.8246818  85.2537537 140.3432560  36.9292068
 111.0874844  89.7421265  28.4810853 111.0580540  89.1165829  29.2050076
 111.4114189  90.5512905  28.8767600  95.4323578 111.9601631  40.6790257
  95.6979370 111.6207409  41.5337133  94.4793415 111.8711090  40.6715488
   2.9926806 124.8040771   1.5697180   2.7970343 124.9698448   2.4919324
   3.0780535 125.6753445   1.1826269  86.6472530 130.3101921  88.3898457
  86.0298443 129.5806313  88.4425768  86.6136360 130.5867004  87.4740728
  78.0469704 128.2772923  40.0194407  77.2176361 128.3947945  39.5561576
  77.8823614 127.5551891  40.6258249  80.3451538 135.8494282  56.4033461
  81.0371780 136.4107704  56.7529535  80.7704163 135.3516579  55.7050514
 111.8698692  61.8802433  37.3376513 111.0891342  62.2896366  37.7105832
 111.5849686  61.5547543  36.4837599  84.0376568 120.9921455  21.6030073
  84.7687531 120.9661865  22.2203064  83.8141155 121.9204140  21.5353990
  98.7625027 107.2355843 107.3335984  98.8896751 107.8919506 108.0186118
  99.5466423 107.3029518 106.7887893  93.1671810 141.6056061  56.0727072
  93.0020142 141.1595058  55.2420807  93.4201241 142.4938965  55.8213472
   0.5745726  97.1965599  32.0077562   0.7495146  97.7900696  31.2774324
   0.7158881  97.7305603  32.7894878  90.3506088 119.0974712  53.0729914
  91.2760162 119.3020058  52.9387283  90.0314903 118.8506317  52.2049713
  98.8562298 131.0764980 109.7888719  99.5452595 131.3931561 109.2047544
  99.1237068 130.1853752 110.0137918  96.2582207 124.3533516   8.0016571
  96.3581467 123.7624836   8.7480605  97.1181583 124.7619724   7.9028463
   4.4905501 134.8431110  39.4648337   4.8492747 133.9557838  39.4792581
   3.5946589 134.7341061  39.1458702  90.7754517 117.0009995  18.4631324
  90.2282429 117.7856922  18.4306741  90.6213284 116.5666580  17.6241946
  94.6755600 126.3754177   8.9052242  95.1914024 125.6475067   8.5584074
  94.0867805 125.9698772   9.5417076 120.2299404 130.2998924   6.1135280
 120.4682159 129.5084763   5.6307125 120.0740147 129.9969292   7.0080292
  61.2351131 103.3353901  24.7444797  60.6207991 103.4264183  24.0160799
  62.0967627 103.4672928  24.3490195  86.5021992 110.2520466  16.2018657
  85.9576893 110.9740639  15.8881354  86.7127800 110.4861069  17.1058023
  65.1445055 135.1194954   3.0371684  66.0523605 135.1942444   2.7431598
  64.6284676 135.1514530   2.2316158  87.3186779 105.5788231   8.3794373
  87.8406143 105.4377270   7.5895554  87.8838921 106.0994339   8.9501655
  77.1123838 101.7386436  91.4479216  76.6105795 100.9781075  91.1546656
  76.4487934 102.3789120  91.7047092  26.2284022   1.2230759   5.8938098
  25.6729918   1.5327530   5.1783770  27.0914202   1.5907650   5.7034302
  84.6976662 142.4295044 108.2777264  84.5483017 142.7431965 109.1696437
  84.9093056 143.2184124 107.7786584 114.1409588 125.9656048   1.7829183
 113.3779526 125.8055210   2.3382810 114.7558308 125.2694225   2.0141971
 100.7734394 116.8393898   8.6743283 100.3826332 117.6432323   9.0168822
 101.6817856 116.8677139   8.9748901  12.3664790  97.0846653  48.6782217
  12.6085024  96.6697693  49.5061827  13.1047755  97.6582623  48.4729481
  14.8452025 130.9688568 107.2283866  14.1778594 131.1828423 106.5763884
  14.4157534 131.1223793 108.0699540  85.1243114  96.8614864  17.5754476
  85.5365562  96.1292934  18.0339062  84.2870426  96.5120983  17.2702515
 101.4815998   7.5815373  22.3440695 101.1335278   8.1324368  23.0452061
 101.6360188   6.7334252  22.7601194  98.3619118 111.7734528 109.6681843
  98.0491066 112.6152802 109.9994132  98.0076408 111.7186832 108.7806481
 110.1137257 129.7233009  19.8944330 109.2533875 129.3163586  19.7922885
 110.0191212 130.5873108  19.4934773 118.3422470   2.2892552  34.1010904
 118.1919956   1.4101582  33.7534690 118.7719345   2.7592068  33.3864284
 101.5996456 126.1381912  97.1902355 102.3659897 125.8069324  96.7220184
 101.7045116 125.8104038  98.0834254 104.4640732 144.4915867  84.0370783
 103.8093185 144.1681004  83.4182962 105.2895737 144.4534302  83.5540446
  93.9312935 109.1221809 109.2391977  93.6015224 108.9693546 108.3536907
  93.1732178 108.9774132 109.8054055 117.3972511 136.7439842   9.9777102
 117.3437119 137.6996040   9.9652565 116.4853764 136.4529324   9.9733782
  93.0336666  95.8112717   8.9987546  92.6977253  95.6069756   9.8714703
  93.9338684  96.0993671   9.1500252 104.7471523 114.9025154  30.0472283
 104.6121120 114.1527176  30.6267166 105.6357574 114.7878933  29.7103739
  72.0808792 126.7105007 100.2638569  72.5405931 126.3671494 101.0300156
  71.2981892 127.1293068 100.6219479  91.2864399 106.7197704 102.4541279
  91.8535042 107.4229336 102.1375283  90.9629059 107.0346642 103.2981654
 109.0694237 123.0436039   7.7140152 109.0204239 122.9099941   8.6605763
 109.9886513 122.8876686   7.4973863  83.6131191 129.6828747  10.2525115
  83.4452057 129.0699005  10.9682620  84.5674896 129.7256279  10.1927018
  56.8620300 121.5164661  33.0924273  56.5167761 121.9216347  32.2968960
  57.2709084 120.7054996  32.7901340 106.9939709 113.1222248  84.6748885
 106.4164925 113.8653755  84.8494705 106.9245434 112.9816055  83.7306222
 110.1148319 143.0058861 102.1571084 109.6433544 143.2844543 102.9421785
 111.0379410 143.0372238 102.4083432  90.1201820 139.0021420   1.6046359
  90.2569294 138.8727570   2.5431409  90.2813244 138.1413651   1.2182029
  96.9246006   7.3704129  86.6902312  96.9899559   6.9283181  87.5366958
  97.7940559   7.2736912  86.3017353   1.1018496 125.1650715  43.3073330
   1.3187724 125.1677799  44.2396259   1.7015391 124.5251751  42.9237509
  85.9895897 121.0241127   2.7896574  86.0845375 121.8964577   2.4072558
  85.4989243 121.1693192   3.5986057  65.2299261  21.9385128  12.1028042
  65.5876589  22.2410565  11.2681007  64.3171501  21.7252140  11.9089639
  94.7168732   5.0965290 101.6040900  94.3587494   5.9053402 101.2383153
  95.0951576   5.3599434 102.4429866 100.9966946   6.5325146  95.4417165
 101.5566826   7.2540551  95.1553293 101.2303066   6.3980179  96.3601764
  74.4890738 130.9862518  93.5072263  74.5303917 130.7645798  94.4374856
  73.7406826 130.4899883  93.1757590   0.1574164 124.3486023  26.7455459
   0.3021746 123.4366131  26.9976640   1.0039549 124.6409607  26.4077282
  96.4258385  87.1714401  93.9643511  96.9807243  87.7839947  94.4471642
  97.0395947  86.6447163  93.4524020 106.4559555 146.2252331  99.1166850
 106.2472630 145.8434582  99.9692848 105.6646347 146.7029285  98.8679954
  88.2599068 131.9725609  28.2822514  88.5527992 131.2621403  28.8529921
  87.4554253 131.6422844  27.8823066   6.0547381  14.2325001 107.7153688
   5.5885726  14.0106755 106.9093176   6.4338809  13.4039193 108.0085362
  89.0645790 129.2595768   6.4816689  89.6658325 128.7018776   5.9880114
  89.5859432 129.5819855   7.2168356 111.5732098 132.1024704  11.9594872
 111.8127060 131.5165234  12.6774919 110.6778812 132.3745918  12.1609092
  90.9509277 117.9687023  98.1105145  90.5475807 117.8639412  97.2487935
  90.5112839 117.3208046  98.6611220 105.2218437   9.0041523 104.1825106
 105.6814480   9.0852528 105.0182273 105.4484177   8.1287651 103.8685282
  66.7401409 126.9458294 108.5418110  66.5691805 127.8011131 108.1474830
  67.6494598 126.7538738 108.3126278 103.2171631 107.5660133   4.1000161
 103.7032986 107.1105385   3.4126648 102.6795292 108.2038689   3.6306375
  10.8316928  97.5229549 106.4580815  11.7409258  97.2707939 106.6191434
  10.8850318  98.4276009 106.1498817  85.0648975 119.9699593  15.0430334
  84.6718216 119.1053391  15.1620245  85.3080559 119.9972153  14.1176343
 121.9122887  90.5780220   7.0755881 122.7609444  91.0059261   6.9619203
 121.5789604  90.4668140   6.1852199 123.1423473  90.4184723  20.6818032
 123.6066437  89.7156715  20.2271199 123.0710030  90.1125717  21.5859962
  72.2809505 109.7641087 103.0870637  71.3716125 109.5138359 102.9236474
  72.2232437 110.6387997 103.4715369 110.3242302 115.6667233   5.5994928
 109.6284676 115.1157093   5.9580052 111.0761452 115.0800896   5.5176115
 108.2088947 118.5475636  13.7184250 109.0297413 118.2032871  14.0704334
 107.7190495 117.7704716  13.4493649  62.4255610 127.1988106  32.2005010
  61.6760969 126.6035175  32.2130156  63.0413008 126.8219376  32.8290415
  62.2577906 139.7485161  18.6491489  62.9203939 140.4323864  18.5515940
  62.6315069 139.1424370  19.2888606  94.9031258 124.0050030  63.4654196
  95.3077984 123.7798882  62.6276883  94.5323658 123.1810284  63.7814053
 111.9882488 115.5778313   9.3240684 111.7852116 114.8224354   9.8757815
 112.4855042 116.1641693   9.8943132 105.1291370  19.4063740 108.1928175
 105.3842640  18.9468556 107.3928305 105.9585190  19.6404820 108.6094294
  88.6561680  89.3541431  21.3537264  88.0850697  89.8424339  21.9467258
  89.4915867  89.8201275  21.3879728 114.1990852 136.6659641 103.7051680
 113.3843231 137.1574116 103.6008915 114.7661114 137.2470951 104.2121103
 106.0202694 123.4685040   0.2180548 105.7155418 122.7769470   0.8055315
 106.7382908 123.0675411  -0.2717533  66.1219215 119.3839645  95.1752468
  65.8904028 120.2887917  94.9656960  66.2122011 118.9564514  94.3235918
  87.1127129 130.0783634  13.9158928  87.1193409 129.9658871  12.9653478
  87.0383072 131.0239410  14.0446723 118.3375549  92.1475410  73.2783302
 117.7101231  92.5700188  72.6917490 118.2854176  91.2180901  73.0555209
  88.1602573 134.7806549   0.9588681  87.5488091 134.1240311   1.2923668
  87.6228619 135.3510952   0.4092893  92.2340870 115.5102634   6.4006162
  92.0778370 114.6499443   6.0111606  91.3919544 115.7564735   6.7832762
 121.0432148 131.7908001   3.7328777 120.7031155 131.4110565   4.5430380
 120.2845764 131.8317604   3.1506228  98.5472679 104.4550133  26.8549395
  99.0845776 105.2448845  26.9152808  98.5830975 104.0733814  27.7320385
  76.1594391 126.7366791  37.5170159  75.4370689 127.0428085  38.0653739
  76.4307737 127.5110340  37.0240808  88.9246559 106.8045521  12.1203840
  88.1791115 107.0988369  12.6436317  89.6536541 107.3512840  12.4134409
 101.9659901 109.2477226  92.8780802 102.5984383 108.5472775  93.0381378
 102.4979210 109.9894238  92.5897189  93.3933067  87.1945763 107.9329749
  93.5748863  86.6910839 107.1394041  93.2517433  88.0887699 107.6221455
  91.3213825 102.4461651   7.7074122  90.5865955 102.5809765   7.1089607
  90.9409618 101.9818115   8.4529912  71.9214058 118.9931011 106.0338166
  72.1820974 118.4210682 106.7556533  70.9644842 118.9852333 106.0555666
 105.3721428 146.1089516 103.5483625 105.9014606 145.3149033 103.4738823
 104.9784279 146.2164307 102.6825263  93.8057899 122.0456409  94.3066534
  93.3137226 121.2271881  94.2416414  93.6613178 122.3412132  95.2055367
 108.7097931 132.3084164 105.8561163 108.8748932 131.4309120 106.2010237
 108.2851505 132.7731991 106.5771511  11.8838053 132.6168728  -0.2267776
  11.4410048 133.0040455   0.5283697  12.7951365 132.8962326  -0.1392247
 100.6835175 136.8693638  18.6330140 100.0515270 137.1535110  19.2933869
 101.5344620 137.1208668  18.9919972  97.0915127  99.3198776   2.1811073
  97.9705811  99.5693779   1.8961111  97.0460129  98.3774185   2.0201057
  98.3848763 101.9287300  15.1452959  98.0415249 102.5800991  15.7569003
  97.6733112 101.2965202  15.0442851  75.0254679 107.4065495  10.9967113
  74.4238615 107.4428844  11.7403376  75.4475498 108.2656193  10.9879017
 105.5057430   6.3471203 105.0407188 105.0524616   5.5771714 104.6972814
 105.0302505   6.5675335 105.8416944  94.9452591 117.4466419  96.5133878
  95.5549622 117.9797363  96.0031899  95.4876995 116.7499542  96.8830153
 105.4818153 138.5096169  54.0050697 105.6582165 138.1674957  53.1286764
 105.2747440 137.7347279  54.5274782   4.5890647  24.3112545  31.4508414
   4.6990805  24.4966679  30.5182385   4.6234160  23.3565502  31.5109086
  78.2943249 139.6806526   2.8195348  78.3021688 138.8369465   2.3675101
  78.8226128 140.2545357   2.2647321  87.4095154 140.0568581  47.8931284
  87.1867466 139.7555447  48.7739325  86.8348408 139.5543957  47.3156118
  88.6893368 124.6553040   0.8434799  89.3006611 125.2857494   1.2243380
  88.9526272 124.5909309  -0.0745419  19.6743422  95.3051853  93.0540439
  18.9637976  95.4837704  92.4380394  19.2325717  95.1290131  93.8847240
  93.5082436  97.1110916  82.2913536  93.2623672  97.5847530  81.4967331
  93.8496685  96.2744808  81.9755300  95.3421688 107.2035885  23.5099125
  95.5634212 107.5433350  22.6428175  94.4326591 106.9162464  23.4296489
 111.9343281  76.4162540 103.3585402 112.4954033  75.7667446 103.7822893
 111.8809891  77.1344948 103.9890315   1.3704520  79.4385529   0.9507409
   2.2454196  79.8226929   1.0063243   1.0402232  79.4639635   1.8488145
  83.2578468 108.0085087   0.3509774  83.5554981 107.9222393   1.2566230
  82.6023960 108.7054920   0.3796472 119.0350246  92.8413296  27.5122142
 119.5000172  93.6571598  27.6977682 118.3873653  92.7699757  28.2134104
 122.0632744 122.7239513   8.4026861 121.2841797 122.3495293   7.9915291
 122.7909470 122.4144077   7.8633201  60.2729368 109.0450382   8.0452460
  61.1040735 109.2666149   8.4651870  59.6169853 109.5394611   8.5366732
  61.3576078 132.4085140  84.0555247  61.2328148 131.4597130  84.0762910
  61.0708237 132.6687050  83.1801470 118.2529831 146.0121250  19.2315447
 117.9072666 145.1210022  19.1805303 119.2031670 145.8992958  19.2573118
  70.3854227 131.0064983 108.4648136  70.6205893 131.8763638 108.1419271
  69.4916058 131.1062050 108.7924988  83.8288498 101.6891384  58.9130648
  84.3322086 100.8912754  59.0751275  82.9787731 101.5229416  59.3204745
  60.5381393 118.6969185  54.7734499  61.0689735 118.0481243  55.2355194
  60.7951784 119.5347595  55.1584148 108.0111694  86.6873264  13.9800835
 107.2746849  86.2088013  13.5995090 108.2995605  87.2767925  13.2832313
  99.1558075 112.3367214  11.3023591  98.8596058 111.4482403  11.1046159
  98.5166550 112.9038429  10.8709717  92.7089024 136.6178989   7.6812053
  92.4477005 136.1325169   8.4637749  93.5809422 136.9541645   7.8878754
 100.9026527  98.3724976  47.2909021 100.7412624  98.4842205  48.2277632
 101.0742950  97.4365234  47.1873808  86.5873814 133.2448101 103.3692434
  86.8164253 132.6785469 104.1062000  86.2919044 134.0594006 103.7759086
 112.4437523 146.0383034   0.9920915 112.4327946 146.9948101   0.9574581
 113.3056736 145.7962227   0.6533827  99.9642372 101.5607357 104.3863865
  99.0092564 101.5626907 104.4514581 100.2461433 102.2571564 104.9794843
  71.8338156 140.9129238  26.6014028  72.3838186 141.4639282  27.1582890
  71.5186739 140.2222252  27.1843696  85.8938694  78.7296677   5.0251812
  85.7280350  77.9006147   5.4739571  85.0695610  78.9314079   4.5824033
 103.6776352 135.0991821  42.1563768 104.0736961 134.3059158  42.5170565
 103.5137653 134.8884296  41.2371588 121.1216450  85.2935791  83.8856252
 121.7206669  84.9259853  83.2357987 121.0846806  84.6334457  84.5777830
 110.0022316 137.0482731 103.0645850 110.2297211 137.2995281 102.1694013
 109.3650818 137.7059650 103.3433648  43.5925436 127.8711319  94.7122594
  42.8747034 127.5225449  94.1836485  44.3499136 127.8565407  94.1270992
  52.5114870  99.3578434  80.5784448  51.9470692  99.6920013  79.8813018
  53.1146002 100.0776100  80.7640060 113.8745403 102.9611397  43.2631397
 114.4938278 102.2320461  43.2295227 114.0663052 103.4002686  44.0917683
 110.1527214 102.2385979  28.4595919 110.6361961 102.5262547  29.2340231
 109.2401981 102.2031403  28.7464094 121.5493679   1.3404732 107.5420884
 121.8084717   1.4401322 106.6260287 121.9540977   2.0846253 107.9877930
  10.9867030 112.2779179  23.8955951  11.2375289 112.8816319  23.1964135
  11.4872866 111.4820766  23.7159085  74.2902899  90.2584934  11.7781401
  74.7831059  90.9887028  11.4037561  74.5969248  90.2015686  12.6831079
  67.0913601 131.3266945 105.4826158  66.5488434 131.7194176 104.7987431
  66.4937782 131.2009811 106.2197217   6.5508681 111.5345573 109.1450545
   6.6221457 110.9337330 108.4033234   7.3376589 112.0769596 109.0903978
  94.2542362 105.4493237  20.7168746  94.6552467 106.3163757  20.6565118
  93.3126926 105.6178379  20.6803274  93.3211327 101.0368061  19.3004584
  93.2397652 100.9002495  20.2443671  92.5361061 100.6321621  18.9313650
  90.6282616 129.7462845 105.6828996  90.8861542 129.0008354 105.1406583
  91.4240360 129.9823952 106.1595865  99.6923256 116.5897942  78.8508972
 100.2318478 116.6658115  79.6379002 100.2066326 116.0395622  78.2601627
  60.6835127 115.3949833 102.5743779  61.4556408 115.5444717 102.0287594
  60.9568882 115.6574917 103.4533479  93.4917545 130.5069351  46.4140749
  92.8638363 130.3112030  45.7186270  93.2362080 131.3733864  46.7305994
 109.7950649 115.8529663  24.0166807 109.1347504 115.2988434  24.4328117
 110.5243015 115.8632851  24.6366358 107.1880913 144.7157764   7.6276946
 106.2800789 144.9387264   7.8327054 107.3499203 145.1272202   6.7787218
  66.9345665 142.1845150   9.4280934  66.8727398 141.3624382   9.9145144
  66.1063671 142.6305199   9.6052843  98.2057762  78.5265064  25.7537127
  97.4493885  78.5089636  25.1673675  97.8930092  78.1171179  26.5604401
  82.2417545 115.9486675   5.5785710  81.9331932 115.6108284   6.4193362
  81.7865753 116.7842674   5.4745960   6.0820036 106.8665504  68.0726393
   6.7669421 106.5187359  68.6436948   5.8420497 106.1299992  67.5103673
  97.7600098 123.4060955   5.3978848  97.1325779 123.5853481   4.6975809
  98.5495186 123.1130314   4.9428874  84.6230888 126.8194771  34.1038394
  84.4187832 127.7425957  34.2532921  83.9176941 126.5067101  33.5374260
  97.2434998 113.2869625  26.9453812  97.9263306 113.8594151  26.5957165
  96.4267254 113.6544037  26.6076040  86.9964504 127.7457523  15.5569243
  87.7969074 127.9948330  16.0189366  86.7885876 128.5045719  15.0117397
  26.7478495 107.7098656  26.0280180  26.5089827 107.5384712  26.9389462
  27.6784926 107.9311848  26.0620260  92.7780724 127.1649456  17.0888996
  91.9239140 126.8377113  16.8068361  92.6364231 127.4599361  17.9884231
 118.4246349 103.6474800  20.9591508 119.3462276 103.8801193  21.0722256
 117.9439449 104.4119072  21.2766790   2.1349078 142.7269745 105.8153843
   2.8856879 143.1085396 106.2703126   2.4290019 142.6269150 104.9099981
 115.2950668 125.3921795  17.2167814 116.0538673 125.7153988  17.7025676
 115.5263233 124.4936371  16.9814682 118.7897396 120.6985283  21.4598274
 119.4413280 121.3993263  21.4363289 118.2827568 120.8693886  22.2535515
  92.5166321  97.4795151  13.4328163  92.0007706  98.1170368  13.9264667
  93.4233379  97.7632427  13.5494852 106.8139935 104.1888618  46.5642500
 106.0465240 103.9428234  46.0478306 106.6919041 105.1207447  46.7456627
  83.5000515 114.5381451  95.1939555  82.6505661 114.4102097  94.7717663
  83.4822369 113.9519787  95.9504708 113.1459808 143.6691284  21.4702201
 112.7449703 142.8254509  21.6791153 112.7557182 143.9189816  20.6326652
  87.9782391 111.7620850 100.1401939  88.3659840 111.4157963 100.9439119
  87.3368073 112.4054813 100.4416116  82.4833107  92.0997810   6.6728681
  82.9276466  92.7690601   6.1524129  82.2106838  91.4413166   6.0338646
  91.1590576 130.3052711  96.8690988  91.8281841 130.9766102  97.0025119
  90.3383541 130.7940197  96.8074139  49.5295286  87.2106552  20.9258389
  50.1430655  87.8805637  21.2275529  48.6782169  87.6482582  20.9254956
 109.7880268 116.2139988  16.2909138 109.6220779 116.9878387  16.8293095
 108.9470863 116.0279942  15.8732378   0.5736380 132.1371555   8.0239326
   1.4837580 132.0318699   8.3011210   0.6327563 132.5109100   7.1447039
 108.8803577  96.5352154 106.5454944 109.0797234  97.1055889 107.2878941
 108.4031868  97.0960522 105.9339389 117.4946213  26.5020352 102.8021845
 118.3825302  26.8320637 102.9398301 116.9328594  27.2670727 102.9261258
 110.9072495  98.3295345  19.1903281 110.7382011  98.4168911  18.2522321
 111.6157246  98.9491081  19.3647444 124.1860485 140.6865883  20.3071928
 124.6629429 139.9944782  19.8491645 123.3002853 140.3388786  20.4108953
  73.0768871 100.2750015  76.7655786  73.6657524  99.9935913  77.4657782
  73.6396599 100.3497505  75.9949073  56.6534281 136.2289715 100.3193142
  57.1492815 135.9674931 101.0951950  55.8769846 136.6671371 100.6677070
  59.3842077 129.0884113  -0.0200904  58.6610460 128.5555458  -0.3507302
  59.8010015 128.5404015   0.6448902 106.4004040 140.8953667   8.5418522
 105.7603550 140.7302570   9.2341709 107.2110653 140.5035496   8.8667196
  87.3011780 137.1057606 109.5495470  86.6245461 137.6515865 109.9501321
  87.6440239 137.6377487 108.8314434  14.1776305 123.2573414  54.5288134
  14.2478495 122.9450989  53.6267042  14.6269541 122.5908947  55.0486040
 108.9792728   2.0514088  94.3228241 109.2214298   2.9720002  94.2223211
 108.0293751   2.0394211  94.2054530 100.7973576  92.6570797  10.2483559
  99.9319267  92.9518032   9.9648190 100.8159828  92.8379822  11.1881232
  62.3645639 127.8860474  18.7431860  62.2029781 128.6593628  19.2836499
  61.8117046 128.0129242  17.9721606  11.8473178 125.2397919  24.1810608
  10.9132987 125.1800728  23.9803934  12.0451003 124.4262695  24.6450710
   3.8910132 103.8319492  20.4234195   3.6178713 104.3951511  19.6992385
   3.0711775 103.5355186  20.8186817 111.6749287 135.1124001   7.2769046
 110.7896328 135.3360081   6.9897002 111.5447712 134.5781326   8.0603904
  17.0501261 134.8399734   2.7338287  17.4956256 134.4847107   1.9647056
  17.6685935 134.7060394   3.4520119  83.4541225 110.7353878  87.5592097
  82.7069950 110.6747437  88.1544813  83.8844109 109.8830700  87.6272997
  91.4961243 132.3669720  10.9553766  92.2559357 132.3818970  10.3734052
  91.8409729 132.0536327  11.7915142  77.4922323 131.7160797  11.9872355
  76.8807364 131.0424900  11.6895998  77.0660353 132.5429726  11.7617643
   8.2119113 109.3864441  97.1223184   7.6445895 109.8610020  96.5147217
   8.4775477 108.6034393  96.6400536  72.3846292  74.9781179  25.2698922
  72.0145702  74.0996361  25.3568435  72.8076744  75.1442671  26.1123061
  89.0825653 126.5602303  26.7432046  88.9827347 125.9387684  27.4643517
  89.8685360 126.2675571  26.2818789  71.2071037 122.9549026  79.4914588
  71.8659115 123.0685139  78.8064059  70.6884336 122.2039795  79.2027816
 106.5939713 110.9104538  41.3155699 106.7691517 111.5597439  40.6344223
 107.4396515 110.7788849  41.7442322 102.5528049 112.7637291   7.4672776
 103.2888508 113.2664013   7.8162825 102.6547718 112.8180695   6.5170765
  66.7175674  91.0522461  10.7204953  66.1507940  91.3368607  11.4374296
  66.2513447  90.3160572  10.3243963 112.9425144  96.7090988  11.1458532
 112.0544243  97.0022488  10.9419004 113.0087757  95.8450127  10.7394258
 117.8724957  97.8993988  22.8867856 118.4130001  98.6824322  22.9913942
 117.1553040  98.1777668  22.3172323 122.2273159 101.7393208 106.2103558
 122.5781059 102.1310997 105.4105568 121.3776970 102.1630955 106.3319588
  73.1145000 112.1780968  85.5663109  72.6852131 112.1937943  86.4216995
  72.5427246 111.6375160  85.0212669  95.6473541 120.0009727  67.7432299
  94.7194576 119.8117065  67.6038790  95.8539581 120.6756210  67.0964003
  69.2312479 107.4212646  96.2523079  69.2912292 106.6057968  95.7546711
  69.1354418 108.1018925  95.5861187  77.2235203 109.4515800  63.3189201
  77.2555113 108.5048389  63.1815243  77.2752905 109.5576382  64.2688179
  97.6879597  74.8064899  18.4301130  98.5394764  75.1773691  18.6616460
  97.7411175  73.8923073  18.7088243  96.8503284 102.0366287  97.6292515
  97.0003796 102.2898483  98.5400772  97.6775646 101.6439629  97.3504353
  72.9046392 117.2448158 107.9823303  73.7248468 117.7272892 107.8788757
  73.1751156 116.3330078 108.0904293 119.2517757  74.8045731  81.8912888
 119.0590191  75.6217575  82.3509407 119.9922466  75.0180531  81.3235188
 115.9450436 117.3473835  41.8815271 116.8601799 117.5337219  41.6716710
 115.4494381 117.7444649  41.1653367 111.4327812  44.3091059   4.1993371
 112.2074604  44.6910954   3.7867967 111.7822456  43.6627293   4.8127786
 104.0036106 105.6345654  71.9908953 103.8327694 104.9688339  71.3246775
 103.5459518 105.3172970  72.7694225 102.5470543 133.2696724  14.0765134
 102.4031544 132.7136135  13.3107988 101.9187546 132.9517365  14.7248784
 101.9124603 102.7616882  89.9401855 101.1755180 102.5489521  89.3675709
 102.6882648 102.5601578  89.4169903 102.5275803  95.9872532  97.4375534
 103.2703114  96.5903473  97.4082279 101.8268871  96.4902306  97.8526211
 114.0574551 113.1577778 109.6679211 113.7852097 112.5098705 109.0180492
 114.5908737 113.7815475 109.1753674 105.4755592 113.2425880   7.5608293
 105.1536942 113.0853748   6.6731874 106.2527370 113.7882805   7.4406568
  14.9527770  77.4807549   8.3054010  14.6195727  77.1423483   7.4743310
  15.1922827  78.3879137   8.1158487  92.3641014 119.4877148  89.0426540
  92.7136230 118.7094307  88.6086750  91.5865517 119.1751671  89.5052147
  80.1413345 117.9959965   5.1735059  79.2020941 117.9087162   5.0108758
  80.5084991 118.2495880   4.3266813  98.1409264 138.9352417   1.1178151
  98.7786198 138.5352802   1.7090932  98.6355209 139.1150188   0.3182641
 121.3766956 114.9627590  78.6878729 121.4208412 115.8241844  79.1028690
 121.7507839 114.3654251  79.3355417  79.6258068  72.4381399  86.4088058
  79.8863935  73.3366394  86.2062645  78.6961651  72.4018478  86.1836910
 114.4993210 105.2441406  80.3901291 115.0987339 105.8917904  80.0193214
 114.1785908 105.6485367  81.1962509  30.5939513  94.4677830  78.2197380
  30.6472903  93.9033604  78.9909792  31.5039378  94.5905113  77.9493618
  88.4670830 121.9144344  52.8895131  88.7127113 121.8818188  53.8140813
  89.1261101 122.4796104  52.4863950 102.5000286  81.9035339 109.3030834
 101.9856548  82.1674442 108.5401917 101.9385624  81.2827396 109.7674084
 123.9458179  99.9093723  71.2623119 124.8341370 100.0438595  71.5925264
 123.3783722 100.1869583  71.9814682 100.8736992  96.5972042  84.9055386
 100.7124615  96.2171173  85.7691193 101.8254185  96.5716267  84.8064995
  76.2489462  87.6171398  12.5564996  77.1517849  87.4723911  12.2733632
  75.9446287  88.3499813  12.0211831  91.0727119 114.3264198  89.7824478
  90.5218315 114.2341423  89.0051079  91.8311310 113.7697411  89.6059990
 113.5989666  84.9288940  85.3418159 113.5620975  84.0032196  85.5826473
 112.6841736  85.1794624  85.2129269  75.9669352 115.3181744  12.9017774
  75.1763916 114.7869873  12.9972211  76.2447500 115.1737881  11.9972364
  87.9746151  76.3853741  16.1570779  87.2451401  76.7247915  16.6756288
  88.2219982  77.1131134  15.5866090 111.8530560 125.9377956   3.0685750
 111.2358379 125.2603817   3.3449594 112.3077679 126.1898327   3.8722841
  63.5171270  95.2149200  83.4254265  63.4124470  95.1994228  84.3767643
  63.5967398  94.2936420  83.1781960 112.5841904 106.4923382  55.0852156
 113.1741333 106.3465786  55.8247805 113.0310440 107.1462345  54.5476484
 109.4407940 117.2991371 103.3305454 109.1586018 116.3950253 103.4690571
 109.7412586 117.3197269 102.4219608 118.5567188  79.0770245   8.2109205
 118.4782505  79.4833612   7.3478071 118.6196136  79.8144245   8.8179818
  93.7470913 123.8934994   4.5236722  93.7258720 123.2203484   5.2038518
  94.6592999 124.1826153   4.5011941 112.7103519 114.8308086   1.6561357
 112.7753735 115.6914234   1.2421838 113.1416607 114.2364979   1.0421315
  98.2415295  85.9519577  58.0671692  97.8930569  85.1162434  58.3776045
  98.4956455  86.4165211  58.8645601 100.5529118  85.6943798  19.5879594
 100.8020306  85.2232265  18.7928525  99.7338963  86.1338711  19.3592588
  96.2280273  93.5214043  58.0906963  95.7845497  93.1258011  57.3403311
  97.1546173  93.5176754  57.8505659 120.2830029  77.2725105  85.8618355
 119.8459625  76.5845013  85.3599644 119.6518326  77.5115204  86.5406132
  51.0388184 107.3179436   5.2228586  51.4279842 106.8805408   5.9801332
  51.6797686 107.9845524   4.9757520  94.4064045 100.7530117  97.6788044
  95.0484276 101.4609528  97.6253700  93.5980606 101.1365700  97.3386765
  75.5176115 124.7080898  79.4606400  75.9318781 125.3430939  78.8763618
  75.5925179 123.8731098  78.9986515 122.6449871  98.2802105  11.2196103
 123.4968567  98.7133884  11.2735215 122.2697830  98.3799171  12.0945398
   0.4619341  94.7492790  91.4664936   0.7599001  94.8549271  92.3699856
   0.0468951  93.8868904  91.4504528  93.8066769 103.1593609  78.4028006
  93.5091782 102.3572350  77.9734755  94.5333767 103.4659386  77.8604460
 112.7689171 135.5357265  80.8808517 112.7039719 136.4156055  81.2520885
 112.5131798 134.9541950  81.5968513   3.8526946 119.2580891  87.3808956
   3.1659060 119.8935032  87.5828648   4.2898684 119.1036224  88.2182980
  82.6482296 108.7056255  82.7355385  82.8724670 108.4818935  81.8322754
  81.6913986 108.7305355  82.7456474   1.8411856  86.6044140 107.2682858
   2.1568137  87.5020218 107.1638489   0.8929377  86.6935349 107.3637199
 124.0830421 100.5865669   0.6928960 123.9241219 100.4230976  -0.2367552
 124.8601818 100.0667667   0.8980504  67.6845026  57.6034260  76.9102955
  67.4383974  58.5215664  76.7976809  68.2129335  57.4006844  76.1383581
  85.2848339  86.2876606  28.4462587  85.4638195  85.3765774  28.6789075
  85.3605843  86.3105965  27.4923364  25.2535945  82.8379822  72.6118946
  25.8571272  83.5798359  72.5715733  25.7715731  82.0912075  72.3114634
  22.1349078  85.8434486 102.8372192  22.6350337  86.3345814 103.4890461
  22.7894335  85.5534172 102.2018337  11.3188391 110.5419731  92.9491425
  11.7162924 109.9860191  92.2789288  11.7975360 111.3687134  92.8892994
 101.3654900  89.7446060  87.3759651 101.6125584  89.4549751  86.4977264
 100.9196377  88.9898872  87.7604771  94.6749592  87.9768658  11.8300287
  93.9524460  87.4365807  11.5101854  95.3372383  87.3470688  12.1145955
  77.1461439  80.0758553   3.2559339  78.0126190  80.3817749   2.9878656
  77.0177841  79.2624283   2.7679960  97.0537376   3.7928181  94.1658592
  97.5999165   3.6469918  93.3934307  96.4476681   3.0519753  94.1739845
 105.3832054  83.6641788 102.8949070 104.7538280  84.0723038 103.4895039
 106.2039185  83.6506844 103.3873272 109.4840431 110.4320812  78.2377625
 110.1653481 109.9334431  78.6887884 109.7610664 110.4416370  77.3215723
  67.4766779 113.1291389 106.7537689  66.7975760 113.3283043 106.1092758
  68.1695127 112.7042198 106.2481499 109.4703293  89.1924953  91.8701649
 109.6189404  88.4348202  91.3044167 109.5151329  88.8401604  92.7590370
 116.7423630  96.0800743  19.5485250 117.3134613  96.7370129  19.1503755
 115.8673573  96.4657497  19.5056001  81.7367554  96.3976479  87.2293472
  82.2270775  96.5718460  88.0327606  82.0589638  95.5468273  86.9318199
 111.0332870  60.5609179 103.5985184 110.8573151  60.0561762 104.3925571
 111.9863415  60.6469822 103.5757160  65.2021456 139.5633411  12.6929609
  64.8413897 139.2849731  13.5347406  65.6305408 140.3985500  12.8803960
 110.6644630 109.8087978  16.8162767 110.8102894 110.1683521  17.6913110
 109.8142815 109.3729496  16.8750421  80.0035381  70.2378845 107.9745865
  79.9242258  71.1620903 107.7383804  79.7426414  70.2026320 108.8948727
  61.1940145  79.8478127  89.4400024  61.9050503  79.2081928  89.4006729
  61.4367390  80.4318905  90.1584530 109.8905945 120.9918022  97.8507614
 109.7169876 120.4986572  97.0489502 109.1510487 120.7868481  98.4228611
 122.0748329  92.8060627  19.3242589 122.4923515  91.9762611  19.5552102
 121.9480133  93.2516575  20.1618711  69.4141912 112.4263668  76.8042278
  68.9264297 112.7564144  77.5588036  70.3303385 112.6094532  77.0125198
  80.5240440  82.1543217 100.8005238  81.0073471  81.4676952 101.2600899
  79.8283386  82.4052429 101.4081955 108.3423424 112.4192142  14.3106977
 107.9617786 113.1107998  13.7692968 107.9815578 111.6084003  13.9520208
  92.3867035  90.4873562  96.4152336  91.9177723  89.7843933  96.8648815
  93.1588554  90.6457806  96.9582939 119.9287987 101.8441486  15.2785817
 120.3599834 102.4210167  15.9090844 119.1989136 102.3625374  14.9398176
  25.7457858 139.7501850  27.7763501  25.7664614 139.0046215  27.1764127
  25.2991992 139.4184971  28.5553113  80.8386326 112.9298878  78.8065910
  80.4823112 112.7618694  77.9342175  80.8507347 112.0713997  79.2297840
  89.5179844 132.3789978 105.6520844  90.0050735 131.5568829 105.5964947
  90.1488400 133.0493736 105.3896809  21.0027056  72.4851799 103.0958652
  21.8000918  71.9855165 103.2711983  21.2493640  73.3953238 103.2602596
  89.1819477  86.5279102  20.6022397  88.7463570  85.7318974  20.9069673
  88.9208889  87.1998501  21.2319890  98.4087181 103.9911747 104.4884968
  97.5373459 103.8502026 104.8587227  99.0093613 103.7879944 105.2055550
 120.7872486 122.0609665   0.2146856 121.2053108 121.2130737   0.0645486
 121.5025425 122.6358414   0.4869024 101.2531757 116.7931080  86.0516071
 102.0851707 116.7184639  86.5189934 100.6148148 116.3771439  86.6310024
  91.2495708 109.9192619  91.1451530  91.1007023 110.8007336  91.4873028
  92.1952915 109.8734188  91.0046768 112.7825451 108.7795258  90.5554867
 113.0490971 109.1482353  89.7133255 113.0433178 109.4386005  91.1987972
 114.5945168  85.4145241  45.2302742 114.6532822  86.2881660  44.8435736
 115.0712109  85.4860783  46.0572386 101.0264015  82.7112293  88.1585217
 101.0391617  83.2358265  87.3579884 100.1486588  82.3300457  88.1811142
 122.5078869  95.5594826  94.7103691 121.8670464  95.0330830  95.1883411
 123.3512688  95.1577854  94.9190903  86.9684792 108.4926224  77.0107031
  86.1509705 108.0870724  76.7218304  86.7114925 109.3665600  77.3047018
   7.6646834 115.5384064   6.2929860   8.3791094 115.9229088   6.8009225
   6.8720942 115.9299278   6.6600553  89.3056202 115.1798916  84.8425674
  88.9349365 115.9095097  84.3461037  90.0532150 114.8898315  84.3198872
 110.9204769  83.0516243   6.3417188 110.1044941  82.6235867   6.0825101
 111.1783123  82.6067734   7.1490995 106.2935734 133.0562687 104.4379330
 106.4453411 133.8453960 104.9580002 106.9594479 132.4385643 104.7400665
  54.3996859 102.7991962  67.9266882  55.0259304 103.4820747  67.6864052
  53.5428047 103.1859303  67.7466297 106.3813782 111.7066097   3.2760183
 106.3321400 110.7954884   3.5652391 105.6953049 111.7848969   2.6131383
 102.7848339  -0.3068561  90.1626682 103.0294418   0.6170731  90.2151012
 101.9288921  -0.3040714  89.7342014 116.9481754  84.5214748  95.5686760
 117.1942806  83.8383770  94.9449539 117.4899292  85.2727604  95.3272247
  97.5973988 106.9838238  81.3008308  97.6524448 107.2712231  82.2122097
  96.8502331 107.4634647  80.9431553 107.5415134  90.8125782  72.1096039
 107.8310871  90.6686497  73.0105257 108.2064247  91.3893890  71.7335606
 106.5303898  78.7984133  68.1000376 106.0527229  78.8286781  67.2710943
 107.4435043  78.6653328  67.8455830   5.7177382  88.4961033  79.6096468
   5.0156527  88.3912945  78.9675236   6.3776808  87.8532028  79.3500519
  95.8295155  98.3166695  82.9493046  94.9996185  97.8770638  83.1343746
  95.6934547  99.2180061  83.2413864 116.1802959  95.4727840   1.8966428
 115.2857113  95.1954174   1.6991082 116.4691448  95.9301472   1.1069433
  97.2100925  60.3735304  29.5594064  96.8850708  59.8007345  30.2540246
  97.6124859  59.7783804  28.9268628   9.3879729 112.4456596  36.3868276
   9.4788390 112.5608921  37.3327104   8.5125475 112.7778530  36.1880723
  94.1767597 101.5801811  10.2546636  93.3700275 102.0882416  10.3400365
  93.8805866 100.6754780  10.1545278  85.0066090  97.3926926  82.4671364
  84.0863132  97.4479294  82.2097588  85.1225662  98.1048393  83.0961323
  87.9484463  63.1722689  59.6874046  88.5526657  62.6775885  59.1338348
  87.8407288  62.6298523  60.4686928  99.5851040 103.9143085  93.4378242
  99.5305729 104.8495579  93.6341858  99.0450287 103.4968090  94.1088295
  76.4610100 116.0964680   4.9324647  76.4675951 117.0483398   4.8318235
  75.9245825 115.9415340   5.7099382  91.0925484  96.0447025  52.0850945
  91.1556816  95.9188557  51.1383057  90.1853848  95.8238697  52.2961044
  86.8676949 102.7846622  66.1109400  86.8077183 102.2243595  66.8846893
  87.7876663 103.0466366  66.0756588 123.2965183 126.5474033  99.6343327
 123.7794209 126.0670853  98.9617729 122.4200344 126.6590500  99.2661572
  98.2244301  93.9040661   6.4253084  98.2440948  94.7749138   6.0284940
  97.9438877  93.3244324   5.7171003  77.8477669  95.9231853   3.6001340
  78.6815453  95.4552269   3.5547868  77.3761940  95.5031872   4.3194715
  82.1765041 130.1517487 107.3421288  81.4877319 130.6037903 107.8294563
  82.9923916 130.4965687 107.7049828  95.9947395 123.8801003  94.3264294
  96.1020374 124.1034985  95.2509880  95.2152538 123.3250332  94.3030453
 110.4400635  99.0484047  93.0435276 110.5671310  99.3533993  93.9418983
 111.2412167  99.3061543  92.5875092 103.6295700 119.7780323   7.0265905
 102.9287434 120.4174423   6.8991796 103.8422394 119.4765949   6.1433355
  73.7620497  99.0565395  69.8004627  74.4059038  99.3731594  70.4340506
  72.9159451  99.2165375  70.2184772 100.7763767 105.3868866   5.4449693
 101.6937160 105.5470181   5.6664983 100.6648636 104.4425297   5.5544893
  85.8330250 119.7370815  97.6071930  86.1120129 118.8263512  97.5125122
  86.6313934 120.2086735  97.8447914  92.7165508  77.7122116  31.4707414
  92.6669407  77.5890207  30.5228082  92.4711323  78.6274004  31.6065065
  78.4850693 141.4194393 108.6630154  77.9708385 140.6299019 108.8316441
  78.5437298 141.4678192 107.7088451  92.4120426  71.8958569  77.0758295
  92.8759384  71.4708424  76.3544416  92.4426079  72.8287458  76.8636656
  99.2159748 101.0001755  93.8305187 100.0703907 100.5968380  93.6771679
  98.7481117 100.8923244  93.0024433 109.8253250 119.7478199 107.9504585
 110.6704807 119.6378136 107.5147629 109.2490578 120.0971222 107.2706509
 113.6950779  63.3913708  97.4102592 113.7691498  64.3220663  97.6213455
 113.4312439  63.3746862  96.4902878 108.6240959 106.6304493  28.4637777
 109.4842339 106.8686867  28.8096753 108.7614155 105.7809067  28.0446569
  77.8004217  72.9690027  96.9789219  78.1445026  73.8562775  97.0817757
  76.8499422  73.0810833  96.9627285  93.1772614 118.5759544   9.9450532
  93.7526894 119.0704250  10.5286733  93.5997200 117.7212620   9.8598424
 100.4786968 107.0585823  38.8942853 100.0202560 107.7728271  39.3369047
 100.3449631 107.2294903  37.9620115   8.7546092 107.3427582  95.2035713
   8.2887488 107.5763035  94.4006634   8.6583453 106.3926315  95.2685928
 104.5780945  61.8205881  14.3243066 104.5769978  61.5893269  13.3954660
 105.4832745  61.6841459  14.6040384 112.8338623  66.9701242  98.3853626
 112.9970646  67.0538521  99.3248272 111.8891335  66.8317413  98.3177662
   5.3204470  80.5089378  80.4506016   4.4253760  80.6015205  80.1242542
   5.4153948  79.5729637  80.6271553 102.6654434  83.3240604  64.6767521
 101.7626572  83.5836029  64.8607635 103.1981182  83.9210415  65.2022076
  72.3087645 116.0632896  12.8226129  72.7207708 115.2195454  12.6366655
  71.3906145 115.9397316  12.5818483  75.4143381 118.5599709  65.1733112
  75.9802103 117.9097271  64.7571325  75.5097675 118.3951950  66.1113834
  83.4976768  99.2312241  91.5338898  83.5717678  99.6867847  92.3724651
  84.3912792  98.9535713  91.3323784 103.8966370 130.0559998  72.1552801
 103.2017326 129.7370815  71.5794086 104.1457748 129.2922497  72.6757193
 124.1926575 111.4940071  98.3565712 124.5429039 112.3310280  98.6614418
 124.9305439 111.0714340  97.9170418 112.0348167 125.5222511  98.9935017
 111.9884300 125.7679749  98.0695438 112.2171783 126.3431358  99.4507885
  88.8253975   1.5277844  96.1992645  89.7597313   1.5352516  96.4070892
  88.4667110   2.2725182  96.6819096 117.9113007  61.9781542  74.0265179
 118.6868954  62.3815823  74.4163132 117.7854824  61.1705017  74.5246124
  89.2860985 115.1733971 108.9161205  88.5769653 115.7249451 109.2465115
  89.2734814 114.4020557 109.4827843  98.1931019  62.3107433  95.5820560
  98.5057354  62.6305819  96.4283371  97.2447205  62.2376728  95.6891251
 115.9281826   4.1481667   7.0416776 115.0484657   3.7850743   6.9392434
 115.7992554   5.0965004   7.0255510 102.9991245 104.0777874 103.1821251
 103.1930828 105.0055408 103.0483818 103.6792946 103.7752151 103.7838268
  81.7280006  83.7463665  95.2341652  81.0021019  83.1970406  95.5300617
  81.8340588  84.3972683  95.9279346  88.1092548  54.7834349 106.6201401
  88.0893612  55.7400608 106.6465473  87.7374840  54.5128727 107.4596691
 110.7117748 121.3792038  28.9374486 111.2386799 121.6259384  28.1773607
 109.8950481 121.0468292  28.5650102 112.2681904 111.0113144  80.7540226
 112.6425362 111.8856621  80.6462479 112.7947140 110.6088066  81.4446640
  15.5862361  89.4735336 108.6719704  15.4538088  90.1195049 107.9781246
  15.7688552  88.6568928 108.2072449 109.0814590 107.1472549  13.1137506
 109.0320683 108.0623722  12.8374235 109.1930103 107.1895313  14.0634862
 124.6030712  93.2180214  83.4585857 123.7696552  93.0198765  83.8856506
 124.3578625  93.5254765  82.5858974 108.1118870  96.9597912  62.6871538
 107.3808956  96.4235210  62.9942274 108.4846497  96.4623737  61.9592428
  91.2403011  85.7622910 102.3709202  91.1510754  84.8171043 102.2488880
  90.9429646  85.9171581 103.2674885 120.9486294  89.3167782  69.6626854
 121.7121887  89.8748493  69.5151806 121.2238598  88.4502602  69.3633032
 103.7731457  90.2159500  82.8461838 103.4416008  90.9517574  82.3315144
 103.9709187  89.5400333  82.1979046 101.0012245  81.9633293  82.2332287
 100.6222153  82.7002811  81.7541790 101.4359093  81.4387321  81.5608692
  95.0218678 116.0527325  36.6428224  94.5378971 116.3416576  37.4164716
  94.6771622 115.1792908  36.4570371 106.5459156  77.9831219   2.6413671
 105.7314014  77.7278471   2.2081987 106.8626308  78.7307739   2.1344796
 108.1010532  97.1732616   9.1073934 107.6260948  96.5782833   8.5271779
 107.7209949  98.0339050   8.9310972  96.5970612  79.3815470  10.5407182
  96.0225964  78.9764166  11.1903993  96.4404011  78.8832664   9.7385923
  95.2794933 106.2637329  10.5301992  96.1328983 106.5444374  10.1998273
  95.3629112 105.3158760  10.6342737  59.3282270  74.8875284 104.4895458
  60.2475166  75.0878477 104.6656609  59.0539265  74.3491602 105.2319336
  98.7555981 137.7014923  95.3317165  99.4540501 138.1208801  95.8342171
  99.1361046 137.5597477  94.4649029 124.4157410  53.0288267 106.9901276
 125.0541210  52.3164463 106.9552517 123.8318443  52.7921247 107.7107239
 120.0580883  84.2933750  98.1186390 120.2811813  84.0513420  99.0174675
 119.1325092  84.5341492  98.1581402  96.8009567  93.0268574 106.4651966
  97.1131039  93.9278603 106.5487289  95.8557701  93.0869961 106.6038799
 110.5873680  61.4877939   0.6240312 111.1084080  62.1613741   1.0611097
 111.0766411  60.6773090   0.7652608 118.3780861 135.3232479  99.3795776
 117.4516010 135.1817608  99.1850376 118.4591675 135.1288319 100.3133106
  30.6005316  69.6644640  95.0832367  31.5164214  69.4363213  95.2423859
  30.6352931  70.5397129  94.6972847 100.0952339  95.1511192 102.9835224
 100.0223827  94.9589062 103.9183903  99.2369461  95.5001068 102.7431583
  73.7450981 120.9043407  96.3464260  73.3087206 120.4926395  95.6005669
  74.2003727 120.1852036  96.7843914  97.0043945  82.9670143  14.3015138
  97.5738335  82.7917862  15.0506822  97.5986195  83.2686520  13.6143819
  84.0094948 106.6294765  20.8405820  84.7877598 107.1325302  20.6008378
  83.9963055 106.6501808  21.7974702  61.2439489 136.2140179  73.3709145
  62.1387434 136.2044525  73.7107372  61.3045502 136.7033577  72.5504780
  78.6952400  82.7160358 102.8333378  77.9115725  83.1689644 103.1447124
  78.8021088  81.9802952 103.4362411   8.8099604  93.1170845  98.6793900
   9.5683508  93.3724308  99.2046261   8.1269579  93.7407684  98.9258862
   0.6351500 109.5291901 103.7576771  -0.2679319 109.4316101 103.4557724
   0.9957152 110.2285004 103.2125187  98.5698318  93.2703686  75.9222078
  97.9066277  93.6595154  76.4922571  98.0777931  92.6828671  75.3486538
 101.4760590  95.5443382 100.8631420 101.1313438  95.5186081 101.7557430
 100.8016872  95.9996033 100.3589725 121.8193054 101.6467094  79.5929146
 122.4717140 101.7102432  78.8953781 122.1767330 102.1781445  80.3042889
 114.0954494 116.0739803   4.4847719 113.9312553 116.8125916   5.0710527
 114.2556572 116.4766598   3.6313001   3.8222342  73.8066387  81.5902901
   3.8319808  74.0977716  82.5020885   3.5743552  72.8832388  81.6363430
 104.0590858 102.8102112   8.3205072 103.2397747 103.1106377   8.7138311
 104.1939545 101.9360065   8.6863080  84.1670704  76.5154409  94.8315048
  83.5127449  76.6415119  94.1443443  84.1291618  77.3199034  95.3488350
 111.5808964  84.9727249   1.2135259 112.1647549  84.2710590   0.9254304
 110.7371330  84.5416164   1.3493196 108.1535244 126.4519119 107.1033478
 107.3548698 126.5618420 106.5873051 107.9544544 126.8647957 107.9436588
 118.9506721 108.9463139  50.5347061 119.4023514 108.3563042  51.1381149
 119.6520138 109.4527245  50.1249409 112.0706844 113.0416679  91.8057823
 111.3359833 112.7633953  92.3525906 112.1171093 113.9894772  91.9312286
 101.0303593  76.6269302  84.1043758 100.4123783  77.0688200  84.6866798
 101.8126583  77.1782017  84.1225529 123.3528614  96.9772530  61.6587734
 122.7984715  97.7562332  61.6133165 122.9692841  96.4508915  62.3602343
 100.1428127  97.9317665  82.6269341  99.6012783  97.2197056  82.2864342
 100.3533649  97.6656246  83.5219574 112.8323650  86.3809395  58.9814091
 112.1046734  85.8274555  58.6979389 112.7925205  86.3578796  59.9375010
  93.1478977 100.1481247  56.9760561  92.6210499 100.6090355  56.3231993
  92.5059795  99.7385311  57.5560665  63.8642168 102.7073956  94.7393608
  64.7273254 102.9123783  95.0988770  63.4296370 102.2072411  95.4301643
 106.5672779  83.4962654  98.0863476 106.3469982  82.7585316  98.6550808
 106.7166519  84.2259407  98.6876011  85.6712151 129.1012096 107.6376152
  85.4759026 128.1789875 107.8037262  86.6157532 129.1744137 107.7744484
  72.4518538 100.9646702  86.0250664  72.2467947 100.1100063  86.4041996
  72.3071003 100.8509445  85.0857353 100.7752609 105.6444645  71.7107344
 101.0856819 105.9243202  70.8496046 100.9302807 104.7000217  71.7259169
  95.7960606 101.9131947  71.8557549  95.5301380 101.1845112  72.4165869
  95.5305386 102.6960850  72.3382616  78.2474947  59.5407391  68.8422394
  78.6921692  59.1629601  68.0834341  78.6095524  59.0681934  69.5918036
  95.4719448  77.4840593  81.5281010  96.0147762  78.1157589  81.0563755
  96.0945988  76.9698906  82.0420742  85.4275513  95.6041527  87.0515633
  86.0215282  95.0994492  87.6071835  84.7576809  95.9311199  87.6520538
 108.0883980  72.1485758  51.8685770 108.9997578  72.1277857  51.5766335
 108.1093788  72.6500130  52.6836586  94.6745014 106.3367081  92.5408554
  95.3210831 106.9315815  92.9207325  93.8974094 106.4459419  93.0889702
  95.7648087 129.2937756  56.4714718  96.3520813 128.5553074  56.3102102
  96.3441467 130.0055695  56.7434216 107.9049492 121.4118290  72.7618456
 108.6764526 121.9203663  72.5120354 107.2588062 122.0686817  73.0212212
 123.2891083  92.7494431  98.3548737 123.5995293  93.0374432  97.4964333
 122.6288795  93.3974838  98.6005974  99.5697594  77.2720814 101.9107437
  99.0562916  77.2754765 101.1029243 100.4233646  76.9258595 101.6505241
  84.7372818 123.5065079  63.3075857  84.2533302 122.9062653  63.8747931
  85.2633858 124.0330124  63.9094543  74.1851902 119.2999458 103.3934593
  73.6692524 120.0085163 103.7781048  73.6683989 119.0076828 102.6426315
 121.8389320  92.8870296  63.5523748 121.4652824  92.8691673  62.6712990
 121.8119240  91.9752598  63.8425207   8.9118701 107.7688599  91.4942360
   8.7111788 106.9675064  91.0107231   8.2451182 107.8082371  92.1798897
 105.7889462 103.9948273  80.5338669 105.0621700 104.0468121  81.1546040
 106.4621162 103.4940624  80.9946442   4.0269499  97.2217941  56.2975502
   3.5121089  97.3663521  57.0914459   3.5290270  96.5696144  55.8046293
  99.0953827 138.7893581  89.4081497  98.5454369 138.8442326  90.1896667
  99.4929886 139.6568871  89.3336773 101.3672447  10.3159123  59.7439337
 101.2990379  11.1828690  60.1438904 101.1657715   9.7075920  60.4549837
  92.4727345  88.4709644  71.1050034  92.9096889  88.0931187  70.3417587
  93.1593227  88.9636421  71.5545511  82.3860836  97.0475101  67.4570274
  82.2248363  96.6709518  66.5919065  83.2556152  96.7285919  67.6987791
  21.3488131 128.4596348  79.4685125  21.7473250 127.8557301  80.0951958
  21.4365130 129.3208981  79.8768711   6.5908843 125.9556007  87.4484825
   6.2264186 125.1034546  87.6877403   7.1475630 126.1946106  88.1895638
 117.0017624 125.5904961   3.2604829 117.9374599 125.7319164   3.1166211
 116.8154526 126.0403538   4.0845910 111.4941120  99.4356918   8.7947599
 111.4111710 100.0788021   8.0906621 112.4328709  99.4015598   8.9786187
  96.2252235 121.3870716  76.3385820  96.0001278 120.7998657  75.6169558
  96.2681007 120.8172989  77.1065426   4.2999487 102.5358868  36.3479972
   4.3003779 102.2041702  37.2458816   3.4461623 102.2804070  35.9986854
  97.7227306  83.3410072  69.6329451  96.8219566  83.3218670  69.3097448
  97.6348305  83.3664799  70.5857611 114.9735451  94.5075417  95.2517700
 115.1876259  95.3809261  95.5797863 114.4451427  94.6681786  94.4699669
  81.8771362 132.4191284  89.6641827  82.7287865 132.8478336  89.5797348
  81.6678715 132.4836254  90.5959988  93.5544205  87.7670860  99.0268517
  92.7825642  88.2234669  98.6918926  94.1645432  87.7553558  98.2893944
  62.6282644 108.2398605  97.4893093  62.4409389 107.5788784  98.1558228
  63.5592651 108.1286430  97.2966957 100.6313705 129.0387821  90.7005787
  99.7662449 128.8279343  90.3493690 100.6459522 129.9949074  90.7434273
  81.0274792  92.6848602 109.5943451  80.3906250  91.9874573 109.4385147
  81.4490795  92.8182793 108.7454128  81.5997410  83.5745716  82.5003242
  82.2512054  82.9106617  82.2743988  81.7079449  83.7055016  83.4423351
  90.8442497 107.8779316  88.9705563  91.7186451 107.5608540  88.7444401
  90.9992027 108.7115669  89.4147015 114.5876408 145.0272465  89.1700172
 114.1984558 145.2490997  90.0159168 113.9421940 145.3180408  88.5257626
  51.2392759  61.1150837  96.0069752  50.5783701  61.6275644  95.5413628
  52.0400000  61.2368727  95.4968452  74.8140669 116.5107441  90.2027225
  73.8771725 116.6959476  90.1382160  74.9149132 116.0783768  91.0507393
   4.6515017 105.2730370  94.0279293   4.5760661 105.5679893  94.9354172
   4.2430430 104.4073772  94.0227032  78.1044483  90.6807232  74.2766762
  78.6521387  91.1187649  73.6252213  77.7277613  89.9345779  73.8102007
  75.0514174 104.7667313  81.3767433  75.0897312 105.5587292  80.8405399
  74.1647005 104.7642326  81.7372417  93.8304615 110.1489735  84.0283775
  93.0406094 110.6808090  83.9308167  94.3857861 110.4077148  83.2929230
  79.3755865 110.5236340  33.0680776  78.4261847 110.5470657  32.9484296
  79.5716000 111.3068676  33.5822344 103.3113194  91.0575962  99.9072552
 104.0144157  91.1869144  99.2707348 102.6863861  91.7578888  99.7194099
 102.9325390  91.9032860  32.1680140 103.2479095  92.0454407  33.0605173
 103.2471275  91.0286713  31.9392800  95.2069092  86.6897011  82.0481491
  94.3830681  86.4145470  81.6458893  95.1541138  87.6451302  82.0726776
  83.3772755 138.2712746  94.1828156  83.4569359 139.0288353  93.6031818
  83.8545799 137.5741768  93.7328529  99.7897148 118.9603424  50.0066805
 100.2131653 118.1898785  49.6281242  99.7782612 119.6010017  49.2955780
 122.8792191  95.4409599  89.2392540 122.4897003  94.7622299  89.7904587
 122.6974201  95.1558495  88.3437634 107.3391247  78.5278797  93.7697220
 107.5839901  78.8234663  94.6465874 108.1652641  78.2582045  93.3684731
   5.9220152 117.6289368 103.0420303   6.3651305 118.0201912 102.2891712
   6.2744361 116.7403984 103.0922222  90.6894684 112.3938274  92.0954227
  90.6489468 112.8625584  92.9290199  90.5291748 113.0669975  91.4340878
  64.1883421  96.5823936  78.3901596  64.2826700  96.0594749  77.5939894
  63.3798647  96.2638378  78.7915516  97.3359108  90.0415802  85.2410698
  97.2387505  90.8750820  84.7805595  97.4151421  90.2853012  86.1633205
 106.9863605  55.0485611  87.6539993 106.8633747  54.1074276  87.5300026
 106.9998932  55.4072905  86.7666626  85.4763126 113.3971500  58.2700253
  84.8156643 113.9631653  58.6692667  86.0596752 113.1636810  58.9921141
  74.0483189 106.1553192  88.7840843  73.5138464 106.9493866  88.7801075
  73.4498453 105.4652119  89.0701103  92.8989220  62.1862984  96.6557980
  92.6617527  61.7881727  95.8182526  93.1515598  61.4473248  97.2092533
  29.9982672  88.2935905  43.5075521  30.2111750  89.2105675  43.6809158
  29.4044047  88.0473709  44.2167377  79.5020533 118.8756466  63.5289621
  78.6289883 118.7489223  63.1575727  79.6703577 118.0739689  64.0241623
  20.4333048 126.1919689  92.8689957  19.5527106 125.9932327  93.1872654
  20.6474333 125.4634571  92.2862053  89.8085690  92.8925419  93.6001778
  90.6151772  92.8035355  94.1078091  89.6469307  93.8355446  93.5707378
  95.7497215  93.1716061  92.6247501  95.0612545  92.9380035  92.0021152
  96.5614319  92.8960514  92.1988106 109.2089081  91.8209267  54.2126131
 109.3991852  90.8930302  54.0746450 108.4453773  91.9933414  53.6616945
 105.2958393 103.8397312  59.4672155 105.6230450 104.4095802  58.7712002
 104.5122147 103.4341526  59.0961552  69.4149446 107.1866798  60.5301332
  68.5530710 106.8023396  60.6904173  69.5407867 107.8021812  61.2523174
  95.5778694  66.1235142  88.0269241  95.4114246  66.6698217  87.2587585
  95.2519703  65.2579212  87.7803898  33.4530001 113.9814091  53.4201527
  33.0768996 114.2108536  54.2699385  34.3320399 113.6629868  53.6253881
  95.0717354  79.2289352  86.7691898  94.8273659  78.3227205  86.5813065
  95.4384232  79.5535517  85.9467506  97.1382999 101.0798931  67.1960163
  96.3616848 101.0708618  67.7554941  97.5690842 101.9105530  67.3976278
 115.7693768 126.5830803  54.0018082 115.4558945 127.4866867  54.0398741
 115.0611973 126.1017132  53.5740185  94.0778255 129.6444511  98.0248642
  93.9341164 130.5895901  97.9771328  94.2755985 129.4785023  98.9465904
 112.9248810  80.7296181  80.2751541 113.7663746  80.2735329  80.2858067
 112.4699783  80.3751373  79.5111895 101.2969208  97.5343895  54.5538616
 101.3716221  96.7370319  55.0781298 100.3627300  97.6054096  54.3576956
   3.4392958 105.2418900 108.6563683   2.6705962 105.6327343 109.0717793
   3.6569434 104.4931984 109.2116451 121.7955780 103.9660645  77.2020245
 122.5550747 104.1763306  76.6587210 122.0740414 104.1742516  78.0938482
  88.1949997 102.9037285  59.0472460  89.1379452 103.0523300  58.9765501
  87.8293228 103.3066559  58.2597446  97.5552559  90.1120377  64.0558147
  96.6268444  89.9450397  64.2183256  97.7367210  90.9286880  64.5209837
 118.3589458  99.5899487  52.5591946 118.1074619  99.5341682  53.4810829
 117.9406738  98.8321209  52.1505547  97.1465206 132.1627903  83.5860348
  97.7673149 131.4449215  83.4615040  97.2110271 132.3764706  84.5168495
  56.4113474 137.4946022  91.2476826  55.6529045 136.9111156  91.2244701
  56.0668755 138.3460045  90.9780788   7.2760325  66.5373325  67.5545359
   7.0328456  66.7175913  66.6464615   7.1429282  65.5948305  67.6555586
  91.6584873 129.4496918  93.9640999  91.3786983 129.1940689  94.8430824
  92.3727512 128.8475609  93.7555218  15.7472067 131.1334038  87.3959732
  16.1877947 131.8161774  86.8900776  16.0885459 131.2356281  88.2843876
 103.6565590  97.6017380  67.4550676 103.9316940  98.4808636  67.1949339
 102.8584194  97.4417305  66.9514751  71.3901567 107.4148369  83.9724445
  72.2045326 107.8390121  83.7020969  70.7088709 108.0585289  83.7781906
  33.6304593 121.7724991  71.5926695  33.2153201 122.5361729  71.9935465
  33.7565494 121.1602974  72.3176050  76.8952990 106.0480309  83.1676006
  77.0741844 105.5024242  83.9334583  76.3944387 105.4809666  82.5812531
 111.6725636 127.4609566  86.5874386 111.8039989 128.3058453  86.1571789
 112.1786594 126.8425369  86.0605049 107.5418663  68.7533855  69.8683739
 106.6941166  69.1589546  69.6865368 107.9374218  68.6281872  69.0057659
  60.8611107  93.3013248  83.6976910  60.1986551  93.4483147  83.0225754
  61.5317774  92.7735138  83.2642651  63.0167198  97.5526237   0.9686414
  63.0990267  96.6842270   1.3627950  63.6133099  98.1033039   1.4756624
   4.1524630 136.8059158  85.9662628   4.5258456 137.0476627  86.8138313
   3.9249640 135.8808708  86.0598373  82.4283886 122.2123909  94.6669865
  83.0643940 121.9229984  95.3211880  81.5874290 122.1884823  95.1235390
   0.7196169  86.9049644  73.6675835   0.8418303  87.7971840  73.3431625
   0.0367766  86.9837570  74.3337345  24.9878626 110.2206707  85.5487347
  25.8484393 109.9785614  85.8908272  24.4180708 110.2289677  86.3178253
  96.9498158 126.1592293  90.8274174  96.1982536 126.4462471  90.3087616
  96.7739487 125.2369976  91.0139275  20.1839762  90.3364754  71.1595535
  19.6563464  90.5579948  70.3922415  20.5835372  89.4946766  70.9405613
   0.7769995 104.9657154  82.3485851   1.1283045 105.8301067  82.1349430
   0.5006247 105.0386047  83.2621193  12.4287921  91.9006538  66.1455011
  13.0767279  91.5713692  65.5226135  11.6504222  91.3668442  65.9860802
 110.2021313  75.1344967  84.1217518 110.0921154  75.2267790  85.0681210
 109.9194622  74.2394876  83.9339066  96.8642712  77.0400524  78.5331869
  97.6612282  77.5622940  78.4417820  96.1609840  77.6249266  78.2511568
  93.5410404  98.1821632  79.6963358  93.7452888  97.2681999  79.4983768
  93.9202118  98.6753082  78.9688301  76.5618420 125.4567432  64.8087978
  77.2899580 125.0973701  64.3019104  76.2369585 124.7154999  65.3199244
 107.7430630 103.5970211  84.2848492 108.3813286 102.9588795  84.6036243
 108.1404972 103.9579296  83.4923649 104.1044998  64.1444397  93.7209225
 103.9957333  64.9430799  93.2046223 103.9048004  64.4104290  94.6184826
 107.9275513 116.9936275   2.0028249 107.8818417 117.1744728   1.0639802
 108.6465454 116.3679886   2.0914975  97.5922585  94.0423584  52.0237303
  98.0071735  93.1824398  52.0916796  96.6555214  93.8527870  51.9705439
 104.8939037  91.3901043  75.2163363 104.9873734  90.8416939  74.4373989
 104.0876675  91.8837833  75.0663376 104.7925282 132.0883942  89.9901009
 104.3923759 131.7372704  90.7856083 105.5826092 131.5622139  89.8670864
 102.0416641 126.8810940  85.9268475 101.2028503 127.2333622  86.2244034
 102.6956654 127.4712276  86.3013458  85.7662678 137.4063587  25.7913947
  85.6110191 137.7801514  24.9239779  86.4312458 137.9738712  26.1812353
 103.3318138  97.8156567  94.5069695 103.4875107  98.7401772  94.3139648
 103.5994816  97.7132607  95.4202652  98.8365841 103.0686569  55.0915956
  99.2306042 103.8155937  55.5422354  98.6770248 102.4278450  55.7845068
 123.4145451 111.1546898  55.9426975 122.6078129 110.9645176  55.4638958
 123.1377316 111.7211151  56.6629553  68.2515717  96.9187927  66.3715267
  68.3912563  97.8494072  66.1963940  67.4029016  96.7249203  65.9735298
  70.0434780 104.0128994  69.0383387  69.1967773 103.6273575  68.8131952
  69.9421549 104.3001461  69.9457836 110.0209522  79.3561220  81.4337540
 110.6001091  79.9698162  81.8856239 109.6639347  79.8586607  80.7014751
  84.8665047  51.2648821  64.4904995  84.6010590  52.1632481  64.6872377
  84.0512085  50.8191204  64.2606592  17.0688849  89.4609547  92.5663757
  17.9073840  89.6818924  92.9717731  17.2027426  89.6273613  91.6333103
 110.0695610 128.2700634  78.7290239 110.3866577 128.9491177  79.3244791
 109.7713947 128.7494946  77.9560566 102.9939365  70.7125378  61.4327669
 102.4221992  71.1655045  62.0525789 103.4050465  70.0191021  61.9488764
 107.9378796  79.0092468  89.9718571 108.2450294  78.7713718  90.8466721
 107.8833294  78.1767559  89.5025730  89.9533749  79.3162584  80.8664036
  89.7737503  80.1556015  81.2900352  89.1263390  79.0773869  80.4478359
  15.5546313 119.7288322  18.3521406  16.0496264 120.4319191  18.7727109
  14.8422556 120.1770210  17.8961984  74.2728519  92.5367928  68.4250498
  73.4806299  92.8741646  68.0069590  74.2255306  91.5891933  68.2984161
  88.5157013 100.4833889  39.3037343  88.5767174 101.3314152  38.8639975
  89.0681076  99.9022102  38.7809467  90.9607029 132.0734787  86.0388565
  90.2503967 131.4420128  85.9250355  91.5420246 131.9167519  85.2947235
  19.8131114 110.7690334 102.2025681  20.1774912 110.4229450 101.3879013
  20.2250224 110.2460861 102.8903770 123.7072182  76.7615461  94.8082733
 123.4603882  77.5850821  95.2290916 124.1999245  76.2882519  95.4786873
 106.5490055  77.8847122  99.5034313 107.1605778  77.3005724  99.0551090
 105.9793377  78.2142305  98.8083458  66.2732458 113.4154320  48.5591745
  66.7933321 113.1074238  47.8169680  66.0560989 112.6203156  49.0458727
 113.5643196 125.4648590  94.4416618 113.8362503 125.1748085  93.5709381
 114.2035389 126.1359215  94.6810532  70.7284212  89.5327854  69.2761326
  70.2834892  88.7988281  69.6998835  71.3493252  89.8479557  69.9329281
 106.2308502 101.8056488  94.4074821 105.6282997 101.8370152  95.1505661
 106.7391777 102.6137352  94.4770432 120.1104641  79.3218422  64.0090942
 120.4558563  80.1388645  63.6493587 119.2525768  79.5589638  64.3612671
  17.3817282  96.3383484  65.6651831  17.2894984  95.6245041  66.2961769
  16.5349513  96.3758087  65.2204561  90.6853867 125.2025318  58.9493084
  90.9842491 125.9130192  58.3817530  90.3830910 125.6419468  59.7441435
  60.8907652  99.7764015  66.0754538  60.3225994  99.1901970  65.5756712
  61.6994858  99.2792130  66.1979580  88.4392357  86.2107277  80.1015472
  88.6898232  85.6320572  79.3814182  88.9076138  85.8644772  80.8611298
 122.1339798 104.0665340  94.7230148 122.9905701 103.7735653  95.0339127
 122.3138618 104.4779205  93.8776493 101.5987968  58.8043451  83.2617950
 101.7913628  59.7358990  83.3683586 100.6535625  58.7381220  83.3973694
 113.4603405 104.8044395  92.2308445 113.9405537 105.6294537  92.1603394
 113.2654095 104.5626450  91.3254356  72.3475647 105.7127190  60.4994345
  71.8560410 105.1459980  61.0939646  71.7117834 105.9670162  59.8305941
  68.0240393  92.5315666 100.3853989  67.9149961  93.3431530 100.8810520
  68.8919353  92.2136879 100.6342793 121.1419010  87.5088596  72.2381973
 120.3101349  87.4271297  71.7715979 121.8086338  87.3799801  71.5635967
  66.1193752 105.2021217   2.5905744  66.1928368 105.6250000   3.4461538
  66.1763477 104.2656994   2.7805654  71.5443754  93.3611774  91.1196041
  70.6284666  93.3663940  90.8415318  71.7918348  92.4365520  91.1116791
  87.8374100 121.1535835  59.7566748  87.5289726 122.0450497  59.5942354
  87.7905369 121.0534382  60.7074642  12.5288611  96.4038467  79.6110916
  11.8565970  95.7724380  79.3549442  12.2099524  97.2421360  79.2767239
 114.2998505 142.1361828  78.3675241 115.2368832 141.9660187  78.2714224
 113.9625835 142.1321869  77.4717188  86.8880081  78.7998343  58.7278128
  86.8420506  77.8878117  59.0147543  86.6622639  78.7700748  57.7980900
  10.3041297 105.2358437  57.9224682   9.9221831 105.0344181  57.0682049
  10.4821234 106.1757755  57.8896284 122.0788860  99.1066074   4.7240774
 122.7529907  98.4296989   4.7841493 121.4852142  98.9186001   5.4510251
 111.7270851 118.0293941  89.7393990 111.3064480 118.8444710  90.0131893
 112.2824669 117.7859592  90.4800224 107.9578590  98.2531929  60.0811958
 107.8010082  97.9274654  60.9674931 107.3007965  97.8109264  59.5437002
 109.9866390 106.7827988  56.0990620 109.8505878 106.3501167  56.9419765
 110.8601379 106.5035725  55.8247328 103.2527924 124.5434380  73.8063097
 103.2324314 124.9151421  72.9244614 102.3869038 124.1519451  73.9212561
 116.5820408 123.1427765  73.9073467 116.2037086 122.9265881  74.7596169
 117.4072933 122.6584911  73.8818455  54.9485779  78.4795189   1.0174791
  54.7241735  79.3538141   0.6989042  54.1959810  77.9376984   0.7802907
  85.0134945  83.8885117  67.3028612  85.8192253  84.1975117  66.8886662
  85.0475693  82.9362202  67.2122335 104.3500805  80.9737778  90.5107975
 104.9116898  80.8096504  91.2683487 104.0548611  81.8774033  90.6227970
  55.5158472  71.4617634  80.7106972  56.2315035  71.0131598  81.1610508
  54.7214890  71.0704899  81.0741901  72.3531199 127.9183388  78.7434959
  73.1119347 128.5018063  78.7424898  72.7195978 127.0490837  78.9057398
  -0.0994844  99.7090149  68.6062479  -0.4286832  99.7480011  69.5042086
   0.8509474  99.6478844  68.7020254 119.3447018  74.9118376  70.6693554
 119.1453075  74.9335861  71.6053057 119.2473698  73.9914703  70.4250526
  91.4620018  94.8405457  67.6319551  90.7737064  94.1931057  67.4793339
  91.3111115  95.1440334  68.5271454  80.5499935 118.1524658  48.6571789
  80.2151775 118.4405994  49.5063639  79.9846792 117.4196625  48.4129620
   7.7903395  84.6322155  94.1764450   8.7059908  84.9035168  94.2413902
   7.3117762  85.4433250  94.0052509 115.1261044  50.7729340   8.9040319
 115.9555054  50.7798672   8.4262506 114.5234203  50.2992630   8.3307687
 113.7427711  60.0117302 102.5736618 114.5562172  59.5767355 102.3180962
 113.0537891  59.3935776 102.3299026  83.2404327  82.6897717  72.2480297
  82.7175426  83.4914494  72.2592878  83.0561447  82.2955608  71.3954639
   3.9924079  96.3255787  62.1323252   3.3828478  95.6694603  61.7944336
   3.4975272  96.7856026  62.8103352  85.8210087  96.5020657  54.4525528
  85.3908730  95.9392834  55.0963593  85.8372498  95.9796619  53.6506414
  77.0592499  96.9565582  81.8382549  76.7970133  96.1961174  81.3194275
  77.9889250  97.0716476  81.6415596  90.9606743  68.9255095  97.9789639
  90.5035877  68.3011580  97.4154949  91.8838024  68.8275099  97.7455902
  87.6621532   6.9091683 100.3267097  87.2237015   7.6846581  99.9765682
  86.9914150   6.2264901 100.3093910  90.0835419  79.4060898 106.9776249
  90.4132175  78.5077429 107.0004654  90.6826305  79.8661995 106.3897228
   6.3850241  87.3419380  73.6133099   5.5402499  87.3283768  74.0632105
   6.5963679  88.2716656  73.5285854  76.9227552 121.9198036  78.7609339
  76.2550688 121.4900684  78.2263660  76.6065454 121.8267250  79.6595860
  63.5614777  81.4551640  85.2939892  64.2915869  81.1314774  85.8216190
  62.7826071  81.0877609  85.7118416 120.4306793 124.2748356  96.0335732
 119.6574783 123.7130260  96.0861683 121.0520077 123.8853836  96.6487980
 105.6720352  83.0922318  64.9562931 105.4286289  82.2614002  64.5479870
 105.0549221  83.7274456  64.5931005 119.1487885 100.1005936  44.2404556
 118.3707142 100.4581928  44.6681976 119.6042442  99.6220016  44.9330854
 110.3061771 103.4111881 106.2224293 111.1294174 103.8371372 105.9835052
 109.8640442 103.2589912 105.3872108  89.0934181  81.8965435  89.8502445
  88.6985111  81.0705948  90.1296997  90.0200272  81.8063545  90.0727367
 110.9444332 121.6463184  66.9002008 111.2171173 120.8428383  67.3432541
 109.9899578 121.5858841  66.8605995 102.7467251  83.6887169  57.5119829
 102.8307438  82.8005219  57.8588009 101.8498135  83.7325573  57.1805239
   2.1117049  93.3729649  78.4701490   2.9631358  92.9730701  78.2930326
   2.2136431  93.7828636  79.3291187  75.5935860  69.5654726  84.3387604
  76.4131451  69.9891996  84.5937252  74.9160576  70.2078104  84.5499134
 113.4335613  84.2196560 100.4144382 113.2947445  83.2840061 100.5611324
 112.6080132  84.6280289 100.6750774 120.1616573 113.3941555  84.3910599
 120.6298256 112.9246044  85.0814056 120.2122974 112.8149605  83.6306667
  71.0209990  93.7439728 103.6826134  71.6145611  93.2884407 104.2796040
  71.0866547  93.2565975 102.8614044  43.4537745 106.6986275  55.8151865
  43.3155918 107.5635052  55.4290247  43.5448313 106.1126232  55.0638294
   5.8636885  42.7804804  76.5864992   5.2146464  42.2496414  77.0482159
   5.7170897  42.5863886  75.6607199  82.0192528 113.5206413  58.7307167
  82.1991062 113.3274841  59.6508121  82.1291637 114.4688034  58.6591053
  84.9562073 103.5696507  57.1293068  84.5777702 103.2610512  57.9525757
  84.5073605 104.3968391  56.9545698  92.2907734  89.8579025  90.5017185
  92.5493622  89.0730667  90.9848213  92.1699715  89.5560455  89.6014309
  80.1284122 106.8292332  73.3094025  80.4311275 107.5569248  72.7662086
  79.3461561 107.1658325  73.7464476  89.8375607  81.5149212  34.9861280
  90.0726700  81.8333149  35.8576623  88.8884735  81.3960266  35.0225297
   6.1688548 137.3037052  83.8666630   5.5449992 137.9407215  83.5184765
   5.6491404 136.7568588  84.4558048  85.4375553  87.9211998  67.7491140
  84.8303223  87.4636173  67.1676350  84.9073029  88.1595707  68.5095406
  99.4173431  55.1102304  88.6306286  99.9176216  55.5065775  87.9172802
  99.9869633  55.1898766  89.3957520  81.1710167  91.4520931  81.6545391
  81.9390106  91.9780445  81.4314175  81.1217594  90.7939911  80.9612083
  93.5218906  80.0271034  15.7116929  94.3510246  79.6056747  15.4854719
  93.7144375  80.9643555  15.6848470 119.2390537  97.1892834   6.5095941
 119.5720768  96.3336849   6.2388841 119.6778107  97.3646164   7.3420564
 119.7249985  87.7779865  81.9260502 118.9144230  87.3033333  81.7419338
 120.3159714  87.5271702  81.2160683  88.3332443  81.7230129  62.8726339
  88.4905624  82.1342087  62.0226908  87.8171062  82.3665237  63.3581543
  98.8251781  87.2430992  81.9777679  97.9928207  87.5843620  81.6507244
  99.4373131  87.3695850  81.2528324 118.8254547 107.5255394  47.3054123
 118.5577297 106.9220829  47.9985237 118.6833382 108.3959198  47.6775360
  18.9480525 109.2684269  48.7328386  18.9779120 110.1105118  49.1869783
  18.3906489 109.4268227  47.9709673  98.4936714  74.6039772  43.4077168
  98.0846214  75.2208900  44.0146255  98.3568859  73.7461424  43.8097572
  84.7270298 107.0369816  65.7461548  84.5170689 107.1482277  66.6733932
  85.6804943 107.1112061  65.7058954  69.1467571  93.8254642  92.9414749
  68.9909220  93.4833336  92.0611954  68.3603621  94.3321323  93.1442070
 120.8156872 121.2178516  90.8761597 120.5142784 122.1220589  90.9645271
 121.7686653 121.2875080  90.8194828  74.6185446  79.7791147  80.3073120
  73.9268064  79.1241121  80.2140331  75.4042625  79.3470430  79.9723530
  87.9537868 128.2568932  19.6219563  87.0244503 128.1220245  19.8073590
  88.0131054 129.1723061  19.3485808  72.9650545 118.1793594  83.1137848
  73.5516882 117.5107479  82.7601528  72.4573088 118.4761810  82.3585892
  89.3240070  60.0668716  99.9803734  89.5614529  59.1426086  99.9056149
  88.4912586  60.1387119  99.5138836  67.8199100 139.3350697  41.1395407
  68.0443764 139.8608685  40.3718281  66.9817972 138.9303589  40.9159327
 110.0549984 107.4295902  35.5702186 109.4665813 107.4113464  34.8154593
 109.9120712 108.2899761  35.9646010 100.2312851  84.0303230  56.7943430
  99.7634506  84.5859623  57.4177361  99.5399857  83.6030483  56.2886095
  94.4891548  89.6133423  62.1981955  94.3882656  90.5586910  62.0869827
  94.7268867  89.5045280  63.1189966 122.9685020 120.0061226  89.2058754
 122.4652863 120.7917023  88.9917088 123.2843494 119.6862316  88.3608055
  85.6869030 115.6033134  81.2589550  86.6183472 115.3887272  81.2079620
  85.3735352 115.1285076  82.0287609  87.7732849  69.6743774  52.0538568
  87.8248310  70.5792046  52.3618507  87.7758312  69.1485929  52.8537130
  94.0072250  89.7673893  39.6047544  93.3595276  90.3156948  39.1619611
  94.6817780  90.3810406  39.8956966  98.7842464 108.7670326  40.3524113
  98.0897617 108.1212807  40.4825354  99.2979336 108.7322140  41.1593485
  86.3888645 118.2851315  62.9021454  85.8278465 118.0246735  63.6326647
  87.1042919 117.6492691  62.9110336  96.9208622 118.7608147  95.1373863
  97.6550198 118.1471062  95.1621914  96.8719006 119.0388393  94.2227554
  85.0197411 112.3192120  53.4053898  85.0050926 112.8888321  54.1745138
  85.6664085 111.6462708  53.6180067 102.5018787 112.9649067  51.6543436
 103.2222462 113.2752609  51.1057186 101.8251896 113.6357307  51.5631914
  95.1091766  95.0664520  96.9875622  95.5846500  94.3376446  96.5888119
  95.2974701  95.8141804  96.4203930 118.0753803  69.7023487  69.4946766
 118.2788467  69.7526550  68.5607052 117.3386097  69.0935183  69.5468521
 119.7203636  84.0133381  63.5255146 118.8269711  84.0421772  63.8679218
 119.9035454  84.9139690  63.2580423 104.3948841 117.0730495  81.7422581
 104.2928219 118.0100822  81.5755939 103.5702038 116.6862488  81.4481354
 111.0760117  59.1173458  86.1837387 112.0211792  58.9688110  86.1550426
 110.7476521  58.4541082  86.7908096 120.0477791 102.1040916  56.1533737
 120.6082535 102.6169109  56.7357159 120.6536770 101.5384388  55.6746626
   4.4955283 116.9295597  72.8810024   5.3302508 116.9669533  73.3479977
   4.6677332 117.3671150  72.0472574  90.8519363  59.2110062  62.4007273
  90.3610802  59.3825006  63.2044029  90.2688313  59.4981766  61.6980505
   8.7777644 108.0110359  35.2862620   9.3708067 108.5696888  35.7886910
   8.3618861 107.4519253  35.9425187  85.1342583 110.5034351  61.2896442
  85.1587105 109.9489212  62.0694828  85.1855659 111.3968563  61.6293335
  91.4778614  91.0531521  61.7943239  92.2275162  91.5063190  62.1801853
  91.8665218  90.3911018  61.2226009  73.6639643 121.1413383  78.8874960
  73.1461334 120.4890919  78.4156227  73.9841557 121.7319202  78.2056427
  64.7956562  78.0902481  41.1446428  65.0733137  77.1792603  41.2408018
  64.8918438  78.2725573  40.2098989 102.6346016  82.9608727  62.0030737
 102.6880264  83.2234287  62.9220104 101.8420696  82.4265003  61.9523478
 112.7065277 109.5368004  75.0484991 112.0896149 108.9415836  75.4743719
 113.5640430 109.1369629  75.1935482  96.8480682  94.5555401  39.3113589
  96.5390110  93.7304020  38.9373732  97.6769829  94.3312454  39.7342324
 104.7275257 108.5079384  81.8139839 104.1974735 108.5736752  82.6083088
 104.1249084 108.1707096  81.1511421  56.5375280 110.8386707 101.4225483
  57.3224115 111.0665512 100.9242916  56.4941359 111.4974594 102.1156216
 120.2426243 100.8279896  62.6572466 119.8892498 101.6769314  62.3914433
 119.7574425 100.6046772  63.4515810   4.0409690 133.9402485  74.9278545
   4.1331416 134.8327160  74.5943403   3.3507376 133.5533619  74.3892193
  90.9198093 127.5782394  46.0346699  90.4743481 128.3791161  46.3110495
  90.8637810 126.9986343  46.7943811  11.2372618 104.4205284  54.4059324
  11.8126040 104.6883965  55.1224899  11.8337470 104.1788292  53.6974001
  86.9000816  87.7701569  61.7342138  87.6028728  88.4081554  61.6106415
  86.9223022  87.2329521  60.9422874 121.5995979 115.8043289  65.9468031
 122.5174713 115.5347252  65.9143496 121.2656593 115.4202271  66.7574739
  87.8354168  94.5189190 106.8898355  86.8788528  94.5253754 106.9241091
  88.1046391  94.2446423 107.7664854  84.9111843  55.5017042  61.8800068
  83.9654636  55.6053877  61.9853258  85.0055599  54.7666597  61.2741756
 104.0442848 121.6202259  45.9067583 104.8488140 121.2536049  45.5399370
 103.6027622 122.0241547  45.1596785 114.3007565 112.6640606  69.6863556
 115.0864601 112.4844074  70.2027130 114.5886230 113.2904243  69.0222502
  95.1687336  66.3916063  82.1818733  95.3047752  65.4462194  82.2448540
  94.2308903  66.4881325  82.0164394  10.6903773 109.4316387  33.4170222
  10.4617529 109.3917274  34.3456602  10.3068762 110.2535534  33.1110525
 110.7964706 107.5344849  82.8354931 111.0778809 108.0977440  83.5564518
 110.1988983 108.0802536  82.3243427 107.7565575 109.7383022  52.9797935
 107.1147442 109.0495777  53.1528568 108.5729790 109.4036007  53.3508253
   0.1214057  75.9165430  64.1059685  -0.3392381  76.5210629  63.5240793
   0.9638720  75.7664251  63.6770821   7.3513156 119.7346020  49.7411537
   7.9533320 120.2897358  49.2455292   6.9067507 119.2095566  49.0756369
 104.8214054 130.6830978  49.3053818 104.7183895 129.8083210  49.6800613
 104.4948006 131.2741947  49.9837446 107.4743366  85.0405693  39.2506933
 106.7918777  84.5411491  38.8022971 107.1229935  85.9291744  39.3070173
  79.7501612 111.3566685  70.5078983  80.3823090 112.0692921  70.6015968
  78.9068317 111.7546654  70.7238436  90.2065563  92.6465607  58.4889746
  90.5643368  92.1612644  57.7455235  89.7991562  91.9769382  59.0383959
 118.8596535 119.1164684  43.2366753 118.7043667 119.4956017  42.3715878
 119.7120476 119.4629383  43.5005188  83.2259941  77.3890209  45.4434347
  82.2901058  77.3217201  45.6326866  83.2906723  77.2424746  44.4997311
  53.0452728 117.3526478   2.1900884  52.6592541 118.0632687   1.6780034
  53.5528755 116.8478680   1.5546647  79.4453335 117.5798607  66.5972567
  79.1413355 118.4139061  66.9552755  78.8768101 116.9243145  67.0013380
  73.4672642  96.3092995  76.6689253  74.3272591  96.6798401  76.8672657
  73.6282396  95.3711891  76.5676165  77.7744961  79.7066927  13.2527816
  77.5996399  80.3462219  12.5623751  77.1375608  79.0087652  13.0996644
 103.9202213 120.3808403  40.6338644 104.6955872 120.9420967  40.6381559
 104.2692566 119.4899654  40.6612635  79.0318298 104.9897766  64.8857450
  78.5222101 104.1839504  64.9704313  79.9032831 104.6953297  64.6209812
  38.9780617  96.7976856  90.9815025  38.9938593  95.9017277  90.6450081
  39.3723416  97.3222446  90.2846336   2.9382926  93.8317013  61.1636734
   3.3276301  93.8484764  60.2893925   2.0038729  93.6953735  61.0071707
  67.2732544  88.5307598  72.4546957  66.6025639  89.0044117  72.9466963
  67.3322487  88.9966488  71.6206121  99.9683571 122.1300220  68.2306147
 100.4082203 122.7337456  67.6320601 100.2180862 122.4336147  69.1033697
  86.9472790  77.7068329  68.9860821  87.5479794  78.4209871  68.7730598
  86.2758255  78.1138897  69.5335150  90.3511524  99.0461254 107.0349979
  90.3426647  99.9737358 107.2710133  89.5046806  98.7148857 107.3350143
  61.2696743  52.6102257  92.9130173  61.5427017  51.6938210  92.8694439
  61.6908693  52.9483128  93.7032795 116.6507912  42.1099043  44.8695755
 117.4168777  41.5816402  44.6453238 117.0143414  42.9106522  45.2475500
 105.8059692  55.3649330  68.3885145 105.9034824  55.6225061  69.3052387
 104.9528503  54.9325180  68.3506727 105.3716755 100.2078819  14.6329538
 106.0535622 100.3963757  15.2777234 105.8513260  99.9589443  13.8428918
  85.6990242 109.7599220  90.5707932  85.6615067 110.5238819  91.1462879
  86.0134792 110.1048088  89.7350883 124.1124344 115.7249546  44.5289993
 124.0414524 115.0142479  45.1662445 123.2085896 115.9075928  44.2722368
 119.0627384  99.0164661  46.6089964 118.4639835  99.4344044  47.2279119
 118.5204697  98.3790207  46.1444187 118.7568665 110.4392338  41.1882067
 119.2595196 110.4541874  42.0026636 118.5440826 109.5155430  41.0549974
  71.4059019 109.2034340  77.7993774  71.8254995 109.6172333  78.5536575
  71.9723415 109.4232464  77.0597410 104.2571926 129.2909908  99.5055389
 103.4200191 129.3927479  99.9583340 104.4482327 130.1616669  99.1567612
  72.1409082 119.1497421  49.9419689  72.8485394 118.6151600  50.3021383
  71.4743662 118.5166264  49.6752977 121.7035484 130.0920010  43.6069298
 121.7541599 129.1841030  43.9059114 122.1065521 130.5990696  44.3116999
 124.9222660 112.8879070  83.8065147 124.0872955 112.6037025  83.4346294
 124.9504375 112.4795723  84.6717930 120.8593655 138.0987740  35.4927373
 120.0878143 137.8120041  35.0041652 121.3226795 138.6797047  34.8893404
   5.0651866 129.3806267 107.5270367   4.3258505 129.6608162 106.9874859
   4.7771864 129.5349789 108.4267426   4.1090232 100.0564957  22.4849224
   4.0664511  99.1190338  22.2962713   3.2099085 100.2968693  22.7086353
  98.2654667 121.1118031  45.1003981  97.3162079 121.2298393  45.0655985
  98.6182785 121.8692112  44.6334028  79.1301680 111.1089802  56.2503004
  78.9187193 110.1825237  56.1354160  78.6293077 111.5554047  55.5676031
  89.9221611  97.8098202  40.8420372  89.5328617  98.2575417  41.5931797
  90.8617878  97.8084660  41.0246229  92.2764969  82.4041939  62.0815563
  92.2569656  82.9842758  61.3204002  91.3550377  82.2320938  62.2752380
 104.1867352 100.1651859  80.7315159 104.5452118  99.3262768  80.4417706
 104.5453548 100.2881527  81.6104317  74.2537546  76.7231703  36.6400957
  73.5782242  77.1908569  36.1490130  74.6082020  76.0897350  36.0161138
  94.4661522  92.4793816   3.0082265  94.3206406  91.5758324   3.2886831
  94.1101551  92.5148678   2.1203939 114.0986538  60.8072090  34.3402338
 114.2830658  61.6835451  34.6782541 114.3103886  60.2208662  35.0666022
 111.0661983 111.0440445  68.9973116 111.0833168 111.7279816  68.3278561
 110.7444477 111.4859962  69.7830534  92.9070759  84.0216637  45.6462049
  92.5551987  83.5572338  44.8867846  92.3730373  84.8133564  45.7113695
  87.9020691  91.4311695  66.0173321  87.4066925  91.7533207  66.7703581
  87.3575783  90.7331467  65.6533003 117.6231480  98.9235020  76.9447851
 117.6080704  98.0274582  77.2811031 116.7108345  99.2102146  76.9860744
  85.1269436 123.7374592  57.7173710  85.5720997 123.0445194  57.2296190
  85.7505894 123.9896393  58.3983231 104.6910191 141.2535381  69.8647308
 104.7647476 141.6042233  70.7523203 105.4461956 141.6151428  69.4008446
 106.1203575 118.1266499  83.7075520 105.5450153 117.6169395  83.1371021
 106.1038208 119.0092659  83.3374882  95.7558632  90.1682281  35.8215451
  96.6574574  90.3169632  35.5365396  95.7733154  89.3024063  36.2293315
  81.0867977  74.4762182  88.9221478  81.1948776  73.6495161  89.3923759
  81.9790077  74.7471762  88.7058926 110.5782986 130.5502224  46.9383907
 110.4376984 130.5799961  45.9920406 111.1116123 129.7675037  47.0767879
 123.6647987 127.3176479  69.2463255 123.5846901 126.5830708  69.8547745
 123.1928158 127.0329952  68.4637356  97.0131969  82.7380085  75.8813858
  96.2985706  82.7215481  75.2447701  96.8767834  81.9550419  76.4148664
 100.9667206  80.8891296  67.0458746 100.0819016  81.0228539  66.7061090
 101.2268353  81.7471981  67.3809671  72.2045040 100.6960583  63.6374235
  71.7668676 100.0985813  63.0310202  72.6549625 101.3235664  63.0721283
 104.6525764 102.5166988  96.5927601 104.6943855 103.4593391  96.7537498
 103.7182522 102.3104095  96.6191864 106.0931873 115.8055496  75.4741240
 106.5889168 115.8830070  76.2892818 106.5633202 116.3629341  74.8540115
 107.0590591 112.2413349  35.2547646 106.4717770 111.5511513  34.9465609
 107.5334835 111.8437672  35.9849000  17.0682173  71.9951582  64.4026661
  17.5438147  72.8240585  64.3482447  16.9842082  71.7071009  63.4937096
 107.3943329  63.0302382  45.5668879 106.5330124  62.9509163  45.1569271
 107.4352646  63.9391518  45.8642530  91.4252090 112.7599812  58.2774210
  92.2397137 113.2426167  58.1364298  91.2287903 112.3678970  57.4265909
  13.9155322 104.8618507  62.9982328  14.4715720 104.3421936  63.5787582
  13.2432395 104.2496109  62.6992035  96.9487572 107.3176670  45.8698463
  97.3067951 107.5276184  45.0073147  97.5764751 106.7006683  46.2460279
  70.3244734  90.3383350  75.0778151  69.8816538  91.1739445  74.9298000
  70.5206156  90.3338718  76.0146952  79.2562151   6.9760971  52.9407930
  78.3768845   7.1514874  53.2758188  79.1985559   7.1678238  52.0047617
 107.8087711 118.9989471  61.1581755 108.0346775 119.9245453  61.0662317
 107.4895477 118.9184475  62.0569801 108.2004929  94.4649220  57.7062845
 108.9803028  94.0849113  57.3016596 108.4893131  94.7316265  58.5790300
 117.1480560  97.3361874  51.5793180 116.2589741  96.9835663  51.6171026
 117.5708866  97.0051479  52.3716879 115.7949352 107.4839592  41.1043215
 115.5638218 107.6452923  40.1895618 116.5842628 108.0061245  41.2476158
   6.8388491 105.3194523  57.9462147   6.8194323 104.9483776  58.8283491
   6.6354209 104.5815563  57.3714447  90.0628567  81.3552761  42.3677492
  89.2140293  81.6437149  42.7032089  89.9815941  80.4042053  42.2964525
 123.7664127 114.6955299  59.7979259 124.0281963 114.4944286  58.8994503
 122.9742622 114.1768646  59.9383736  67.1045256 132.1827602  33.5606384
  67.8540516 132.7778721  33.5777450  67.0082855 131.9452477  32.6383829
 103.0953884  89.1882706  53.2766771 102.8494930  89.2854500  54.1966391
 103.2402611  88.2486534  53.1654501 105.6560516  86.6150856  56.6141844
 105.3970814  86.0609531  55.8779049 105.3112316  87.4807835  56.3953209
  90.6347561 118.7944317  61.6298103  90.0205898 118.0885601  61.4278793
  91.2297630 118.8159275  60.8803177 115.3353977 124.5567322  60.3194857
 115.2612782 124.8476410  61.2283897 115.9156704 125.1980305  59.9093056
  98.3356953 108.5261059  32.9113770  99.0541363 107.9310989  33.1259394
  97.9928589 108.1977177  32.0801997 124.5136833  75.6816626  82.6717281
 124.8927116  76.5195513  82.9372787 124.4238472  75.1899624  83.4880543
  73.4551239  84.0519905  77.3225117  74.2028809  83.7941551  77.8615904
  72.8795385  84.5263004  77.9224825 117.4733829  67.6093006  81.2528324
 117.7481937  66.7649984  81.6104126 117.0645523  67.3928595  80.4148293
 116.4387321  60.1152563  66.0434675 115.4854488  60.1671743  65.9742546
 116.6079426  59.2277336  66.3595295 103.9732838  68.0165672  74.9116087
 103.5223007  67.2353506  75.2318382 104.0282917  67.8900146  73.9644098
 116.0632229 130.9949493 108.2705116 116.4023685 130.0999069 108.2602882
 115.9427166 131.2159824 107.3470116  93.1610107  94.9557972  53.6163187
  92.6375008  95.3247356  52.9049444  92.5206280  94.7198200  54.2874765
  85.0802040 124.1578960  29.1601038  84.9863148 125.0498009  28.8255620
  84.6795940 123.6065674  28.4879589 105.6582642 138.9336967  67.6051378
 105.3401852 139.7925377  67.8834343 105.0092602 138.6324215  66.9693327
  70.3492928  91.6408634  34.6950412  70.3977633  90.7059479  34.4955206
  70.2964067  91.6795444  35.6499958  99.5946026 106.1454105  64.8947859
  99.1837311 106.3493919  64.0546608  98.8606453 105.9778023  65.4859257
   2.9101019 100.7607269   7.3174155   3.4367877 100.3195095   7.9838699
   2.0946341 100.9844398   7.7659655  95.3026867 114.5740223  33.7394428
  96.0406971 114.3052769  34.2865682  94.5289421 114.3774605  34.2675662
 109.4412899  77.1888161  45.2815962 109.6146297  76.3040829  44.9599838
 109.6769142  77.7598953  44.5504475 107.0216656  89.6697807  56.5143490
 106.5583611  89.4009781  57.3076534 106.8150425  90.5996132  56.4197445
 109.4924355  67.4107265  36.9431639 110.3249836  67.7747917  36.6422391
 109.4355488  67.6710224  37.8625345  74.2447853 112.2675800  61.7999744
  74.3919992 111.4152718  62.2100163  75.0515699 112.4429035  61.3156271
  93.1591797 132.1868896  61.8101788  92.5872040 131.6928196  61.2228489
  92.7182674 133.0291939  61.9213486 111.4920998  79.1662645  52.2023773
 112.2064972  79.7521305  51.9521189 110.7517815  79.4481754  51.6650915
  76.0299826  37.1708679  99.5240402  75.7482386  37.8454375  98.9061356
  76.7371988  37.5818133 100.0212383 122.6898384 101.6900921  89.9826908
 122.4730301 101.3191032  89.1273594 121.8494987 101.9791222  90.3383827
  77.3217344 115.1099682  66.0462809  77.2492218 115.5446339  65.1965475
  78.1636190 114.6557903  66.0119152   4.1898280 111.9061947  96.3006020
   4.0292483 110.9948349  96.0559177   5.1413184 112.0015430  96.2580204
  55.4437637 104.2573738  53.1285954  55.4772091 104.8901939  52.4111986
  54.6516228 103.7468529  52.9609060 116.1595440  88.2655430  68.4896564
 116.0396767  87.7044678  69.2558575 116.6196823  89.0347004  68.8256645
  83.8213730 121.3275719  55.6508493  84.6895885 121.5194893  56.0052633
  83.8087749 120.3757572  55.5502558 105.9643078 111.3554573  73.8195658
 106.0154533 112.3063183  73.9169693 105.7962894 111.0326958  74.7048998
  98.0387211  55.7717133  16.2005711  97.7224922  55.7617855  15.2971685
  98.4452438  56.6322756  16.3025868 119.5520210 114.1684151  44.1107607
 119.6193409 114.4783688  43.2076406 119.0736866 114.8609447  44.5666409
  98.6142826  98.3319950  57.0309114  98.1584167  97.6418304  57.5126648
  97.9348278  98.7364006  56.4914417  83.2531071 123.9178371  77.1997118
  83.8358688 123.6004257  77.8895473  82.5854301 124.4228840  77.6637888
  61.3377762  80.6353092  86.4740181  60.9696054  80.5395889  87.3523808
  60.5777359  80.7784843  85.9100437  70.9781933  72.4540663  75.9326649
  71.2867022  72.2786093  76.8216372  71.7192125  72.8799200  75.5016613
  98.3485031 126.5400410  39.3212843  97.8395367 127.1451283  38.7817979
  97.7567482 126.2987804  40.0339222 116.6794109 113.2472610  48.5870552
 116.4223099 114.0977097  48.2308674 117.6263714 113.3150864  48.7091160
   8.3353835  97.6369381  46.6295147   9.0232020  97.7270412  47.2890711
   7.6838332  97.0677853  47.0391464  97.7964687 106.9172001  59.0669155
  98.0486584 106.4849091  58.2509708  98.4268951 106.5972710  59.7122383
  87.4126148 137.4875832  63.4298801  87.6730156 136.5734768  63.5431242
  88.0700016 137.9858208  63.9155197 114.8426056  73.7020159  36.8200278
 114.9691486  74.6505928  36.8405032 114.0635681  73.5526848  37.3557734
  74.8754883  90.1334572  80.2911186  75.3306818  89.8406601  79.5016289
  75.1138067  89.4892883  80.9578133 117.3653221 134.2076397  29.7984552
 117.4014664 133.4556293  30.3895712 116.7046928 133.9694595  29.1480088
 107.2367287  47.1532774  67.6534891 107.5030804  46.9355011  68.5467243
 107.8298569  47.8574610  67.3916531 100.7432365  92.1049595  44.4648075
 100.7585335  92.4970436  45.3378820 101.6573048  92.1166706  44.1809511
  94.4115448  66.4823866  59.3463469  93.5063934  66.1743450  59.3010759
  94.7962952  65.9895611  60.0711346 110.7665634   4.1174298  60.7091570
 109.9185276   4.2510586  61.1324787 110.9223175   4.9276238  60.2238226
  90.5353069 101.1788654  67.2486830  91.3603592 101.0758114  67.7229309
  89.9142838 101.4812183  67.9113579 103.5318565  94.7555542  53.6378527
 102.8218746  94.3014526  54.0916538 103.8162327  94.1403389  52.9619360
 112.8862476  76.9175434  78.5083628 113.8353920  76.8639755  78.3965921
 112.5295258  76.6309643  77.6676178   0.3287440  60.2187824  38.0793309
   0.5771952  60.0074625  37.1794128   0.8524638  60.9896803  38.2976508
 123.3389378 109.7949219  59.5489883 124.2027473 109.4255924  59.3655109
 123.1769085 109.5803452  60.4676485 109.4380379 101.4726067   6.4460222
 108.9171982 100.8323669   5.9612123 110.3410053 101.1705875   6.3476888
  97.1618748 110.0332928  71.4178991  97.9163170 110.4168320  71.8650723
  97.5326157 109.3342018  70.8793259  86.7578506 113.8032150  69.6408319
  87.5016022 114.1889191  70.1037550  86.5178013 113.0403805  70.1668406
  64.8999882 126.9236469  50.3264809  65.2339554 127.2936916  51.1436510
  64.7091627 127.6852894  49.7790194 123.8076305  83.7135410  70.5639267
 123.9471436  84.6281815  70.3185701 122.9997730  83.4655190  70.1143837
  84.6835232 108.6251831  55.1295280  83.8219738 108.7950802  55.5104542
  85.3017521 108.9858532  55.7650900 111.1275673 113.4496212  10.8703080
 111.7666531 112.8450680  10.4930536 110.3515339 112.9113197  11.0260145
 113.5927391 111.9795322  64.7884941 114.3263435 112.5813770  64.9143553
 113.8935566 111.3735390  64.1113567  81.3766575 116.8849564  60.1296473
  81.1329174 117.7412319  59.7780609  80.7055759 116.2893200  59.7963142
 117.3699665  88.8101578  50.3820896 117.6268959  88.3113384  51.1575890
 117.1207428  88.1445694  49.7409105  80.3195286  88.7211323  78.0941868
  81.0483932  88.2920361  78.5423708  79.6106482  88.0784416  78.1201792
  12.5921183  69.1156340  46.5112019  12.3793536  68.4405851  45.8667850
  12.0273810  68.9195967  47.2587824  70.1736736 120.3771305  37.9338455
  70.5737209 119.6883583  38.4646797  69.4648075 120.7184505  38.4790492
 103.3259773  63.3917618  43.6237097 103.7281799  62.7956533  44.2554712
 103.8900471  64.1650677  43.6313725  74.2196274 105.0842953  69.0157843
  74.7203159 104.6666527  69.7165823  74.7753477 104.9994564  68.2410479
 124.2923832  69.6997595  76.5288782 124.5632744  70.6040430  76.3703775
 124.2124081  69.6370173  77.4806643 111.9593525 106.6152287  32.2032070
 112.4654102 107.3942661  31.9725156 111.6757298 106.7718887  33.1039000
  94.9155998 103.5539913  41.4526415  94.2016220 103.9257622  41.9705725
  95.1621532 104.2536259  40.8476925  63.8087702  65.7863474  83.1175613
  63.6174583  64.8913097  83.3978081  63.7907982  65.7469273  82.1613407
  99.1177750  77.2765398  68.9370871  99.6710396  77.2578335  68.1562042
  99.2311859  76.4118862  69.3317413  90.3502178 121.2255573  68.7160873
  90.7729816 122.0473862  68.4668922  89.5188904 121.4930630  69.1079617
   5.8678084  80.0345802  23.9639235   6.6530161  80.4057121  23.5614991
   6.0408335  80.0708389  24.9046564  74.1237879  92.6872826  72.1592522
  73.4300756  92.7427101  71.5020370  73.7021446  92.2863960  72.9193401
  75.9801340 104.5430851  66.9360781  76.2629080 103.9141846  66.2721777
  76.7714787 105.0370693  67.1505117  86.2063313 129.8767090  31.1066008
  87.0639706 130.2948380  31.0301137  86.1728191 129.5624065  32.0101047
  73.7023211   0.3166085  65.1399231  72.8414726   0.6570320  65.3833914
  73.5926294  -0.6342907  65.1400232  89.7780991 102.6884747  65.1876402
  90.0219059 102.2419453  64.3768406  90.1520061 102.1456909  65.8817625
 113.4417629  94.5921993  93.1196022 113.3197784  95.3993416  92.6197338
 113.6815166  93.9379597  92.4633121 116.8240261 116.4404297  31.1505532
 117.3094082 116.1557102  30.3762341 117.4832153 116.8544388  31.7076063
 121.5542507  89.8614216  48.9603901 120.9409332  90.5951786  48.9195633
 121.1881733  89.2800617  49.6268988 111.3106155  98.1993294  27.0794177
 110.6719875  98.1350899  27.7895284 110.9233952  97.6965237  26.3628387
  77.2388554 125.4100227  32.3131871  77.1063709 126.0445881  33.0174685
  76.4779425 124.8316765  32.3656201  81.4900303  67.9417372  31.9562149
  81.0793400  67.1047544  31.7393661  81.0099983  68.2523012  32.7239060
 104.5412731 107.7560043  69.8301554 105.0638676 108.2539368  70.4587889
 103.9661694 107.2154522  70.3717184  60.2551699 102.6681519   8.6550826
  61.1741304 102.8344917   8.4451503  59.8246241 102.5936317   7.8034317
  99.7247124 111.4568615  23.7280607  99.4055176 111.7075920  24.5949364
  98.9335060 111.2396431  23.2350779  76.4876652  88.3133984  16.7090523
  77.4257755  88.1983280  16.8605030  76.3347769  89.2474365  16.8519521
   9.6186286  86.5337849  64.0530872   9.1867953  87.0225430  64.7537088
   9.1063243  85.7293701  63.9712620  93.4004879  93.1887817  36.7941451
  92.9291916  92.8065872  36.0538483  93.2403374  94.1295815  36.7200804
 114.8332596  75.4096794  21.0806823 114.8802280  76.3043451  20.7436347
 115.3861809  75.4187393  21.8619823  79.2329121  86.3044643  36.5587854
  79.7859383  86.0856342  35.8087826  79.7683048  86.8971825  37.0863056
  89.1544247 104.5362186  52.8192902  89.7370529 104.1656780  53.4822226
  88.4167576 104.8873806  53.3180523 108.9934921 100.4748249  37.1869612
 109.8503971 100.9010124  37.2044587 109.0117455  99.9325657  36.3983822
  81.8225384  86.0747051  81.1349583  82.0275211  85.1732540  81.3831615
  81.7182350  86.0434723  80.1839638  86.4774609  99.8392010  29.9378705
  87.2208977  99.6594906  30.5134058  85.7539940 100.0319576  30.5342436
   8.5626822  99.2636871  41.8550301   8.1092864  99.0921307  42.6803923
   7.8608351  99.4380856  41.2279558   7.4064665 128.1511974  26.5859294
   7.6704817 127.2330856  26.5260220   8.0765467 128.5577488  27.1354222
  81.9499302 119.1968822  21.6571188  82.6880264 119.8062325  21.6683149
  82.2631359 118.4323692  22.1404958  74.5066261 112.1154499  72.5403357
  74.5718670 113.0448914  72.3209715  73.7200546 111.8163395  72.0841932
   3.0035811 114.1351318  51.8386173   3.8194018 114.6166039  51.9759130
   3.2798129 113.2278728  51.7089796   3.9387923  78.3633661  47.2183084
   3.4712725  77.5852633  47.5219774   4.6434527  78.0201769  46.6688490
  89.6940041 111.7407322  45.1211452  90.2533150 112.2778034  45.6823492
  88.9157677 111.5699863  45.6516409 123.6830139  99.6493053  28.7082481
 123.1060028  99.9512196  29.4097710 124.0582371 100.4514122  28.3448601
 105.9326553 139.7419643  38.1841850 105.0046062 139.9679279  38.2466364
 106.1479664 139.3746948  39.0415001  91.6730881 134.8390198  61.7190170
  91.2227154 135.5615234  61.2815380  91.2107372 134.7372341  62.5509405
  96.6637230  91.9916534  28.8831258  96.4813137  92.8040695  28.4109592
  95.8225346  91.5356159  28.9089704  89.4180202 114.9289036  27.8277135
  88.7871265 115.1975727  28.4955645  89.1964912 114.0163517  27.6422620
 103.9900398  85.8887005  26.7998481 103.8058949  84.9902630  26.5257406
 103.6852455  86.4288044  26.0707235 115.6864452 121.8760681  59.0568066
 115.6836033 122.7343369  59.4806147 116.4978218 121.8623066  58.5491657
 104.2826748 110.5663776  59.1514683 104.5506001 109.7250271  58.7818956
 103.3536053 110.4545498  59.3528557 102.6219368  88.9923000  30.5999541
 101.9842148  88.4587765  30.1257277 103.2305908  88.3579445  30.9785771
  85.6668186 130.6439114  22.4128270  86.4473724 131.1874008  22.5204229
  85.0074577 131.2395191  22.0568347  85.9838009  85.3519154  34.9942112
  86.5111351  85.2899742  35.7906485  86.0527706  86.2699318  34.7320867
  91.4854336 112.2044659  38.8630939  91.6848469 111.2932682  39.0780187
  91.3712597 112.2069168  37.9127312  83.6175537  99.1073704  29.2769885
  83.6513329  99.5613194  30.1190233  84.3021393  99.5233345  28.7530136
 111.7416859  76.6855526  34.1659880 111.4566612  76.5169144  35.0640702
 112.0751667  77.5825834  34.1849899  71.7036057 115.5529213  73.4202194
  71.2118387 115.1895428  74.1566658  71.0513449 115.6650352  72.7286863
 123.7371445 118.9573383  17.1787930 123.5570812 119.8960304  17.1271825
 122.8721619 118.5474491  17.1838021  87.9042339  74.4308615  71.4401817
  88.5082912  75.1134920  71.1480236  87.5428295  74.0685940  70.6312418
  88.0777168  68.5565233  12.9199672  88.0994415  69.4793510  13.1732464
  87.2014332  68.4284115  12.5567400 100.1289368  99.9730492  27.6037455
  99.3823242 100.4605865  27.2557330  99.7985458  99.5699596  28.4066105
  73.6252165 135.3041649  71.8069315  73.9533854 134.4857693  71.4344311
  74.3970919 135.8672142  71.8653727  90.8561325 102.5231743  59.1357565
  91.6870594 102.4931240  58.6615276  90.7364941 101.6327381  59.4659948
  53.0181694 115.5906105  20.1974392  52.3328638 115.0130749  19.8612237
  53.4060860 115.9826946  19.4151247  97.3241901  92.4184036  65.4827929
  97.7372074  93.2406521  65.7465410  97.1326065  91.9713593  66.3072205
 118.4356785 125.2340126  44.5040512 118.3611679 125.9710407  43.8978529
 119.0671349 125.5271339  45.1609993  95.4409027 129.2749596  45.0538635
  94.7664547 129.7545242  45.5348730  95.0018978 128.4782124  44.7560263
  79.2113924 120.3088856  53.2852125  78.3304214 120.1476097  53.6230135
  79.7625256 120.3560925  54.0664005   1.6274386  99.2766571  62.8185034
   1.7312270  98.3572769  63.0638456   0.7494670  99.5078278  63.1217527
 108.6700249 124.4845963  76.5810299 107.7223396 124.4386959  76.7076015
 108.9470768 123.5709095  76.5127516  74.6286535 126.6686058  54.6333218
  75.1996422 127.1817780  54.0616035  73.8303232 126.5396023  54.1212130
  87.2362804 102.2843933  62.0344114  87.3061275 102.8673840  61.2784529
  88.1148434 101.9184303  62.1366215 113.6673546  86.8874073  38.5824394
 114.2422676  87.6403427  38.7195134 114.1132927  86.1626339  39.0206909
  71.5985441 119.0326691  26.9975209  71.7715883 118.0913544  27.0126843
  70.6555843 119.1004562  26.8476510 122.8247643  63.2309151  29.8031092
 123.6784840  63.6458111  29.9266720 122.9393673  62.6712704  29.0350604
 121.7791271 111.4719391  95.2390480 122.1902275 110.6272507  95.4226875
 120.8510685 111.3326645  95.4275703  69.9297714  81.8644428  73.4199238
  70.2717924  81.2422371  72.7779579  70.3447294  81.6104794  74.2442703
 106.4286995  87.4840069  23.1671667 107.3540401  87.5221348  23.4090686
 106.0273457  88.2132721  23.6397338 119.1257858  94.3368816   6.1765212
 119.2849350  93.4698105   6.5494567 119.0456581  94.1817856   5.2353746
  88.0361366  87.2858715  38.1407118  87.2830105  87.0790195  38.6941051
  88.2936287  88.1685543  38.4067917 111.4705753 114.6732330 105.6012195
 111.8170834 115.5532742 105.4538971 111.0012150 114.7367764 106.4330243
  10.9983569 109.1348076  36.3055205  11.4319163 109.9875641  36.2729836
  11.5422087 108.6119270  36.8946266  62.8130054 113.7836647  20.8559680
  63.3548164 113.4961891  20.1210999  62.9091692 113.0911541  21.5097427
  87.7032566  92.2306347  28.7526202  87.8400612  91.7523861  29.5704222
  86.9216156  91.8320847  28.3699703  80.7372665  85.1358128  44.3182802
  81.2071609  84.3189812  44.1503477  81.1531639  85.4945660  45.1022196
  87.3609543  54.5375061  47.1461964  87.6927948  53.8811922  46.5335274
  87.9909992  55.2560616  47.0919085 118.3424854 117.3992062  22.9947901
 118.0656433 118.2724762  23.2722449 118.5270119 116.9356346  23.8116670
 110.1138878  72.9868698  35.7332659 110.0441170  72.0901442  36.0607553
 110.0346947  73.5340595  36.5146375 109.8659325 115.8783245  42.9364061
 109.1064453 115.2957535  42.9322243 109.5012188 116.7484856  42.7750492
 114.5140743 108.3941936  46.1760950 115.0505924 109.1374683  46.4516592
 114.3495655 107.9055119  46.9825363 114.1154671  85.3446579  89.4818783
 114.0618420  85.3592491  88.5262966 113.2496548  85.6289673  89.7747326
  83.3793926 107.1467209  26.7707944  83.8529968 106.3451958  26.9932604
  82.4666405 106.9525814  26.9839454  96.7679501  84.3663406  33.3428788
  97.4100113  83.8025570  32.9114532  96.8770218  85.2191639  32.9221272
 116.9751072 122.6290512  30.6215858 117.7929497 122.2653389  30.9608078
 117.2192764 123.0307579  29.7877765   0.1569777   4.8788529  36.4151597
   0.5211192   5.6245690  35.9381461   0.7773333   4.1672688  36.2569261
 119.0291023  74.3703794  30.5406308 118.6069584  73.8204670  31.2006521
 118.3096886  74.6771812  29.9887681   1.2027293 108.3144665  23.4255934
   1.3526278 107.6703358  22.7336001   0.2516680 108.3348465  23.5319185
  91.5077972  96.1901665  46.2444115  91.4378262  96.7960453  46.9821501
  91.9125557  96.7068672  45.5476952  12.3824435 111.3658237  11.0252738
  12.8189307 112.1521091  10.6974530  12.8347903 110.6422997  10.5915260
 103.3110619  70.4440737  50.1366186 102.6661110  69.7378254  50.0983047
 102.8795338  71.1857843  49.7125006  90.8896637 116.0088730  31.2106299
  91.4131927 115.2805710  30.8763909  91.2322235 116.7784882  30.7561159
 104.7137928 132.3132896  82.9014969 104.3692303 131.9098377  82.1047974
 103.9894009 132.8431892  83.2342052   0.0617247  94.6086025  37.1694708
  -0.1053590  95.3154278  36.5460086   1.0001021  94.6650696  37.3497319
 113.0620098 129.5848083  37.4393749 113.3250999 130.0679207  36.6560340
 113.4382915 130.0824451  38.1653237  77.8041363  78.3519650  82.6333618
  77.0538139  78.9435577  82.6905060  77.9123926  78.0157995  83.5230350
  82.8208160  67.6217985  45.9913969  82.2765446  68.4088898  45.9691477
  82.5745583  67.1832609  46.8058109  91.0905266 124.6664715 101.8771458
  90.9253120 124.6005440 102.8176785  91.8956661 124.1673470 101.7398357
 117.7169704  86.3811111  40.2133274 116.8639946  86.7922878  40.0733519
 118.2151222  86.5877151  39.4225121 117.1140957 126.9597626  56.3796663
 117.0062637 126.5687561  55.5126476 116.2495708 127.3107147  56.5933418
  -0.0271863  91.3901901   6.9372308   0.6653433  92.0425224   7.0425564
  -0.3253908  91.2113190   7.8290361  93.9013672 114.5530319  41.3242817
  94.5057392 114.0830040  40.7498026  94.3249035 115.3975677  41.4779425
 119.5192051 120.6410217  64.6252537 120.0280952 120.0459194  64.0746880
 119.9700069 120.6306076  65.4695892 105.1731014  94.2406654  25.4586625
 104.7364140  94.8204422  26.0826778 105.8431149  93.7934303  25.9756708
 117.2268200  98.4514332  30.6558490 116.9303226  97.6934624  30.1520634
 116.5158653  99.0869904  30.5731368 110.4910183   0.8524018  59.7061682
 110.6812382   1.7693787  59.9041843 111.3399506   0.4139119  59.7634602
  87.0050430 125.9101200  39.9376249  87.0835781 125.0901127  39.4501281
  87.6801682 126.4765167  39.5639443   0.7513457  94.5277214  63.1920815
   1.4836722  93.9333916  63.3555079   0.4200965  94.2688465  62.3321486
 106.9274616  78.4490395  42.6176739 106.5096092  78.0269814  41.8670130
 106.2579823  79.0389872  42.9640579 102.2051144  75.6504345  47.5184107
 101.4483547  76.2222385  47.3896408 102.6665688  76.0287714  48.2668447
   4.7183924  69.0424013 103.3939251   5.5928259  69.4222069 103.3082708
   4.7166472  68.6384916 104.2617299 107.9361343 123.7803364  63.9454412
 108.7810040 123.4896564  63.6020279 107.3071098 123.1452465  63.6030531
   4.6069556 128.4083652  69.9259186   4.0494948 129.1864014  69.9370003
   4.2864638 127.8737259  70.6523275 110.8867359 100.9884071  70.2783632
 111.1341572 101.8386841  70.6417370 111.4552593 100.8791065  69.5160866
 105.6173229 121.1578369  89.6939087 106.4513397 120.8591747  89.3313503
 105.6409073 122.1097565  89.5963192  96.2344074 110.7880974  48.2564306
  95.4152584 110.3296185  48.4435797  96.0716724 111.6907215  48.5303307
 102.9306030 120.4711914  29.1184187 103.1191730 120.0209236  29.9417853
 102.7932739 119.7660637  28.4858227  77.1269226  83.1381130  63.8415670
  77.8997421  83.6122322  64.1484690  77.4549532  82.5722694  63.1426716
   9.1108065 108.7078476  50.1738405   8.8178664 108.2667351  49.3764448
  10.0632029 108.7502480  50.0880146  97.9717445  82.8823280  55.6064034
  98.1118965  82.4487114  54.7646427  97.2662544  82.3834610  56.0182858
 108.0870819 118.2659054  54.0976620 107.2145271 118.4085751  53.7308788
 108.5832500 117.8624439  53.3854342 123.7662792 112.5885582  19.9986696
 124.1572285 111.7152214  20.0243735 122.8300762 112.4357510  20.1267910
  93.9765930 138.9476871   9.0515953  93.9700890 139.8967361   9.1760427
  93.5232830 138.6021709   9.8205948   5.6557589  74.1221666  53.2459116
   5.9521037  74.1481876  52.3361111   5.1891833  74.9487495  53.3695698
 100.6793976 108.6027527  14.5297742 101.4697742 108.1593800  14.2216170
 100.6387520 108.3980942  15.4639554 124.2664146 112.8719902  15.2268887
 124.8026657 112.9536819  16.0155547 123.9004707 113.7465000  15.0944364
 122.2279263 104.6620369  45.4666615 122.0147610 105.2985764  46.1490202
 123.0389214 104.9899769  45.0781059 104.0579128 111.0340309  83.8229998
 104.0764713 111.7906475  84.4090160 103.8956642 111.4063358  82.9562267
  87.6431084 114.5660400  47.1314192  86.9393730 114.8382187  46.5424299
  87.5913811 115.1782894  47.8653908 115.0290394 104.6258831  58.0383968
 114.4891453 104.1836643  58.6935282 114.5088768 105.3837490  57.7713585
  89.5394325  86.6590500  56.7171621  90.2690601  86.0538483  56.5844727
  89.9456596  87.5257301  56.7257929 105.3189659 127.8860092  22.0874453
 105.0236893 128.6377430  22.6012015 104.5134735 127.4256992  21.8517756
  91.5058708  91.2366486  74.8512459  91.4151573  91.3414574  73.9041376
  90.9519863  90.4853058  75.0632191 116.5579224 110.9105301  21.4248896
 115.6514168 110.7076359  21.1939740 116.6158581 111.8632793  21.3531566
 115.0227165 113.8945484   6.2058085 115.0203514 114.5722389   5.5298162
 114.1350269 113.9100170   6.5635735  89.8359013 129.5219898  70.1677179
  90.6511593 129.1186523  70.4658890  89.1693974 128.8504601  70.3128052
  99.2740250  99.2040348  66.7361403  99.2301846  99.0136337  65.7990932
  98.4902191  99.7246647  66.9116783  96.3795948 111.7400837  55.0483418
  96.5297413 111.4718246  54.1418505  96.9761181 112.4766350  55.1820850
  91.2770271  94.1200352   4.7297579  91.7210102  94.8857689   4.3653911
  91.2501621  93.4925079   4.0074551  75.1362085 119.2942333  36.0357213
  75.5433464 120.0425911  35.5993414  75.1042080 119.5438194  36.9592571
 117.9060555  88.9640236  36.1851406 118.2057571  89.1513634  35.2955842
 117.0418644  88.5692883  36.0685778 113.9646149  94.0129089  41.3423443
 114.9169922  94.0299988  41.4368010 113.7217331  94.9275494  41.1985445
  94.8431587 107.6314926  42.6587677  95.7091713 107.3197746  42.3959160
  94.3594265 107.7158928  41.8371201  92.7979660  86.3866425  57.6249027
  93.6842251  86.4118862  57.9856396  92.9154015  86.0932922  56.7213631
 115.1600933 134.4051552  58.2661057 114.6499538 134.7141266  57.5174236
 114.5880508 133.7729549  58.7012148  52.8185987  83.7026310  34.4105673
  52.7007008  84.1368484  33.5657072  51.9475269  83.7100983  34.8073149
  82.5501633 116.2932205  50.0778341  82.7729988 116.4269829  49.1565943
  83.2515144 116.7312717  50.5599499 111.4459133  79.1931629  20.4247737
 111.2020493  78.5535908  19.7556615 112.0239735  79.8062658  19.9706995
 123.1639385  84.0606213  59.0121937 122.8761101  84.9099159  58.6774015
 123.4840965  83.5946846  58.2397699  93.3503914 135.8877945  67.0067072
  93.3149433 136.2280655  67.9006863  93.6938190 134.9994183  67.1020079
  94.1859531  82.5790501  15.2124512  95.0679684  82.7878571  14.9047649
  93.8405037  83.4122849  15.5327737 110.4781914 104.1364574  48.7662554
 110.8481121 103.4510994  49.3227339 110.0092316 104.7099781  49.3723726
 104.4808578 109.8568535  65.7286882 103.5434818 110.0497532  65.7475138
 104.6461868 109.3917465  66.5488005  89.9986458  91.7838097  17.8932333
  89.5269966  90.9534073  17.9580259  90.2332592  91.8544388  16.9679224
  81.0960484 105.0020409  75.0370693  80.9804535 105.7593536  74.4631767
  81.0777187 105.3669643  75.9217882  94.4112206 117.3486614  41.0194778
  93.7908173 117.9790592  41.3854504  95.1265526 117.8862858  40.6796360
 115.4877663 103.9148140  25.8729625 116.0797215 104.0371037  26.6151690
 114.9842072 104.7278118  25.8317399 112.7735710  30.3985047  35.3596044
 113.3147526  30.1376462  34.6144152 113.2206821  31.1620784  35.7246757
 114.6197414 129.2213821  60.3895855 114.0486717 128.8652039  61.0702133
 115.4903793 129.2290974  60.7872868  77.6557064 124.5006943  90.8967686
  76.7050838 124.4017792  90.8441067  77.8458214 125.2740574  90.3657341
   2.3219805  81.0367298  22.9704189   2.5418311  80.7783699  23.8654876
   2.9104167  80.5195045  22.4204540  96.7428303  96.1826515  49.9892330
  96.4434052  97.0853138  50.0976896  96.0645676  95.6532764  50.4086924
  92.2405338 103.7781334  50.9212589  91.3717175 104.0333176  50.6109715
  92.6815224 104.6071148  51.1071205  95.6750202  95.2244377   3.4022918
  95.5285740  94.2785358   3.3943057  94.8016357  95.6028843   3.3012837
 105.7246399 102.1931171  31.9290018 106.3688469 101.9819641  32.6047611
 105.0233841 101.5546608  32.0587492  73.0031013  90.3172016  65.6671333
  73.1787920  91.0405731  65.0653791  73.2399988  89.5320797  65.1734877
  96.3247299  89.3120480  78.4458590  96.3051033  88.3551884  78.4292746
  96.8850613  89.5529461  77.7081394 100.4202080 106.9648933  34.0931320
 100.9417152 107.5833893  34.6047258 101.0470581 106.5633774  33.4914112
 118.7261391  76.0210609  46.4865732 118.2207203  75.2409887  46.2579441
 119.6162224  75.8237410  46.1949492  91.5195847  82.8488350  57.9114485
  91.2521362  83.4861946  57.2492743  91.3805866  81.9982243  57.4950743
  93.1910992  95.1631832  31.0822678  93.6640739  95.2108669  31.9130826
  92.5008011  95.8215427  31.1615157  98.1692505 110.1739979  46.4360809
  98.1258678 109.2408752  46.2271976  97.5996590 110.2754784  47.1986341
   6.6027098  65.4661512  53.8474226   5.6550913  65.4191351  53.9740896
   6.9592696  65.5405664  54.7326088 103.3638287  73.5673904  58.3312416
 103.6321545  73.0906200  57.5457954 102.4694729  73.2699108  58.4981728
 103.1988621 105.1766396   6.6773599 103.1773090 104.4019604   7.2391808
 103.6354065 105.8442116   7.2065282  84.5018768 127.9541016  17.9864120
  84.7740936 128.0615520  18.8977754  84.8333836 127.0913124  17.7375615
 115.8640289  91.4790440  29.1694522 116.4749050  91.8985653  29.7753072
 115.6880665  90.6234646  29.5609140  67.3002672  90.2686787  75.5898666
  66.4317513  89.9779892  75.3116465  67.6211023  90.7977581  74.8595476
  88.1452465  89.7458935  38.9434242  88.9630032  89.8277664  38.4527111
  88.1575584  90.4828644  39.5541191 103.6671352  98.1825352  18.5977578
 104.5203876  98.1996727  19.0312231 103.8349724  98.5366917  17.7244687
 107.3413086 127.4335289  63.9414883 106.5492630 126.9498062  63.7071609
 107.6550674 127.0073509  64.7390842  87.9712105  72.7841139  55.5834198
  87.8900051  73.3138895  54.7903395  88.3390045  71.9539976  55.2803135
  73.4423971  90.4248714  26.9384718  73.6892748  89.5020294  26.8782020
  72.6082087  90.4805851  26.4723611 117.1641350  88.3237839  24.8378921
 117.7350616  87.5572109  24.8892522 117.5935555  88.9794827  25.3873420
 109.1363335 102.2940159  39.9832511 109.4945526 101.4849949  39.6180272
 108.3509254 102.0167160  40.4549074  71.2607527  65.1420450  23.6521149
  70.4946280  64.7373152  23.2453275  71.0349798  66.0699224  23.7177229
 102.0748043 139.7937012  44.5633745 101.6097546 139.2203331  43.9541054
 102.8602409 139.3018723  44.8029995 113.2701969  64.1164446  64.5458126
 113.1761074  63.6702681  65.3874207 113.4101391  65.0349569  64.7759962
 122.8777695  56.4520407  60.1570272 123.3183098  55.9570169  59.4663000
 123.5088158  56.4729214  60.8764553   8.0027705  81.6694355  38.3442116
   7.7177363  81.3229656  39.1897607   7.9456168  82.6197815  38.4432101
 108.5066795 115.7722569  62.4898481 108.9109898 116.1993217  61.7346096
 109.2375946 115.3638172  62.9537296 107.1656227  90.7483387  44.4654131
 108.0776024  90.7522869  44.7561169 106.7173481  91.3344669  45.0751209
 109.3738174  90.0257683  35.2126360 109.9766636  89.5984173  35.8210731
 109.6178627  89.6826267  34.3530273  86.0798931 115.4124165  64.9766016
  86.2187099 115.0764656  65.8620930  86.9483852 115.6928158  64.6879244
  96.1113834 109.5719814  75.4710054  96.6812515 109.8678207  74.7610998
  95.4899693 108.9793015  75.0481415  16.2491255  61.6416550  31.8785405
  16.7652159  61.3886786  31.1131072  16.6826373  62.4278450  32.2105145
 117.1303940 110.9655380  84.0390873 116.3126278 111.3864613  83.7739372
 117.6302719 110.8806038  83.2272053  -0.0465364  82.1969891  57.1215677
   0.6221610  82.8424454  56.8925524  -0.3052778  81.8126583  56.2839651
  18.4535056 142.1955395  73.9960337  18.7988597 141.5903091  73.3397913
  17.6159888 142.4870777  73.6357594  80.5437374 119.1879559  59.0098238
  80.1601315 120.0045204  58.6899900  81.0980797 119.4548225  59.7431183
 118.7740993 110.6036949  36.9941211 119.2952156 111.3318539  36.6558194
 118.2873440 110.2842140  36.2343597 107.1822071 119.9836349  48.9694548
 107.6845455 120.4984283  49.6010256 106.4838028 120.5719185  48.6824417
 102.6370144 113.3835220  32.0614719 103.0147171 113.3707333  32.9409075
 101.6988373 113.2556629  32.2018600  99.5143700  84.3160248  52.0466757
  98.8348961  83.6930180  52.3043776  99.1215992  84.8165798  51.3315439
  99.8028183 102.7553654  43.5344839  99.4556618 101.8764973  43.3818579
  99.4466496 103.2812691  42.8183842 110.8218575  95.6706142  51.9611835
 110.3573608  96.3099670  52.5012732 111.5036297  96.1787128  51.5215731
 100.2857685  94.1983986 105.6788635 100.3286648  93.2620907 105.4846551
 100.6702232  94.2798233 106.5516719 118.5791969 109.0365791  54.4198895
 118.2622719 108.2817650  54.9159193 117.8113461 109.6000957  54.3246222
 116.5201283 117.2888851  26.1931300 117.3218822 116.9191360  25.8233929
 115.8159065 116.7683601  25.8066678  84.4023514 112.4446011 107.1184173
  84.8404980 113.1974030 106.7214947  84.7299480 112.4234772 108.0175655
  87.0153999 111.4708519  18.7237382  86.1892223 111.8515778  19.0216005
  87.5504112 112.2244930  18.4747136  86.8125439  82.2992516  37.0535731
  87.0777798  82.3722744  36.1367583  86.1133003  81.6455841  37.0492744
 123.6418724  79.9843550  66.3171577 123.7095928  80.3522968  67.1982145
 123.5358143  79.0435362  66.4580011  65.6681871 129.0443516  66.3837433
  65.7550573 128.6230183  65.5286646  65.4643106 129.9573994  66.1812496
   6.0307437  95.8872509  70.1480770   5.9264880  95.2017784  70.8079958
   6.7786055  95.6023979  69.6229267  93.5322380  87.9145050  50.6717873
  92.6472855  87.5728321  50.7996941  93.4515572  88.5179806  49.9331856
 115.1108456  99.8389053  69.5450306 115.5149174  99.6900940  68.6901569
 115.2996349 100.7562351  69.7427607  -0.2883214 130.1330853  50.9694195
   0.4448634 129.6191692  51.3078928   0.0958567 130.6716919  50.2776575
   1.5671950 108.7516403  49.7860909   2.2646933 109.1764641  49.2868376
   1.5401488 107.8571606  49.4463730 106.0989094 109.9401474  48.2785702
 105.7716465 109.2693043  48.8778257 106.9483280 109.6079922  47.9880428
  99.7588730 116.4129353  53.6185455  98.8531494 116.5969753  53.3694839
 100.1160431 117.2647572  53.8696337 120.1330185  86.6466904  62.4503899
 121.0352516  86.9234943  62.2904587 119.6117020  87.1620083  61.8348312
  92.8509140 107.9156017  20.9910226  92.8758621 108.5620117  21.6965485
  92.0009232 107.4865341  21.0892487 118.6285591 114.3434334  15.2160251
 117.9763031 114.6717548  14.5971465 118.6367035 114.9906349  15.9212184
  69.5682192 121.9761276  53.9770508  70.4546833 122.0646477  53.6269379
  69.3145609 122.8678703  54.2151117  94.6263409  85.8053303 100.1155152
  94.1032982  86.5357494  99.7851344  95.5301666  86.1167717 100.0671061
 121.3092995 114.4373322   9.0103060 122.0838833 114.8865986   8.6720395
 121.1238098 113.7583923   8.3615702  77.2245359  95.5049515  25.5510926
  78.0563688  95.8819771  25.2644825  77.3663712  94.5588970  25.5181265
 119.6026230  84.0518570  31.4271641 120.4849815  84.3090630  31.1597204
 119.7071457  83.1678391  31.7790365  95.7669163  27.0321703  18.8310933
  95.6371212  26.7646980  17.9212344  95.5916977  27.9731965  18.8314271
 122.7546024 128.3245087   7.6237518 123.6191368 127.9995728   7.3723280
 122.1926785 128.1114960   6.8786997 100.9956837 104.3128395  50.4530191
 101.6811752 104.8167229  50.0143480 101.1491680 103.4091187  50.1774025
  76.2266350  81.9917965  28.2324314  76.8948078  81.4234638  27.8493261
  75.7482052  82.3399162  27.4800038  98.0693626 105.1771259  44.1239262
  97.7223873 104.4892120  44.6919250  98.9655399 105.3125477  44.4317675
   4.8830062 108.1112671  41.2766790   4.9578600 107.9357243  42.2146606
   4.1175871 108.6808872  41.1999416 101.3986969 117.6912308  28.6374450
 101.2788582 116.7433739  28.6960649 101.0693932 118.0263138  29.4714141
  97.8181934  90.6819534  10.6653738  97.9647350  89.7777081  10.9430420
  97.9933262  90.6749153   9.7243577  77.3865271 109.0923691  30.1716948
  77.2007036 109.5454979  30.9941125  76.5244102 108.9192009  29.7935438
  98.8868904 122.1442127  36.6419816  98.9106655 122.3611832  35.7100010
  98.8911533 121.1873055  36.6653013 119.2208862  82.6617050  48.4405565
 118.7501526  83.4023952  48.8226795 119.3147087  82.8890514  47.5154924
  90.5069923 122.8630257  18.5303319  90.7182217 122.5535679  17.6495087
  90.3182602 122.0658398  19.0254223  78.9920712 119.7399426  21.5566158
  78.7020636 119.4295979  20.6988192  79.7916508 119.2441463  21.7329311
  93.8556385 102.1511936  49.4392347  94.5259094 102.8345203  49.4346571
  93.2619381 102.4027824  50.1466560 116.3011551  88.2800770  32.7244449
 116.1815834  88.1581497  33.6662889 117.2182941  88.0549049  32.5683069
  76.5203190  90.3127861  23.2585907  76.0782719  90.0130558  22.4642467
  75.9934759  91.0523987  23.5613132 118.3037663 108.9507008  93.9728805
 118.7243557 109.6649361  94.4516309 117.8472519 109.3825245  93.2508334
  60.4993105  77.2543430  23.4994149  60.5339289  77.8834581  22.7788258
  60.1260185  76.4638662  23.1095052 104.3097115  90.8803749  29.6644378
 103.6649990  90.2629662  30.0099492 104.3234825  90.7102489  28.7225795
  91.0243702  86.0823441  18.6174035  90.8159351  86.4655113  19.4694412
  90.1720238  85.9043884  18.2198441  73.9866495 108.4501171 106.3986685
  74.2639494 109.1090775 105.7621887  74.6239090 107.7422428 106.3036262
 108.5219574 105.4269314  32.2083259 109.1268349 105.1687336  31.5128517
 108.4079456 104.6345043  32.7330112  98.8838291  95.1636124  48.0518007
  98.1440544  95.1938248  48.6584759  98.6160851  95.7191944  47.3197603
  60.8354282 103.8334751  20.1493096  60.3075790 104.4262981  19.6143663
  61.2946749 103.2831764  19.5148826  75.3573942 103.5587502  34.3826056
  75.5059862 104.1165924  35.1461267  74.5065784 103.8376617  34.0441442
 107.2743416  90.8146954  22.6460028 108.2005692  90.6076527  22.5216269
 106.9228268  90.8827305  21.7582870 111.2121868 110.2558899  34.9351215
 112.1061230 109.9330616  35.0487041 111.3144970 111.1949635  34.7805119
   6.6681033 103.3800125  53.9333677   7.5273257 103.6347008  53.5970592
   6.3661032 102.7014160  53.3296013  93.1472301 113.3434105  12.6226509
  94.0069962 113.4299564  13.0344236  92.9097748 112.4255657  12.7546120
 107.5198460  61.0011959  11.4889610 107.2222328  60.6695843  10.6417930
 106.7176437  61.2722492  11.9353020 102.0360279 136.5351009   9.5098883
 102.0102119 136.8778419   8.6165261 101.6646385 135.6556702   9.4398522
  99.4429684 101.8926716  99.8832687  99.8947144 102.2365189 100.6539323
  98.8243771 101.2520409 100.2342226  99.9863625 100.8317471  35.1800728
 100.7237148 101.2662983  35.6086612 100.3050995 100.6312561  34.3000507
  17.4500018 105.0837135  62.8380299  18.0671435 104.6778011  63.4467936
  17.3051768 105.9607697  63.1930494  75.5021000  50.2052069  25.1790333
  75.3551674  50.9591484  25.7501793  75.8250093  49.5203924  25.7646894
  81.5610409 108.3329391   3.0503345  81.4739227 109.0124130   2.3817834
  81.9074059 108.7925339   3.8152140  63.5742283 129.8457432  28.2921314
  63.6569548 128.9228916  28.0518603  63.3594227 130.2886486  27.4712014
 106.8627357  70.5526543   3.0568174 107.3063850  71.2668657   3.5143262
 107.4177170  69.7881556   3.2109961  80.8400249  98.7770557 103.7852123
  80.7947445  97.8311825 103.9248451  80.9689331  98.8739777 102.8416970
 104.1015339 119.0770626  36.8107152 103.4738636 119.7841358  36.9601035
 104.6392536 119.3843555  36.0808825  42.7016640  87.1268559   7.1958506
  42.9724789  88.0342007   7.3359215  42.2572994  87.1376801   6.3481146
  51.2037754 114.8687267  16.6589630  51.5281296 115.7135582  16.3470495
  51.7337751 114.6797657  17.4333191  73.2142878 111.1549282   5.2372885
  72.4638557 111.6526794   4.9127430  73.9577436 111.4871693   4.7341841
 123.3333206 136.7354774  14.8117876 122.5233555 136.5001774  14.3592131
 123.8710690 137.1529484  14.1389036 105.2450562  87.5391865  34.4175005
 105.8879757  87.7539158  35.0933576 104.6983528  86.8607807  34.8138833
  88.9945221 138.5723019  65.3981018  88.4812260 138.2451725  66.1368513
  89.8744392 138.2255650  65.5456018 103.7021732  82.8189945  52.6879168
 102.8887844  82.3196983  52.7609491 104.1160583  82.7294827  53.5463572
  81.5495396  89.1829205  25.0892186  81.3907337  90.1124096  25.2537370
  81.5476513  88.7820911  25.9584498 111.6262245 132.2079086  28.3002186
 111.9342518 131.3348770  28.5434699 112.1621227 132.8050327  28.8222337
 117.5633049  90.9612751  23.3925152 117.0033836  91.5785599  23.8633466
 117.0017624  90.2028751  23.2321000  67.8743649 117.4781036   1.8304104
  68.1590223 117.0670223   1.0141929  67.0230579 117.8623104   1.6208945
  17.0735007  87.8225517  32.9071784  17.2288828  87.0081425  32.4288154
  17.6932269  87.7941322  33.6361241  91.8938541 120.6343460  36.3483524
  92.7904034 120.9203243  36.5234160  91.6395855 121.1128521  35.5592918
 111.5270519  57.8190517 102.5467583 110.9320259  58.4627390 102.1622672
 111.4705849  57.9738951 103.4896603  87.4158287  81.8461418  74.8178148
  86.4649868  81.7539978  74.7574329  87.5605106  82.2955227  75.6504917
  98.8876820  94.3950462  30.2657151  99.2665386  95.2222061  30.5632043
  99.6438026  93.8486958  30.0512123  86.7011452  95.2771568  24.0305662
  86.7575264  95.8877087  24.7656083  87.6121426  95.0838089  23.8093853
  74.8878527  69.6391916   7.9535383  75.7368040  70.0678730   8.0619353
  74.7349072  69.1962242   8.7881756   2.8003722 110.3964615  38.5618424
   2.3355609 109.7193718  39.0535045   3.4708720 109.9195957  38.0726981
  91.7392635  96.5295124  22.1860862  92.0866585  97.4211597  22.1634793
  92.3170853  96.0625648  22.7896762 102.0176029 117.0241833  34.0514684
 102.7988434 116.4817429  33.9434910 101.4126778 116.7092991  33.3797956
  88.9275837  99.4434738  23.6799645  89.0354919  98.5406685  23.3807492
  88.7278271  99.9371529  22.8845906 123.1204319  95.9777451  20.4328513
 123.2873440  95.4030228  21.1798930 123.6866760  96.7349529  20.5819893
 103.4701920 138.9946938  22.8850675 102.5731468 138.7759209  22.6327085
 103.4953976 139.9514961  22.8745055 116.8471622  96.8833637  98.0647727
 117.0022678  97.2181606  98.9479991 115.9225845  97.0666599  97.8980931
  72.5625038  83.9548969  25.5039144  72.3351860  84.8803043  25.5943632
  72.0217752  83.6453533  24.7772574  77.8099060 109.5919895   8.0936402
  78.7554073 109.4505310   8.1410867  77.4348021 108.8787651   8.6102092
  67.7578831  79.7861052  30.9931350  67.8297615  79.6124554  31.9317031
  67.7949905  78.9206505  30.5859017  81.8155384  95.3911114  23.1430531
  81.6333961  94.4722557  22.9461360  82.7052975  95.3886127  23.4959650
 109.9278736  91.5086269  11.7450345 110.5194664  92.2322464  11.5385807
 109.0645885  91.9166660  11.8119168 123.6837006  86.4869213  11.2222457
 124.3541050  86.6552067  10.5600739 122.9583168  86.0964203  10.7348347
 112.2899723  96.8448257  43.7376356 112.4471188  96.6796970  44.6672964
 112.1663666  97.7922726  43.6802149 104.4276142 104.5399857  17.8711629
 104.4607353 104.0368366  18.6847782 103.5663414 104.9574947  17.8826368
  71.4245558  65.6574774   8.6162239  71.9092751  66.1440611   9.2829424
  72.1003723  65.2064133   8.1102169 119.7448444  90.7542515  92.2443315
 120.0939274  90.8343887  93.1319984 119.2789268  89.9180984  92.2447690
  94.0133572 121.0420799  26.3226366  94.7373581 120.7944775  26.8977499
  93.6970901 120.2124500  25.9649706 102.8444672  97.9739857  28.1868172
 103.4454727  97.3702431  27.7503419 101.9993114  97.8167343  27.7658415
 102.0654678  93.6558914  96.0231861 101.4016438  93.8680935  95.3670283
 102.0731544  94.4124699  96.6094907  94.0820599  67.0273018  52.7353287
  94.6694183  66.2837410  52.5998068  94.2497921  67.6039743  51.9899750
  58.7047434  98.8143253 107.2927537  58.1073332  98.6367035 106.5662661
  58.1318378  99.0574837 108.0199959  61.4854383 137.7380657  40.8546782
  61.9093752 137.8072739  41.7100811  61.8029308 136.9091797  40.4963779
  96.9099712  90.4751968  44.4506836  97.3950863  90.8922672  43.7386847
  96.0017681  90.7432461  44.3108892  60.0183201  79.3583584  21.9011497
  60.1836395  80.2912045  22.0378685  60.2414703  79.2076683  20.9826016
 121.2525272 119.3511486  22.6020551 121.2607574 120.2755451  22.3537469
 120.3327942 119.1609573  22.7868462  95.7889462  77.4639320  53.6300325
  95.3014374  76.9721937  52.9691553  95.2029705  78.1794500  53.8768005
  26.0147219  90.6244087  11.3744962  26.6172724  91.3367271  11.5884173
  26.1066084  90.0069237  12.1001017  85.2407646 112.7441406  33.6123204
  85.5777550 111.9341946  33.2293653  84.4426060 112.4790192  34.0693545
  96.5743351 127.2390556  29.0449095  97.0996952 127.7849197  28.4598756
  95.9368134 127.8421879  29.4270468   9.6062308  89.5265102  33.2890677
   8.7452250  89.1104603  33.2466197   9.4618159  90.4107857  32.9522705
 123.6506653  88.1828594  51.9975901 123.4319782  87.6731014  52.7776861
 123.0493355  87.8620529  51.3254881  98.1151581 104.5608616  96.5218755
  97.4937916 104.8376465  97.1953245  97.6679897 103.8513660  96.0604664
 102.0485783 143.6959839   6.7855090 101.9128132 143.9094257   5.8623379
 102.9897690 143.5377884   6.8588573  93.7662411 109.4750977   4.7164053
  93.2117844 108.7377071   4.4613245  94.0036297 109.8937321   3.8889864
  62.7097464 108.0677605   6.7240947  61.9738054 107.7618980   7.2542590
  62.5870848 107.6418591   5.8756864  94.6147442  90.4506683  29.3330550
  93.7958431  90.5286598  28.8436007  94.3848991  89.9307156  30.1031518
  14.8810320 113.1601810  15.2652538  14.4501429 112.3172474  15.4067647
  15.7630568 112.9320049  14.9716425  87.5286388 115.0910187 102.4976584
  87.2637272 114.8857498 101.6010472  87.7136517 114.2394447 102.8936567
   3.4085208  93.4810448  24.4280148   3.5921507  93.8764000  25.2801943
   2.7489119  94.0530968  24.0357208  85.9946156  75.8099794  41.2016916
  85.5614281  75.5243778  40.3973246  86.6370678  76.4572334  40.9109116
  69.8297358 133.4415531  40.8588409  69.0838146 133.4130383  41.4580250
  69.7933531 134.3165970  40.4725647  79.9130583  87.5088596  23.5057950
  80.5396652  88.2314587  23.5438466  79.5774984  87.5297642  22.6095843
   6.6165476 126.9644260  18.2606995   5.8078223 127.4544239  18.4093595
   7.1480399 127.1380329  19.0376222 117.5701046  88.7964821   2.9836839
 117.4418259  87.8548813   2.8689566 116.6838646  89.1565990   3.0172598
   4.1519003  92.9829311  10.4643166   3.8981276  93.6310577  11.1214018
   4.4875937  92.2448730  10.9730554 112.8033066  96.6734219 100.2003791
 112.4466133  96.8618011 101.0684338 112.3960686  97.3235130  99.6278580
  90.5562687 102.7383518  48.2896614  91.4747238 102.5643826  48.4955740
  90.1811314 103.0503750  49.1131544 105.4345798 105.2290154  44.5486689
 106.0276985 105.0446320  43.8203526 105.2995205 106.1759949  44.5137119
  67.5114441 105.7806969  24.0695786  68.3141804 106.2580013  24.2794251
  66.8292809 106.4521027  24.0594649  94.9255371  94.5067596  47.2713041
  94.0259361  94.2011452  47.1549225  94.8407459  95.4475498  47.4261236
  99.9252892  42.7744341  17.4073434  99.8764706  42.6984692  16.4544129
  99.0454483  42.5507975  17.7108324 103.2606792 123.4141064  15.7758510
 103.1672764 124.3441391  15.9820867 104.0884686 123.1602287  16.1839485
 102.7144241 136.1192322  29.1358972 102.5327492 137.0216942  29.3981743
 103.5803890 135.9339428  29.4992113   1.5378314  79.2503881  28.1901312
   0.6875258  79.3342304  28.6216283   2.1712905  79.2471981  28.9077282
  91.5777111 104.3189144 105.9403318  90.9863758 103.7188721 105.4858925
  91.2493992 105.1908207 105.7207551  96.6482735  99.8088455  15.4893494
  96.0039234  99.1389751  15.2606297  96.2391949 100.3017044  16.2006700
  73.3059263 121.2413692  26.9217348  74.2110538 121.0572433  26.6705871
  72.9164076 120.3785610  27.0633602 115.2908325 106.7952824 101.1719664
 115.2063847 106.9668865 102.1098652 115.0900650 105.8639145 101.0798564
   5.4095297  99.4277668 108.4006635   5.8380156  99.7344017 107.6015364
   5.9795504  99.7282505 109.1084921  89.4136906  95.1788616  16.9731808
  90.0285816  94.4512844  16.8795455  89.7545052  95.6872845  17.7091062
 104.3151951  81.3915634  37.3538589 103.4799385  81.1702251  37.7656603
 104.1960430  81.1622524  36.4322042   9.7470313 121.6953468  11.0429275
   8.9520960 122.2215652  10.9568763  10.1208239 121.6802597  10.1618564
   0.7698660  70.1904583  61.8302107   0.4710513  69.2967319  61.9981432
  -0.0031537  70.6417036  61.4910126  82.8580189  90.0679970  62.0753002
  82.1474075  89.4632912  62.2888136  82.7596951  90.2314854  61.1373043
  15.5361586 132.1569252   5.9134793  15.2131396 131.3188076   6.2443167
  15.9449130 132.5726128   6.6726619 109.7227287 138.4666538  13.1846321
 110.1806927 137.9855537  13.8738668 109.6787643 139.3661213  13.5090613
  12.4012309 103.3550072 106.5299111  12.4545603 103.1214142 105.6031858
  13.3130198 103.4437180 106.8074124  92.2181892 109.6961403  39.9435520
  91.4970970 109.3231583  40.4506493  92.8367615 108.9731407  39.8392820
   9.9639063  75.3370476  94.4296297   9.7074252  74.4148684  94.4234880
  10.6345969  75.3945875  95.1101419  98.0966377  92.5840759   1.5607560
  98.6777592  92.2610378   0.8721500  97.2641182  92.7437878   1.1161956
  56.9682217 103.9414883  21.6993093  56.3882446 104.4297886  22.2836208
  56.7840004 103.0222225  21.8923092 103.5219955 115.4861832  11.3022292
 103.6594009 115.7981205  10.4077744 103.1266117 114.6209526  11.1960626
  60.6119013  95.9807587   5.8879238  60.9627247  96.1468124   6.7628986
  60.7103252  95.0365162   5.7656401 118.0807018  84.9785805 107.2593936
 117.2906876  85.4853439 107.4473112 118.2915401  85.1919365 106.3504075
 104.0886688  90.2907372  66.8840885 104.4130230  90.1661968  67.7760077
 103.5002708  91.0431862  66.9460917  53.4449720  80.5807304  49.7536993
  53.7439680  79.8079491  50.2329206  54.2373466  81.1006355  49.6193027
  87.6487255  66.4576387  32.3899150  88.0715179  65.7141972  32.8197742
  87.0293331  66.7895603  33.0398440  86.9577980  97.5226688  28.3690596
  87.8868198  97.6135445  28.1571579  86.6818237  98.4044361  28.6191988
  81.0479069  67.1786451  34.6450543  80.2672005  66.8968153  35.1218057
  81.4225006  67.8724670  35.1877499  73.7270308  87.9511738  36.6009545
  73.9758348  88.8754654  36.6026831  74.5174694  87.4898338  36.8813205
  75.0567389  97.7513313 108.9396281  75.9510517  97.6838875 109.2741249
  75.1552820  98.1345367 108.0680368  93.4238243 118.2607651   0.0148804
  92.5171757 118.3742523   0.3000849  93.7184143 119.1447544  -0.2042437
 107.9588032 110.0412273  43.9122057 107.5693512 110.2253628  44.7669888
 108.8111401 110.4760361  43.9386702  93.9477158  83.5307884  48.2798100
  93.1174278  83.4132862  48.7413740  93.6943531  83.7522030  47.3836994
  79.4438553  73.0663300  33.5498571  79.4132185  72.1424103  33.7981820
  79.5314550  73.5346985  34.3800330  99.1479301  68.2163382  46.0901022
  99.1399384  68.6883831  45.2574301  98.9697838  67.3066473  45.8514404
  63.0884695 123.7544727  15.5001152  62.1938324 123.8908863  15.8119535
  63.3841562 124.6246433  15.2325571 122.5800323 122.3370361  31.1652422
 122.9273129 121.5830612  30.6886363 122.8858757 122.2139359  32.0638728
  74.6576452 107.4855614  25.5666876  74.6972036 106.8480873  24.8537350
  74.3506908 106.9825363  26.3209915  94.0204144  98.4086895  30.0961041
  94.3038654  97.5923252  30.5077243  93.1140995  98.5196686  30.3833318
 108.9776802  69.3255854  20.5978417 108.8885021  70.1178885  21.1274981
 109.6553040  69.5409060  19.9569857  73.4387779 109.9464798  25.9453321
  74.1545773 109.6883011  25.3646374  73.4396029 109.2836094  26.6358638
  95.7498360 124.6403694 109.9177929  96.2537003 124.0801811 109.3274241
  95.8993912 125.5278015 109.5917000  75.4924870  90.4045868 103.7592330
  75.2549553  91.1166096 103.1652328  75.8918715  90.8427620 104.5107164
 107.0763111 117.1562481  39.4115114 107.9441261 117.5033379  39.6180773
 107.1598148 116.8173885  38.5202026 118.5737419  80.2069187  33.7070036
 118.1834507  80.5102634  32.8873158 118.4438515  79.2586231  33.6976027
 112.2983646  91.7362499  30.1954031 112.3897839  92.6708698  30.0100279
 113.1857300  91.4460468  30.4066110  58.4812832  88.6550713 109.4653641
  58.3471680  89.2386055 108.7185495  59.3466187  88.2731438 109.3185318
  90.1307011  56.5836287  55.0384235  90.8227444  55.9654045  55.2731562
  90.3962708  57.4071503  55.4477167   9.8787718  94.7881985  18.8895452
   9.5547705  93.9409256  18.5839570   9.1460543  95.1626015  19.3786001
 111.4820194 100.9472466  37.7447200 112.2594070 100.7258129  37.2320199
 111.8087292 101.0639858  38.6368346  88.8995457 101.0576344  11.8219602
  88.0580711 100.8651733  11.4082992  88.8562965 101.9909668  12.0299220
 111.1788654  80.2701473  27.7082562 110.6418514  81.0029602  28.0096388
 110.5662727  79.5382309  27.6356936  91.8841171  73.5005045   0.9980579
  91.1725616  72.8754044   1.1365195  91.8059540  74.1174221   1.7257473
  81.0183525  46.5001202  10.1120687  80.5830193  46.5533972   9.2612541
  80.6114388  47.1923685  10.6330740 114.5770836  90.6012440  22.4114299
 115.0235653  90.0961494  21.7319012 113.6542034  90.3650379  22.3180032
  92.4546528  67.1711922  23.4698558  93.1929398  67.5045443  22.9599190
  92.1343422  66.4227295  22.9664254  75.4099607 110.1881504  15.9613323
  76.1563063 109.6130562  15.7926238  75.0499153 109.8760128  16.7914915
  63.9133549  55.7978010  37.7114153  64.3004656  55.1753616  37.0958281
  64.4802523  56.5674925  37.6620698  91.0004711 115.3745747  13.0103457
  91.2401676 114.5307255  12.6273167  91.8278027 115.8514881  13.0759335
  99.7089672 117.7921009  12.7014565  99.3877602 118.4344578  13.3342528
 100.6325722 118.0137920  12.5829506 101.2870693  84.1409016  44.2948771
 100.5982780  84.5745754  44.7985840 100.8974648  83.3101940  44.0221739
 111.5425968 143.5816288   7.4604136 111.5549469 142.7455044   7.9262251
 112.0284081 143.4132004   6.6530406  82.9583073  71.7131901  99.9069759
  82.3968506  72.2721148  99.3697687  83.6637211  72.2911549 100.1978102
 101.6897583 103.5272789   9.3542874 101.0843372 103.8918304   9.9998933
 101.2100601 102.7982807   8.9609790  66.2173605  65.5599165  34.2648554
  67.0039845  65.4257107  34.7934771  66.4454746  66.2775230  33.6738944
  99.8624897  71.9672346   6.8401808  99.1478443  72.5964260   6.7420000
 100.2730465  71.9343472   5.9761250   6.5234023  95.6266785  80.4130014
   5.9065371  95.5014324  79.6918734   6.5595656  96.5753555  80.5352172
 111.7494297 108.7656498  14.5405626 111.4593601 108.9707851  15.4293907
 111.0860729 109.1609192  13.9749181  70.9366560  83.2705021  39.1929340
  71.6365147  83.8862991  39.4102287  70.4954958  83.1055355  40.0262403
 119.0395641  96.5181923  40.3291273 119.9285412  96.1633778  40.3215933
 119.1153622  97.3441124  40.8069849 112.0976543  97.8338432   3.9101782
 111.8688202  96.9049454   3.8784245 112.9811192  97.8504372   4.2782047
 102.5080967  91.7953300  41.3983107 102.9491711  92.5896263  41.0970211
 103.0228424  91.5067196  42.1519470 116.6846275  62.4480104  77.0149279
 116.6355324  63.3725929  77.2577524 116.3460064  62.4170685  76.1201572
 104.3886089 116.0415459  58.8352537 103.9208317 116.8374538  58.5823727
 105.2880001 116.3309002  58.9888573  75.5804110 100.2322960   9.5393848
  75.1246929  99.8311901  10.2794290  76.0895109 100.9433842   9.9285036
 114.2010498  97.8095055   8.7590098 115.0733471  97.4203682   8.8214910
 113.8084221  97.6565361   9.6184701  73.8057137  90.6921005  39.7293615
  73.8108635  91.1003590  40.5951166  74.7187805  90.4512691  39.5726848
  84.0639210  65.6002045  42.3029184  83.5681725  66.4082384  42.1704578
  84.2764759  65.5998802  43.2362175 103.5244846  93.9471531  57.1299410
 103.5142231  94.3027687  58.0185747 102.9211903  94.5068073  56.6410160
 107.3482513  76.8221331  47.2729111 107.9866886  77.0754528  46.6062307
 107.4218845  77.4998665  47.9448366 111.8166351   6.4542084 109.3205524
 112.1044636   6.2185650 110.2025130 112.4412441   6.0188370 108.7404349
 112.7510071 131.2375832  21.4596200 113.0097771 130.3983116  21.8402719
 111.9254398 131.0530472  21.0117006  93.8037777  46.7564631   3.9686018
  93.5835838  46.1397839   4.6667823  94.0701675  47.5529718   4.4277757
 106.5010452  91.2731361  39.2434740 106.2797832  90.7484055  40.0128412
 107.2025394  90.7839394  38.8135743 114.5577717  74.4563723   3.4686044
 115.2821255  75.0756025   3.3785662 113.8974857  74.9318266   3.9727789
  73.5555744  95.0423813  21.8433428  73.9914894  95.8630943  22.0727587
  73.0923510  95.2368259  21.0285735  87.6730061 118.2286453  26.4827514
  87.2565746 118.3225155  27.3394966  87.8816891 119.1246414  26.2184191
 101.9638729  68.4358549  19.2270172 101.7398262  67.6761389  18.6895549
 101.9775581  68.0996418  20.1231217 112.6596737  67.8871441  20.0312614
 112.4246216  68.5844612  20.6434202 111.9814396  67.9219198  19.3567109
 124.3107605  94.3140030  18.1900179 123.6445904  93.6292553  18.2496786
 124.2356873  94.7937202  19.0149212  62.1998549  83.5381603  26.7656374
  62.2426844  82.6346016  26.4526105  61.5885067  83.9696980  26.1687589
 112.8303719  85.5111980  30.4945040 113.6928558  85.1103973  30.6026983
 112.2150135  84.8364544  30.7813835  86.6019821  63.8871241  15.8808887
  85.8486271  63.4516573  16.2797117  86.5149403  64.8037624  16.1424923
  77.7455282 112.6458263  29.3709159  78.0725431 112.6561260  28.4713650
  76.9155169 112.1719265  29.3186164  10.7179194 103.0658722  24.5972204
  10.7250720 102.3877811  23.9216638  10.7871943 103.8880825  24.1120315
  81.5013981  86.5650177  20.6455112  81.9072247  86.2190914  19.8506057
  80.9741116  87.3043919  20.3429699  67.5778818  93.8269711  18.6900663
  68.2744503  93.2032871  18.4850335  67.8689671  94.6492481  18.2958937
  19.1484004 110.7297516   7.8040904  18.2356005 110.6710148   7.5219882
  19.5247489 109.8797035   7.5760239  22.7062255  60.0005198  22.9954576
  22.7901297  59.2471838  22.4109292  22.5310736  60.7384491  22.4114919
   5.4886847  98.3482838  29.1502738   5.5354720  98.3501911  28.1942201
   5.5551463  97.4243641  29.3914843  27.5390845  88.1132603   4.9297050
  26.9464236  88.7964821   5.2430546  27.8161460  88.4148312   4.0645331
 115.1390457 135.7384586   1.4170787 115.3218555 135.4693699   2.3173031
 114.8430443 134.9381828   0.9833033  80.2462673 104.3024731   7.6367998
  79.5854807 104.4397354   8.3155894  80.8588791 103.6759853   8.0220962
  79.0094995 101.4198112  19.0719998  78.2255030 101.8339729  19.4326317
  79.7166014 102.0346928  19.2673469  64.3378305 108.8661575  16.3488185
  63.6379385 109.0836620  15.7331324  64.1379213 109.3812943  17.1304214
  69.2107391 101.1823940  84.2114648  70.0734663 101.2675762  83.8056525
  68.6120749 101.5980434  83.5909280  87.3150444  82.0656204  21.4330220
  86.7156506  81.8213272  20.7278442  88.1701279  81.7500687  21.1406374
   2.0396929 102.5009155   2.7773365   1.4227992 102.4591637   3.5080457
   1.9186717 101.6720867   2.3140574  95.0827312 142.2378159  87.8835782
  95.4245186 141.7499161  88.6328229  95.7398510 142.9138470  87.7180489
 110.5769539 121.3793755  85.4894551 111.2753010 120.8821678  85.9152802
 109.7788715 121.1078167  85.9428295 101.4915657 121.9294167  83.5355099
 102.2238064 121.4843559  83.9620932 100.8092880 121.9646072  84.2059501
  90.9672832  88.0151081  87.9999574  90.9071541  87.3478222  88.6835846
  91.8729210  87.9639053  87.6942834 101.3648987  54.6373940  91.3185593
 100.8838177  54.3789721  92.1046933 101.5036106  53.8185549  90.8426424
 121.1030197  59.1493797  16.9983160 121.3634014  58.2488441  16.8047428
 121.2272263  59.2367315  17.9433942 106.1751556 116.2764454  96.4595898
 106.3882732 115.3645134  96.6575988 105.3689384 116.4452934  96.9471654
 104.8531055 109.4990921  31.7607164 104.2320156 109.0243435  31.2083602
 104.8024654 109.0602589  32.6098895  82.0521832  93.1539631  12.8809011
  82.6000977  93.1674480  12.0961452  81.4366055  92.4364662  12.7309155
  87.0831776 127.6938248  25.3313327  86.5294075 126.9251156  25.4679227
  87.8520679 127.5354767  25.8790207 104.1836643 128.4655190  17.0361876
 104.6262550 128.8212872  17.8067565 103.3709717 128.9673710  16.9737387
 108.6511517  93.3338833   4.3711010 108.0259609  93.2631588   5.0924623
 109.1098213  94.1585541   4.5316565 118.4624767  48.8375616  80.3955277
 118.7300014  48.1963396  79.7371205 117.5984001  49.1311407  80.1067265
  83.6818027 115.1472569  35.4794145  83.0048466 114.8413658  34.8757696
  83.8604832 114.3930054  36.0410333  92.6412678 126.2699986  89.5710643
  92.9029560 125.7482624  90.3297087  91.6857433 126.2145042  89.5602974
  59.5778799  78.1922293   1.4447387  58.7126255  78.2177067   1.0361786
  59.6496534  77.3057365   1.7985962  94.1842461  91.5551376  98.9271244
  94.6519566  91.5708256  99.7621258  94.6613979  90.9165192  98.3972903
  60.7203341  93.0151367  97.3815056  60.7114840  92.1874905  97.8622981
  59.8481750  93.3834457  97.5226256  87.6083374  91.7179871  14.5128322
  86.7501736  91.3596535  14.7395420  87.5857735  92.6178265  14.8384273
 113.3321190  92.7318478  97.3140629 113.1545067  93.6340237  97.5800987
 114.2571545  92.5988102  97.5210425 107.3191929 107.3837948   7.4606800
 107.7023506 106.8172741   6.7909932 107.6636791 107.0447826   8.2868975
  97.8237152 124.0275383  99.0570625  98.3778381 123.2905769  98.8000282
  97.2733498 123.6800289  99.7588941  85.3466606  93.0084896  78.8271340
  86.2103081  93.3730602  79.0206178  85.2046490  92.3534203  79.5104631
 123.3652115   1.1267643   9.8836589 123.0750370   0.2564125   9.6106666
 123.0273342   1.7147141   9.2080981  82.9460239  56.7450190  95.6497916
  83.8366604  56.5494776  95.9409496  82.8607368  56.2853336  94.8145386
   7.7946215 100.4647541 101.0980686   7.4882346 101.2956905 101.4612439
   8.0187350  99.9366093 101.8642690 101.8652439 113.1459427  11.5061200
 102.2532845 112.6179981  12.2039258 100.9631157 112.8324318  11.4420342
  98.1535721  95.9287167  17.9755902  99.0912247  96.1123180  18.0332279
  97.9999065  95.2563858  18.6393619  62.8050661 122.3914528  32.2810316
  63.4889126 122.0478058  32.8559113  63.0977154 122.1644211  31.3983965
 100.7306480 136.7979908  25.1383972 100.7537079 135.8859825  25.4281092
 100.8355236 136.7501736  24.1881633  91.7699528  93.5490036  27.4096513
  92.6056480  94.0155411  27.4234891  91.6732311  93.2577515  26.5029836
   1.3043814 120.3872013   3.6162183   2.0056944 120.0024033   4.1418713
   1.7322379 120.6492233   2.8010404 117.4394131  81.5591431  31.5482879
 117.4673367  81.9509125  30.6753802 117.0417786  82.2324276  32.1003819
   8.3354025 104.1704464  55.9190893   8.3301859 105.0688839  55.5889082
   7.9291087 103.6564445  55.2212620 113.1938553 101.9274998  31.2576795
 112.9377556 101.6052532  32.1218538 112.6925850 102.7351284  31.1449957
 107.7096462  89.6225834   5.0372237 107.8531361  88.8217735   4.5328966
 106.9929600  89.4050789   5.6332850   2.4935942 118.8426685  16.6430116
   1.9096881 118.0845547  16.6664040   2.1203356 119.4521999  17.2797024
  56.5427828  96.6604424   0.7094913  56.6297674  96.7875195   1.6542220
  55.6134367  96.4729404   0.5776063 116.2099266  88.5950851  56.1936283
 115.3343582  88.6475468  56.5768671 116.7607784  89.1097546  56.7834663
 117.7214909  92.7135468  17.3175967 117.4504566  92.7293301  16.3997078
 118.6757278  92.7821922  17.2867751   9.4720011  86.9728088  84.1400536
   8.8010245  87.4132347  84.6616372  10.0297289  86.5380096  84.7851237
 122.9149342 105.6860447  92.4380513 123.1101799 105.3994942  91.5458640
 122.1250534 106.2196255  92.3507830  89.0373135 109.3991852  31.6187429
  89.5695305 109.9609852  31.0554051  89.3049812 109.6296215  32.5083995
  43.4643870  88.9725780 108.7434159  43.4640818  88.4321785 109.5334775
  44.2397814  89.5267010 108.8325550  15.7965022 127.4471378  35.3095102
  15.3253680 126.8337250  35.8734155  16.2008887 128.0676842  35.9158325
 110.4032326 104.8480988  58.0826139 111.1685753 104.5973587  58.5999250
 109.7519398 104.1738796  58.2762098  94.9193764 111.2834930   3.0086824
  94.9026299 111.8305588   2.2233948  94.7245979 111.8873024   3.7254155
  93.8184166  93.2259560 106.4062759  93.0933189  93.2206154 105.7814290
  93.4640312  93.6628914 107.1806961  87.1609116 114.8571587   8.5192412
  86.6081142 114.2157555   8.9656180  87.1100903 115.6400490   9.0676337
   4.8133021  96.5594578  12.7078497   5.1318484  95.9130096  13.3378279
   4.8920088  97.3973370  13.1639123  85.5911732  79.9527836  41.2643337
  84.7265625  79.6367359  41.0020494  85.4574013  80.8796215  41.4626026
  98.2211876 127.2115421  16.4450729  98.7651443 126.8370152  15.7521963
  97.5989437 126.5174770  16.6626179  91.0801029  98.0702877  74.5737132
  90.2224350  97.6625824  74.4536766  91.3708115  98.2822323  73.6866935
   8.1886225  77.3055410  27.6126790   8.9123183  77.8194475  27.9710007
   8.2661944  76.4524126  28.0397463   7.9393988  75.2400732  63.0358943
   7.0687323  75.2068186  62.6395806   7.8873950  75.9565449  63.6685046
  86.7530155  14.0935498 106.3605278  86.0430050  13.5440808 106.6924759
  86.6458130  14.9266415 106.8195730 106.9415760  63.9652634   6.1577243
 106.7163849  64.7731543   6.6190618 107.7099609  64.1942453   5.6348580
  97.7729893 101.1665249  86.8834575  96.9428444 101.3649178  87.3167428
  97.7786446 101.7278671  86.1081537  71.9130993  91.5359592   2.9709631
  71.2623644  90.9045982   2.6641122  71.3981104  92.2887993   3.2612130
  70.8920813  82.8959274   9.9146396  69.9768019  82.6278114   9.9959230
  70.9130239  83.7860489  10.2660322  67.6295042  86.4943886   7.1911812
  68.0294418  86.7651463   8.0175990  67.7821302  87.2305393   6.5987128
 123.6938763 108.5636330 101.1756822 123.3036518 107.7395821 101.4670505
 124.2745495 108.3128452 100.4572453 107.8304768  92.3894405  31.3517570
 107.2137165  91.6585255  31.3117266 108.5894394  92.0372200  31.8166733
 116.6486454 104.9833107  94.6830007 117.0298481 104.4406796  95.3732642
 116.5370655 104.3863010  93.9431628   8.7952452 115.7541084  34.6443272
   9.7165614 115.8598518  34.8814392   8.3146029 116.1735725  35.3579545
  76.2670851 101.0932541  12.7257538  75.9162426 100.4698849  13.3617985
  77.1906710 100.8560658  12.6422989 113.6177063  96.1088848  57.2814187
 113.3460808  95.9342670  58.1825074 112.8277397  96.4380074  56.8526419
  79.9787807 127.8436184  10.6956697  79.6783876 128.5435104  11.2754536
  80.2588749 128.2956028   9.8997492 118.0959797  73.4624243   7.9546559
 117.7410412  73.4766769   7.0658088 118.1559277  74.3847847   8.2034367
  65.1989937  40.8116102  33.0815339  65.4003811  41.2122059  32.2358370
  65.4007149  41.4926100  33.7232351  83.7700844  89.6104431  10.6360304
  83.4105968  89.2702866  11.4553595  83.4227943  89.0267754   9.9615270
 119.4743443 140.5794621  81.3084897 118.8474941 140.2424622  81.9485840
 119.0287971 140.4886627  80.4661878  33.4510642  56.9667292  88.7169679
  32.9102927  57.1509027  89.4850000  34.2936354  57.3762083  88.9135274
  63.5908604  81.0287189   9.9556798  64.0231037  80.4552841  10.5885923
  64.1924906  81.7657185   9.8503053  93.2870293  75.3023911  93.3011194
  93.5878372  76.2095833  93.2486960  93.8136196  74.9154902  94.0005788
  68.3753157 107.8444004  75.0441655  68.3721972 108.5404587  75.7012232
  67.8045130 107.1681213  75.4089483  90.0898552  78.2262468   8.3937871
  90.0345516  78.7029934   7.5656056  91.0288906  78.1304979   8.5527897
 108.1323433  76.3534117  89.5140370 107.7744675  76.0955524  90.3635427
 107.7372456  75.7422972  88.8922127  76.0658884  88.0090904  29.6291161
  75.1277065  87.8272152  29.6836424  76.1418581  88.6719704  28.9427829
  95.1891422 122.7255535  16.9406152  95.6453133 121.9031239  17.1187997
  94.5650387 122.5081348  16.2481940 100.6882954  96.4996624   6.4617604
 100.1506042  96.7939758   5.7265759 100.8011818  95.5605221   6.3150805
 122.0010948  79.0773773   7.7904588 121.7978859  78.4092426   8.4450889
 122.0303917  79.8963022   8.2851589  98.9266491  90.8415413  18.4444535
  98.0083942  91.0893345  18.3366120  99.3855476  91.3148880  17.7504873
 106.1411953 116.6846943   6.3853097 106.6008186 117.3440266   5.8654487
 106.7829227 116.4040089   7.0377076 114.8079109 103.6789513 108.2021333
 115.1283455 104.5653343 108.3691048 113.8987637 103.6926174 108.5012924
  96.2850475 132.2537613 109.1260315  96.8587017 131.5060902 108.9582872
  96.4454460 132.8479385 108.3929204  90.2613926  65.1554871  80.6208357
  90.7148838  64.4071341  80.2328309  89.8173714  64.7948503  81.3883122
 100.1355171 102.7454281   5.7668012  99.4356728 102.4322414   5.1937670
 100.1899242 102.0875740   6.4599788  88.4020424 125.0881672  17.5385296
  88.9883041 124.3385220  17.6413143  87.8451633 124.8565769  16.7952406
 124.2297077  56.3539886  30.7575679 123.8673306  56.5293360  31.6259980
 124.8748207  57.0481443  30.6226087  95.7964420  72.5446558  73.2765611
  95.7648563  71.6012049  73.1180271  96.5184116  72.6596594  73.8944348
 112.5929546 126.8463326  36.2587452 112.7841949 127.0166302  35.3364325
 112.7330112 127.6883888  36.6918349  82.4275589 136.3213921   7.8254420
  82.5838947 137.1979713   8.1767273  83.1564903 135.7969952   8.1569457
  87.7217865  92.7440548  46.3770771  88.0081081  92.3000240  45.5788994
  86.7662811  92.7464485  46.3202190  69.8104000  78.9093161   5.0824010
  69.6610832  79.1148138   4.1595224  69.2668152  79.5370340   5.5585474
  96.8861389  96.7639446   1.2310476  96.7553902  96.1838627   1.9811453
  97.2292614  96.1929703   0.5436671 105.9734344  86.7557526  74.0930414
 106.6561890  87.1152496  74.6594715 106.2622070  86.9680405  73.2054758
 112.7321339  95.4409695  97.7261742 113.0942822  95.8323193  98.5211118
 113.1098080  95.9551525  97.0125850 103.5452271 101.7625427 109.6594786
 103.7285805 101.2614727 110.4541784 104.3319893 101.6590118 109.1241985
 120.8009815  73.1173515   6.8798459 121.2924385  73.9378929   6.8422413
 119.9613094  73.3587885   7.2708607  97.8235817 110.6165600  93.5786434
  98.5961533 110.3144932  94.0562578  98.1636047 110.9070301  92.7323302
   9.4548255 110.5504990 108.5396497   9.2220431 111.4773941 108.4856949
  10.3748541 110.5189514 108.2773710  94.0208244  84.3108940   9.8484802
  94.7093678  84.8728371   9.4930273  93.9823151  84.5378017  10.7775998
 109.3086624 130.8209038  27.6688242 110.0853729 131.3618088  27.8116083
 108.7335205 131.0285378  28.4052491  95.8270741   3.1995468  13.5647261
  95.2172279   2.7578430  12.9737723  95.7812881   4.1213494  13.3109283
 121.8762779 117.9581833   9.1940296 121.1502266 118.3837795   8.7380201
 122.3872089 117.5452137   8.4978664  74.4629288  71.4615250   6.1135852
  74.5265102  70.8307457   6.8307352  73.8127756  71.0850859   5.5204362
 108.9920044  93.5985756  15.0456893 108.9760876  94.0423489  14.1977227
 109.3988037  94.2301083  15.6389165  69.7191858 127.4990177  94.3730255
  70.3216887 127.8573036  93.7212154  70.1067352 127.7387905  95.2147802
  47.0050859 111.0969067 106.8598678  47.0147276 110.5052662 107.6122671
  47.1566963 110.5275345 106.1055043  74.8653126 113.6157417 104.0450534
  75.6680584 113.8257885 103.5678627  74.8470640 114.2406750 104.7698715
 115.0722504  93.4268093 102.4788257 114.3713856  93.8779545 102.0081922
 115.7960320  94.0531349 102.4884846 111.3597965 121.0907745  64.0809011
 111.2795353 120.2646923  64.5577383 111.4911366 121.7492962  64.7630548
  68.2490826 111.3393593  42.3338270  68.2286835 110.7678127  41.5662670
  67.7584267 112.1166420  42.0667696  94.9277306 130.1749802  18.4697413
  94.8473644 130.0643635  17.5223577  95.4416466 129.4199848  18.7562954
  95.4190159  99.1802502   8.0282676  94.7664452  99.2274857   7.3295885
  94.9597645  99.4955540   8.8066655 106.0678196 126.9839382  82.7621325
 105.6529713 127.7034473  83.2379850 106.0205460 127.2460938  81.8427452
 106.0939884  81.6856384   5.0716132 106.0709667  82.1761417   5.8932662
 105.4551601  80.9833717   5.1939225 114.7779751 112.8282642 104.4329628
 114.0645313 112.3322678 104.8344921 115.5380630 112.6438904 104.9847784
  90.5593681 127.3029709  19.2853594  89.6114254 127.2200775  19.1816056
  90.6907368 128.2064056  19.5730531  52.1192551 111.8714905  84.7583255
  51.8071938 111.9430161  83.8562545  51.7309904 111.0587883  85.0823530
  96.9352245  80.2714157   0.7150246  96.0464859  80.5826569   0.5432762
  96.9322491  79.3618298   0.4168955 113.0083179  58.7519264  18.0492413
 112.3193645  58.1492758  18.3292150 112.6956844  59.1022301  17.2151053
 119.3260288 113.9608955  48.5203552 119.7021294 114.4445515  49.2557859
 120.0840092 113.6262226  48.0410862  98.8269424 105.7597256  47.0547724
  99.7452354 105.5919266  46.8430471  98.6507225 105.2038288  47.8138256
 118.8788223  80.2152061 107.8515912 118.4247971  80.9992981 107.5429078
 118.4310818  79.9839258 108.6653908  81.9572258  80.2108097   8.2450759
  82.5301838  79.8656511   8.9297724  82.0386791  81.1614799   8.3213186
 117.5651169 118.5582447  99.8011705 117.9199028 118.3746338  98.9313158
 118.3237553 118.8329983 100.3161611 104.7301102  55.6062603  32.0607138
 105.2859688  54.9138975  31.7030978 105.1512146  55.8496380  32.8851342
  79.7979784  84.2518520  12.1312189  79.6509123  83.4883976  11.5728772
  80.4292583  83.9521503  12.7853525  59.6692228 103.8560677   3.4407842
  58.9518118 104.0671158   2.8432766  60.4308844 104.2986298   3.0662930
 102.7240181  58.5075092  13.7927711 101.8153763  58.6345577  14.0656269
 102.9492950  59.3131685  13.3275938 121.9557858  97.8614712 103.9111623
 121.6261101  97.8445244 104.8096388 122.3294926  96.9905567 103.7766936
  96.9892788  36.5772915  22.5439334  97.7524853  37.1408463  22.4168682
  97.2639084  35.7232714  22.2100830 118.2837200 135.7520676  91.5848478
 118.1793594 135.9472561  92.5161048 118.2168388 136.6035366  91.1526986
  96.9458866 136.8622971 106.9300505  96.6920280 136.9822311 106.0149514
  97.6109982 137.5332355 107.0840096 100.3131390 123.0865479  77.2702655
 101.1683941 123.1304264  77.6978739 100.2715778 122.2014999  76.9080599
  38.3533621  90.4802704   9.8462313  37.5734878  89.9323845   9.9348152
  38.0127048  91.3493729   9.6344727 109.6719456 125.3837681  15.7706368
 110.2782345 125.2005291  16.4883208 110.0174141 124.8831654  15.0315297
  58.5368061 127.9777908   3.5377395  58.1308794 128.6753464   3.0230784
  57.8395844 127.3334026   3.6597365 116.5228939  54.9415541  10.5493104
 116.8966103  55.2367640   9.7189969 117.1435642  54.2884874  10.8725870
 114.3985844 103.4731579  87.1291884 115.3448296 103.6128235  87.0925888
 114.1300583 103.4107113  86.2125477 114.3817234 132.3037720  83.2914551
 115.0336075 132.1246338  83.9690980 114.0432930 133.1724739  83.5083445
 111.7087555  88.9180660  21.0520077 111.4796257  89.0038490  20.1266050
 111.0764790  89.4736862  21.5078020  19.0282565  89.3206310  18.3703935
  19.7651034  89.9284458  18.4325910  18.3592539  89.6958733  18.9429832
  95.2816772  67.3109770  95.4040667  96.1297512  67.1547937  94.9886080
  94.7278786  66.5940523  95.0949379 107.1906853 113.0300999  82.0256575
 107.8253651 113.6495590  82.3857697 107.6855850 112.5304222  81.3763317
  92.5505447 107.4676609  28.6110306  91.7418194 106.9977474  28.8144565
  92.8108311 107.1356297  27.7518225  84.2325783 134.6034241  45.9183884
  83.3163071 134.4800854  45.6704855  84.4280624 135.5072021  45.6709957
  11.1939555  47.7415085  22.8050566  10.7948142  48.3565712  23.4203696
  11.4425498  48.2809830  22.0544600 107.5431633 106.0810089  15.8426535
 107.3882198 105.6786442  16.6972446 107.1365070 105.4805279  15.2179289
  79.7985411 114.4913006   4.0891516  80.2386093 115.3406048   4.0537739
  79.1504049 114.5862675   4.7870982  80.6674194 106.8577957  26.7359734
  80.0400829 107.4805927  26.3688231  80.2844429 106.5978432  27.5738192
 106.1256790 119.3596840  29.4581127 105.9000206 120.2547550  29.2048073
 105.4332352 118.8207340  29.0756369  97.6101208  82.7877235 108.4184995
  98.2361794  82.9490757 109.1243614  97.3679066  81.8671417 108.5189679
 107.4147606 114.7815800  30.7229853 108.0553532 114.1256142  30.4480791
 107.9379654 115.5570698  30.9257293  62.6574898  70.7127523  15.7135963
  63.5637379  70.5036068  15.4873037  62.1403074  70.0295973  15.2869201
 116.6786098  80.9385109  21.3342810 115.7790565  80.9479618  21.6613269
 117.0713520  81.7354393  21.6905069 118.0426788  87.5308514  95.4798444
 118.6783695  87.9048538  96.0899790 117.2465420  88.0436611  95.6192287
  90.8457756 103.0549908  18.6807501  91.7244530 102.9681015  18.3111489
  90.3487873 102.3372269  18.2882619  76.0055733 115.7353401  23.7011433
  76.4020491 115.1092625  23.0952907  75.4860640 116.3133144  23.1423116
 101.1748123 124.7187519  22.0214009 100.5084610 125.3194141  21.6876125
 100.7220078 123.8792419  22.1015120  93.7608910  79.3215179  21.3351822
  92.9358768  79.1270065  20.8904886  94.0660763  78.4728050  21.6557765
 114.6046829  84.5155239  28.1275201 114.3571281  84.6145916  27.2082067
 114.6420670  85.4111099  28.4633350 104.6446800  95.5361462  18.1304395
 104.9563789  96.4409924  18.1482613 105.2903652  95.0502396  18.6434782
   2.0408183 110.5615330  14.1842186   1.9837790 111.2160206  13.4880722
   2.4510222 109.8037148  13.7674677   7.3148661 115.2806377  51.3225031
   6.5875369 114.7016335  51.5505075   7.8408175 115.3302383  52.1207190
  76.3193798 136.8406391  24.8042035  76.9687939 137.1544266  24.1748953
  75.9728050 136.0395050  24.4113922 100.3837299  79.5065546   4.7496894
 100.6171703  78.9493847   4.0071923 101.0347366  80.2081680   4.7366470
  97.9153442  88.7127018  46.1329985  97.4839878  89.3577576  45.5725908
  98.5659218  88.2992935  45.5654812  95.8956051 117.8807449  20.0739837
  95.8662796 117.0571232  19.5871401  96.5076733 118.4280968  19.5820379
  85.8924103 111.6663361 102.3443016  86.6599178 111.6676903 102.9162916
  85.2802086 111.0635948 102.7663704 114.9766350  80.4443836  30.8036470
 114.6407795  80.9158039  30.0412846 115.8776951  80.7531834  30.8983612
   4.5245486 108.5101223  19.1789103   4.5344859 109.4033146  18.8348997
   4.0816432 107.9978275  18.5024333 106.6449833  95.3061867 100.0145348
 107.5410938  94.9710751 100.0449022 106.3971043  95.2439022  99.0920874
   6.5889388  99.6680737  11.5507579   6.9060259  99.7771072  10.6542110
   5.6432276  99.8020935  11.4882946 122.2952843  50.7417488  15.9138286
 121.9583988  49.8689175  15.7115901 121.8700886  51.3160849  15.2769804
  64.8581362 139.1609478  91.3324019  63.9898348 139.4648838  91.0680124
  65.0653410 139.6765614  92.1117874  50.0309944  66.9340563  38.4127831
  49.2968178  66.3314819  38.2939482  49.9796724  67.5251818  37.6616740
 103.9678097   2.0258599  15.9283853 103.6837578   2.7207165  16.5222907
 104.6823978   2.4173718  15.4260767  85.6598377  81.5778255  14.1499102
  85.7291031  81.3376808  13.2259190  86.5629196  81.7371273  14.4243276
  98.1633854 116.7658997 106.4312368  98.5623837 116.8303680 105.5635517
  97.5656986 116.0211563 106.3652834  67.9350042  90.8522415  85.5528983
  68.4073162  90.6123161  84.7556599  67.0211315  90.9241581  85.2774152
  82.4890423 116.8682957  62.8884467  81.8194580 116.8438816  62.2048625
  82.5311565 117.7881908  63.1497201 113.6869431  80.3459072 104.6672609
 114.5841026  80.2963161 104.3372884 113.7334442  80.9655666 105.3953328
   2.4825030  89.3824005 107.0614582   2.0948725  89.9693775 106.4122807
   1.9472342  89.5053673 107.8454166  21.7711573 138.6483669  22.7082491
  22.7050238 138.6050034  22.9137635  21.7282801 139.1481209  21.8929958
  79.4159079  74.2924690  13.1211925  79.0591717  74.2362833  12.2347307
  79.1778994  75.1701498  13.4199679 112.1052837 118.3894253  20.6208038
 112.0801830 119.3462944  20.6206799 112.8573704 118.1694794  20.0710630
 122.7995872 126.6398144 102.2838559 122.8611565 126.7405701 101.3339671
 122.4536514 125.7561398 102.4090555 117.0062256 101.1882782  28.2928586
 116.2495995 101.0651112  27.7196407 116.6798210 100.9803677  29.1683364
  12.9027396 107.7181911  34.0337372  12.1281844 108.2772446  33.9725065
  13.4162837 107.9343605  33.2554221 102.9358101  91.0865307 107.6991081
 102.9034042  91.9517517 108.1072521 103.2879925  90.5134869 108.3801556
 123.9154816  77.7904606  14.2615930 123.8004971  77.1595526  14.9722043
 124.7359943  78.2377243  14.4688264  79.5417976  82.4869919  96.2707901
  79.3608427  82.9703140  97.0769405  79.2553377  81.5930653  96.4580536
 122.2995663 105.6037235  18.1522313 121.8531227 105.0222301  18.7676851
 121.7181206 106.3598824  18.0723802  19.7651225  99.5483589  82.6252556
  19.5204573 100.1596165  83.3200455  19.7344237  98.6872292  83.0420780
 121.8329239  73.8685131  88.7115955 121.7810917  72.9328537  88.5164452
 122.5444984  73.9414501  89.3476582  96.5778542  60.0001669  85.6468678
  96.1114788  60.0881100  86.4781284  96.1993313  59.2201662  85.2412224
  89.6501160  98.6007500  67.5717688  90.1787758  99.3408298  67.2733784
  88.8271618  98.6846542  67.0901775  95.7253933 108.1585884 101.6527081
  95.9515858 107.7988148 102.5103951  96.3508892 108.8707447 101.5191746
 113.3630562  94.7684956   1.5298024 113.1165123  95.5011749   0.9653322
 112.9360104  94.0080357   1.1353914  81.9955158  54.2628527   6.7652837
  81.4142323  53.6202431   7.1719590  82.8753376  53.9851427   7.0202867
  70.3696394  82.0795441 100.7027721  70.2606153  82.7849865 100.0650406
  71.0896444  81.5525436 100.3562069  90.6713390  58.0738592  92.5470448
  90.3574371  57.6993752  93.3701229  90.7325840  57.3266649  91.9519138
  93.9937496  88.6527157   1.3264886  94.8830605  88.9325333   1.5434209
  93.6234951  88.3635712   2.1604768  54.2569399 106.1197948  90.9345627
  53.9082575 105.7016182  90.1473045  55.1613712 105.8111572  90.9891415
 101.8857002  81.6972542   4.2073861 102.6581860  81.1344719   4.1547052
 102.2315407  82.5864983   4.1308061 116.3298321  30.3476310  24.1468946
 116.6249943  31.2106419  23.8565198 115.8435154  30.5196071  24.9532167
  99.3277550  81.9049168   0.8743707  98.5291481  81.3883018   0.7668153
  99.9409199  81.3107395   1.3070527   8.7075263  98.2090569  85.5910492
   8.7717944  97.9267025  86.5034008   8.2188731  97.5093365  85.1576424
  95.6257057  92.6342964  88.3014679  95.3992271  92.3121929  89.1739273
  94.8122597  92.5645733  87.8017902  71.7633677  80.0775146   9.2963544
  72.0178747  80.3004360   8.4009401  71.3725281  80.8803749   9.6411840
  94.8764801  96.0617161  20.3616372  95.6089592  96.5277672  20.7647363
  95.2278900  95.1954556  20.1558820  71.3918638  82.4718380  94.1207600
  71.0934162  81.8544388  94.7885799  72.1319294  82.9238129  94.5260525
 116.7107582 109.6474934  91.8313122 117.2139454 109.9763584  91.0864067
 115.9852409 110.2652931  91.9217491 105.7212830  74.1865826  87.5775528
 105.0539684  73.5306072  87.3760319 105.6717110  74.8093176  86.8523216
 104.3784809  69.6734190  20.8766309 105.2076340  69.2067909  20.9814874
 103.7275887  69.0986824  21.2794343  79.1410160  82.5362206  22.0709363
  78.7451649  83.3353233  21.7231313  80.0104046  82.5061798  21.6715757
 120.1690483 104.2746544  50.8636618 120.9061527 104.6646500  51.3335705
 120.5321980 103.4860134  50.4606676  70.9871531  88.9115524  33.8584176
  71.7413807  88.3338070  33.7419072  70.5404806  88.5691166  34.6326581
  79.9548912  87.5669575  82.3352528  80.6813431  87.0960236  81.9269371
  80.3629208  88.3326626  82.7395439  16.1806326  94.8013973  82.7109432
  15.9658175  95.7340717  82.7251434  17.0963889  94.7623062  82.9868031
  31.8486434  93.3735561  82.7116585  31.4627772  94.2495155  82.7054882
  31.6359168  93.0242252  83.5770798 106.8080807  74.4262218  62.1677113
 106.0459805  74.0433407  61.7331600 107.5478172  74.1857767  61.6098404
 103.2326221 110.4017258  24.6871606 103.1216812 110.0904751  25.5855218
 102.3402309 110.4902077  24.3524209   1.0665255  59.0518427   3.3171216
   0.3311663  59.1580915   2.7136365   0.7727557  58.3847332   3.9375249
  52.2319412  66.7823076  11.9764940  52.7185249  66.6439056  11.1638967
  51.5661430  66.0945988  11.9770757 117.9424858 111.4167213   8.6501352
 118.2246590 112.0327377   7.9740182 118.3973694 111.7048168   9.4415418
 123.9941978  92.6311493   3.3978216 124.5137310  91.8790913   3.6819307
 123.5396957  92.3254681   2.6128236  78.3256102  98.8079453  18.4226648
  78.9574814  98.0951500  18.3283559  78.6951256  99.3666744  19.1064111
  89.0762234  81.7801762   4.3826906  89.7030640  82.4907017   4.2468778
  88.8962936  81.4481258   3.5031453  87.0961857 113.5435200  91.2077713
  87.4718380 112.6679802  91.3002872  87.3452187 113.9972973  92.0129395
 122.0525551  79.6424818  11.2252179 122.9391193  79.3654680  10.9938947
 121.8716526  80.3788948  10.6411020  71.7976284 107.0280647  23.8057653
  72.4452543 107.7285671  23.7275831  72.3124933 106.2216282  23.7774984
   3.0739718  88.3934498  78.2002831   2.3873358  89.0483093  78.0741262
   2.6104193  87.6184654  78.5177135 116.4181995  77.4820518  56.0154200
 116.6337490  76.8340349  56.6861248 117.1421432  77.4307013  55.3913260
  59.3962288 109.7823524 108.1271076  58.8841677 110.0253201 107.3557472
  60.0389099 110.4857063 108.2192326 100.9060383  70.8085346  15.8853380
 100.8512783  69.8819256  15.6516115 100.0517178  71.0101461  16.2670842
 103.7645435 108.5986328  78.2834291 104.4681263 108.3338833  78.8759708
 104.1011906 108.4024334  77.4091244 122.4330235 110.3523159  30.4293863
 123.3164310 110.5821133  30.7175294 121.8566990 110.7582951  31.0768930
  50.5135679  81.8328094  81.8107986  50.1169634  81.9776344  80.9517479
  50.7190657  82.7111912  82.1308804  99.0600777  91.9478512 100.6435585
  99.8525333  91.8759632 101.1756039  99.3193626  91.6205406  99.7822380
  93.2280064  74.5879221  66.9955444  93.8617229  74.5071936  67.7083683
  92.4168205  74.8583984  67.4257135 100.8555698  55.7761526 108.7576103
 100.8944702  55.3615713 107.8957272  99.9526691  55.6437635 109.0465450
 112.0430374  78.8753128  87.7225113 111.4976025  78.2624960  88.2156563
 112.6827717  79.1928673  88.3597946  83.6050987 112.4092770  23.0451623
  83.7534142 113.1712723  22.4851648  84.4519424 112.2498131  23.4618703
 114.9280262  81.5319061  95.7299137 114.3795300  81.7229939  94.9690819
 114.4426537  81.8928051  96.4718056 100.1707554  89.4832134  97.3722363
 100.9655952  89.7491264  96.9099045 100.4381275  89.4155216  98.2888412
 121.6352749  91.5818691  14.6005479 122.5257683  91.5986156  14.2498628
 121.2704468  90.7538128  14.2883626 101.3286018  56.5858889 105.7134914
 101.1420631  56.3298798 104.8102188 101.5641880  57.5118732 105.6562042
 102.1333122  89.2002201  84.9357128 101.2771130  89.3833065  84.5488834
 102.7509975  89.3087196  84.2125797 103.7984943  93.9506245 106.6969872
 103.2657909  94.7452259 106.6644192 103.9543438  93.7289524 105.7789326
  95.0090027 100.0303745  93.6372375  94.3496609  99.4538689  93.2510471
  94.6824265 100.9142685  93.4689713 123.1939983  72.0163345   8.0720464
 122.5302505  72.4735975   7.5557271 123.9909267  72.0769882   7.5453130
  92.8967667 100.1410007   1.4036123  93.0835724 100.2618408   2.3345987
  93.2310963  99.2666435   1.2037603  54.6343517 101.7637634  95.4854774
  55.0765228 102.0458984  94.6847820  54.4772863 102.5738907  95.9705162
 122.9274750 100.8479214  95.8474445 121.9729424 100.7766533  95.8527184
 123.2103729 100.2261353  95.1769257  56.9033051 110.2433300  81.6883469
  56.5432262 109.9189377  80.8629131  56.5717077 109.6357727  82.3495102
  94.9540520 103.5070419 101.7117596  95.8248997 103.8049412 101.4488411
  94.7839928 103.9623737 102.5363731 109.2908192  87.6094627  94.0656281
 110.1015759  87.1009541  94.0476418 109.3857956  88.1849098  94.8246193
  97.1428585  96.1405849 102.7847958  96.9643593  95.6860065 101.9615555
  96.8277836  97.0326138 102.6390362   9.4764548  61.8459606 100.5660629
   8.8666277  61.2772417 101.0360527   9.9902468  61.2487936 100.0223351
  88.5043621  79.3674421 109.3172169  88.1864834  78.4721994 109.2000484
  89.3644524  79.3731117 108.8971710  72.7007389  85.8644867   7.3452703
  71.9569302  85.6150055   6.7968694  73.4440660  85.3925323   6.9698278
  27.4453955  68.4595203  61.2194300  27.5505572  67.5139141  61.1145449
  26.6349726  68.6636114  60.7527494 111.5056419  53.4300184  21.8588392
 111.0098839  52.8492403  21.2816469 110.8709526  53.7118483  22.5175992
 102.1573544  75.5807972  89.2976093 101.7163372  75.0932932  88.6018562
 101.7360783  76.4402866  89.2919350  70.3317738  82.8390789  69.7776794
  71.1647081  83.2998085  69.8786020  70.3929186  82.0987129  70.3812838
  74.5093393  84.3349457  74.9844694  74.1934586  84.3530369  75.8878660
  75.4588270  84.2438602  75.0645161 108.5809040  71.9345617  76.1750984
 108.3339119  71.8749857  75.2522326 108.4111977  72.8468275  76.4100456
  73.4464502  61.1650133  89.3149471  74.0302706  60.6866074  89.9036026
  73.8374805  61.0549498  88.4482193  72.6934052  79.3507099   4.6843473
  72.7505779  80.0306702   5.3556291  71.7928505  79.0316105   4.7427408
 100.9827232  81.1576748  72.7863598 100.3207302  80.7300758  73.3296394
 101.8176746  80.8573341  73.1453753 122.2629738  89.7846889 102.1739578
 122.6119518  90.3814793 101.5119171 121.4090157  89.5203018 101.8317699
  85.8761787  45.1872396 106.8301392  86.3860989  44.7815895 107.5313187
  86.5170670  45.3707266 106.1432362  69.9787664  88.6810017  86.1135006
  69.4013357  89.3228245  86.5268612  70.7595682  88.6697292  86.6670799
 104.1901588  87.7142620  82.0625973 103.5210991  87.4052715  82.6734352
 105.0197506  87.5341606  82.5048351 124.7593403  89.9319363  94.7951031
 124.0050030  90.1994419  94.2700863 124.3790531  89.5932579  95.6056023
 104.6605301  72.9173040  10.6443826 104.4130898  72.5872946  11.5081540
 105.5824757  73.1581783  10.7350961  74.3554878  49.9593019  29.4586793
  74.3730736  49.0598011  29.7855226  73.9231253  49.8962641  28.6070195
 113.7256432  72.9810810  72.1773815 113.3069229  73.7875414  72.4782801
 113.1291771  72.2846413  72.4520350  16.9744235  76.4131355  17.9602281
  17.2175532  76.7337799  18.8287298  17.7141028  76.6512346  17.4012796
  24.7926646 103.5196877  56.9450426  24.1053897 103.0519676  56.4705706
  25.4336768 102.8439808  57.1658230  92.2669601 123.0000591  74.4693089
  92.9326725 122.7327347  73.8355875  92.1041107 122.2144794  74.9913979
 118.2097530  75.8579302  22.3131028 118.7769127  76.5324593  21.9395200
 118.0881596  75.2272272  21.6034166 111.4041042  79.4692516  78.2891750
 111.3203621  78.5165167  78.2502031 110.5023384  79.7898340  78.2721996
  95.5694199 111.6733360  87.4545193  95.2830601 110.8185101  87.1328163
  96.3792133 111.4908791  87.9311562  81.8826103  86.1604691  89.0666294
  81.1381245  86.5379715  89.5351028  81.6572666  86.2570095  88.1413555
 103.7564278  56.9074011 103.3352757 103.8627720  57.2905684 104.2059708
 103.6833858  57.6607800 102.7493477  11.4751368  58.1417418  18.1395570
  11.2719470  58.5392523  17.2928373  11.8342047  57.2819138  17.9204885
   6.0097819 100.4915619  79.5307732   5.3811484 100.5069637  78.8090944
   6.6674548  99.8501492  79.2618895 121.7473221 102.4170780 102.3536968
 122.4894333 102.5769520 102.9367447 121.4605999 101.5295219 102.5688076
 113.7034035  86.8025780  77.2729874 113.5367012  86.5607643  76.3619614
 114.3054295  87.5446892  77.2174931 100.3283978  90.9663296   4.5123807
 100.1444340  91.8773842   4.2835275  99.6626377  90.4626274   4.0441076
 120.0020504  80.9765148  83.1154537 119.2133141  81.1111450  83.6408043
 120.7197475  81.2509823  83.6862469  89.1432285  96.8820000  22.6032773
  90.0040054  96.5179825  22.3964158  88.8555527  96.3933182  23.3744279
 123.6185455 101.1788177  11.9843427 124.2096233 101.2236309  12.7359048
 122.7417755 101.1877918  12.3683111  58.1470490  91.4608669  89.3131542
  58.5769224  90.6076622  89.3721008  58.0578756  91.7474365  90.2220917
 119.1201305  81.8224335  91.4912701 118.4796810  81.1131954  91.4361286
 118.7115669  82.4699497  92.0657539  97.6018238  85.7578564  55.4242849
  97.9269314  85.9479332  56.3042879  97.6512432  84.8047161  55.3513813
 118.3458805  91.5634632  80.2443790 118.9404011  91.9588566  79.6068478
 118.3260727  90.6355953  80.0100517  88.7868118  94.3263626  66.4382362
  88.7090683  95.0113106  65.7741356  87.8851032  94.1487885  66.7058659
 118.7488461  68.8426208  77.7581644 118.9754105  69.3871593  77.0042515
 119.2337608  69.2292786  78.4872627  69.5400429  91.4675140   1.3705198
  68.8670015  90.7869053   1.3754026  69.4871664  91.8503666   0.4948083
 112.8723621  95.7752800  60.0653791 113.4511471  96.5171814  60.2409029
 112.4574947  95.5905628  60.9079933 110.1615524  80.4975319  72.6612663
 109.3670750  80.9629726  72.9228163 110.8364010  80.8217525  73.2576609
 123.5239697  95.3995609 103.2061195 123.9255619  94.5778275 102.9237652
 123.0455685  95.1709175 104.0030384 120.7863045 106.1097527   3.3521501
 121.2944603 105.5193710   3.9084379 120.8686733 105.7404900   2.4728910
  95.9532261  87.3539543  84.8766899  96.5370750  88.1084633  84.7987747
  96.1365604  86.8278599  84.0983200 100.6356907  88.2224655 105.9605694
 100.4498482  89.0237427 105.4710293 101.3618183  88.4576702 106.5382004
  82.8766918  65.8693123  87.1983147  83.5891628  65.2350855  87.1185303
  82.2485828  65.4511023  87.7872372 103.8029099  44.8946047   9.9405042
 104.0697193  45.7124615  10.3602067 104.6013641  44.3673468   9.9141065
  77.7203560 145.1688671  92.0239162  77.2230053 145.6723595  92.6684093
  78.5430908 145.6486511  91.9282722  93.1211758  82.4337006  65.8941650
  92.2457600  82.1857834  66.1915112  93.2356834  81.9635868  65.0682688
  21.1511927  73.0318594 109.4150925  22.0855456  72.8260183 109.4440365
  20.9758120  73.4669018 110.2494907 113.5420322 109.0092468  59.0480471
 112.7047443 109.3180180  59.3942308 114.1431332 109.7411346  59.1868210
 112.4934387  81.6567707 101.3366604 112.6339436  81.4089870 102.2504997
 112.3917103  80.8240986 100.8756447   6.3052779  64.5040512   4.0769426
   5.6006747  65.1501036   4.0280858   6.9242888  64.8719788   4.7075692
 119.6587944  72.0680761 109.4178486 118.7378311  72.2836542 109.5647240
 119.9812508  72.7685452 108.8507462 107.3342323  75.3325367  76.2712955
 106.8526268  75.2811098  77.0969057 106.7270947  74.9852896  75.6178141
 124.7512913 101.8043804  19.8056070 123.8814259 101.4216423  19.6912710
 124.7356415 102.5985241  19.2714540  59.9868584  67.4841166  88.8478088
  60.2620268  66.6380072  89.2008114  59.3030167  67.7827883  89.4472980
 120.2484798 104.2177296 104.2812157 120.0648880 103.6341572 105.0174046
 120.7324028 103.6740685 103.6595345  68.1226683  76.2591457 104.5511436
  68.5992908  76.8906689 104.0124035  68.2064724  76.5943813 105.4438019
  71.2028646 114.8828888  15.9230272  70.6200504 114.2429638  15.5143014
  70.8684301 114.9759865  16.8150560   1.9746047  73.2600737  66.1146688
   2.8691226  73.4816504  65.8558941   1.5855628  72.8774977  65.3282070
 113.1516933  62.4322987  77.9474545 112.8188038  62.6471615  77.0761061
 112.4231148  61.9858313  78.3788157  76.7059898  61.3588524  12.9233304
  77.6445770  61.4007950  13.1064454  76.2970066  61.2817812  13.7853185
 116.5728378  72.4112177   1.9873563 115.8758831  72.6213837   1.3658181
 116.8593884  73.2609177   2.3222200  76.0145998  87.2606659  71.0929298
  76.8164015  87.2826004  70.5705690  75.7564116  88.1788063  71.1740685
  78.8220644  68.0885792 109.7722912  78.1570625  68.6121511 109.3252182
  78.4074211  67.2358370 109.9032021 117.3881912  80.0795174  63.7413692
 116.7737961  79.4472313  63.3685827 117.3455524  80.8316803  63.1508827
  95.4467678  89.6235657 108.8950157  96.1032867  89.6746540 109.5897102
  94.8395348  88.9444542 109.1887951  96.5670109  59.2726517 103.6071014
  96.4226723  58.4377623 103.1617260  95.9787560  59.2463827 104.3617535
 117.1249676  74.9373865  24.8076383 117.6271915  75.2859592  24.0710965
 117.6774788  74.2433453  25.1671830 109.6758652  95.4867744  43.3551550
 109.3615150  95.9096432  42.5560284 110.6163025  95.6648159  43.3663225
  99.7513199  82.4709892  75.7406855  99.7319031  82.2724247  74.8045111
  98.8306808  82.4811554  76.0025167 108.5172176  80.4110241  79.2137051
 108.3717632  81.3348961  79.0099192 107.6639938  80.0938416  79.5097446
 113.4867954  65.7038116  76.5245152 114.1211700  65.3357029  75.9094572
 112.9011917  64.9749231  76.7295027 104.4972515 112.1781254  96.8699551
 105.2069569 112.7948570  96.6905117 103.7015438 112.7079773  96.8215275
  66.3419437  95.8968830  60.7688427  65.5689812  96.3080406  60.3819180
  65.9937668  95.1680088  61.2824011   5.2750426 123.3089733  79.0257502
   6.0211592 122.7864933  79.3199539   4.8339682 122.7551651  78.3815670
  89.9754524 135.6149197  90.1089382  90.1296711 135.3380108  89.2057323
  90.8511829 135.7512283  90.4705143  97.8822899 122.4010468  90.0489330
  98.5442638 122.1297264  90.6848621  97.5264359 121.5802002  89.7086239
  96.4308929  77.1082497 106.2317848  96.9927883  77.4559402 105.5392456
  96.9571114  76.4246750 106.6465855  15.1390963  80.9671783  82.1054935
  16.0781794  80.9829330  82.2901726  14.7425967  80.6304741  82.9090214
 119.8926067  92.8227520  98.5713196 120.4942036  93.2531357  99.1788483
 119.0492535  93.2474518  98.7282085 113.3368015  72.5037050  99.1911221
 112.5909328  72.2742748  99.7454357 113.7340832  73.2589579  99.6247005
 113.4016609  87.4682140  56.4814949 112.8284550  86.8387508  56.0439444
 113.3054733  87.2721958  57.4134588  92.2645378 119.8741627  94.2846870
  91.7579651 119.5288467  93.5495853  92.6210213 119.0974331  94.7157764
   2.9945212 114.2143345  72.6729298   2.1310645 114.0913963  73.0673409
   3.3151942 115.0339890  73.0491781  94.6285725  65.9229469  44.9261228
  94.1129303  65.1692915  44.6391431  94.2838478  66.1324501  45.7941762
 121.1886501  82.6152325  81.0160446 120.7258606  82.2010994  81.7444324
 122.1149826  82.4639988  81.2038612 110.4196835  85.4903889  21.0075799
 110.4256535  86.1429596  21.7078248 111.1909580  85.6980419  20.4800931
  86.0949993  71.3665915  22.4942342  85.9753609  72.3112059  22.5923387
  86.9189644  71.1814451  22.9448167  85.3785324  94.2778206   2.0479814
  85.0169659  93.4994125   1.6242067  85.6091022  93.9852238   2.9297201
  88.3565903  73.6520195  97.7357101  87.6385117  73.1715679  97.3236942
  89.0451336  72.9978609  97.8549385  90.8069515  78.4632158  97.8007126
  91.6117477  78.6968327  98.2632732  91.0088825  77.6303196  97.3744011
 103.8418484  82.0874691  86.4988804 103.1532955  81.6491222  86.9988632
 104.1718102  82.7651501  87.0888805   9.3353015  66.0808182   1.3706151
  10.1987773  65.8532572   1.7153875   9.1074687  66.8973160   1.8151990
 105.6321335  85.8834076  90.6187057 105.6918240  86.4488697  89.8486900
 106.3421154  86.1790466  91.1885834 106.2136269 125.0611210  93.2269859
 105.4517937 125.6201363  93.0742073 106.6130447 124.9592495  92.3630810
 114.0010738  34.2670465 109.6025562 114.1200256  34.6732569 108.7440300
 114.6688271  34.6739268 110.1546288  85.6207180  60.8995867  81.9822311
  85.0084019  61.5384579  81.6173458  85.8475494  61.2500811  82.8435802
  95.6379986  40.4541588   3.3023969  95.1569843  40.9511614   3.9641038
  94.9721241  40.1981544   2.6641885  32.4338275 121.7432117  84.4665813
  33.0371600 122.4011230  84.8120785  31.7410880 121.6845036  85.1245308
  78.0938101  87.7706528   5.7004777  78.0618572  87.3907948   4.8224584
  78.0613279  87.0164871   6.2890474  67.1686840 123.9041710  72.5613689
  66.2250519 123.8845539  72.4019670  67.2580290 124.3181419  73.4197855
  63.5073853  42.5846720  39.4855539  63.5985470  43.3353329  40.0724355
  62.6416731  42.2283745  39.6851198  92.8038216 100.0294876   4.3387452
  92.8804111 100.1506519   5.2851526  92.4299622  99.1539955   4.2388479
 122.8676796  91.0819721  69.5588064 122.4563313  91.4665318  68.7847662
 123.1555271  91.8343544  70.0758123  16.0010653  41.9848299  91.5375996
  16.2546759  42.7043533  90.9595013  16.7520457  41.3914442  91.5250683
 105.1325989  96.6810608   4.1834108 105.8959389  97.1525478   3.8498727
 104.4382954  96.8729782   3.5530607 101.6994762  70.2131176  81.4466476
 101.2777042  70.3158188  82.2997475 101.4233875  69.3474483  81.1456203
  10.5207759  95.6219578 108.8598537  10.7059699  96.1173916 109.6576500
  11.2161475  95.8761978 108.2531834  95.6360435  82.8575611  67.1368074
  94.7566414  82.6566410  66.8166161  96.2198830  82.5437164  66.4462566
  83.2626247  67.7107143 101.1644554  83.0471706  68.4544754 100.6017590
  82.8361034  67.9095316 101.9979954 110.1723766  71.6370773  83.8102245
 111.0076523  71.9528675  83.4654999 109.5218468  72.2413445  83.4525776
 108.5234261 101.7533398  77.6219845 108.0170727 101.5568256  76.8338108
 107.9606438 102.3390675  78.1283760  68.8369703  82.5333118  77.4508715
  69.4987965  83.0509949  77.9093695  68.7928247  82.9210186  76.5768194
 103.8961601  94.7619534   5.8559934 104.5155430  94.0646076   6.0711709
 104.2597103  95.1713562   5.0708429 103.6357498  61.2429905   2.9687349
 102.7465916  60.9332752   3.1411210 103.8031673  61.8860626   3.6576883
  88.6234093  79.2945623  90.4481220  88.4200954  78.6783838  89.7444057
  87.7762890  79.4870949  90.8500671  81.9747448  85.6756115   3.7741319
  81.4478207  86.2075138   3.1777517  82.8157043  86.1303806   3.8211385
  82.7507782 135.4706383 103.2557678  82.6665020 136.3841057 102.9824352
  83.6398697 135.4060078 103.6044216  65.0615072  80.9855366  97.1250916
  64.3885565  80.7049179  96.5049171  65.7704592  81.3184643  96.5748405
  82.5188446 106.5099335  99.6490669  83.3783245 106.9182110  99.7531128
  81.9015121 107.1649742  99.9747372 114.8048306  87.6601887   0.3029386
 114.7172165  87.9228306   1.2192193 114.3676662  88.3556652  -0.1884230
 114.9825287  71.5598679  62.7394676 115.3759193  70.9915781  62.0772552
 115.4502583  72.3902941  62.6508856 110.4621410  79.5039892  46.6504613
 110.6637669  78.8508034  47.3204843 109.7010517  79.1489458  46.1912099
 121.9572163  77.9317379  25.9385530 121.4422989  78.7357950  25.8708612
 122.4611282  77.9008436  25.1253167  65.4178810  46.2226534   6.8050615
  65.6069040  46.1433029   7.7400533  66.0357428  46.8828249   6.4909784
 104.6528912  97.7340126  97.5271702 105.3928566  97.4567890  96.9869518
 105.0539207  98.1921482  98.2657623  81.8054104  75.6089449 101.4643669
  82.4953175  75.6029177 100.8008671  81.0533810  76.0052586 101.0243416
  99.5880795 106.8124771  93.5724640  99.4371414 107.2639847  94.4028854
 100.3095913 107.2928238  93.1663609 103.9726448  78.1085587  91.6382408
 104.1280842  77.6239014  90.8275795 103.7596035  78.9960051  91.3496399
  10.9518843  91.0027885  85.1279831  11.2490016  90.7700157  84.2483425
  10.8858901  90.1658535  85.5877972  93.4780884 113.0670929  70.2483845
  93.8797379 112.2017860  70.3268242  92.6296043 112.9775333  70.6823111
 106.3179779 100.3547287  69.1202688 107.0291042  99.7494888  68.9099789
 105.9867954 100.0507736  69.9653482  94.7878838  81.8420315  12.5572721
  94.1556263  82.2882557  13.1206170  95.5743027  81.7612076  13.0969468
 120.3346252 102.0491219  94.3724728 120.9447670 102.7337456  94.6468163
 119.7395134 102.4881554  93.7647533  88.4593201  48.1391382  92.2224426
  88.7333298  48.9909840  92.5623131  89.1241741  47.5288630  92.5414276
   6.1055403  94.4056416 107.0726395   5.5075293  93.8137341 107.5290012
   5.9408980  95.2625942 107.4660110 107.4005413  96.6727352  75.0889874
 107.5627804  96.4274406  74.1780853 106.6552258  96.1333370  75.3531742
  55.0007439  78.5971832  91.5103722  54.8770809  78.8016319  92.4372673
  54.2853212  77.9970789  91.2999439 101.2028885  89.6805477  59.8036289
 101.7568398  90.2541065  60.3331375 100.3735733  90.1523781  59.7271729
  70.1619244  62.0039845 102.3123455  70.7676125  61.9454241 101.5734673
  70.7170296  62.2250652 103.0601501 122.8086472  65.2430010  54.9620533
 122.8242970  64.2937088  54.8402739 121.9933414  65.4104233  55.4347754
  73.9650822  83.3513451  72.5010490  74.3256187  84.1784668  72.1814823
  74.2077732  83.3259869  73.4266281 103.1949520  70.1985884  32.9924154
 103.8905525  69.5447636  32.9224920 103.1415558  70.5858707  32.1186924
 120.2819538  58.5868502  61.7326689 119.4064140  58.5373926  61.3489866
 120.8536530  58.1872749  61.0771227 112.7896881  75.2602434  73.3225012
 112.7686691  75.6889915  74.1780472 112.4115562  75.9034634  72.7229023
 100.3466511  87.8834534  71.4259386  99.7745895  87.6279259  70.7022762
 101.2277317  87.6620579  71.1244297  98.6644459  66.0353231  69.3527269
  98.5926247  66.8535328  68.8611841  99.3794441  65.5621910  68.9271069
  73.7483931  53.0729389 107.4467850  74.6996212  53.0975151 107.5506592
  73.4740257  53.9856005 107.5362396  71.9746876 106.7762947  74.6242046
  72.5860786 106.6044140  73.9080429  71.3751841 107.4353981  74.2743397
 100.8521652  64.6129656  61.2519360 100.1445580  65.2368069  61.4142466
 100.4314518  63.7547493  61.3038445   6.1025649  91.8147087  40.0364065
   7.0403987  91.6789913  40.1715708   5.9987860  92.7660370  40.0155544
  97.5779152  67.7289820  67.2656727  97.3707676  68.6404991  67.4717188
  96.9485950  67.4881220  66.5858364 121.3093185  39.0220213   8.7132779
 121.4152336  39.6430993   9.4338838 120.4364300  38.6512542   8.8429776
 103.6900806  69.3346119  98.7446594 103.0377388  69.0245199  98.1165600
 103.4763145  70.2584028  98.8756084 101.0483360  69.4622231  87.5025749
 101.8009472  69.0668106  87.0627308 100.7918835  68.8189030  88.1633282
  92.2741890  98.7161732  53.6563826  92.8091621  98.2781124  54.3182993
  91.7575932  98.0132484  53.2623434 103.2407093  73.7920856   1.8370668
 103.4968281  72.8924513   1.6338579 102.5901222  74.0122986   1.1703721
  70.1692104  76.6020489  81.8150806  71.0329485  76.8597031  81.4929008
  69.5820761  76.7546844  81.0746670 103.7729740  78.8070202  53.3190584
 104.5530701  79.3525028  53.4196997 103.1023884  79.4062185  52.9911804
  24.9071436  94.8320580  84.2092896  24.2412310  94.9924755  83.5406590
  24.7241622  93.9460278  84.5218372  97.2927189  85.4634666  97.4595642
  98.1420040  85.0223351  97.4784565  97.3407459  86.1059380  98.1674957
 105.8486366  74.2471504  78.4463263 106.0298920  73.3076334  78.4200907
 104.9066353  74.3138075  78.2900620 120.2366638  48.4319115  52.3256588
 120.6305599  48.2894659  53.1863499 119.4091129  48.8756180  52.5114536
  81.3690662  62.2676277  76.6297626  82.2123909  62.6236629  76.3499784
  81.0896778  62.8442764  77.3408508 116.2010860  64.9952793  91.5825939
 115.7923126  64.5441866  90.8439159 115.5970001  65.7075691  91.7922688
  71.5323353 123.5560226  42.9724828  71.1680222 123.2170391  42.1548120
  71.4559412 122.8276920  43.5888616 118.5363197  86.7881298  71.0447454
 118.5378075  85.8967686  70.6959057 118.2066727  86.6949940  71.9385529
   9.4269972  87.8441525  81.4720917   9.0144282  88.6122990  81.8670177
   9.6958476  87.3069477  82.2173214  97.5761604  71.6812229  87.1339703
  96.7201710  71.6984367  86.7059326  97.8065681  70.7529259  87.1714783
  84.3991375 138.0862141  58.2556248  83.9029789 137.9443169  57.4494505
  84.5840549 137.2053146  58.5812616  96.7925549  97.6438141  62.9260397
  97.2082901  97.7616405  62.0719290  96.2904167  96.8336391  62.8382730
  12.8402072 106.7825603  47.3442125  13.4232073 106.9422531  46.6020298
  11.9603186 106.8136120  46.9686174 112.1740246  54.8167419  89.7828197
 112.1316242  54.2323589  89.0258980 112.3084068  54.2326355  90.5291367
 102.2455406  78.4126997  60.7842827 102.8331852  79.0855408  60.4404879
 102.8244972  77.6896763  61.0257053  82.9567242  78.7985706  81.7504120
  82.6043701  77.9341125  81.9620419  83.8654995  78.7665224  82.0492935
  82.5788116 109.6564865  56.4002228  82.7700901 109.9639034  57.2863054
  81.7561245 110.0879288  56.1693954 112.0990753 126.4802551  89.5207882
 112.1300316 126.5172577  88.5648060 111.2523651 126.0795689  89.7176838
 103.5960293  69.5260477  67.7652121 103.5837173  69.1551638  68.6475515
 102.6727962  69.5998287  67.5235128   1.2418585  62.2719288  72.3455620
   1.0196429  63.1613445  72.6208735   2.1093970  62.3535395  71.9493961
 116.7961788  81.6007328  83.7828541 117.2610283  81.9751644  84.5311451
 115.8701992  81.7364311  83.9837933 107.9987240  75.8514261  98.0731297
 107.8761768  75.2374601  98.7971878 108.4523964  75.3421974  97.4014854
  74.8284864  66.0025120 105.0304890  75.5311871  66.5304947 104.6514416
  74.2633390  66.6369438 105.4713249   9.3024569  51.5766621   8.4404222
   9.3954020  50.8366203   9.0403596   8.8946276  52.2631598   8.9682809
  92.8770161 103.5361576  73.9674330  92.2715187 104.2664146  74.0952063
  93.6902905 103.9476871  73.6751032  78.1148815  75.0801754  93.9122486
  77.6996040  74.2677116  93.6229801  78.9902782  75.0524092  93.5260487
  73.3509588  61.7252445  82.4317265  72.6211882  61.7462492  81.8126774
  74.0512371  62.2082567  81.9929409 122.0026302  49.2934847  91.1957359
 121.0743618  49.0813494  91.2934780 122.4516010  48.4534979  91.2910271
  89.2111111  60.6068516 105.6770134  89.1473866  60.2176619 104.8048306
  88.3279419  60.5309916 106.0382462  76.6121960 118.4901142  67.6533318
  77.0791864 118.0601883  68.3697891  76.8028164 119.4211292  67.7677679
  71.1085653  31.8635631  88.6543465  71.8949652  31.8201017  88.1103611
  70.7993841  30.9588814  88.7011051 120.7266712  56.2175751  85.7358456
 120.1883984  56.9448471  86.0482025 120.2647972  55.4332638  86.0320854
 111.2286282  80.3012276  92.2728729 111.4435768  80.4013920  91.3455105
 112.0765591  80.3044224  92.7169800  10.0910597  86.9639683  45.2236176
   9.1464930  86.9392014  45.0706005  10.4774886  86.8252659  44.3589401
  80.2486324 116.0411644  93.7443447  79.7993946 116.1988163  92.9139423
  80.9288025 115.4022980  93.5311794   4.2807894  63.5225630   8.9124433
   3.8331633  63.0539179   8.2080022   3.6805087  63.4674788   9.6559850
  94.8123360  72.9384232  80.0998116  95.3197479  73.0372429  79.2942047
  94.3062878  73.7482977  80.1650047 104.9911785  90.1706028  97.7626133
 105.8651066  90.5610466  97.7561951 105.0669384  89.4235992  98.3563137
  84.1915989  53.9268494  64.7236919  84.8924351  54.5738029  64.8043776
  83.4262943  54.4350529  64.4548512   3.0650549  76.1388350  80.0492573
   3.2864791  75.4549408  80.6813145   2.1528178  75.9645748  79.8175669
  77.7516460  88.7303734  87.0885563  78.0317545  88.4214687  86.2269592
  77.5374460  87.9320240  87.5712395  98.6965370  91.6562557  52.7420187
  99.4582939  91.1703110  52.4260664  98.4839916  91.2488937  53.5817289
   3.7622195  69.5492744  94.1038513   4.5666438  69.5282364  93.5854912
   3.6214381  70.4775858  94.2899799 110.1830006 103.1961155  87.5734425
 109.4311047 103.7063789  87.8743172 110.2119446 102.4421501  88.1624508
  91.6032696  61.4554071  81.2851429  91.8767071  61.4440632  82.2023869
  91.8107605  62.3400879  80.9842777  16.9625598  65.2937174  83.4561920
  17.7659445  64.8018932  83.6262226  16.7669898  65.7275200  84.2867279
  73.5569763  66.2860632  90.2063084  74.4967556  66.3582182  90.0394440
  73.2647657  67.1897697  90.3252983 121.8626308  60.4969215 105.9617329
 122.0546913  60.7929611 106.8515110 122.7037525  60.1876831 105.6254005
  92.7620983  45.5736589 102.7472878  92.2701454  46.1503839 102.1628189
  92.8525639  46.0747290 103.5578251  90.8864594 100.2292347  88.5855961
  90.2186489 100.8368969  88.2677746  91.2465477  99.8327637  87.7922630
  97.6091194  85.6775379  63.7826490  97.3210239  86.5455914  63.5003185
  96.8541145  85.1110840  63.6234999  76.8867731  69.2147446  80.3736877
  76.3500023  68.6781406  80.9569263  77.4561644  68.5877228  79.9277401
  99.9021244 106.1781502  52.1186638 100.0025272 107.1235561  52.0074272
 100.5033207 105.7965374  51.4790058 103.7348938  67.1802616  83.0046177
 103.2307243  67.3474216  82.2083092 104.3939018  67.8742838  83.0209637
 117.0435905  51.5200090  81.2697220 117.0608425  51.8382311  80.3671265
 116.5393353  50.7074928  81.2276173  79.8551846  95.6903458 105.7144070
  79.8993587  94.9080849 105.1645470  78.9453506  95.9798431 105.6464005
  72.7790022  70.9122992  96.3285732  72.3350811  71.7559004  96.4152145
  72.5394773  70.6042624  95.4545212  20.6281882  64.4280910  61.7157650
  20.4253798  65.1141119  61.0797834  20.2466899  63.6340380  61.3413715
 106.8181133  67.4180937  49.7454405 107.0716095  67.7865648  50.5917311
 106.4503670  68.1581831  49.2624617  95.5044651 106.8736172  89.8520374
  95.2429104 106.6094780  90.7341099  96.4203358 106.6040993  89.7830009
  95.5319309  82.8476048  88.1801510  95.3401852  82.0692444  88.7032318
  95.3340054  82.5864983  87.2807693  22.5780802  88.0673695   9.8857347
  22.9435378  87.7713871   9.0520231  22.0365363  88.8222694   9.6553460
 106.8465996  63.1713963  72.7947187 107.3094273  63.8603497  73.2715464
 107.1672058  63.2453632  71.8958473 106.4965248 116.5256023  50.0432444
 106.3595867 115.5817127  49.9622965 106.4443588 116.8530655  49.1453123
 111.6171455  59.0557098  62.3274183 111.3359070  58.5968161  63.1189680
 112.4422741  58.6344528  62.0867300  87.2166920  79.6941566 106.7446041
  88.1545067  79.5567369 106.8782234  86.9596386  80.2913284 107.4471283
  93.4691906  88.2057953  77.6060152  93.9426136  89.0273762  77.4751568
  94.1040230  87.6285076  78.0302286 124.4826031  77.8519583  92.2407436
 124.3162251  77.8997946  93.1821537 125.1701546  78.4996510  92.0858192
 102.4774742 101.7760754  82.8408623 103.1166840 102.4774361  82.7154446
 102.1266174 101.6124153  81.9654465  89.0706730 114.4437695  70.8931160
  89.7284222 113.7504959  70.9475756  89.5701027 115.2313709  70.6775331
 107.9404259  50.4677677  81.2173176 108.7265110  50.9738493  81.4227104
 108.1889248  49.5593500  81.3883686  86.7567635  98.9160252  54.4835329
  86.2647724  98.1314659  54.7256994  86.1352921  99.6343994  54.6016216
  73.1214476  88.1011581  77.1160889  73.9318275  87.9534721  77.6036453
  73.2877827  87.7200127  76.2539434  81.4829540  77.4529982   5.1690141
  81.9661045  77.4048519   5.9939233  80.6093216  77.7527857   5.4202787
  90.3997898  86.5226936  94.6476269  90.4780388  85.6801891  94.2000866
  91.3031387  86.7832565  94.8273373  78.5551500  84.3681812  82.4453926
  79.5046616  84.4752026  82.5019741  78.3835840  83.5257053  82.8661537
 114.7078800  41.6864443  89.7069263 114.5547009  42.6031876  89.4781303
 114.5372963  41.6426802  90.6477833 102.2963047 100.9529972  76.2727022
 102.9163170 101.6804790  76.2218857 101.8291950 100.9776211  75.4375744
  89.8035240  97.3588371  69.9712229  89.5711040  97.6924896  69.1046858
  89.0999699  96.7474556  70.1890945   0.6002837  68.3458757  74.3542194
   1.3005763  67.7735519  74.6676970   0.1348715  68.6114168  75.1473856
  98.8842201  75.7307577  74.1832495  98.9279461  76.4316273  74.8337126
  98.8920593  76.1850500  73.3407640 117.6850700  97.0545864  38.1074214
 118.1723785  96.6356087  38.8168001 117.4262428  96.3321209  37.5353289
  54.2411661  84.0667534 101.9669628  53.3556509  83.8067913 102.2209454
  54.7621870  83.9500809 102.7614117 108.3183384  58.0920553  87.4206924
 109.1308689  57.6888752  87.7264214 107.6432133  57.7400017  88.0007839
  92.4734211 101.4020824  72.2927856  93.0822468 100.7480335  72.6359892
  92.4697304 102.0954514  72.9526711 120.4801655  99.2040062  72.6213169
 119.7309971  99.5396996  73.1135368 121.2338448  99.6674156  72.9866362
  87.3042583 108.1485748  51.0285854  86.8702507 108.9988232  50.9582853
  86.9725132 107.7771759  51.8460464 111.3688946 110.7192516  59.5154762
 111.1046505 110.1071358  60.2022982 110.6170082 111.3025570  59.4122696
  14.3441039  64.8331594   1.2962190  14.7731524  65.0127792   0.4596273
  15.0648528  64.6754599   1.9060365 104.7317314 123.7280750  88.8859844
 104.4573879 124.0967369  88.0463123 103.9215565 123.6509514  89.3898678
 105.8474731  90.3745079  90.4856777 105.1996040  90.2446365  89.7931194
 105.6764603  89.6685600  91.1090755   5.1069670 100.5410099  47.9285479
   4.2896777 100.0867367  47.7238464   5.5766135  99.9400997  48.5069656
  88.8336849  92.5946426  77.4629402  88.6189842  92.7590466  78.3811522
  88.5847950  93.4007549  77.0107412 116.4179897  87.5476742  89.0810108
 117.3283863  87.6010513  88.7902355 115.9121513  87.9055023  88.3514023
 121.1564445  83.9520073 109.2484951 120.6552505  83.1642532 109.4594002
 120.5214214  84.6650696 109.3157864  89.8754883  60.7342577  69.8539972
  90.4727554  60.5036116  69.1424417  89.0018749  60.6038761  69.4851685
 119.5178986  88.2730770 102.5524807 119.2663765  88.3546543 101.6325188
 120.1648808  87.5677109 102.5622559  89.0112686  91.8446255 107.7749157
  88.3884907  91.5242100 107.1224499  89.7651100  91.2603760 107.6936626
  70.1279449  98.3558655  83.9864445  69.4751596  99.0182018  83.7596989
  70.8816099  98.5634041  83.4340382  81.2006855  71.4253998  88.3696651
  81.9157696  71.0890102  87.8295422  80.6620979  71.9345856  87.7639484
  98.9090443  36.5421271  62.1891594  98.1988335  37.0670366  62.5583506
  98.7829399  35.6706953  62.5645733  81.6118336  73.3616304 105.2206039
  81.5853119  73.7787056 106.0817528  81.2317371  72.4946785 105.3625679
 121.1872578  99.5796871  81.1675072 121.2000561 100.3194141  80.5601501
 121.9292068  99.0372944  80.9000111  94.8181438  91.1037731  69.0143871
  95.4310703  90.3742409  68.9231777  94.9359894  91.6169834  68.2150364
 100.9588718  60.4034519  48.4273624 100.3181458  59.7068024  48.2846022
 100.8596325  60.6345510  49.3509293  85.3518486  58.2813120   0.3127328
  84.9357224  58.6592150  -0.4620417  85.0521183  57.3723507   0.3262655
  36.6440344  74.7874737  13.4975854  36.0762906  74.7128391  14.2646066
  36.5591764  75.7010365  13.2247678 114.3679142  80.9657955  73.6710024
 114.9367905  81.6606903  74.0022516 113.4838486  81.3258266  73.7418699
  85.3325176  93.0770016  85.6314754  85.5784035  93.8505363  86.1388302
  85.7204247  93.2231998  84.7686958  91.1493015  76.1548805  92.0338154
  91.8503475  75.6687975  92.4679756  90.3507519  75.8738613  92.4805641
 102.3331356  75.0741291  72.7972317 103.2128716  74.7033310  72.8664732
 102.1240520  75.0221968  71.8645906 101.4733315  92.8708839  70.2093935
 101.2559795  93.0024719  71.1322546 100.6454659  93.0023861  69.7472382
   8.2469302  84.5880508  82.5927830   8.6879855  85.1319790  83.2453442
   7.5103312  85.1216412  82.2945499  86.9072437 109.9230576  85.2401924
  87.5921726 109.6789360  85.8627033  86.1278152 109.4605541  85.5481148
  98.9591599  78.0458879  75.9666729  98.0470181  78.2906199  75.8106756
  99.1269588  78.3109379  76.8710089 118.2727432 102.6123524  47.4939442
 119.0237045 102.7421856  46.9147778 117.5780010 102.2939491  46.9175959
 117.8632450  81.7528915  95.0234699 117.8281593  82.1458149  94.1513348
 116.9472027  81.6855335  95.2928448  90.0063419  69.2013788  71.1416674
  90.3552151  69.6275282  70.3587770  89.2323780  68.7301874  70.8331299
  74.4522047 110.4777241  88.2744312  74.0118170 110.2767277  87.4486637
  74.0716791 109.8653603  88.9040565  70.2837133  61.3344383  96.6114521
  70.2971506  60.4074717  96.8497467  71.2057972  61.5671396  96.5025902
  81.4362431  83.4140110  62.0893669  82.0659065  83.0202293  62.6932669
  81.8990135  84.1643810  61.7165089 115.5936909 115.7734203  80.3060532
 115.1695251 116.6288280  80.2382374 115.3805542 115.3344440  79.4825840
 106.6168118  91.4537716  61.0890722 105.9930420  91.0630608  60.4771090
 106.4004326  92.3861885  61.0889578 116.4163303 117.5583553  65.8090591
 115.4705620 117.4277496  65.7404518 116.7468166 117.3833466  64.9279308
 109.3783474  93.1888771  79.3869352 109.7188950  93.9844513  79.7959900
 109.4246292  93.3641434  78.4470558 111.5021896  56.5373135  51.3383389
 110.6868935  56.9378376  51.0365057 112.0885372  56.5896702  50.5835629
 107.7910995  77.0775795  83.0411053 108.3667278  76.3494062  82.8073406
 106.9395351  76.8362617  82.6766205   1.5482932 112.9687405   2.0917646
   0.7256823 113.4142590   2.2943918   1.8520098 113.3824253   1.2837735
  92.4090385  57.9402208  95.2519798  93.1019688  57.4180984  95.6562996
  91.6947269  57.9245806  95.8889484 109.7308922  73.4608412  70.6088400
 109.3917465  72.5740576  70.7306051 109.2275238  73.9961195  71.2222958
 107.3113060  70.9101105  36.9167995 107.3208046  71.8537951  37.0767999
 106.4044380  70.6491137  37.0771265  73.9250326  52.4610233  90.8462620
  73.4684229  53.2796431  90.6523609  74.5508432  52.6925850  91.5325356
   8.0235606  86.0324955  54.9687862   7.9658537  86.2290001  54.0337515
   8.6563330  86.6655731  55.3079700  99.2121506  60.4766655  85.3512383
  99.2439461  61.3682413  85.0043869  98.2812023  60.2540207  85.3545570
  13.0593711  65.1689672  71.5291357  13.5119181  65.9309387  71.8908358
  12.8094798  65.4363489  70.6446648  83.5272884  73.3500099  91.3430691
  84.2094421  73.2235479  90.6836033  83.0723190  72.5087214  91.3814163
  84.1419411 103.4118843  90.4907990  83.7541389 103.6039829  89.6370220
  85.0578880 103.6754799  90.4025841  79.9282837  93.9575100  96.0501862
  80.6205750  94.5452023  95.7475471  80.3949833  93.2213402  96.4457512
 100.9623623  99.3232059  92.3545456 101.3312054  99.6149635  91.5208435
 101.6991711  99.3502235  92.9649639 100.5100060  93.8300705  72.8887892
 100.4927826  94.7588253  73.1197739  99.5911598  93.5622883  72.9044533
   5.7146483  57.7880049  87.6263809   4.9819594  57.9235268  88.2272434
   5.8718615  56.8440866  87.6494312 109.8401642 106.6475296  71.6366959
 109.1617298 106.8265820  70.9856176 110.5380058 106.2166500  71.1431599
  90.2930641  97.0437050  95.0173569  90.9288311  96.4064121  95.3427792
  90.3567696  96.9803810  94.0643883 103.8446236  42.5695753  87.7200699
 104.6959591  42.9876518  87.5909901 103.8151646  41.8772936  87.0596790
  94.6982479  58.4166241  63.7948084  94.8509979  57.4911833  63.6038685
  93.7499332  58.4849834  63.9055204  94.2044067  43.8800621  56.2047386
  94.1755295  44.5383549  55.5104399  95.1334381  43.8009119  56.4212561
  73.4979105  37.7998996  64.9745607  74.2685223  37.5393915  64.4700575
  72.7797127  37.2955346  64.5924139   2.2898703  97.0879364 101.5912628
   2.4618846  97.5059128 100.7474995   1.9868403  97.8003883 102.1541309
   3.0593997  32.2549796  99.0550423   2.7525931  31.3947988  98.7683582
   2.7464991  32.3327327  99.9563122 114.4964886 112.0936775  74.0360594
 114.1986752 111.5574837  73.3011818 113.6903381 112.3869801  74.4607162
 120.4275703  57.3271132  69.7674227 119.5022964  57.5687695  69.7262239
 120.5976486  57.1884489  70.6991291  97.9339123  81.1299896  90.8125210
  97.8966713  81.5357018  91.6786861  97.0603275  80.7606983  90.6832504
 106.5402412  68.6348343  60.8150816 105.9325981  68.3281660  60.1420689
 106.6897488  67.8691101  61.3696527  77.7958441  53.9003468 105.0962067
  77.6371861  53.5898399 105.9876347  77.1159267  53.4783173 104.5710087
  93.6424160  94.8089409  80.8779716  94.2111969  94.9158287  80.1155376
  92.7700233  94.6719933  80.5086517 121.0837364 121.5866566  94.0943241
 121.6534615 122.3556995  94.1089821 120.9401035 121.3773727  95.0172615
 105.3197002  56.7565727  91.5396118 105.5854034  56.2942600  92.3345280
 105.0326061  56.0640717  90.9444237  95.0698757 105.9727097  96.4292145
  94.4517803 106.1528397  97.1375561  94.8263264 105.1021862  96.1144161
  17.0790606  87.2478008  95.3141212  16.8788748  87.9379845  95.9464359
  16.4209395  87.3540497  94.6272278 102.6047421  72.2467613  71.7539120
 102.2029114  72.6433659  70.9809542 102.5210285  71.3040972  71.6103554
 101.4059925  74.4531918  70.2347040 101.5056229  73.6394310  69.7406435
 100.4597092  74.5879221  70.2860069  87.5805664  60.7787704  75.9739780
  86.8763447  61.2507534  75.5295372  88.1537247  61.4667368  76.3122368
  96.1449814  81.6715050 104.4592857  95.4991055  81.4611340 105.1336956
  95.9869480  82.5933266 104.2555428  59.3424082  88.8768959  88.6834145
  58.8151789  88.1542015  89.0239525  60.1426315  88.4598732  88.3640957
 117.3896885  94.2599487  99.7520828 117.6934052  94.7870922 100.4910755
 117.2877312  94.8872375  99.0362930 112.6249313  95.5991650  54.0759134
 112.3006248  95.4976559  53.1810665 111.8527317  95.8483219  54.5837116
 120.3183079 107.1725559  64.1841602 120.6826591 106.4601612  63.6588144
 119.6050167 107.5229931  63.6506510  64.4802475 110.5206394  76.6424656
  63.8360643 110.6469631  75.9458256  64.7277355 109.5984173  76.5754843
 108.1563950  69.3201780  93.3726406 108.9136314  69.3029213  92.7873802
 108.2890320  70.0990582  93.9130020  82.1904373  91.8078041 102.9096603
  82.2399902  90.8520031 102.9246140  83.0530071  92.0970440 103.2072067
 112.6404190  88.9087582  67.3706675 113.5472679  88.9501667  67.6742268
 112.7039909  88.9680767  66.4174223  87.9546547  68.8595772  87.9442024
  88.7751675  68.8207912  88.4356213  87.5771523  69.7083807  88.1749821
  91.9359684  64.7366095  62.7666950  91.0567951  65.1007128  62.6632118
  91.9451141  64.3816948  63.6556196  89.6671486  78.5490990  25.2012578
  89.4562244  79.4774580  25.1017991  90.3376675  78.5276461  25.8840410
  93.6617279  50.2683210  94.2346287  92.9071236  50.6877375  94.6480083
  94.3797970  50.4043961  94.8527718  86.8257141 108.9681530  65.5615568
  86.3305855 109.0919209  66.3713503  86.3093567 109.4194221  64.8937559
  88.8246727  99.8593998  70.9469700  89.3751431  99.0770054  70.9798050
  87.9390907  99.5235348  70.8085155  74.8576021  68.6654472  19.0335122
  74.2038155  69.3521023  19.1650430  75.5158901  69.0669775  18.4663717
 114.8106003 119.2983150  87.9570007 114.4389343 120.1260567  88.2618618
 115.2462006 118.9332581  88.7271976  77.3361206  89.5321369  76.6916704
  77.9819727  89.7958088  77.3470974  77.5710440  90.0314426  75.9095335
  15.1244765  93.8210487   2.8127710  14.6971160  94.1537666   2.0235387
  15.6923419  93.1172371   2.4990503  75.8729458 107.5023460  70.4597998
  76.4503098 108.1700230  70.8300543  76.2840223 106.6713810  70.6980324
  86.6125298 114.1808796 100.0232887  86.9748688 114.4325447  99.1738129
  85.7167912 113.9047623  99.8293018  38.3142214  62.5690556 107.3879814
  37.5321322  62.4008894 106.8623543  38.9685755  61.9602299 107.0453453
 110.4081726 109.9312305  54.6894646 110.5684185 109.0384388  54.9952126
 111.1977482 110.4136658  54.9345207 117.7355194  89.7560883  72.1988010
 117.9353809  89.7966766  71.2635803 116.8665314  89.3569469  72.2409201
  83.9827442  79.6700859  55.5315971  83.9124775  79.9803972  54.6288204
  84.6729755  79.0074825  55.5040693 120.5860806  92.6785755  45.1253605
 120.2964401  92.4431801  44.2439222 119.7825432  92.9240417  45.5839491
 110.3892803 104.0908337  68.9951038 109.6710110 103.4767437  69.1474771
 110.8958244 104.0731716  69.8071003  96.5714741  95.6790257  82.6556587
  95.9982014  96.4451981  82.6797009  97.0378590  95.7025337  83.4912205
  72.1749878  74.8906994  61.3523674  71.7264843  74.2617178  60.7871580
  72.2211456  74.4567347  62.2042894  95.1853180  66.7635393  49.2731857
  96.1242867  66.8666887  49.1185093  94.9134731  67.5957632  49.6601343
  88.5773754 112.7611732  32.6171041  88.2953262 113.5622883  33.0585742
  87.9856682 112.6788044  31.8692207 104.7682190  44.5771122  73.1303406
 105.1013565  45.0653791  72.3774481 104.0885925  45.1409149  73.4997606
  89.3248844 106.7791557  59.8096323  89.7901440 107.5910187  60.0112534
  89.9721909 106.0894108  59.9561882  97.8203201  39.3832135  38.4821272
  96.8675518  39.4208670  38.5661268  98.0123520  39.8996758  37.6994252
  87.8422165  85.7659435  69.3545151  88.4918499  86.3876534  69.0263605
  88.1054020  85.5999756  70.2597332  79.5983982  79.3977642  54.8418951
  79.8211193  78.4769201  54.9785280  79.1582584  79.4141817  53.9920521
  89.9949741  77.0905733  51.1255217  90.1247025  76.8294191  52.0372295
  90.7593060  77.6286936  50.9194517 100.3714466  70.7079601  51.2845659
  99.7344780  71.3757038  51.5387678  99.9485683  70.2337933  50.5686235
  19.8534327  76.3443136  66.0886765  20.5070906  75.9372854  66.6572571
  19.3614989  75.6084871  65.7242584  97.4280357  89.7142887  80.9775543
  97.9775524  90.4972076  80.9414291  97.0368958  89.6557808  80.1058769
  65.7398367  83.4235287  71.2797117  65.6603146  83.8328934  70.4181242
  64.9103069  83.6192799  71.7153645 109.2839336  88.2619286  55.4027653
 110.0158691  88.8435841  55.6081676 108.5388374  88.6406517  55.8692741
  70.6076765 125.4194832  19.1603005  69.8155928 125.2163219  18.6627519
  71.2669802 125.6109619  18.4933007  83.4394836  66.1758327  71.0543966
  83.9881325  65.3960800  71.1392117  84.0615940  66.8993282  70.9785032
  87.4676895  84.1733551  88.2290554  87.8386688  83.5145187  87.6420784
  86.7389679  83.7268925  88.6601830 104.0395260  99.3647289  51.6045713
 103.4822369  98.6310482  51.8641424 103.9810753  99.3836498  50.6493425
 114.6936131  87.4818230  63.5206079 115.4733181  87.6493359  62.9912424
 115.0353622  87.1667290  64.3573570 107.4603271  89.2406559  49.0625286
 108.1055546  89.0361977  49.7393608 107.4178314  90.1968670  49.0531635
 104.8330784  69.0659666  57.8071404 104.8447227  69.8860359  58.3006763
 105.1289368  69.3100119  56.9301319  96.8779945 110.2464867  79.2792130
  97.3862362 110.2208519  80.0899315  97.4624634 109.8752785  78.6182785
   0.8272677  91.2394619  39.8692989   1.0229426  90.7950020  39.0444374
   1.4968234  91.9199085  39.9394298   0.3539496  75.0170851  80.0159931
   0.0760298  74.1072035  80.1213837  -0.0313825  75.4733944  80.7640076
  79.8713398  74.6051502  65.3574657  80.2986622  74.4301987  66.1959267
  78.9412594  74.6750355  65.5726290 103.3983994  99.3896484  48.4360456
 104.0326977  98.8219738  47.9982805 102.6882172  99.4889259  47.8019953
  11.3297682  93.0043411  93.0739498  12.0202380  93.1490421  92.4270058
  10.6306201  93.6053276  92.8165627   8.1442481 106.7062473  87.0233536
   7.3402911 107.1874428  87.2191238   8.7091475 107.3484612  86.5935993
  96.0179996  88.8916302  67.8474760  96.0872364  88.1924343  68.4975290
  96.0647774  88.4404850  67.0045614  91.7249775  60.8354425  65.4123497
  91.1408234  60.1254940  65.6787395  92.2189903  61.0489178  66.2039423
  95.4077816  91.7819405  79.3550158  95.5600357  90.8901787  79.0422583
  94.5118427  91.9813251  79.0833950 118.4176826  99.3656921  55.4631042
 119.1737461  99.8150826  55.8408022 118.0405140  98.8758850  56.1938953
 118.5050774  81.3632870  72.6520681 118.2970238  80.8359432  71.8808031
 119.2793083  81.8651772  72.3973036  93.7010765  94.1809750  76.5581226
  93.3809948  94.8505592  77.1626377  93.0001831  94.0857983  75.9131956
  94.4157887  43.1874037 101.5132236  94.7251892  43.4832001 100.6570625
  94.4924259  43.9585257 102.0751190  82.0791435  86.0504818  96.7015171
  81.2034225  86.4061832  96.8525600  82.2577858  85.5169296  97.4758816
   6.0988074  64.4635248  73.2719278   6.5459948  65.2722216  73.0224133
   5.7217341  64.6535873  74.1309547  76.9919443  80.0106907  62.6032114
  76.9915676  80.2863407  63.5198641  76.1642122  79.5426607  62.4935055
   2.9378920 114.2892647  45.0829554   3.3893138 114.8597240  45.7050753
   2.5587397 114.8885441  44.4400406 108.3335304  84.5425510  34.1232300
 108.7037563  84.7153187  34.9888587 108.6165428  83.6521626  33.9150476
 113.9155579  56.5179729  84.6554756 114.6401978  56.9109726  84.1689777
 113.1669331  56.5807009  84.0622997  76.6469240  98.9508343  85.9103107
  76.4133549  99.8750305  85.9971619  77.5976419  98.9534950  85.7990932
  85.9136868  67.0226479  95.0749397  86.4652729  66.7793274  95.8184242
  86.5248966  67.1187639  94.3445873  29.3166762  72.4769115  72.4830151
  29.7894793  71.6935015  72.2020245  29.5261508  72.5623751  73.4130955
 123.1807709 123.7170696  91.5042305 122.5882530 123.8785267  92.2384548
 122.8268623 124.2468739  90.7898808 124.8147392  55.9638929  53.1512308
 123.9397907  56.2221432  52.8614140 124.8130512  55.0082970  53.0958843
  94.2914295 102.2661972  53.8531923  93.5318279 102.6204014  54.3155575
  94.7427559 103.0367470  53.5085344  89.2191792 123.0414391  42.2420168
  89.3405437 123.9656067  42.0242739  88.8224888 122.6608467  41.4584208
 100.0365162  81.9682598  63.2483578 100.1303959  82.7334690  63.8156986
 100.1757717  81.2206078  63.8296127 117.7815342  43.1124210  89.5465946
 117.0020199  43.5471010  89.8924828 118.1498241  42.6475859  90.2979469
 101.9657040  67.4776363  60.8380604 101.6621876  67.3753738  59.9360323
 101.1807728  67.3499823  61.3708067   2.1526175  92.4524403  34.5446110
   1.5713912  93.1533813  34.2495012   2.7377730  92.2983170  33.8029432
  74.5722675  70.8126879 105.8131409  74.0960884  70.7409716 106.6403866
  74.3297577  71.6731262 105.4709911 115.9753227  72.3763943  57.9090405
 115.3229427  72.4634552  58.6040592 115.4722595  72.1062136  57.1408224
 100.8402061  47.5377178  70.5347252 100.0399113  47.6532221  70.0224495
 100.6058788  46.8939018  71.2031698   0.2349310  74.6197605  70.6411076
   0.4609137  75.4265785  70.1782799   0.6736880  73.9283657  70.1454258
   3.3643942  86.0896206  66.9441414   2.6840048  85.4164028  66.9348955
   2.9122191  86.8832302  67.2304249 111.2703419  66.9699955  66.4015961
 110.8557034  67.7977228  66.1583376 110.5432606  66.3528061  66.4832783
 115.8565331  61.4461374  72.4368382 115.6508255  60.6675625  72.9542732
 116.6585636  61.7900801  72.8301382 119.7783756 108.3079720  74.1482306
 120.0062275 107.9066372  73.3096361 119.9989033 109.2329788  74.0388441
 107.4905491  60.4814911  86.4849091 106.7895126  60.2772760  85.8659649
 107.7239990  59.6366739  86.8696404  90.5438900  86.8693542  68.4812927
  90.3820133  86.5022659  67.6122284  90.4903603  87.8166676  68.3549213
   1.6697341  80.3815556  64.0788221   1.0752421  80.0469398  64.7502756
   1.0938578  80.6644058  63.3684731  54.0090513  91.8076801  81.4428329
  54.3841648  92.0718479  82.2829151  53.0687332  91.9558907  81.5431976
 104.5977974  61.5641594  22.4704075 105.3375340  61.2522364  22.9916859
 104.7192764  61.1552286  21.6135240  95.2152920  75.0486088  77.1627998
  95.8480835  74.3304729  77.1530628  95.4763412  75.5877495  77.9094028
  -0.1673860  60.1178789  51.0214615  -0.1312894  60.4867363  51.9040012
   0.7321959  59.8470688  50.8380699  76.7061424  92.3030949  59.8362732
  76.9370985  91.7811775  59.0678406  77.5325871  92.6972866  60.1152802
  11.7114096 125.5246449  29.5767236  11.8848353 126.3312626  30.0620294
  11.8850260 125.7525826  28.6634159  73.3279848  54.2202663  82.7636433
  72.9102230  54.3209696  83.6189556  73.1338549  55.0374508  82.3045635
  89.7451591  91.1409187  90.2888393  89.1773987  90.4152775  90.0293827
  90.5730534  90.9695911  89.8399925  99.2022705  79.0176105  78.3463573
  98.6612797  79.8071194  78.3613396  99.6120548  78.9916086  79.2110205
  88.1332970  87.2420788  54.3162107  87.5267982  86.5700150  54.0051889
  88.3329773  86.9862556  55.2167225  93.6637402  80.1773643  57.3150349
  93.0888176  80.9021282  57.0692539  93.0674744  79.4553566  57.5135326
  94.2471886  82.4596119  81.1902237  95.1544666  82.1587467  81.1395264
  93.7304497  81.6553020  81.2381554  97.5502205  77.0990944  45.4397345
  97.0672703  77.6099777  44.7901249  96.9724846  77.0740795  46.2025023
  78.1246233  70.0105953  88.0929661  77.6247072  70.7919502  88.3291912
  78.8108063  69.9551439  88.7580299  77.0212030 102.9221821  65.2654552
  76.9305515 103.1583500  64.3422890  77.2775030 102.0000172  65.2527142
 104.7805882 121.8980789  55.4441309 105.3828144 121.4962387  56.0702944
 105.1354980 121.6641140  54.5865011  92.1028900 131.5644932  42.0761251
  91.2901497 132.0596123  42.1787167  92.2253990 131.1278725  42.9190874
 105.2972984 111.1977100  76.5193510 105.8122730 110.7082558  77.1608067
 105.1909447 112.0653534  76.9093704  99.4651318  73.2652950  80.6915665
  99.9009991  72.4131155  80.6983471  98.8488865  73.2133150  79.9609709
 112.6723289  74.8271227  42.7317429 111.8849468  74.9236727  43.2674170
 112.9451942  75.7249880  42.5430107  88.8079262 109.4076538  87.0571327
  89.2649651 110.1605701  86.6823483  89.5074272 108.8365650  87.3746014
  76.8759966  82.9397774  33.7410021  76.0203171  83.3625412  33.8139033
  76.7752457  82.1124077  34.2116785  97.2518158 102.6135159  94.5168591
  97.0575047 103.0816650  93.7048817  97.8148270 101.8882179  94.2463017
 115.5174446  94.0177917  36.7750883 115.6792641  94.1217518  35.8374095
 115.7137299  93.0976772  36.9514418 119.9444389  96.6443634  92.8350258
 120.5034924  96.2563801  93.5081863 119.7327614  97.5149250  93.1720066
 107.9294205  94.0327644  69.2127037 108.3073521  93.8324165  70.0690079
 108.5813999  94.5899200  68.7875795   5.1490241  64.9458933  31.1648440
   5.4103022  64.0294647  31.2549663   4.3925315  65.0373507  31.7441416
 104.9967194  64.1166306   9.8348254 105.3486443  64.7573185  10.4528046
 104.8561478  64.6134472   9.0288192  17.3337966  84.4163322  46.8205214
  17.9451781  83.6975956  46.9813251  17.7546816  85.1811600  47.2131252
 116.8904877  83.6228943  44.3126678 116.1134529  84.1447353  44.5130110
 116.5437222  82.7900219  43.9928150 107.6398659  68.2486439  33.3842397
 107.6675034  68.1890249  32.4292970 108.3654404  68.8311100  33.6089540
  81.1825085 104.0636349  56.9678736  81.6672516 104.7618866  56.5277672
  81.5149307 104.0702724  57.8654718 118.5779762  71.7062616  58.1459618
 117.6716423  71.6680002  57.8404522 118.6550236  70.9754610  58.7593317
   0.1498633  83.6606598  79.4500685   0.6235056  83.5718918  80.2771187
  -0.0836057  82.7638626  79.2103195  96.1641216  58.7931776  31.4879799
  95.7591438  57.9459333  31.3025284  95.4442787  59.3383503  31.8055344
  86.3558578  94.1112900  53.0292797  85.5272102  94.1211128  52.5502348
  86.1769104  93.5821152  53.8065672  75.8427668  81.9281864  36.8752408
  76.4067364  82.3011494  37.5527859  74.9529552  82.0838642  37.1918344
  80.4946423  87.4673271  55.4957199  80.9561825  88.0058765  56.1385107
  80.9482765  86.6247654  55.5192614  99.9128342 111.0626221  76.0938644
  99.7480869 111.8641758  76.5904474 100.5504608 110.5811214  76.6209459
  87.6002789  78.4302807  40.8208752  87.8529739  78.5628223  39.9071980
  86.8531036  79.0145016  40.9499025 105.3353310  75.7451057  35.2384186
 105.3350735  75.3327894  34.3745732 104.4777870  76.1653805  35.3034687
 121.8697453  92.8327084  67.0295620 122.6127911  92.8595543  66.4267397
 121.2774372  92.1830940  66.6508627 113.9492226 109.6036243  35.3340769
 113.8099098 110.4871941  35.6748629 113.9044952 109.0393734  36.1059952
  12.1167307  54.8753405  61.7849684  12.0893221  54.1608334  61.1486006
  12.8659945  54.6695852  62.3439837  82.5686455  86.8645668  71.3799858
  83.0019760  86.2523651  70.7852888  82.3436451  86.3360119  72.1456528
 101.8187714  81.3066769  59.1764927 100.9599781  81.3016224  59.5992088
 102.4424267  81.2512493  59.9005127 103.5624790  91.5567017  55.6218863
 104.3917942  91.7567730  55.1877880 103.5517025  92.1255875  56.3916159
 101.3369656 102.5308800  78.5648346 100.3905296 102.4322128  78.6685944
 101.5086746 102.2591972  77.6632071 104.6622753  60.9264898  11.8003237
 103.7828445  61.2542200  11.6121173 105.0246906  60.7066107  10.9421051
  94.5115089  99.7979355  73.0535746  94.4559479  99.1674805  72.3354721
  95.0441837  99.3591404  73.7168598 121.7952824  88.0050564  92.8905106
 121.0339546  87.4735355  92.6579094 122.2036934  88.2185364  92.0515537
 107.8541565  89.5914078  53.1911421 107.1532059  90.0293732  53.6739302
 108.2736015  89.0251446  53.8389397  90.7383347  89.2364883  57.2719193
  91.4746284  89.4049549  57.8599024  90.5654621  90.0813103  56.8564320
   3.7433653  57.7712011  68.4784222   4.5913058  58.2020903  68.3708620
   3.6080676  57.7418232  69.4255590 103.6010075 120.7049179  87.4453068
 102.6481533 120.7330132  87.5319672 103.9253044 120.7735348  88.3432865
  96.9552708  60.1268005  59.3776226  96.7007351  59.2731333  59.7279024
  97.7761936  59.9604845  58.9143133  92.9957676  78.4936285  89.2245102
  92.8765202  79.3226528  88.7611198  92.3405838  78.5127544  89.9220848
 109.4907475  97.2176933  53.6310530 108.8729000  97.9421806  53.7291527
 109.0410423  96.4655876  54.0162039  87.7083206 120.4802513 101.1623764
  87.8052616 120.2376747 102.0832443  87.9287338 121.4113426 101.1354828
   6.1359625 104.0542507  91.7424774   6.4477187 103.2586765  92.1738625
   5.7546931 104.5759392  92.4486637 104.3534851  90.0350761  51.0327959
 104.1700935  89.6714020  51.8990183 104.6852970  89.2932892  50.5269432
 106.5885353  83.9924908  75.8258057 106.5843201  84.8713779  76.2049675
 106.5059566  84.1378403  74.8833179 101.4575481  93.1574917  50.6748486
 102.3847294  93.3900833  50.6252241 100.9953022  93.9751816  50.4905987
 107.2262573  99.6145821  75.4425287 107.6851177  98.7767124  75.5029583
 107.8571892 100.2039337  75.0292206 114.4273376  68.1301737  70.1349831
 114.1743660  67.8230524  71.0055637 114.9993801  68.8792133  70.3021097
  26.2335425 102.0012283  89.3995094  25.5824595 101.9189072  88.7026978
  27.0641547 102.1187592  88.9385319  87.7555466  75.5607414  63.7850571
  87.4958038  76.4049244  63.4161139  86.9439888  75.0543356  63.8191032
 113.4826183  84.3903732  20.5747509 113.2888794  85.2507687  20.9467912
 112.9765320  83.7787151  21.1095238  84.9049854  40.9948587  88.7355518
  84.2616558  40.9319973  89.4415379  85.1887798  40.0925064  88.5890770
   0.4713374  69.4636917  47.7366161  -0.3138894  68.9346457  47.5960493
   0.3655558  69.8196363  48.6188555 123.8391209  59.0785646  87.0954418
 123.6382580  58.5075045  87.8369141 123.8191223  58.4986401  86.3341808
 102.9408646  64.5448208   3.4491865 102.6527119  64.7734451   2.5654832
 103.5547829  65.2392673   3.6880914 104.3414116  64.3227053  88.3160782
 103.5600185  63.7702322  88.3369446 104.0135670  65.2074528  88.4772396
  89.4193840  83.3048630  73.4883022  89.5690060  83.7026882  74.3459654
  88.6589622  82.7378368  73.6166573  81.0604763  95.3636932  57.1377563
  80.4991627  95.8750248  57.7205944  80.5308533  94.6017933  56.9027472
 112.6398659  86.7149925  61.9647598 113.3411026  86.8588924  62.6001978
 111.9401264  86.3009930  62.4699354  23.3573943  66.3665056  98.3121300
  24.2104178  65.9435654  98.4105873  22.7249461  65.6533384  98.3995533
 103.5442162  88.2812786  39.1882324 103.6772442  88.4904003  40.1127911
 103.4563160  89.1329575  38.7602758  93.1880856  95.8037472  35.4716706
  93.7299824  95.9668732  36.2436628  93.2466412  96.6123295  34.9627423
   6.6459971  84.6263504  50.5312443   7.0795661  85.0214672  51.2876368
   7.1447974  83.8276482  50.3594589  12.3767882 120.2542877  78.5594082
  12.0032149 119.3730259  78.5516834  12.7693110 120.3404331  79.4281673
 106.2361717  50.1248121  48.7632942 105.6351376  50.6578207  49.2837811
 106.5698624  50.7234669  48.0950975 100.6491852  72.8122473  58.5610676
 100.2361584  73.1997299  57.7893877 100.1722908  71.9944954  58.7027931
  81.8762016 101.9998074  79.3417025  82.3633385 101.1911201  79.4996881
  82.2138786 102.3235703  78.5066032  78.1989717 122.8931522  33.1786942
  77.7795267 123.7114716  33.4445190  79.0745354 122.9369354  33.5630131
  98.7200832  69.0578175  33.4228849  99.5568466  68.6423254  33.2144952
  98.5331726  68.7829685  34.3205237  85.0572968  91.2268639  62.8390121
  84.2278671  90.8182144  62.5914478  85.5660725  90.5174255  63.2315397
  12.3041277  94.5934677  66.8563557  12.6383429  93.7607193  66.5231085
  11.9297152  94.3768120  67.7102280  88.4611225 123.3602715  68.2778692
  88.1327820 124.0822029  67.7419186  88.5889435 123.7446785  69.1451216
  46.3127899 103.8936996  56.9089317  46.1646700 104.8375034  56.9682550
  46.0102892 103.5504627  57.7497149 117.8728008  82.8622341  86.0911083
 118.8151073  83.0296707  86.1071014 117.4867916  83.6921597  85.8110046
 105.8689499 120.3306961  96.3872433 105.3864861 120.5527592  97.1835804
 105.2909946 119.7300434  95.9166908  98.4325123  94.6653080  66.2593031
  98.3152390  95.3084660  66.9584608  98.8545990  95.1539516  65.5526876
  73.2400846 104.0406418  55.9797764  74.0960550 103.7091732  56.2512016
  72.7569485 103.2608318  55.7064342   9.7781401  56.8318939  67.1658897
   9.7737055  55.8774328  67.2380686  10.7014018  57.0734072  67.2398901
 100.1037598  83.8056278  65.1898050  99.6580791  84.5631218  64.8105907
  99.6853352  83.6833954  66.0419846  93.2141876  94.6714878  56.6160250
  94.0765476  94.2759895  56.7431068  92.6212502  93.9265728  56.5172625
   3.7300521  82.2931194  71.7364788   4.5451384  82.7738571  71.8805265
   3.4721881  81.9923401  72.6078415   6.7283087 145.0502968  89.8390865
   7.0416289 144.6673107  89.0197086   6.2922888 144.3273067  90.2900887
  80.8508682  99.7722530  70.8685589  81.3726807  99.7682667  71.6710043
  80.0062847  99.4056129  71.1302567 104.2957020  71.9392729  88.0660820
 104.6072960  71.1960840  88.5826206 103.5153294  72.2428989  88.5298443
   3.2925921  52.2858953  74.9126196   4.1387683  52.7156496  74.7880030
   3.5135680  51.4050722  75.2151871 111.0402203  65.0329590  72.3031187
 111.2140846  65.5399799  73.0961657 111.3763332  64.1584730  72.4994230
  77.9084682 127.1163750  90.1849651  78.7612915 127.5418663  90.0961876
  77.6283169 127.3250294  91.0761547 113.0167961  75.1940680  65.8041859
 112.1568012  74.9998331  66.1768818 113.5648537  74.4551945  66.0686255
 115.6396866  90.3922462  90.5612373 115.1502609  90.4761791  89.7429180
 116.5573406  90.4713821  90.3006744  62.5407267  95.2609825  67.0219660
  61.7717314  95.0034142  67.5304270  63.2783222  94.8648739  67.4859571
  97.6852608  81.3772392  53.3826113  98.4007454  80.7613850  53.2243872
  97.4647045  81.7161751  52.5150204 102.2591114  79.3310785  77.8639269
 102.7680016  79.2132854  78.6660385 101.6254234  78.6137533  77.8748035
 114.0264225  73.1372833  50.3951836 114.5835495  73.9115667  50.4746675
 114.5813370  72.4123669  50.6829262  91.1412239  78.4341574  64.1810274
  90.6086445  78.3922958  64.9752808  92.0445442  78.4147739  64.4970655
 122.4393082  78.0593300  34.6674848 123.2478333  78.3524656  35.0876999
 122.5543594  78.2836246  33.7440753 121.0145092  73.4735394  39.9667621
 120.7039833  74.3583775  39.7747517 120.5726433  72.9197025  39.3231440
   0.8916216 118.1375694  23.4237599   1.3505202 118.8943768  23.0592346
   1.5891581 117.5676918  23.7476683  85.9769440  67.2004318  69.8518658
  86.2544632  66.3829613  69.4383955  85.8208179  67.7978277  69.1204405
  83.3559322 110.5506325  68.4127522  83.5472584 111.4391899  68.1125832
  82.7048969 110.2231503  67.7921534  83.1332302 101.5510750  85.5692291
  82.3432541 101.3701439  85.0598907  83.6650944 100.7608223  85.4751492
  89.5909405  71.7613649  46.7820263  89.5759583  72.7108812  46.6619062
  90.4984474  71.5635014  47.0133734  22.4253874  92.7671909  57.1859598
  22.9534369  93.2559586  57.8172302  22.8681117  91.9222450  57.1066427
  14.9017172  99.5013523  61.7931128  15.5359297 100.0280190  62.2795582
  14.0574866  99.9137020  61.9760513  98.0949402  52.6043987  98.8416290
  97.7541256  52.9835129  98.0314732  98.8074017  52.0320034  98.5570431
  96.9905376  83.2412243  83.5198593  97.0493698  82.8207684  82.6619625
  97.7556419  83.8151264  83.5583019  91.0712910  94.2346478  40.0855255
  91.5795135  95.0411129  40.1724052  90.1605415  94.5143700  40.1778078
   8.9797144  79.0817070  74.2667294   9.1873580  80.0160885  74.2592096
   8.5981398  78.9280939  75.1310444 123.2568073 102.3760891  69.4466734
 123.2616329 103.3265400  69.3332624 122.3396778 102.1261215  69.3342876
  91.7111397  44.1465616  57.2414064  92.6268196  44.0201044  56.9928932
  91.4730453  44.9903488  56.8572664 117.3518753 103.0266190  74.5422554
 116.7484760 103.0757809  75.2836800 117.4446106 103.9328766  74.2484188
  12.6840621 120.2591324  69.4795942  12.5650817 119.5386982  70.0985050
  12.3287612 121.0243988  69.9316597 105.0109100  78.5034609  63.3619833
 104.7527409  78.1603956  64.2174864 104.6113300  77.9030466  62.7326441
  68.5370159 100.0320435  77.0020533  67.9731369 100.5463219  77.5797987
  69.3252611  99.8686981  77.5199556  22.8768187  99.7729588  66.1894226
  22.8023367  98.8914967  66.5550804  22.4234419  99.7222900  65.3479290
 109.7593594  78.0482721  68.1621170 110.5402374  77.6104927  68.5009575
 109.4538116  77.4798012  67.4552107 111.3433933 119.1827393  72.5363493
 111.2625313 118.4289360  73.1207037 110.6182957 119.0860939  71.9189978
 110.9183121  54.9148417  46.9122839 111.3357067  55.5066824  47.5381756
 110.4142284  54.3087673  47.4552488 115.6010818 101.5464878  47.9387236
 115.3580475 102.3211098  47.4316502 115.0579262 101.5950775  48.7254000
 103.1545734  93.1398296  73.8794088 102.1979618  93.1267071  73.8484192
 103.4067822  93.7848377  73.2186556  98.7790298  97.8277206  51.5873384
  97.8406429  97.6549244  51.5112209  99.1930962  96.9823647  51.4136791
 102.5350571  87.4264622  69.4532061 102.8175449  88.3402920  69.4164801
 103.2721138  86.9637585  69.8517990  28.7883978  85.1855087  55.5181885
  29.3055087  84.6132278  56.0850430  28.8967448  86.0582829  55.8960295
  74.8871756  83.1959248  86.1595345  75.3759289  82.3738480  86.1988449
  74.5247030  83.3013630  87.0391560  88.8258362 104.7729969  62.6155710
  89.4885445 105.0187969  61.9700956  89.0767097 103.8918304  62.8927660
   4.5626956 108.1901932  44.0673494   3.7065917 107.8537369  44.3321228
   5.1820021 107.5162411  44.3475008   2.6258021  92.3553944  81.5546227
   2.4838763  91.9686604  82.4186420   2.0557623  91.8543148  80.9713554
 119.1174984  62.7361631  57.3227358 118.3585072  62.2176933  57.5898600
 119.8175812  62.4576616  57.9131126 108.2052231  75.6587744  80.0704002
 108.6181164  75.0381851  79.4698811 108.9298820  76.0089207  80.5885696
  88.9022827  48.4135103  64.3399096  88.6738205  47.5291204  64.0537405
  88.0597305  48.8518953  64.4588709  85.7846928  58.0494404  62.0333529
  86.0006046  57.5931311  61.2200880  85.4998779  57.3561049  62.6286602
 119.1112423 121.5015030  35.0136161 118.5539055 122.1524715  35.4400396
 119.7981739 122.0154953  34.5891547  92.6340389  57.1847010  19.3765295
  93.1413364  57.8673553  19.8156869  93.0996132  56.3730669  19.5783401
 122.9164886 118.1065178  31.1582184 122.3036766 118.5313702  30.5580592
 123.5499382 117.6728821  30.5864406  71.6628504  89.0491581  14.7202265
  72.2728300  88.3842564  14.4007540  72.1625853  89.8651218  14.6937597
 107.5081921  88.5719204  27.4498558 108.4367466  88.6091995  27.2204375
 107.3975563  87.7151966  27.8621888  85.2090549 116.1005211  52.4435759
  85.1206779 116.7662716  51.7615223  84.3872356 116.1475372  52.9320765
 105.3371620  82.5851345  28.3443332 105.0574398  82.7832603  27.4506164
 105.7617664  81.7298031  28.2783461  96.0151482  91.9986534  49.1611910
  96.5650845  91.5986061  48.4875774  95.6250858  92.7596664  48.7311411
 115.1220894  84.1153622  48.2128906 115.0725555  83.2869053  47.7359962
 114.5162201  84.0063858  48.9458752  87.6801872 113.0198669  25.5688620
  87.0953465 113.7039661  25.8947444  88.0327129 112.6098537  26.3587046
 112.3822594  66.7128658  68.9412069 112.1279621  66.9035959  68.0383301
 112.8087044  67.5144148  69.2443466  82.9508877  78.5986519  60.8744001
  83.5885906  79.3076515  60.9573936  83.3414459  77.9983616  60.2393055
   1.5970355  53.4001637  36.6279173   1.2198382  52.6417923  37.0738196
   2.5360709  53.2171535  36.5968561  53.2981777 145.2457619  73.7030649
  52.9285383 145.7785892  74.4071198  53.3868694 145.8504486  72.9663754
  88.9313698  68.1713724  54.0096951  88.1486893  67.7573204  54.3732882
  89.6508121  67.8334332  54.5430183 120.1656151  72.2629642  81.7552376
 119.5820522  72.0827866  81.0181999 119.9904442  73.1763411  81.9817066
  90.5946732  91.2266922  65.0793552  90.4287338  90.2847004  65.0426674
  89.7379971  91.6139793  65.2592134 117.3684311  73.8721752  45.7642317
 117.1461010  73.4027767  44.9602032 117.2227478  73.2337379  46.4623785
 105.0206566  78.5695648  36.3781714 104.1816521  78.1441021  36.2012577
 104.9918365  79.3780136  35.8664942 122.9413223  71.3156033  58.4148836
 123.0824852  71.6471243  59.3016720 122.3923206  70.5405188  58.5335016
 110.0199890  75.6763840  86.7905807 110.3562641  76.1686468  87.5394630
 109.3752956  76.2598658  86.3903809 105.6458664  98.1524754  58.4757042
 105.0423050  98.8312149  58.7777996 105.7288742  98.3073139  57.5347614
   0.0955325 111.2338924  50.4620743   0.7446414 110.5399513  50.5775642
   0.2629881 111.8408966  51.1830044 100.9404850  98.0832195 107.4770375
 100.8867264  98.9178276 107.9426166 100.3392506  98.1816292 106.7387571
 114.5856285  98.8056850  57.3284674 113.9998245  99.0646458  58.0398083
 114.3095684  97.9175377  57.1021557   7.1448355 122.9381847  23.6202741
   6.9022589 122.5500298  22.7796078   6.3241129 122.9784584  24.1112208
 105.8302689  39.9214983  55.9051132 105.5878448  40.6524944  56.4735365
 105.5940914  40.2140427  55.0248480 101.8588924 104.5593262  20.5313993
 102.5303936 105.1173401  20.9237432 102.3387814 103.7946224  20.2133250
 110.8362007 107.6987743  75.7541513 109.8888111 107.8349781  75.7653427
 110.9881306 107.0184326  76.4101171  78.3698750  86.9229603   1.1141367
  77.4797964  86.8750668   1.4629856  78.2769585  86.6964531   0.1887761
  86.1773300  73.6088419  37.0043111  87.0975876  73.3811808  36.8719554
  85.7179356  73.1779242  36.2835503 102.8165531  92.9885292  78.5683060
 103.6066055  93.4216595  78.8914919 102.9225636  92.9756165  77.6170826
 101.3081169  68.1855106  37.0831871 101.9502926  67.4772549  37.1302509
 100.7474899  67.9517269  36.3434076   8.0189734  89.8716354  63.7711382
   7.5593691  89.3798542  64.4516897   7.4023085  90.5566311  63.5127974
 116.6355324 100.9904480  79.6876001 116.3112068 100.6026745  78.8747740
 117.3785591 101.5293598  79.4160891 118.9798069 128.9773273  45.1389313
 118.4497738 128.3954239  44.5942402 119.6051025 128.3962822  45.5720949
  98.0354881  55.1541567  65.5934429  98.6796665  54.4516039  65.6811714
  97.2792816  54.8497534  66.0951614 109.4986820  87.5123119  60.4470873
 108.7369823  87.1254349  60.8788013 109.8941517  86.7869091  59.9637413
 105.4434681 113.2982445  38.3354306 105.7583714 113.5693550  37.4731278
 105.5902958 114.0610313  38.8947415   8.7663012  60.1123476   4.6929258
   8.8626319  60.4885197   3.8180256   9.6497279  60.1324272   5.0608665
 107.7647305  80.9282017  25.7021213 107.1156406  81.6306973  25.6644320
 107.4788094  80.3767300  26.4303780  86.3547707 139.8068047  59.3107271
  85.5780983 139.4014931  58.9250755  86.4246464 140.6551361  58.8729000
  85.6582165  57.6595163  68.7131929  85.6094360  57.2402143  69.5722866
  84.8043633  57.4900436  68.3151340  77.9825687  79.9200678  36.9609809
  78.6419106  80.4920101  36.5680671  77.2787619  80.5123901  37.2256327
  69.3193626 113.9464951  57.8355408  70.1037264 113.7070751  58.3291769
  69.4046497 114.8891449  57.6927900   7.3459941 104.1926575  97.6823902
   6.6848879 104.8842716  97.6535320   7.8855830 104.4086933  98.4429264
  89.1884804 130.2311420  30.5838537  90.1265812 130.2805424  30.4001236
  88.9544487 129.3229294  30.3925395  44.2686844  47.5497246  34.7166586
  43.9110994  48.2101631  35.3101134  43.6062384  46.8589878  34.6998930
  94.1651249 106.6074562  45.1642561  94.0895748 107.1129894  44.3549585
  94.7996330 107.0928764  45.6915188  73.7185240  84.7677898   0.3325783
  73.4505367  83.8935089   0.6154943  74.6738195  84.7238064   0.2911885
 114.2507362  71.0415363  35.6159687 114.7432709  71.8296337  35.8451939
 113.4345913  71.1168909  36.1103940   2.0230132  92.9848194  47.8231430
   1.2045317  93.4798145  47.7869892   1.7609721  92.1091366  48.1072903
  82.8298855  85.4916382  46.2213135  83.6426067  85.9950256  46.2694597
  82.9356384  84.8027134  46.8773937  92.2227573  80.9644699  27.1706820
  91.9281673  80.0543976  27.2056055  93.1740475  80.9050846  27.0827174
 124.2804337  74.1782856  57.1430397 123.7928867  73.3555174  57.1031666
 125.0699139  73.9650106  57.6404953 112.0911503  66.5617228  56.3121510
 111.6060352  67.3536444  56.5440178 112.2086143  66.6217661  55.3640890
  73.1726408  73.1062365 104.9251344  72.8809547  73.7182617 105.6008398
  72.4897194  73.1454039 104.2555686  87.0149040  77.9664516  43.7080193
  87.5068283  77.5644016  42.9920530  86.5936089  78.7286377  43.3107615
  99.0992928 100.5581284  41.9650459  98.2044792 100.2813244  41.7677736
  99.4280910 100.9123135  41.1388016   2.4067145 106.1608028  30.3894711
   2.6885634 105.7662773  31.2147832   2.8475791 105.6448174  29.7144651
  80.0714588  37.7789044  57.2601080  80.7144165  38.4864402  57.3073006
  79.5241356  37.9004955  58.0359221   9.6740370  79.8710346  11.3491428
   9.5055514  78.9673805  11.6160679  10.3585845  80.1733971  11.9459748
  73.2308054 129.4147396  62.3701048  74.0570402 129.3138599  61.8974543
  72.6443338 128.7748909  61.9665194  98.5235310  63.0906391  43.1298876
  98.9271545  63.7631083  42.5811577  99.2175102  62.8257990  43.7336016
  78.8624477  33.2516146  28.6199021  79.5515537  33.9128137  28.6845827
  78.3859730  33.3205318  29.4472194 107.4702454  83.6693668  24.2824149
 107.9718781  83.7515259  23.4713387 106.5555954  83.7166405  24.0041757
   5.3246050 115.8721828  40.7126236   5.3731852 116.7641163  41.0566092
   4.4649249 115.8231926  40.2945709 107.3973465  72.2242594  58.5494137
 107.6990986  71.3397884  58.7565088 106.4434052  72.1718407  58.6084557
  92.3016071  91.6453362  38.7206984  92.1193600  92.3957348  39.2863154
  92.6216316  92.0319271  37.9056120 122.2762489  61.2420416  37.9480267
 122.0048237  60.7677841  38.7339282 123.1717873  60.9451675  37.7864504
  11.9264441  73.2194471   0.1673192  12.1959143  72.4480867   0.6659380
  12.4255019  73.9398479   0.5522832 109.4355011  69.1831017  61.8059635
 109.8067760  68.3577204  61.4942884 108.5454750  69.1934681  61.4538670
 105.3203964  87.6829529  49.9913692 106.1416340  88.1434727  49.8189211
 105.5263805  86.7607021  49.8389101 102.7658463  88.5841179  22.2186232
 103.5520744  88.8376904  22.7021313 102.1800613  89.3364906  22.3024082
  93.4119606  69.7477102  45.5838633  93.0342293  70.4087830  45.0037479
  94.3465042  69.9536371  45.6052113  96.7876053  57.0595455  60.2179337
  97.4932671  56.9311523  60.8518076  95.9849262  56.9686365  60.7314157
  99.6498966  76.8148947  47.5015593  99.3281841  77.3975801  46.8136597
  98.9840508  76.8635988  48.1874943  97.5723267  78.6665392  49.3218136
  97.0934010  78.8264561  48.5086155  98.3051109  79.2817068  49.2931414
  85.6935692  67.7759171  40.0725555  85.7682228  68.4383488  40.7594633
  86.0119247  66.9707394  40.4806900  99.2571926  72.8703356  47.4429607
  99.1422558  73.6342430  48.0081749 100.1129150  72.5180006  47.6875448
  85.6608295  50.9719324  74.2286968  84.7599316  50.7322216  74.0115547
  86.0918045  50.1382113  74.4168234 114.3110752  70.6484652  32.9151464
 114.6154594  70.6974173  33.8213396 113.7162018  69.8986673  32.9024673
 115.1994133  41.8622780   7.8979015 115.2260399  42.5278664   8.5853004
 115.4798412  42.3231888   7.1072358  97.3797512  67.2940159  59.3887043
  96.5723038  67.6622009  59.7474480  97.1418762  66.4044952  59.1271782
   3.0067950  45.9721613  73.0521250   2.1750956  45.8533859  72.5934267
   3.2356005  46.8890238  72.8996515  83.1857395  70.2572346  40.1090336
  83.2176685  69.3044233  40.1948500  83.6511421  70.4399300  39.2927885
 103.7085915 101.2753010  28.0953431 103.4130192 101.1637974  27.1917725
 103.5308266 100.4317379  28.5113120  31.3170271 107.3565388  18.9264464
  31.0861426 107.7080822  19.7862947  31.1548262 108.0796528  18.3206177
 118.5671234  91.4368916  38.3640075 118.7345695  91.0414886  39.2194915
 118.7112904  90.7261276  37.7392912 100.8450603  83.7495708  26.9124627
 101.4506817  83.5888863  27.6360941 100.8518219  82.9353809  26.4091969
 103.6721325  90.8488083  37.9030967 103.0089569  91.5360546  37.9672837
 104.5016289  91.3218498  37.8367877  88.6201572  71.7350101  17.3654532
  88.2741547  71.7470312  16.4730585  88.4470367  70.8468246  17.6775205
 102.1433735 105.4557419  26.2395358 101.5937424 104.7015476  26.0266256
 102.8707695 105.4046726  25.6194425  13.6497622  79.0156651  37.9469943
  14.2012148  79.3869877  38.6356568  14.0623980  79.2987680  37.1310186
  92.3995113  63.3923244  50.8926010  92.6108360  63.7607670  50.0347996
  91.5991116  62.8881931  50.7461500 108.8516045 101.3445854  67.1292448
 109.7663975 101.5800285  66.9744873 108.8863087 100.4395390  67.4389458
   0.2309828  97.9597759  24.1170597   0.6796961  98.6177635  24.6480536
  -0.6977243  98.1747532  24.2037129  51.2846088  90.3514385  54.5621634
  52.2255564  90.5258751  54.5416117  51.1842680  89.5231533  54.0929937
  75.0998306 105.2603340  23.2371378  74.6574831 104.6324444  22.6658940
  75.9912920 104.9217796  23.3202910 108.0528736 120.7206154  51.5153646
 108.6723232 120.7095146  52.2450161 108.4961414 121.2240410  50.8324957
  92.3318672  82.7609062  53.0808401  92.0036888  82.2994614  53.8525915
  93.2841778  82.7369118  53.1743860 108.2608128  65.1600361  49.0020418
 107.8649902  64.4157028  49.4553900 107.6134205  65.8606243  49.0813494
  79.4842768  83.5214043  31.9929242  78.5893154  83.5169697  32.3324251
  79.9868870  84.0044498  32.6488805 113.7061882  55.2733231  16.1692286
 113.7324238  54.8327160  17.0185876 113.6829472  54.5608473  15.5304265
  32.4956160  63.3210802  46.8323135  32.5553923  63.5268688  47.7652168
  31.8843775  63.9694643  46.4827013  96.4934349  47.2845125  53.5830545
  97.1318150  46.6061544  53.3627558  96.8404484  48.0800915  53.1794882
 102.4244022 103.5214520  14.6857417 102.4778080 104.1862583  13.9991474
 102.1214485 103.9986992  15.4581928  90.5851650  59.9018526  58.7942123
  89.7728634  60.3262949  58.5180902  91.1263466  60.6161880  59.1304731
 121.4066887  45.2925205  52.6019859 121.3479614  44.5861340  53.2452631
 121.6413403  46.0653639  53.1156778  87.2000885  84.8032379  21.6641402
  87.3002243  83.8548851  21.5814328  86.3968277  84.9158382  22.1723938
  93.1140137  74.1123152  27.5803781  93.8284779  73.5048342  27.3887086
  92.7558517  74.3392372  26.7222071 108.1065941  83.7808323  30.3206372
 108.6775398  83.2318497  30.8580923 108.3378506  83.5565376  29.4192839
 101.6498470  90.0586987  47.8295994 100.8584881  89.8988056  48.3438253
 101.8578720  90.9791279  47.9900980  96.1378384  86.4402771  26.7718649
  96.0765553  85.5556011  27.1321607  97.0654964  86.6647625  26.8445373
 106.8016720 105.4874039  57.6033640 107.4757099 104.8132229  57.6892614
 106.2459278 105.1805592  56.8869638 106.7231655 104.6690083  36.1511493
 106.2511826 103.8486481  36.0080457 107.5928116 104.5123196  35.7832050
  78.7704802  94.3279171  59.9387407  78.7396097  94.0804386  59.0146065
  78.6502266  95.2775288  59.9365377 114.7939014 107.1771145  51.2091398
 114.1983128 107.7481174  51.6943884 114.6304417 106.3033676  51.5642118
  89.8089123  69.6622610  27.3986530  90.5532646  69.9146414  26.8523264
  89.1230679  70.2911854  27.1743798 100.9411240 111.4605618  44.3969584
 100.0676060 111.3037109  44.0383625 101.1897945 112.3192883  44.0549469
  91.5675354  68.5723639  62.5323153  90.9404850  68.6509895  63.2512474
  91.1124420  68.0473757  61.8739080 116.1356544 116.6854668  70.9884977
 116.4531136 117.2594643  71.6856194 115.4810619 116.1315250  71.4138174
 121.7691040 114.7745991  24.0323639 122.4737740 114.1284275  23.9862609
 121.1877060 114.5471287  23.3067822 124.0162468  70.5403996  40.4984331
 124.0423203  71.4970541  40.5174685 124.8685646  70.2707052  40.8405542
  97.8064346  75.7953787  31.9897842  97.7182865  75.3226233  32.8174114
  98.3072281  75.2037573  31.4281678 121.9163322  84.9776459  56.8437386
 121.5214252  84.1280079  56.6477871 121.1774254  85.5857086  56.8663216
  91.3479900  55.2936792  31.8119383  91.7307568  54.4180965  31.8673348
  92.0360947  55.8315516  31.4202332 111.3131142 123.6231327  79.1287041
 110.4770947 123.1755638  78.9983225 111.0742188 124.4755173  79.4928408
  95.8415604  83.0008411  26.8686581  95.3451252  82.1840858  26.8166232
  95.3616714  83.6090374  26.3064933 120.3117943  93.4113407  21.7208648
 120.1251221  94.2690849  22.1025181 119.6117020  93.2758045  21.0823321
 113.6567974  54.5308447  47.8733397 112.9079056  53.9390945  47.9456758
 114.3639946  54.0796280  48.3343124  93.1000519  87.9158020  18.2374394
  92.5901508  87.1977806  18.6125124  93.9959908  87.5806618  18.2026327
  85.3614235  79.0320063  70.6853342  84.9173260  78.8871527  71.5208197
  85.7630157  79.8963261  70.7742500 103.8546276 100.5655289  44.5449162
 103.4829998 100.8169746  43.6993980 103.3948612 101.1133957  45.1810741
  83.5525322  93.0919361  70.1450443  82.6511002  92.8034687  70.0020361
  83.9029408  92.4737549  70.7863665  83.0109692  55.7027102  54.9173355
  82.8045177  55.1738167  55.6879711  83.1567287  55.0633287  54.2200708
 124.1135120  72.2287893  32.5430202 123.1868362  72.0855904  32.7353859
 124.1991615  73.1794643  32.4715328  85.2594662  59.5312643  19.8344994
  84.3769169  59.2382002  19.6076763  85.8390713  58.9361811  19.3589270
  19.8576480  81.9274235  31.6848993  19.0503722  81.8004131  32.1833062
  19.5766669  82.3651505  30.8813620  98.4070778 106.2756252  35.7497978
  98.8706112 106.5788651  34.9691510  97.7023506 106.9117355  35.8721232
 123.9930630  93.5902214 105.7159954 124.5118332  93.6186314 104.9120685
 123.5537434  92.7402592 105.6876531 103.3688927  94.9076176  45.0599957
 102.8733730  95.5669975  44.5742893 103.2590103  94.1035080  44.5524883
   2.9244738  86.5069962  37.7459836   1.9917422  86.7086411  37.6711917
   3.0323058  86.2031269  38.6472416  89.6892929  68.6297989  64.8312283
  89.9686050  68.6410046  65.7467031  89.1721344  67.8286028  64.7483921
  92.2743893  87.8916073  43.6941242  91.7757511  88.5338879  43.1890774
  91.8305111  87.0598698  43.5285616 105.1350784 122.8011227   9.4704765
 105.5098152 122.4396420   8.6672753 105.2937889 123.7428856   9.4061160
  86.9113445  90.6225491  33.9968324  87.1003342  91.4717007  33.5974979
  87.6513386  90.4634190  34.5827675 104.4341278  86.3688755  42.6046181
 103.9764118  87.1985245  42.4689579 105.1241779  86.5762711  43.2347298
 104.6718693  52.6954794  55.9389448 104.6339417  51.9177914  55.3821754
 104.9131584  53.4049082  55.3433561  64.8271799  72.3486137  34.3849516
  64.7366905  71.4904308  34.7991538  63.9291000  72.6677608  34.2964864
  69.9872112  85.2172756  24.6992970  69.3459558  85.4643059  25.3656363
  70.0303459  84.2624378  24.7507238  89.5183182  79.0188932  31.4756417
  89.8562622  78.2014799  31.1097622  89.9345493  79.7049952  30.9538674
 117.9633331 132.6121044  64.9128342 117.6273441 133.4276295  65.2846622
 118.2403374 132.8486919  64.0276623 109.3622684  71.5698195  22.1205449
 110.2668381  71.4248037  21.8431282 109.0226269  72.2162008  21.5016198
  92.1113014  95.6543255  19.5450962  93.0182171  95.8472729  19.7828257
  91.6624546  95.5432224  20.3832030  78.0681086 106.0385609   5.8170450
  77.9214478 105.8115578   6.7352986  78.8824749 106.5415764   5.8217943
  79.7414970  59.5833254  36.0225940  79.8015881  59.8086452  35.0942349
  80.6501865  59.5590115  36.3224626  83.1472588 116.0971928  54.2088032
  83.6343861 115.9135532  55.0120592  82.9239273 115.2336693  53.8614082
   2.8138762 132.7434158  37.8623891   1.9261962 132.5731373  37.5473356
   2.8262740 132.3839474  38.7494421   0.6572466 124.3308640  32.5940752
  -0.1384229 124.6317291  32.1551919   1.3003188 125.0186920  32.4221134
  90.9509850 101.3955212  13.4296882  90.1380062 101.1930084  12.9667842
  91.5852642 100.7662201  13.0863023  88.0759048  91.6196728  40.8626080
  88.0853271  91.0675812  41.6444874  88.2542896  92.5013542  41.1898088
 115.7891273  85.0143623  58.8081837 116.4899063  84.3826008  58.9694786
 115.0760365  84.4923592  58.4404039 103.6333179  94.5226860  49.8397160
 103.4171200  95.0135326  49.0468931 104.1751862  95.1224518  50.3524446
 121.7908001  94.3261147  48.0058193 121.1454010  94.4870377  47.3174858
 121.8825817  93.3736324  48.0301476 111.1913490  54.9144268  60.0708008
 110.8607483  54.3699074  59.3563604 110.5230236  55.5899048  60.1861382
 112.5247002  66.6728401  53.2897139 112.2123623  67.1277046  52.5075579
 113.4694862  66.8264294  53.2948637  52.6573420  63.2266951  26.8730307
  52.3972797  63.8152218  26.1643434  51.8679190  62.7210283  27.0662928
 100.1083660  98.1248093  43.0974531  99.8647881  98.2138634  44.0188503
  99.8733044  98.9657211  42.7052212  91.9301796 108.3128452  45.3697014
  92.4721527 107.6129246  45.7338572  91.3513279 107.8695202  44.7495222
  90.4596901  90.0317955  37.6039720  90.7754803  89.3354511  37.0281076
  91.2533569  90.4827118  37.8920722 117.6059437  82.3620701  52.8903723
 117.7266788  81.4448738  53.1361389 117.0306683  82.3314667  52.1259403
 104.2938519  44.0514803  77.8280640 104.7106361  43.6750460  77.0529413
 104.0966034  44.9544811  77.5792408 122.4703503  62.7945232  90.3802403
 122.3447704  61.8926668  90.6753918 123.2438469  62.7569056  89.8176416
  19.5565348  73.9282227  16.8251693  20.3562289  74.3884182  16.5703309
  19.1111785  73.7457752  15.9977663  95.5748463   0.7683354  55.3355074
  96.0813808   1.3008290  55.9487867  94.6931934   0.7478505  55.7076550
  95.3411388  75.8406115  46.9708014  94.5235157  75.9421444  46.4835453
  95.6098175  74.9374771  46.8022823  77.5013065  64.2838907   5.5540601
  78.1519938  64.8389673   5.1242486  77.9374933  63.9741755   6.3478128
   8.6309367  99.2378044  81.5871239   9.3881445  98.6600685  81.6823959
   8.2520896  98.9986134  80.7412624 110.3072357  71.1518383  15.7696652
 110.1399708  71.9863415  15.3316569 109.5007038  70.9682941  16.2513852
 101.7688942  71.7192411  34.6282601 100.9541035  71.8699837  34.1490722
 102.2460938  71.0833216  34.0952325  96.9504929 126.2088203  58.3997250
  97.3068523 125.5243015  58.9660025  97.4685383 126.9861698  58.6085320
 107.0600224  87.1156502  61.5343332 106.3148117  87.2710419  60.9540319
 106.9262981  87.7213860  62.2633314 118.7645721  90.5298996  52.2180176
 119.3570518  91.2764072  52.1289968 118.3549118  90.4452610  51.3570642
 100.2214813  77.2110653  63.2402325 101.1619282  77.0427513  63.2989502
 100.0770092  77.4462032  62.3236752 115.8103752  85.9868526  65.5271578
 115.1741886  85.7007217  66.1826229 116.0513973  85.1859188  65.0617027
 101.4427471  63.6452341  38.7280869 101.5413857  63.5826111  39.6781278
 100.9062862  64.4265509  38.5939717 109.3573475  82.7349281  51.6552782
 110.0164318  83.4175301  51.7813492 108.5622692  83.2110119  51.4156437
  67.2784424  77.1968174  29.8804212  66.6184807  77.1218967  29.1911721
  67.2225428  76.3683653  30.3566265 119.1485214 112.6235580  54.6361399
 119.8887539 112.2169113  54.1856670 119.5462704 113.1159210  55.3541994
 109.4244003  77.8723001  55.6439590 109.1469097  77.6037931  56.5198231
 108.6083984  77.9662609  55.1524878 113.9083672  65.5853415  46.1907578
 113.0500889  65.3262091  46.5260553 114.0767288  64.9790764  45.4694176
 108.6176872  52.8437901  11.0173571 108.0483627  53.4078312  11.5407693
 109.5000553  53.1775141  11.1794889 102.7184582  74.6109152  28.9757395
 102.6558018  75.3748608  28.4024215 102.2018147  73.9369631  28.5340405
  86.3857937  42.7882004  60.4695654  86.9019794  42.3593235  61.1520958
  85.4776955  42.6789951  60.7518196 124.2696762 112.5581932  40.6244755
 124.3367195 113.3477879  41.1613846 125.0188541 112.6079273  40.0307751
  95.1671886  97.5268173  11.3748586  95.1386642  96.6465759  11.7498124
  96.0798454  97.7987957  11.4713478 107.5474262  96.1381817  55.4267216
 107.1086979  95.6710148  54.7157240 107.4671650  95.5552578  56.1817026
  92.8875923  65.9292984  32.0754862  92.0686245  66.3754749  31.8599415
  93.5721397  66.5404701  31.8032932 108.1368542  68.0077314   0.8101971
 108.7069702  67.3139763   0.4786753 107.6828194  67.6100540   1.5531200
  62.6326513  79.8207760  39.2149973  62.4245358  80.7500172  39.3120551
  63.4078217  79.8063040  38.6536312 113.4615707  81.9925308  86.0464573
 113.5208416  81.8227959  85.1062965 114.1162109  81.4130592  86.4361954
 100.8419609  98.3301544  60.9241724 100.2509499  98.9687538  60.5252600
 101.6508484  98.8174629  61.0805988  98.5465050  68.6105204  77.6417542
  99.2532921  68.7740374  77.0172977  98.6820793  69.2594147  78.3322525
  96.6346836  11.6344719  12.9866672  95.9687710  12.3219662  12.9981470
  96.4131165  11.0739689  13.7302935 102.6318455  60.8487797  18.4567297
 103.5235500  60.9139729  18.7985659 102.7288628  60.9625387  17.5112784
   2.0311289  73.3237648  30.0952029   1.3100939  72.7102661  29.9539256
   2.1996146  73.2826662  31.0365629  95.3835869  81.0861683  69.2686319
  96.1428738  80.5746460  68.9892673  95.3485966  81.8185139  68.6532593
 112.7128983  44.9538469  26.3846612 112.3082256  45.7165909  25.9715080
 111.9808769  44.3660545  26.5714049  69.0596247 109.7020245 108.4753089
  69.1939545 108.9388847 109.0372770  68.9723730 109.3382645 107.5942304
  84.1551781  94.2881393  14.5091677  84.7084332  94.7607803  13.8872755
  83.7569141  93.5882950  13.9916313  81.6420650  79.3830013  36.2795758
  81.3749027  79.3883705  35.3604317  81.6331959  80.3048992  36.5369678
  80.0680637  75.5322504   7.2961903  80.3097534  75.7151556   8.2041365
  79.4042253  76.1896563   7.0879579  97.1767616 139.9366379  94.3061181
  97.4297047 139.0567589  94.5855352  97.6851368 140.5217075  94.8677906
  92.1920013 103.6381721  25.6151247  93.0158520 103.1521511  25.6511045
  91.5192318 102.9629707  25.5273533  83.6825371  58.3984327  54.8151255
  83.5279560  58.7688589  53.9461470  83.2872581  57.5274515  54.7779894
  83.0022430  77.1711302   7.6696104  82.4174881  76.6753864   8.2427907
  83.3082199  77.8987408   8.2110858  91.0362339  91.3343620  48.3191538
  91.9320583  91.1341572  48.5905313  91.1268044  92.0793152  47.7249527
 104.3164730  81.0833931  10.8197868 104.7913074  80.9952354   9.9933493
 104.6973515  80.4134083  11.3874936 105.9968853  90.3414059   7.5785297
 105.4867744  89.7895241   8.1713569 106.8465424  90.4343414   8.0094326
   1.6477233 140.7050419  42.0965767   2.0448046 141.4041901  41.5771818
   0.7078772 140.7930183  41.9378853 103.4682465  82.3099709  40.8514929
 104.3888283  82.4449730  41.0762787 103.0428791  83.1373692  41.0767126
 105.6211185  63.1157303  27.9145384 106.0067654  62.3839951  28.3962774
 104.6987534  62.8789949  27.8174329  27.3744135  72.7216959  48.3101368
  26.6867571  73.3829260  48.3884430  27.3122721  72.2144985  49.1195345
  91.1907196  83.6851215  48.9547300  90.9077263  84.5915985  48.8345146
  90.5434227  83.1667328  48.4766912  99.1619682  68.6291504  57.9104185
  98.6330891  67.9805279  58.3749676  99.6585751  69.0709734  58.5991859
  99.5698929  57.0806313  19.5426929  99.6334457  57.9211569  19.9962389
  99.5904541  57.3079252  18.6130989  79.2471218  54.8822355   0.2159286
  79.1199350  54.1692019   0.8417350  78.4328604  55.3838730   0.2556564
  90.8971786  61.2347937  74.3526840  90.5432796  61.3676405  75.2320862
  91.1374569  60.3085566  74.3286037 114.7557926 100.5141068  38.2283306
 115.5466747 100.2415180  38.6935711 114.2995644 101.0856152  38.8459539
 107.7596378 102.9707909  69.7511435 107.0963669 103.6594868  69.7958803
 107.5737762 102.5121212  68.9318132 106.4837551 101.8742466  27.6173258
 105.6539536 101.3978767  27.6444411 106.8528843 101.7623711  28.4933758
 102.8949833  84.5911884  47.0074892 102.8952885  84.4693279  46.0580778
 102.4623585  83.8087177  47.3492575  57.6794910  53.3033323  38.8041282
  58.2602549  52.7730083  38.2585049  57.5819397  54.1246033  38.3222318
  88.2574749  91.3186264  49.1475534  89.1425991  91.3884640  48.7899113
  87.7082825  91.7905712  48.5215521  94.7503662  67.6774120   7.5447553
  95.4996490  67.9113579   8.0925471  93.9904881  68.0057955   8.0253690
 122.1615410 103.1423092  16.3232493 121.7331791 103.3920193  17.1420169
 122.9988480 102.7669811  16.5957773 110.6355572  90.6510639  68.0228186
 111.2445354  89.9412251  67.8190804 109.9380016  90.5619812  67.3734283
 109.5371151  92.1459484   2.1470030 109.3856525  92.3008537   3.0793631
 110.3030968  91.5725231   2.1208166  66.8517399  82.4217415  16.6117656
  67.4083567  82.7225780  17.3300350  67.4648094  82.1944904  15.9126687
  20.1570635 108.8282394  19.2555213  19.4728308 109.3726254  18.8660347
  19.9098712 107.9323864  19.0262449 123.2886219  93.9569759  52.0340443
 123.7506676  94.4139004  52.7368689 122.8318691  94.6501446  51.5574741
 113.9198208  52.6817417  15.1285076 113.8718700  52.3797750  14.2214525
 113.8448048  51.8832684  15.6510460  61.9376087  74.7772741  10.1691818
  61.1524248  74.3232870   9.8632175  61.6097498  75.4385614  10.7786381
  66.3158464  88.7925625   3.3963245  67.0208979  89.3239117   3.7661859
  66.2673378  88.0269623   3.9688101 102.3985481  93.3701515  38.5221314
 102.6274109  93.9876652  37.8274846 103.2086754  93.2581425  39.0195060
  91.4043713  94.3939018  14.8551679  91.2949848  94.6558666  13.9410329
  90.8426666  93.6250210  14.9528360 118.0073833  77.5077057  33.7757158
 117.1107769  77.6165819  34.0926933 117.9325867  76.8809032  33.0561614
  71.0319662  95.7435131  12.5880575  71.2329483  96.4522266  13.1992447
  70.3165245  95.2633572  13.0049920   3.6006384  81.2220192  27.4157834
   3.0517607  81.6467381  26.7565584   3.0588084  80.5100346  27.7559686
  97.6958561 111.1324692  39.1093993  96.9643116 111.3524055  39.6862030
  98.1070423 110.3733921  39.5228624  59.4777966  85.8077621  29.2137074
  59.1342783  86.5770054  28.7592864  60.4061460  85.7870579  28.9813876
  95.2009583 117.9699993  28.8194966  95.5546951 117.1175575  28.5656166
  95.8089542 118.6043358  28.4397840   9.3268233  91.3332081  55.2854395
   8.7631827  91.5722942  56.0212278  10.1748686  91.7236423  55.4966259
  89.3281078  61.2403917  10.9584844  89.8193645  61.7297125  11.6183805
  88.9179802  61.9144440  10.4165637 118.8154030  69.6646404  86.6112288
 118.8263130  69.4851923  85.6710633 119.2818356  68.9255190  87.0015701
 100.5693054 103.1990719 106.4365818 101.3554955 103.7280655 106.5718284
  99.8763657 103.6797810 106.8893277  93.7801361  88.8846397  46.2012720
  94.4130993  88.1781483  46.0729837  93.2975197  88.9266586  45.3757143
  91.1125851 101.2739468  10.3376889  90.2199364 101.0614681  10.6101871
  91.5735245 100.4351711  10.3522944 100.2913380  93.5142803  13.0680633
 100.7000256  94.2958069  13.4401262  99.4128227  93.4995461  13.4478223
  99.1074562  84.9734879  83.4662994  99.4936275  84.6240425  82.6631888
  98.9468765  85.8970451  83.2726868  99.8933506  99.9693871   1.4350785
 100.0653744 100.7486916   0.9065719 100.5108833  99.3160248   1.1064488
 124.8294735  87.5639915  31.3315415 124.5964241  88.4400558  31.6388392
 124.4959927  86.9758987  32.0091581  92.5182819  92.9593372  70.2983427
  92.5387764  93.8905144  70.0776100  92.8319263  92.5189877  69.5084429
 107.3645687  63.2065582  39.1232681 108.0771160  62.9339075  39.7013378
 106.6483307  62.6046562  39.3256426  81.1282825  88.9563656  40.8651352
  81.7514229  88.4099007  41.3439894  81.6513062  89.3711853  40.1791286
  57.8714037  80.7087708  41.0314083  58.5205555  81.3559437  40.7557249
  58.2555676  80.2994442  41.8067169  91.2732697  75.5880260  39.8133254
  91.2720490  76.3276625  40.4209185  91.5066719  75.9725332  38.9683962
  53.4387350  82.6909351  24.1318941  53.3395195  83.1968212  23.3253765
  53.0715179  81.8321037  23.9226270 112.5637150 116.2708378  43.4167194
 111.6956329 115.8718967  43.4759617 112.7916622 116.2117386  42.4889374
  90.3175354 123.0393028  12.5078773  89.7489166 122.8596210  11.7591333
  90.5767632 122.1741009  12.8248250 109.4914532  82.8181362  43.9124393
 110.0835705  82.7089405  44.6565580 110.0649166  82.8052902  43.1461430
 106.8106651  60.4623556  15.1941526 107.2109032  60.6511402  16.0429144
 106.9182205  59.5176840  15.0834370  86.6130733  85.2848148   2.6224473
  87.0987320  84.8254395   3.3075303  86.0250473  84.6220398   2.2602417
 101.5588284  66.2097692  46.7484188 101.9815731  65.6086493  47.3617411
 100.6607914  65.8863401  46.6766214   6.2311678 114.5248508  26.1086845
   5.6585532 113.7807655  25.9224653   6.5493994 114.8029995  25.2498531
  92.5128651  66.1055422  27.4531722  91.6114426  66.0928488  27.7749205
  92.8740311  66.9275665  27.7849245 106.3827705  47.5671005   1.2346485
 106.5259361  46.7121744   0.8286446 107.0243835  48.1412935   0.8164787
  15.9021979  57.0179272 102.7146407  16.6832476  56.5580273 102.4069371
  16.2386637  57.6954794 103.3011028   2.9088049  66.4931345  46.4503479
   3.0439978  65.5612707  46.6223526   3.2591467  66.9329691  47.2249699
  77.2398472 126.2950516  29.7328496  77.4333429 126.1008835  30.6499577
  78.0534315 126.6643047  29.3893862  64.8649406  73.2561016  29.1278696
  64.1556644  73.1720972  29.7651315  64.6332169  74.0283871  28.6120081
 104.7818947  84.8665237 109.2844700 104.0263081  85.1957130 108.7976921
 105.3284073  85.6388760 109.4294603  68.9281654  63.4206295  25.3004551
  69.6322727  63.8536978  25.7830691  68.2310057  64.0749741  25.2553582
  19.6244460  97.9927826  30.2296591  19.2355757  97.9291058  31.1019897
  18.9277678  98.3558178  29.6827769  89.6919060 104.5278168  50.1991320
  89.0035915 105.0699806  49.8137712  89.4022846 104.3767738  51.0988760
  96.1034012  42.3151350  49.0087986  96.6872692  42.0289803  49.7112560
  96.6620636  42.8326750  48.4289026  54.6685362  58.9968252  41.6323185
  55.1750183  58.3602571  41.1278486  53.9181376  58.5007048  41.9594193
  77.5012493  55.0608349   7.0914960  76.9693565  54.9781561   7.8830075
  77.4927187  54.1853237   6.7046630  69.0317774  50.0970984  22.6804662
  69.4291115  49.5074081  23.3212638  69.5428944  50.9035969  22.7479458
 122.8806496  78.9638758  17.7601731 123.1257343  79.5781612  18.4521413
 122.1612740  79.3961716  17.2998893  74.6313334  95.8274841  17.6839006
  75.5349731  96.1371899  17.6226950  74.6658516  95.1119900  18.3188093
 107.5927734  41.4112902  51.3211346 108.5151291  41.5710402  51.1212015
 107.1313190  42.1546888  50.9329891 114.2955112  65.3623009  19.3321264
 113.7306786  66.0522032  19.6803200 114.3749905  64.7331810  20.0491500
 103.4787083  46.9934607  48.3382940 103.3733845  46.0422373  48.3206463
 103.0130672  47.3004627  47.5603724 109.1789246  68.7137365  53.6044312
 109.5946980  69.5241022  53.8988304 109.8619652  68.2596540  53.1109762
  83.8567066  73.3131552  27.4742651  84.1418266  72.4310589  27.2358465
  84.3449974  73.5151768  28.2723784  54.4007969  89.9502277  21.2979388
  53.6804533  89.4712639  20.8881474  54.5335007  90.7120132  20.7337523
 120.8096027  89.4769192  29.3877149 120.9665775  88.6680222  28.9005995
 121.6799450  89.8566437  29.5082760 100.5875397  86.7849922  47.6757479
 100.5194569  87.3988056  48.4070683 101.4809513  86.4457417  47.7301788
  92.3271370 110.0746059  36.1747503  93.1779957 110.3940201  36.4751482
  91.8047523 110.8667564  36.0488915 108.2403660  94.9049091  12.5038373
 108.8095474  94.6532249  11.7765713 108.1440163  95.8531475  12.4155128
 105.8239174  83.5574913  19.7063422 105.0152111  83.4525871  20.2075553
 106.3837242  84.0966797  20.2650261  58.7366009 108.2744598  15.9138882
  59.0600252 108.5305119  15.0501394  58.2176733 107.4866962  15.7514751
  74.8627043  93.2520866  14.4393313  74.9619770  93.8228416  13.6773515
  75.5610275  93.5239887  15.0348520  88.0623913  73.6484528  67.0436621
  88.1624317  73.2097530  66.1988163  88.4246826  74.5233107  66.9036436
 100.9892750  91.3398838 105.4923710 101.5184593  91.4538193 106.2818094
 101.6258621  91.1544418 104.8020037 108.0809402  76.5382195  24.6954203
 107.9438210  77.4061871  24.3158579 108.9437294  76.2715912  24.3780327
 104.2611217  73.4414434  30.8211493 104.0293026  73.9018011  30.0145721
 103.5188103  72.8603411  30.9870648 114.3670464 103.6810684  21.6649389
 115.1045609 103.1190586  21.9025087 114.7526073 104.5509815  21.5608788
  58.6618233  58.5802460  27.9665184  58.1973267  59.3745136  27.7026701
  58.4847689  57.9546833  27.2639823 104.2979050  73.1234026 104.3754997
 104.6122456  73.4804821 105.2061119 103.7704754  72.3646736 104.6252629
  97.9264545  90.5877018  25.3036880  98.4457970  89.7840023  25.3280020
  97.2035217  90.4241276  25.9093642 115.1210213  83.3589745  37.9342198
 114.9795628  83.3928490  38.8803053 115.4331112  82.4690247  37.7704191
 121.1442089  94.6095467  36.8330431 120.2087593  94.6273327  37.0351696
 121.5374565  95.2104282  37.4659157  97.0949459  68.6523819 108.5650788
  98.0036259  68.8073778 108.8229848  96.7895317  67.9696989 109.1624899
 115.9152603  98.8881207 103.5486033 116.0519218  99.7146320 103.0855259
 115.1991653  99.0701008 104.1571429  90.5389404  95.9126854  28.0240917
  89.6099949  95.7230854  28.1558156  90.9512711  95.0518417  27.9523158
 102.8413486  76.9915438  35.5650926 102.3531151  76.1711216  35.6341124
 102.3325157  77.6171732  36.0807538  21.1554556  98.1649494  16.3188767
  21.7230826  98.9355659  16.3318586  21.7327624  97.4465656  16.0602975
  24.0886527  54.4528008   9.5878434  23.2446127  54.3097973   9.1596121
  23.9045077  54.3476534  10.5212605  60.6943941  75.4350996   3.5637236
  61.2694359  75.1431227   4.2710459  59.8397493  75.5461168   3.9802423
 114.8151112  98.7828827  47.3390293 113.9042664  98.5651016  47.1411085
 114.7824287  99.6862411  47.6538229  98.4759521  61.9081545   4.7226387
  98.2945251  62.0847464   3.7995297  99.3242168  62.3215103   4.8833552
   7.5039893  99.1718006  18.3055687   8.0839663  99.6364212  17.7022517
   7.1726733  99.8525238  18.8913023  83.9072514  94.0832806 105.6898337
  83.6741447  93.2396984 106.0774642  84.3246078  93.8577175 104.8584738
 117.7741337  62.5776577  64.0294647 118.4692669  62.6755238  63.3787346
 118.2320213  62.3359632  64.8345470  86.5738678  59.2586040  25.7904363
  86.7748928  58.3254623  25.8616018  85.8013535  59.3799782  26.3424516
   3.1424742  60.6945372   2.6927590   2.7317648  61.2780285   2.0547220
   2.4147730  60.1963568   3.0649179  81.8006706  86.7888355  14.7817147
  82.0860004  85.9834480  14.3502426  80.8884048  86.8948174  14.5119572
   2.0434313  89.6500587  35.0563312   1.9602423  90.5921173  34.9085546
   2.5898676  89.3415642  34.3335056  93.5281181  84.5233250  55.0547314
  94.1540718  85.0600529  54.5685768  93.7454319  83.6231899  54.8123407
 119.0936852  93.5331535  34.8621893 119.0164566  94.4847965  34.7940302
 119.5240116  93.3875084  35.7047057  82.8748798  87.2359371  29.3491554
  83.0494404  87.3033619  30.2878857  83.7028313  86.9380188  28.9723682
  91.3236809 100.9331608  55.0570059  90.6000042 100.5896378  55.5809450
  91.3261127 100.3916168  54.2677259 103.0206203  89.0135956  42.8811979
 103.2716465  88.9352703  43.8015699 102.0682526  89.1077614  42.8998661
 102.7070808  92.2908115  18.9926052 102.6768684  92.8076839  19.7976899
 102.9561615  92.9184818  18.3142138 103.0721951 102.4310780  19.1059148
 103.0396461 101.6456985  19.6521342 103.3700466 102.1169090  18.2522094
 119.8925495  83.5415936  20.8774900 120.4649067  82.8246593  21.1507225
 119.3959045  83.1843185  20.1413298  81.3323212  48.1150103  85.9933003
  80.6482315  48.7839413  85.9651312  80.8603573  47.2959661  86.1437830
  94.5892334  90.2819538 105.0345745  93.9946365  90.2761841 105.7846811
  95.0341511  91.1277771 105.0881165  80.9113789  69.1954708  14.2051053
  80.9807682  68.5469389  14.9056947  79.9951982  69.4720125  14.2245996
  98.9547539  58.5821199  28.1776953  99.4237995  59.0203094  27.4676108
  99.5412827  57.8776455  28.4532619  93.4658146  91.1237240  22.9921174
  93.9752674  90.7864666  22.2552705  92.5667763  91.1591530  22.6654482
 116.4141273  92.6003075  64.7862339 117.0641518  93.3027935  64.8006487
 115.5724335  93.0537415  64.7395802 110.9054184  75.5114079  24.4277310
 111.4677620  74.8350763  24.0501404 110.9225273  75.3390408  25.3691292
 104.0960121  95.3031063  27.7008677 103.1925106  95.3887081  28.0051565
 104.5732975  94.9665737  28.4592700  84.3182182  95.0643253  65.0483847
  84.4711494  94.4381523  65.7560253  83.3733559  95.2167892  65.0635147
  20.4568511  60.4133987  29.3379259  21.1676150  60.0250387  29.8480463
  20.3457575  61.2885046  29.7095180  87.4097729  52.0551205  19.7983861
  87.0209980  52.9250956  19.8890924  87.9727364  52.1235704  19.0272713
  11.6974860  64.3980598  45.0700331  12.1002989  64.3869352  45.9382820
  11.3682871  63.5076714  44.9473047  97.2667503  45.4987907  50.1684618
  96.6627693  45.4721451  49.4263506  98.0519295  45.9235716  49.8231030
 100.0069618  49.9749470  49.6433163 100.4875469  49.6323156  48.8897419
  99.1685963  49.5134974  49.6227026 119.0416813  97.3008347  14.1814721
 118.4411621  96.8723679  14.7914135 118.6084366  98.1245041  13.9576602
 119.9258327  75.3535414  15.6118751 119.1121292  75.2570200  16.1066496
 119.7000027  75.9426737  14.8920441  68.1316566  84.7034645  38.4114242
  67.7915192  83.8219929  38.2579517  68.4004593  84.6998787  39.3301010
  71.3924503 121.3763809   4.0813553  70.8345747 122.1268082   3.8767678
  71.6730356 121.0467148   3.2276413 104.1630840  59.6266317  32.1239257
 103.7035751  60.0657463  32.8396487 103.4924984  59.0885258  31.7032194
 107.6776218  85.2751255  20.3788304 107.0172596  85.9552193  20.2460885
 108.5109425  85.7460594  20.3731704 101.2201500  50.6658745  31.8212271
 101.1381245  49.7128153  31.8556428 101.4991665  50.9142399  32.7025294
 100.6489182 136.2010288 106.2913164 100.1811504 136.2389183 107.1255752
 100.1888847 136.8253326 105.7302096  80.4873753  75.7170296  17.6656973
  80.0805950  75.0888586  17.0688999  80.9146118  75.1751184  18.3290482
  99.6665859  65.7206249  38.8810635  99.6447277  66.6573095  39.0769720
  98.7936783  65.5269575  38.5393739  99.1404152  77.2416449  21.0933185
  99.0570641  77.8373384  20.3487182 100.0637531  77.2944307  21.3400865
   1.4013320 101.9819832  30.1174998   0.5714064 102.1096516  30.5770159
   2.0401602 101.8313122  30.8142233 121.2088871  68.0534887 108.9417518
 120.6859875  67.3855686 109.3852639 121.0874939  67.8728104 108.0096283
  83.8714981 108.7816429  30.8069658  83.1047726 108.9310646  30.2537584
  83.5790730 109.0118599  31.6888523   1.0269003  76.4384508  27.1488404
   1.5398055  75.6701803  27.3996639   1.3923770  77.1517229  27.6721954
  99.5326519 104.7391796  13.6993158  99.9539661 105.0654888  14.4944572
  99.1028118 103.9283752  13.9714789  10.5782824  78.5010624  32.2132349
   9.7416335  78.9660692  32.2092652  11.0702162  78.8992643  32.9313350
  92.3650646  65.8077383  38.6561322  91.7751026  66.0333824  39.3753433
  92.0077801  66.2714529  37.8988028  35.9821063 100.5568695   9.2651814
  36.6971331 100.1961517   9.7894502  36.1856967 101.4892864   9.1917616
  82.7442265 123.4058094  54.2410660  82.9893017 122.7592278  54.9029541
  81.8412113 123.6388493  54.4567013 108.2040215  66.4268494  58.8600922
 108.3109856  65.8522081  58.1020832 107.3522663  66.1863470  59.2246675
  93.7571049  63.3789825  17.5027716  92.9634190  63.1142569  17.0377803
  93.9427662  64.2598438  17.1774364  14.3634825 111.6552925  34.0252328
  13.9291030 111.3277245  34.8127985  15.2071601 111.2033558  34.0114903
  93.6606026  83.5352993  39.8755193  93.9334393  82.6248264  39.7622347
  92.7095222  83.4898949  39.9735951   0.5435687 125.7884502  53.8072205
   0.4576426 125.5224419  52.8917503   1.4443331 126.1036301  53.8815212
  70.7819414 105.1003551  41.1542845  70.7122183 104.1600895  41.3194227
  70.0043344 105.4745865  41.5684271  87.7240753  84.6975136  11.8989336
  88.3475876  85.0576115  11.2682259  87.2663212  85.4627991  12.2468269
  90.2437973  75.1196957 104.2384448  89.9174023  74.2198706 104.2425706
  89.6522617  75.5863333 103.6480483  16.5965777  62.5813293  67.3125267
  15.7120829  62.7092838  67.6553488  16.5085536  62.7110672  66.3682508
 105.2369308 105.2533722   4.5883161 104.5771122 105.2379227   5.2815980
 106.0198402 105.6068516   5.0106174  96.7740440  80.6278419  21.6083622
  95.9722233  81.1104202  21.4073062  97.3931122  81.3000393  21.8931985
  96.6410828  81.9025707  29.4441986  97.0578003  81.0633373  29.2485881
  96.4063263  82.2588921  28.5873699 114.5897961  46.0395193  28.5736084
 114.2719173  46.9057035  28.8283873 114.2683792  45.9197378  27.6799774
 112.1842575  70.7161570  13.9603508 112.5673103  69.8955011  14.2702353
 111.3381577  70.7684517  14.4048893 103.0482197  86.4553261 107.4562418
 102.3985004  85.8262730 107.1425545 103.4933376  86.7552567 106.6636890
  89.6603966  56.0372734  46.7023420  90.1701260  56.1812210  47.4996424
  90.3023529  55.7382345  46.0583687 104.0263844  55.3409910  44.0953588
 104.0586090  55.7216883  43.2177114 104.1126728  54.3986797  43.9510012
 107.2115135  66.6398907 103.3938851 106.5803814  67.2397709 103.7914374
 107.8886890  66.5280056 104.0610793 111.1651897 103.6169815  21.7412639
 112.1049213 103.4391308  21.7025089 111.0981750 104.5687199  21.6642475
 124.3905735  86.9593239  28.7046766 124.9873352  86.3261318  28.3057141
 124.7165203  87.0654774  29.5983911 112.6489258 116.5837955  56.5282726
 111.8731403 116.3471031  56.0199785 113.2972622 116.8378162  55.8714914
 109.0781879 121.0491085  24.5841980 108.4879303 121.6470051  24.1255593
 109.0811920 120.2567196  24.0472174 104.8533249  62.1465921  30.8543515
 103.9997196  62.4003029  30.5033302 104.6947098  61.3074446  31.2866735
 121.0707569  97.2703075  98.3349951 120.5038643  97.7337265  97.7184697
 121.4637852  97.9629135  98.8660809 122.3786449 116.8488312  57.8289747
 123.2869625 117.1463490  57.8806019 122.4389267 115.9507561  57.5032949
  93.8463783  75.8721924  52.3489189  93.4904957  75.6243658  51.4955950
  93.0914688  76.2012339  52.8368568 106.8427086 105.8724213  18.5293627
 106.4015484 106.5053749  19.0959096 106.1760712 105.2107811  18.3447945
  86.4589787  59.9896860  39.5082140  86.7825985  59.9853373  38.6073899
  87.2308731  60.1861954  40.0390673  83.3719349  81.7302990  15.8252692
  82.8837013  81.8577671  15.0118732  84.2767334  81.5964413  15.5430508
   4.1164809  85.9333515  27.7222681   4.7093993  85.7953453  26.9835949
   4.6817618  86.2485695  28.4274840  20.7237845  72.5345564  78.2594776
  20.4875308  73.3340406  78.7298393  21.5927153  72.3091078  78.5917091
 114.2706680 104.1288280  37.6219893 114.9292278 104.5209885  38.1953454
 114.0027428 103.3300114  38.0762434 113.8249207  97.3810577  38.4071088
 113.9123440  98.3171177  38.5870504 114.3369389  96.9560528  39.0951681
  83.3315182  82.4370766  29.1584325  82.7728653  82.0960426  29.8568797
  82.7625942  83.0259514  28.6626625  83.6375427 105.6646919  63.4871387
  84.2364311 104.9467373  63.6923170  83.4932232 106.1032581  64.3256235
 110.0681686 100.4975414  14.9388969 109.5786858 101.2353992  14.5752919
 110.0979042  99.8565483  14.2286360 120.1028538 113.2504177  37.1214938
 120.6642056 113.9737225  37.4006701 119.4424820 113.1798935  37.8108263
  67.1768951  81.8953896  34.7386312  67.0804787  81.1730289  34.1180396
  66.8478298  82.6611233  34.2678809  89.8486328  76.4703083  30.3388071
  89.3044949  77.0653868  29.8230243  89.7906399  75.6330585  29.8785043
   0.0333624  77.6829100 104.6223041   0.3888064  78.5137701 104.9378374
   0.3126269  77.0399666 105.2741208 102.6755619  93.2596016  24.3170857
 102.1893215  92.6185322  24.8355699 103.3198452  93.6209106  24.9258494
  98.6113071 108.0129719  12.4953389  99.2033100 108.1403637  13.2366490
  99.1908264 107.9211521  11.7390585 104.2952728  77.0020342  16.1422992
 104.2040920  77.8995609  16.4622426 105.0242424  76.6408634  16.6466689
  95.1532269  64.4610405  66.1636353  95.6087112  64.4443417  67.0053530
  95.2280521  65.3686142  65.8687735  95.2205944  93.2244968   7.7586234
  94.3777561  93.1541920   7.3104054  95.0205994  93.6840534   8.5741198
 120.4005527  89.8659515  20.0832295 119.8046398  90.5432034  20.4033041
 121.2700367  90.1687336  20.3450704 105.3253555 107.3738384  33.7484074
 105.0907040 106.9923210  34.5943475 105.1320457 106.6846085  33.1129336
  86.3822460 105.4429722  14.1856039  86.1809349 105.3576946  13.2537043
  85.9124088 106.2301254  14.4610727  96.5533161  95.7652569  90.7803889
  96.6986752  94.9628830  90.2790924  97.2678185  96.3451195  90.5167850
 106.8923759  54.5371962  22.2556281 106.1925602  54.9932337  22.7230906
 106.6661358  53.6101627  22.3308849 104.2905521 117.3812485  28.9422989
 103.3454990 117.4287987  29.0866923 104.5178032 116.4728928  29.1409779
  12.6895266  96.3538456  29.7040939  12.2588854  96.9991684  30.2647543
  12.1881800  96.3722610  28.8889027  95.1747322  76.1460209  19.1770530
  95.8671188  75.5597496  18.8719082  95.2420521  76.9127560  18.6080039
 119.8794365  84.8808956  93.9218970 120.5089188  84.4327259  94.4868132
 119.9077034  85.7936764  94.2087098  95.6148052  56.4513302  45.1146221
  96.1272049  56.1184931  45.8514357  94.8667812  56.8887520  45.5212593
  94.5133495  81.0221863   7.3401940  93.9994621  80.9813690   8.1467229
  95.3926754  80.7497025   7.6024151 115.2954197  95.7028389  89.8407038
 115.9514809  95.0179386  89.9700376 115.7226944  96.3384247  89.2665013
  94.2271423 104.1585255 104.4015046  93.4961987 104.7420883 104.1980418
  93.8151455 103.3808899 104.7780302  14.2039424  97.8892231  86.5946969
  13.7277632  97.4156189  85.9126576  13.6960536  98.6892128  86.7299231
 100.3878593 108.8264370  36.7123747 101.3317299 108.7594700  36.5680027
 100.2035141 109.7642708  36.6601348  66.8316793  73.1140900 101.0939928
  66.7155313  73.1431007 100.1443084  65.9416199  73.0652380 101.4427622
 122.0708561  60.5621910  91.6132315 122.2131252  59.8089123  91.0400292
 121.1338425  60.5416107  91.8076726  84.2923164  86.7252636   4.6002027
  85.0725079  87.2783947   4.6399319  84.5263100  85.9446812   5.1023674
  95.5296516  73.7264252  93.8221523  95.9824085  74.5196056  93.5356041
  96.1136532  73.0120468  93.5675141  91.4872837  82.0478630  24.6478534
  92.1755123  82.7090168  24.7216105  91.5890026  81.5077972  25.4315734
  75.2570486  73.8636255   5.0960582  75.2218437  73.6463499   4.1645095
  75.0533628  73.0413198   5.5416590  91.5314388  60.4178810  13.0860400
  90.8897591  59.8203230  13.4699845  91.0857105  61.2646246  13.0618322
 100.1186562  43.2036924 102.6418277 100.9461403  42.9589748 102.2275528
 100.3656864  43.8403368 103.3125719  92.3498249  91.5704536  12.8945756
  93.2328224  91.9398403  12.8841412  92.1574116  91.3838100  11.9756782
  99.1019440  86.2019253 106.6068687  99.6242237  86.9697762 106.3747837
  98.2007885  86.5237331 106.6314613  82.1235085 110.4439831  21.4080358
  82.9656982 110.3262329  20.9686208  82.3176575 111.0198593  22.1475673
 109.6958828 114.1646671  21.6741562 109.3978691 113.2825089  21.8960142
 109.3798733 114.7120857  22.3929691  80.5637932  95.1273155  29.7124767
  81.1258221  94.9747658  30.4721379  80.8548069  95.9702587  29.3646574
 117.7812481 109.8488045   0.7000993 117.6320744 110.6495953   1.2028129
 118.7294388 109.7210217   0.7289813 119.5671177  88.0393982   4.9099109
 118.9602184  87.6558208   4.2768425 119.2221069  87.7752972   5.7628185
 107.1728706  65.2829552  52.2882994 106.5145111  65.9186077  52.5689038
 106.8702698  64.9880123  51.4294251 101.3236332  93.7514305   5.7002431
 101.2475681  92.8595924   6.0394716 102.0714378  94.1227722   6.1683488
   0.4633170 105.7512093 103.7457546   1.1983901 105.2820969 104.1405024
   0.8415537 106.1927223 102.9853394 102.3743439  84.9254990  41.2653017
 103.1962299  85.4115772  41.3321257 102.1329212  84.7373486  42.1722460
  89.8685646 102.8420353   3.0737701  89.5118237 102.3110676   3.7858367
  89.1183758 103.0151081   2.5050092  92.9149151  82.7145863   3.3087090
  92.3722267  81.9476128   3.1257489  93.1905174  82.6014996   4.2183736
  97.5428963  33.2973862   9.7195762  97.7615166  32.5469232  10.2720618
  96.6817856  33.0863762   9.3587315  69.8946333  75.8332062  30.6943083
  68.9593220  75.7200384  30.5251288  70.0286388  75.4533863  31.5626454
 113.6837769  99.0626335 105.4291584 113.9199924  99.5108509 106.2412753
 112.7859783  98.7634945 105.5730905  64.0027046  70.3140116  28.2270551
  64.8196745  70.5359745  28.6737323  63.9917946  69.3570375  28.2093000
  88.0055237  81.0321236  25.6054997  88.0895233  81.9771671  25.7322693
  87.3394966  80.9401226  24.9241924 109.8754120  66.6795397  98.5819813
 109.9309540  67.6281452  98.4666666 109.0034771  66.4498520  98.2607111
  83.1837082  73.7446880   9.9325383  83.4534073  73.9545679  10.8266544
  84.0050697  73.6580753   9.4487041  98.7277412  43.7201071  26.1461258
  98.8183498  42.7816200  26.3112473  99.6224785  44.0578270  26.1861825
   1.1697608 102.7908897  93.8370570   1.0413294 102.7547073  94.7849103
   0.6805544 102.0402431  93.5002431  95.9766674  66.1891460  16.7629087
  96.6643715  65.7838917  16.2346435  96.4059734  66.9333887  17.1848416
  98.0484104 118.2039070  46.2400579  98.1160831 119.1365337  46.0354567
  98.2926369 117.7619648  45.4268742 117.1923828  91.7123222   0.3314295
 116.6879940  92.2560787  -0.2736739 116.5389347  91.3511181   0.9304035
  89.0988350  84.1715431  46.0192156  88.3699036  84.5330715  45.5150318
  88.6919212  83.8234138  46.8126011 103.2079506 112.0133591  89.3280181
 102.3956394 111.8761063  88.8406380 103.0557823 111.5878773  90.1718458
  99.1037750  78.2800388   7.1639508  99.3898773  78.7299442   6.3689911
  99.7115898  78.5789871   7.8402823  94.4414139  67.8531504  25.2634025
  93.6617851  67.2999144  25.2149558  94.7317886  67.7787399  26.1724544
 106.8381214 119.5281696  35.3519940 106.8593597 120.4045963  35.7362556
 106.8389130 119.6808624  34.4070530  16.5560752  63.2727575  16.1595273
  17.2863799  63.8631582  15.9742665  16.2770587  63.5073042  17.0446098
  80.9748459  81.1336422  44.2326403  81.3549328  81.4808559  43.4256649
  81.6814518  81.1939812  44.8755169  87.5289249 103.4139347  43.0337954
  87.0633221 104.1487694  42.6344728  87.7628899 103.7253380  43.9081621
  52.1631718 116.6619492 100.4260822  51.3658476 116.2220097 100.1311978
  52.8667402 116.0469437 100.2187302  88.2769871 107.4962807  95.5216154
  88.5528183 106.5854549  95.4189440  87.8315258 107.7056313  94.7006568
 112.4967384 110.6803513  98.5143658 112.6922131 111.5772820  98.7855431
 111.8663692 110.7779026  97.8006800 100.6597042  53.4530735   7.5317246
 101.3947487  53.4867811   6.9195086 100.9877300  53.8793468   8.3235085
 110.0867081 114.1199493  18.3554983 109.2840767 114.3226242  18.8360476
 110.0372410 114.6611404  17.5675321  92.5795269  81.2686634 100.0016060
  93.3770943  81.0335732 100.4757854  92.0998669  80.4447079  99.9163898
  97.8440094  56.1307573  92.5604542  98.7243366  55.7804823  92.6966628
  97.3438931  55.3927946  92.2118386 107.0029068  82.7923965  89.6685394
 106.5961456  82.3804092  88.9062723 106.8198776  82.1921825  90.3913649
 106.9586754 123.6184406  58.3704758 106.2413979 123.9263725  57.8164721
 107.4380779 124.4129848  58.6052322 112.7234364  86.7954922  80.9010705
 113.3697128  86.2125397  81.2994655 112.0403576  86.2091541  80.5757364
 118.0340672 106.8002415  22.4625254 117.2387505 106.4103031  22.0996833
 118.2814217 107.4734974  21.8286657 121.2095737  93.7703323   0.7084383
 121.9854641  93.4062099   0.2822496 120.8689117  93.0512619   1.2405331
 112.2677517  78.3193922 107.2501581 112.3026180  79.2750263 107.2080314
 113.1809711  78.0428219 107.1742120 102.2005367  60.8782530  24.6122742
 102.8841877  60.7002544  23.9663887 102.6148701  61.4663219  25.2437258
  75.8062983  88.6041164   6.9216579  76.5306950  88.6908627   6.3020182
  75.7015848  89.4805622   7.2919309  75.9419441 106.5252686 105.9126862
  76.6324043 106.3211727 106.5434309  76.1053181 105.9329796 105.1787063
 120.0107098 116.1645508  29.7384381 119.5230484 115.9986019  30.5452132
 120.9071064 115.8968925  29.9410486  45.8041334  88.9934921  98.8864907
  45.7912207  89.6842861  98.2240244  46.5943146  88.4895897  98.6917146
 117.2887421 137.9195499  99.3588515 117.5348759 138.4455299  98.5979303
 117.8331470 137.1349335  99.2938896  97.1707439  86.7038822  31.8917179
  97.5677299  86.2780571  31.1319089  97.8963661  87.1618843  32.3159003
  81.0798931  60.2172518  14.8781610  80.3746033  59.6613407  14.5468569
  80.6321239  60.9814548  15.2411008  80.7678413  67.4491119  84.9023112
  80.6200981  66.8985367  84.1333684  79.8920870  67.7300882  85.1675399
 116.7142391  91.7070484  11.7809153 117.6295662  91.9810486  11.7232192
 116.7206287  90.7907200  11.5042901  78.7882948  83.9871025  71.1306747
  78.8961983  83.4124851  71.8885668  79.6388912  83.9673710  70.6921157
   8.6407691  75.3313398  98.4008630   8.1025725  74.5867395  98.1322654
   8.4984236  75.4016161  99.3448063  95.2513599  72.1041107  27.6874042
  95.9123802  72.6989841  28.0415487  95.7143784  71.6046190  27.0148325
  74.9291372  81.1396885  10.0263464  74.0414715  81.2362480  10.3712559
  74.8103666  80.7239532   9.1723621  91.7828178 104.6430588   3.4713554
  92.0557976 104.7711945   4.3798128  91.1047745 103.9690208   3.5178086
 101.2027645 100.5066490 108.7364013 102.1247005 100.7629490 108.7604963
 100.7389927 101.3043308 108.4817381  94.3654728  97.9056168   1.2709914
  95.2205086  97.4990559   1.4119537  94.3097782  98.0236053   0.3227261
 122.0884609  85.6442547  16.7142797 121.1602497  85.6128407  16.9459713
 122.5214005  85.9699440  17.5034010  93.7989998  93.6475754  17.8478539
  94.4113350  93.5306931  18.5742259  93.0192947  94.0294170  18.2509649
 102.4284077 113.7602425  96.3710293 101.6207409 113.2465363  96.3754436
 102.1878338 114.5883274  96.7865165  87.1266365  81.0457325   5.9964108
  87.8946495  81.4381886   5.5812448  87.0802116  80.1632595   5.6285447
 109.8784256  93.9685822  10.4552996 109.4980431  93.4535980   9.7437221
 110.3825760  94.6518517  10.0134921   3.7619048 105.1192284  25.3486538
   4.4311839 105.7387066  25.6394005   3.7127524 105.2468872  24.4012785
  80.2809048  79.6206760  29.9574590  79.8660326  79.5726633  29.0961742
  79.5626354  79.4914341  30.5768299 103.3510685  90.4871464 103.8120236
 104.1747379  90.8524227 103.4889682 103.6169338  89.8146248 104.4391295
  93.3046627 129.8318672  21.8534780  93.1060314 130.5332756  21.2331533
  93.1162262 129.0261269  21.3723302  81.6075230  76.1065626  29.1366529
  80.9585953  75.5437851  29.5590234  82.2691917  76.2575722  29.8116541
 106.6347885  76.9842434 105.5744725 105.8622456  76.8180656 105.0342961
 106.4397430  77.8059244 106.0250636 114.1517639  43.6785412  11.4735675
 114.4762230  43.3189106  12.2991729 114.0990734  44.6218157  11.6274691
 112.3943996  98.2509518  75.3181275 111.7524624  97.7287483  75.7992181
 113.0495453  98.4889698  75.9741434  94.4155121  50.2161264  61.8488979
  93.4822750  50.3468704  61.6809273  94.8415565  50.4409933  61.0217619
 105.7203388  85.9949780  12.2872829 105.3663445  85.2330208  11.8286479
 105.0727463  86.1887932  12.9649949 124.5858765  64.2373419  16.0510314
 123.9393902  63.5954809  16.3448143 124.3502235  65.0426769  16.5116143
 110.6357002  57.4801588  18.2827926 110.7654858  56.5453720  18.4426546
 110.0876999  57.5152493  17.4987686  25.7801657  85.6835842  13.9590216
  26.3365870  86.4623833  13.9484286  26.3950091  84.9499702  13.9624846
  85.3962231 122.6929569  92.3935779  84.5299339 122.3476505  92.1778401
  86.0068893 122.0879269  91.9725701  11.7645960  97.7076340  21.5290213
  10.9006339  97.3279762  21.3688040  11.8274146  98.4314919  20.9058785
  55.5598974 110.7125664  92.8522488  56.2369442 110.8512878  93.5145148
  54.9247122 111.4112663  93.0090722  91.2019444  89.8317051  42.1211863
  90.9352303  89.4874096  41.2688065  91.7479706  90.5898476  41.9130659
  88.0599976  87.7644539   0.4014802  87.3750877  88.3983612   0.6143003
  88.8355637  88.0865479   0.8608089  84.4247437  92.0164108  11.9654882
  84.2321968  91.3133049  11.3451576  85.1189137  91.6620922  12.5212038
  97.9509544 108.1474590   6.6847235  97.5371742 108.7143803   6.0338658
  98.5188198 107.5707817   6.1736405 112.2855186  49.0376186 104.3372437
 111.9147682  48.7784290 103.4936818 111.8281364  49.8481512 104.5610001
  99.4961357  74.4876146  15.3787971 100.0646973  73.7213659  15.4551721
 100.0468254  75.2223778  15.6491446 114.1474056  85.9097195   3.6627659
 113.7660217  85.3304958   4.3225217 114.8517132  85.3941822   3.2698047
 108.3377075  60.9536457   5.2181447 108.2984543  61.2914801   4.3234038
 107.4303627  60.7365608   5.4322118 114.0079498  70.9667587  23.4892845
 114.4022942  71.5308714  24.1544914 114.5450020  70.1744652  23.4981537
   4.6610003  39.3835688   3.7744200   4.3303233  39.3787098   2.8761661
   5.5474310  39.7373176   3.7014091 104.0982342 118.4366417  95.4046329
 103.8057232 118.0667210  96.2375947 104.2367172 117.6760387  94.8402401
  78.9912081 109.0102386 105.0597703  78.7368774 108.9574242 105.9810501
  79.2024183 108.1086063 104.8175334  74.3564081  70.9124994  88.8692769
  73.7021208  71.5682173  89.1104587  75.1240730  71.4233303  88.6124190
 109.3235970  55.9420252  97.4149057 109.7465229  56.0508394  98.2666846
 109.9226475  56.3582706  96.7951389 107.7269459  91.4391613  28.2420492
 107.6691437  91.1897755  29.1643810 107.6459122  90.6132221  27.7650809
  95.8799171 108.6115265  93.5474285  96.4804268 109.3544769  93.4870299
  95.0145435 109.0099621  93.6402603 119.8442745  61.7852306  83.7871679
 119.9703407  62.0502758  82.8760751 120.7225418  61.5618181  84.0953311
  72.1858311 124.1773510  23.4849405  71.9370079 123.4656048  24.0746355
  73.1421280 124.1442776  23.4597564  69.7142076 115.7323933  99.5074733
  69.2415047 114.9198627  99.6879598  69.0774584 116.4245415  99.6855470
  96.5297699  25.5623036  74.3577536  96.9687653  25.5532246  75.2083024
  95.6321812  25.2899723  74.5485719 100.2377319  37.1665716  27.4001837
 101.1700821  37.3803425  27.4357486  99.8052502  38.0062175  27.2446513
  30.7895117  61.3167572  40.6733322  31.2562018  61.8923807  41.2792063
  30.9088164  61.7245531  39.8156023   1.7181712 110.7716846 108.8913310
   1.8303137 110.5449486 107.9681600   0.9776049 110.2386856 109.1806279
  88.7163162  52.0181274  22.4520087  88.0872440  52.1501303  21.7427325
  88.4146500  52.5985527  23.1508183  98.8489819  86.5159416  41.4468575
  98.1941795  85.9123039  41.0960245  99.6886253  86.1082458  41.2346792
 118.7550545  52.5813389 100.6727704 119.5192242  53.1251526 100.8639362
 118.0647850  53.2069969 100.4529967  87.8685188  63.4257507  20.0776672
  87.9850197  62.5303268  20.3952789  87.9078770  63.9666748  20.8663917
  94.2984867  81.5333557   0.4713421  94.2514515  82.0711327   1.2617949
  93.3870125  81.3182545   0.2734121  77.9284906  92.3700523  41.2816095
  78.3930731  92.7589989  40.5405903  77.0753384  92.8040504  41.2839127
  77.9171562 104.5953846   3.4754291  77.7166080 104.9147129   4.3552265
  78.4931183 105.2634335   3.1036621  63.8961315 102.1773815  14.9726272
  64.1543484 101.5035725  15.6015468  64.3549013 101.9409943  14.1664767
  73.2832479  66.9855070  26.0771036  72.8635836  67.5522137  25.4298353
  72.8215408  67.1725893  26.8944526 116.4109230  57.6748991   7.0730108
 116.7935276  58.5015297   6.7788559 116.0542870  57.2795630   6.2775558
 100.8365631  81.6532516 106.9117170 101.1364079  80.8012962 107.2287285
  99.9858570  81.4739323 106.5112468 109.6214104  95.0155640  83.1279143
 109.4621086  95.7648087  82.5539049 108.7475204  94.7132397  83.3752092
 103.3578491  59.3333864  36.9506121 102.6064301  59.2297268  37.5344324
 103.5535145  60.2700329  36.9760561 100.4325008  51.1622620  11.4102161
 100.9479713  50.7655334  12.1124482  99.7105122  50.5501223  11.2678790
  83.8576031  84.1267109  11.1709344  84.7228432  84.1658020  10.7634115
  83.8311768  83.2690430  11.5951180 103.1267834  76.7533398  49.8124170
 102.4036694  76.6770601  50.4349136 103.8688755  76.3423252  50.2558088
 105.3835487  56.2410450  19.5874333 105.7796955  56.9336176  19.0586150
 105.9735012  55.4942703  19.4848847  68.4522915  84.5001507  13.2050169
  69.3349886  84.8581600  13.2993650  68.1360340  84.8581219  12.3755193
  94.7893238 114.0112495  14.5425034  95.4075241 114.7384930  14.4704533
  94.6913624 113.8726044  15.4845285 106.3035488  79.8873901  28.4456682
 106.7608356  80.0713634  29.2661977 105.7917690  79.0993547  28.6281753
  66.0106468  74.3513107  37.8121901  65.7510281  73.4538651  37.6037955
  65.1959419  74.7825718  38.0700588  81.5543365 108.4452057 102.0483848
  80.9243774 108.9129734 101.5001347  81.0295486 108.0879593 102.7647647
 122.4312401  86.3936138  74.4675025 121.7136097  86.7214584  73.9255103
 122.7613449  87.1685600  74.9221715  93.7995338 113.1495094  17.3109961
  94.0936375 112.4204445  17.8570735  93.1758404 113.6240292  17.8606045
 119.3824005  60.7655191 109.9487441 119.0458202  61.6148090 110.2344855
 118.9256191  60.5914354 109.1257742 105.5188084  52.2931671  13.9609492
 104.9677849  51.5167809  13.8618207 104.9020863  53.0251694  13.9686906
  70.5750847  87.7972984  23.7834454  70.4767799  86.8699169  23.9991283
  70.2731991  87.8658581  22.8776884  89.1356277  94.5365429  10.0206065
  88.8456345  93.6419678   9.8420417  89.0205574  94.9961472   9.1888881
  99.8822594  74.5662260   2.0522575 100.0873280  74.7330904   2.9722217
  99.1538906  73.9457035   2.0779642 108.4506798  77.7035427  85.7497653
 107.5390911  77.7903891  86.0284909 108.3969307  77.3534107  84.8605260
 100.5300426 101.1470222   7.8842473 101.0028267 100.4016209   8.2544881
  99.6203423 101.0085583   8.1478900  90.9422874 109.5935440  33.6034513
  91.8357372 109.9031830  33.7521386  90.8177090 108.9009953  34.2523718
  86.7038155  60.2946997   4.3688411  86.0254478  60.8140612   4.8004749
  87.2619724  60.9413052   3.9368778  60.6971121  88.7947559  42.5870848
  60.0393009  88.8811779  43.2770443  60.1919746  88.6008072  41.7974949
 115.9291935  78.0334568   8.9508766 115.5136967  78.4443521   9.7090012
 116.7462540  78.5181046   8.8335985  95.2177334  87.4378014   7.9038507
  95.7887268  86.7806435   8.3017749  95.6965733  87.7339935   7.1297610
 104.4902039  83.8086128  96.0194513 105.1864052  83.4317493  96.5575143
 104.2820454  83.1242752  95.3833874  95.6339455  60.6986237  34.8496985
  96.4246082  60.7201481  34.3106008  95.4536438  59.7667217  34.9733138
 115.7484913  20.1928329   0.4879497 115.3292751  19.9986792   1.3262798
 115.3462505  21.0134888   0.2033991  95.0589085  65.4956770  20.2095628
  95.6836033  65.4835939  20.9347057  94.3099403  64.9932384  20.5302548
   8.4902888  64.8273659  29.4652915   8.0396014  64.3550301  28.7652874
   9.4114428  64.8192358  29.2052150 103.7617683  81.0577202  30.7714415
 104.6788979  80.8821201  30.9818482 103.5972404  80.5510712  29.9761605
  16.0005313  77.5974369  66.2517031  15.5435210  78.2848883  66.7362412
  16.6210871  78.0684614  65.6955775  96.2077236  80.3082943 107.4032276
  95.5458069  80.9982777 107.3583833  95.7086849  79.4935274 107.3454439
   5.5646830  92.4319553 103.3010002   6.4890223  92.6036549 103.1211402
   5.3348284  91.7149830 102.7099492 112.8623581  94.3938065  29.6512437
 112.9073429  94.1565609  28.7250018 112.9063225  95.3499889  29.6559834
  88.4852409 119.1131210  18.8076878  88.0901241 119.1234493  17.9359043
  87.8644562 118.6223507  19.3462098 113.3762932  78.6284351  27.1970034
 112.8149319  79.3022394  27.5805259 114.2673492  78.9377213  27.3600841
 102.1233273  84.5435905  89.7827276 102.4395657  85.2364635  89.2029341
 101.7988682  83.8652039  89.1904887 105.0507545  91.7395020   3.5272956
 104.3510151  91.1709499   3.8487583 105.5933380  91.9102383   4.2971534
  83.7372112  49.4449329  13.3034956  83.1186867  49.3881083  12.5751877
  84.5981693  49.3612909  12.8936291  94.6382427  41.4385605  36.6924357
  95.2547836  41.9221115  36.1426282  93.7759590  41.6764593  36.3516974
   5.6921893  86.7808819  20.3122783   6.0756713  86.0437298  19.8371029
   4.8858386  86.9792938  19.8361981 108.1322670  82.9107761 100.8509674
 108.4510136  82.2932816 100.1926877 108.6976051  82.7651978 101.6095402
  66.6542864  85.2663803  99.9500271  66.7366886  85.1726151 100.8990517
  66.2174511  84.4630718  99.6670099  70.4338455  88.6866474  17.3961043
  70.9987259  88.9548779  16.6714001  70.9296799  88.0023479  17.8456628
  92.1683693  72.4874210  96.1550864  92.6591778  73.2003736  96.5637859
  91.6536236  72.1110058  96.8689319  73.6608028 101.7259693  12.2163677
  74.5985508 101.5442276  12.2782862  73.6073256 102.6759720  12.1121097
  91.1481476  86.6287422 109.2966533  91.0452938  86.0068607 108.5762932
  91.8450356  87.2175694 109.0070743  88.4460640  60.3326559  87.1306809
  88.0600071  61.1851120  86.9294199  88.2885170  60.2134895  88.0672749
  95.4714584  86.5252781 105.7514178  95.9570599  87.3057175 106.0185003
  94.7783470  86.8579292 105.1811805 118.3175182  76.6595459  11.0999537
 119.1229248  76.2242794  10.8204794 117.6370144  75.9946728  10.9946716
 113.9997864  59.7232723  28.6456275 114.6567917  60.1511955  29.1946793
 114.4993401  59.3565702  27.9161000 107.8760719 127.5323772  14.9081755
 108.3053017 126.7148018  15.1603091 107.0774937 127.2550678  14.4591808
 112.9148483  83.6311150   4.7031635 112.4095535  83.5709476   5.5138952
 112.4638557  83.0446720   4.0957725   6.4572268  67.7271223   0.3649653
   6.4100390  68.5527897  -0.1169914   7.2126132  67.8304434   0.9437051
  75.1944590 101.2542629   2.2766730  74.3652630 100.9467125   1.9105101
  75.2761030 102.1544933   1.9617784  82.3945045 100.8159351  23.0442595
  83.1515312 101.3901520  22.9283762  82.3939610 100.6058502  23.9781213
 111.0060406  76.9580650  30.4827380 111.2874603  76.0588360  30.6513429
 110.9838200  77.0271063  29.5282912 110.1062870  92.8530312 109.2201650
 109.3944168  92.8496456 108.5802787 109.6657944  92.9080391 110.0682055
  88.2429981  81.9221306   8.2259697  87.7339554  81.4491272   7.5676584
  88.6598206  82.6340008   7.7404362  74.4354630  51.4454031   5.9096545
  74.4943428  50.5956554   5.4729676  74.6326590  52.0819712   5.2225435
 105.2968311 103.1519699  85.1152738 106.2196732 103.2760620  84.8934969
 105.1956749 102.2036934  85.1974996 102.7586269  92.6622105   0.3158921
 103.6940384  92.7967930   0.4679897 102.5475025  91.8692303   0.8086657
  13.1658965  76.3508940  10.1015854  13.3301764  76.6195965  11.0054922
  13.9590197  76.6032267   9.6288037 102.9390049  86.5715981   5.6071723
 103.8234901  86.3327694   5.8844447 102.8024387  86.0832310   4.7953308
  84.0368748  74.9987268  99.6099949  83.3845806  74.5292759  99.0900421
  84.8467731  74.5052624  99.4804096  91.2699032  40.8491659  80.6117535
  91.6285419  40.7353020  79.7316122  90.3559971  41.0948181  80.4680538
 105.3886986  55.5085850  59.9418393 104.6814919  54.8951960  59.7422162
 105.8944607  55.0754452  60.6294576  84.7926140  88.2725525 107.6728630
  84.2783833  88.6418629 108.3907795  84.5356274  87.3509598 107.6435280
  63.9795351  98.0633259   5.2023164  64.7838736  98.0930805   5.7203809
  63.4381628  98.7670898   5.5598966  93.2454872  56.4644241  72.5032854
  92.7066803  56.0740089  71.8151712  93.3637238  57.3735476  72.2280693
  94.3209743  75.1340342   9.0409032  94.4472504  75.4100227   8.1330911
  95.0824165  75.4818439   9.5050947  99.3348885  88.7749290  92.8471851
  98.5913467  88.3281708  92.4424839 100.0109005  88.1007576  92.9159164
 121.4172649  69.4599819  73.7424994 121.0154057  70.0063801  73.0670834
 121.3345432  68.5667467  73.4085464  67.3964119 144.7917631  19.4113962
  67.7938032 144.0030206  19.7804490  68.1141758 145.2302805  18.9545003
 106.8754482  40.4701233 106.0012722 107.0977974  40.0588131 105.1660442
 107.3454189  39.9530721 106.6555023  82.0232582  83.8753986  14.1358701
  82.9602528  83.9640427  14.3102971  81.6247082  83.7965202  15.0025693
 123.6382389  62.7495861   4.0203420 123.9690876  63.6456919   3.9590207
 124.4110203  62.1996164   3.8915960  87.8563213  67.1051884  43.5893384
  87.2037220  66.6558790  44.1264192  88.6766434  66.6493893  43.7779180
 111.5138149  25.5696726  92.0342636 111.2158012  25.4507470  92.9360771
 112.4036694  25.9119749  92.1192360 100.9827042  97.9260254  99.0682983
 100.1108837  98.2582664  98.8543606 101.5793991  98.6179256  98.7828827
  76.5001535  45.6507683 100.7578373  76.4901924  44.9897718 101.4500904
  77.2738981  46.1822081 100.9452343  75.3924847  86.8021584   1.9995824
  75.3133535  86.5563297   2.9212896  74.5543098  87.2134686   1.7885820
 103.9115429  70.0455332 108.4142590 103.1464672  70.4680538 108.0239105
 103.6294746  69.1461420 108.5808945 106.8542004  90.4033470  82.8896046
 107.2958946  91.0806942  82.3774147 106.0937977  90.1610851  82.3610783
 105.8152008  67.4391842  93.2411194 106.5679073  68.0176497  93.3637714
 105.2563572  67.6092577  93.9994049  10.3088122  77.9848528 102.1957016
  10.9658938  77.5441980 101.6569138   9.6680384  78.3178520 101.5674114
  88.0528545  65.3353786  66.3779306  87.6896763  65.8846426  65.6832027
  87.8281593  64.4417238  66.1188555 117.9974174  64.1450548  59.7219610
 117.2829533  63.6210775  59.3597174 118.7826252  63.8125992  59.2870522
  87.9099846  55.1687050  19.2362825  88.8668060  55.1605034  19.2107621
  87.6451111  55.0651789  18.3223096  91.4411163  47.4352074   7.0854894
  91.6361713  46.5293646   7.3255674  92.0884418  47.6496601   6.4137689
  87.2380161  59.5327234  89.4368076  86.4417458  59.1317272  89.0884018
  87.8666878  58.8126516  89.4867992 111.7267704  30.4445791   3.8161699
 112.2986794  29.6772671   3.8357488 111.9229794  30.9103537   4.6290628
  99.5379353  52.8261137   1.0237066 100.1880741  52.9184914   0.3272668
  99.1016006  53.6773682   1.0584966  84.0887642  73.9785194  74.8905277
  84.7613811  73.9955664  74.2096901  84.1963291  74.8089170  75.3543139
 103.5923958  53.7794304  84.2120552 102.9315853  53.8586664  83.5241032
 104.2129421  53.1333399  83.8748360 108.7762260  57.4560690   5.6944028
 109.1347122  58.2611275   6.0680429 108.4672356  56.9577408   6.4509908
 100.0286865  35.8370018  94.3268490 100.6562805  35.1238370  94.2095757
 100.2821159  36.2453699  95.1546478 116.6277504  62.7743959  10.3875200
 116.9721603  63.6674881  10.3881112 117.3498344  62.2390079  10.7164041
  74.1683626  60.1219034  19.6069089  74.6408081  60.9223747  19.3782846
  73.5299492  60.3998899  20.2637140 121.3966465  75.0389814 105.0123501
 121.4324951  75.9942341 105.0617218 122.1553707  74.7979832 104.4808483
 107.5800228  48.1334925  32.4172155 108.1225872  48.7151003  32.9497472
 106.7735767  48.0292416  32.9222146  90.0201225  71.6922188   1.4849798
  90.7137871  71.1406612   1.8467180  89.3231487  71.6611624   2.1403352
  85.3913879  49.5094681  95.2950954  86.0979080  50.1100445  95.0576782
  85.5486012  49.3073893  96.2174129 122.5558853  47.7446699  80.7907391
 122.1120739  47.9451847  81.6147900 122.9898071  46.9065046  80.9501839
 119.0119171  54.1634703  85.8088684 119.3884087  53.3183622  86.0543823
 118.3030224  54.3014431  86.4370918  98.6518955  59.2838144  97.2868633
  98.0557251  59.1871548  96.5442562  99.4276714  59.7059679  96.9178391
 116.3949490  59.8352146  69.4395685 117.2992516  60.1219702  69.5669889
 115.8648777  60.5674553  69.7543430  91.5203381  52.9603529  49.3027782
  91.8821239  52.0781851  49.2183685  91.1254501  53.1399345  48.4495258
  46.4903641  96.1109829  79.1120577  47.2536230  96.0439396  79.6857882
  46.7767525  95.7214260  78.2859421  93.2431602  53.4293509  86.4716816
  93.4596634  52.8238678  87.1807289  92.7328300  52.9039049  85.8554745
  53.0614853  81.6565514   6.9399492  53.8360310  82.1545887   7.2012273
  53.3937168  80.7791805   6.7500154 104.1507435  79.3502235 106.1510944
 103.5630226  79.1036510 106.8652439 103.6542702  79.1588354 105.3554058
  99.9751949 108.5150623  80.4064465 100.7169437 107.9874420  80.1103878
  99.2175388 107.9379082  80.3111458  86.0109711  38.4030461  98.2267189
  86.4805984  37.6535273  97.8607845  85.0877094  38.1558776  98.1746101
 101.2103176 106.9205666   8.6203424 101.3596153 105.9778881   8.5475770
 101.7522621 107.3028755   7.9301397  81.3810635  75.5065680   2.7272264
  80.5824947  76.0213757   2.6110975  81.7224026  75.7825994   3.5778371
 113.1185818  62.3563862  16.8006460 112.2105980  62.3835993  17.1023790
 113.6007118  61.9616508  17.5272600  98.7940693  63.2491970 109.4486523
  98.8730431  63.8271618 108.6897373  97.9520321  62.8100920 109.3287182
 102.8600597  77.0364428  80.0309658 102.7032089  76.1545992  80.3685856
 103.7927055  77.0481777  79.8158503 110.9922791  69.5927668  85.4566479
 110.6814861  70.1403570  84.7356892 111.8675041  69.9276733  85.6517220
  91.1476135  35.2360535 106.6237450  91.2153721  34.2833495 106.6869545
  92.0518398  35.5345321 106.5262032 122.5458241  83.0190849   5.1281110
 122.5325012  83.9301014   5.4215471 123.0113125  83.0435276   4.2920724
  78.9970493  57.6062727  99.6191883  78.7914658  58.4221983 100.0755215
  79.5904493  57.8684473  98.9153671  81.3444138  64.3992662  89.0186882
  81.2195969  63.4608412  89.1601658  81.7107964  64.7191334  89.8431206
 103.5834599  49.8310852   1.0258619 102.6891422  49.5715904   1.2474481
 103.8755512  49.1710615   0.3971521  81.4494801  55.1730299 102.7621841
  81.8898678  56.0147905 102.6450443  81.7322636  54.6484804 102.0131111
 116.8293953  72.7337885  17.9868070 117.1870995  72.1666908  17.3036710
 115.8803368  72.6463604  17.8980390  81.8121338  63.2679510  25.4301111
  81.8425941  64.1623449  25.7697717  82.2584724  62.7438450  26.0951940
   6.1128932  35.6195569   3.0592862   6.7206698  35.6969571   2.3238603
   5.7118445  34.7574711   2.9488508  88.6800671  60.5674171   7.1148626
  89.6165562  60.7458305   7.0289174  88.2575703  61.2471867   6.5898458
 110.9835625  65.9725285  78.6988211 110.7040596  65.7925415  77.8012037
 111.3918304  65.1573896  78.9905500 105.7113743  76.0002947  81.7643166
 105.7593536  75.0575876  81.9231415 105.7934189  76.0876656  80.8146477
  92.1970844  14.8031533  71.1015224  91.7741776  13.9877486  70.8322716
  92.9429817  14.8932981  70.5084419   0.6849509  75.9827900  88.7841034
   0.7328349  76.9330502  88.6794853  -0.0869722  75.7249594  88.2802296
 102.1076584  61.3087130  93.4511757 102.7785492  61.1551857  92.7859116
 102.4789429  61.9887352  94.0132713  87.8812981  69.2834520  96.2939358
  88.3827782  68.4711790  96.2235165  87.9214954  69.5099592  97.2230816
 104.4453621  61.0798883  61.6951418 104.5771408  61.9661093  62.0320082
 103.7127018  60.7358980  62.2061300  98.9064789  27.2542000   3.3919755
  99.6401691  26.7306423   3.0697576  98.2341385  27.1656561   2.7164308
  87.6572990  37.3611379  15.1729814  87.7630901  38.3123755  15.1866952
  87.6762772  37.1314096  14.2439500  57.4608088  47.9327679  98.9753628
  57.8502846  48.3327484  98.1978321  56.5257454  48.1229162  98.8996506
  89.5941544  50.0693512  98.2068062  89.7316265  50.9123850  98.6388016
  90.4681587  49.6828556  98.1522083  46.3234806  61.7385530  81.4727592
  46.9313622  61.1659384  81.0049725  45.7621479  61.1402178  81.9658279
  93.4661961  33.9026666 102.8480530  93.1754017  33.2552791 103.4903622
  92.7163792  34.0136456 102.2635174  56.9806194  78.8936520  84.2158318
  56.1091805  79.1470051  84.5201969  57.5391531  79.6371031  84.4428825
  11.0938578  61.8615913  95.7606792  11.0082083  61.4190817  96.6051197
  11.8385439  62.4521780  95.8741951  87.8848839  66.8700171  83.7697697
  86.9311142  66.8287563  83.8394451  88.1141376  66.1450529  83.1883049
  99.1264343  49.8038292   8.6919156  99.7283840  50.4606915   9.0417806
  99.4563007  48.9717865   9.0312139 119.2245102  29.3110847  70.9077644
 119.2264080  28.5483193  71.4860487 119.2579174  30.0615168  71.5010357
 110.7970142  43.1566620  84.8633480 110.2405262  43.3751535  84.1158104
 111.6797066  43.3996248  84.5839500  83.4155846 104.3953800 104.1351128
  83.1339359 104.3476486 103.2215309  83.7322235 105.2923965 104.2415810
 106.0009575  87.4383736  20.2152578 105.9037399  87.7029705  21.1300031
 105.2157116  87.7751541  19.7837488 111.1036205  81.6038322  48.4922735
 111.8077564  82.2046661  48.2485048 111.1024666  80.9427547  47.8000299
  89.8481846 103.3578777  96.8828011  88.9924812 103.5181236  96.4848995
  89.6552372 103.1850147  97.8042793 124.8143101  57.7409267   5.9062711
 124.1679096  57.2503853   6.4139787 124.5989323  58.6594582   6.0679761
  91.2288761 107.1090317  13.5907975  91.7926693 107.2943783  14.3418065
  91.7365932 106.4999008  13.0546991 120.5199242 102.9016209  91.0336399
 119.7929287 102.7063656  90.4423809 120.1386261 103.4705830  91.7023182
 111.1702824  49.2917776  95.8321667 111.7954445  50.0144386  95.7759285
 110.7572556  49.2646694  94.9690819  98.6316013  70.5827141  92.1095181
  99.5445251  70.4711056  91.8442631  98.1549168  70.6930161  91.2868118
  91.8484211  65.7207918  10.4132119  92.6258945  65.2660847  10.7372705
  91.8170643  65.5068541   9.4807569  59.2973280  49.8104382  94.3633270
  58.7532949  49.7267628  93.5802174  60.1959419  49.7835302  94.0346813
  91.4175415  65.4953241  92.5554180  90.9863949  65.7083035  91.7277813
  91.6352081  66.3454103  92.9377937 101.3957500  60.3613615  10.9826795
 100.7652855  60.0732946  10.3225461 101.6001987  61.2645864  10.7405607
  84.8560715  65.0783873 101.7011166  85.6498241  65.3906345 102.1355057
  84.2743397  65.8384562 101.6899681 100.5475903  96.5401173  27.3074857
  99.8903465  97.0026779  27.8273813 100.1620960  96.4790726  26.4334718
 110.5076504  78.4784412   3.7226430 109.8524094  79.1152906   4.0078012
 111.2898445  78.6962366   4.2295686 120.8486366 103.7911606 100.0253391
 121.6892815 104.1637516  99.7594070 121.0363293 103.3397102 100.8482552
 119.4010830  81.3598633  97.2470379 118.8789749  81.7427731  96.5420437
 120.2382469  81.1451244  96.8356037   9.5177680  97.2647095  61.6179228
   9.1818266  97.9253483  62.2236729   9.5720797  96.4652348  62.1414852
  94.4149208  63.5351086  88.0243111  93.6332607  63.8473940  88.4800720
  94.0776062  63.0969715  87.2429752 106.6974163  46.7526722  13.7718717
 107.3057079  47.4259806  14.0766183 106.3971996  46.3213062  14.5718900
  82.3289871  36.1952496 103.3570194  83.2372952  36.4385390 103.1780720
  82.3830128  35.6027746 104.1068840 121.0857105   3.8767087  15.9156743
 120.3507233   4.3646008  15.5442277 121.7264271   4.5488513  16.1479417
   7.1622687 115.5417347  99.8007679   7.6458865 115.7027149  98.9905548
   6.2914496 115.2707863  99.5100975  69.6757889  67.2019863   3.0473272
  69.5384884  67.8182220   3.7667981  70.4229355  66.6720581   3.3251420
 116.8396378  43.0670071   5.8129350 117.4378395  43.7193775   6.1773626
 117.4090385  42.3514557   5.5301038  87.1586800  44.3171263 109.2502213
  88.0825424  44.3140173 108.9998245  87.1355629  44.8032236 110.0744820
   2.7978926 100.2396107 108.6575890   3.6954909  99.9824142 108.4468651
   2.6227122  99.8267746 109.5032310  98.3080101  86.3454819 109.7919083
  98.7438107  86.3237381 108.9399433  97.3798084  86.2289619 109.5891857
 120.1879215  42.2130013 101.6904449 119.4893646  42.4303007 101.0731697
 120.7075691  43.0142069 101.7558289  68.4473085  54.4865704  90.8229351
  67.6080704  54.0500641  90.6767464  68.6700678  54.8679256  89.9737167
  69.3910933  67.0672131  20.5655614  70.3383875  67.1112013  20.4354707
  69.2329073  66.1750984  20.8743326  97.2704983  43.1428576  16.1092511
  96.5099239  42.8430462  15.6113855  98.0128193  42.9990864  15.5223028
 103.5344124  55.3271914  96.0431957 103.1621742  55.0499725  95.2060413
 104.1643524  54.6411896  96.2641144 103.4173012  83.2395267  14.4455282
 103.3894539  83.8692284  13.7251512 102.5040340  83.1444454  14.7159711
  81.6927242  38.9397001  77.6155853  80.9680080  39.5394969  77.4387884
  81.9071102  38.5647154  76.7613840  69.8841286  41.8465281  76.5250778
  70.1078653  42.0754194  77.4271774  69.1612577  41.2245846  76.6080332
  91.0499859  90.8746433 104.8954201  90.8240128  91.8035984 104.8484898
  91.2982941  90.6430340 104.0004730  96.7836189  99.3726254  30.4785005
  96.0164833  98.8046646  30.5503122  96.4291477 100.2216721  30.2144758
  80.9100914  95.5402756  62.6638174  81.1704254  96.2875271  62.1252203
  81.1884880  94.7744656  62.1615553 102.4416256  48.0238199  21.2060491
 101.5454578  47.7212906  21.3529817 102.8444576  47.3329306  20.6800977
  81.1167717  94.0345955  72.4722624  80.7363224  93.1917191  72.2251844
  81.5313339  93.8711452  73.3194113 114.9264812  74.9475193  88.2317257
 114.6516037  74.3030167  87.5795841 114.4971371  75.7593632  87.9619122
  68.9802885  79.4109392  85.9017563  68.7825298  79.0078020  85.0564098
  68.6776447  80.3146648  85.8127785  91.3478661 106.1147308  79.9208546
  91.2675476 105.6939793  79.0648508  92.1397018 105.7345676  80.3012466
  93.2178116  84.6738434  87.9378510  94.1485023  84.4612503  87.8681755
  92.9469013  84.8608589  87.0390415  77.8418827  52.8469419  14.0599099
  77.0496416  52.7710009  13.5281125  77.8948355  53.7771559  14.2793027
 103.0854416  36.1529732  21.1276475 103.0678177  35.3111744  21.5829412
 103.0588818  36.8047523  21.8281499  35.8036738  85.5870533   8.2129518
  35.1776629  85.8080959   7.5234071  36.4821177  85.0800514   7.7669851
  74.5136070  46.2835693  20.6125299  75.1440287  45.5894136  20.8047525
  74.9196100  46.7872047  19.9070207  69.5261335  71.6753244  20.1444093
  69.7652197  72.5990820  20.2201978  69.2634535  71.4225101  21.0294572
 108.0849457  73.3927870  82.8257847 107.3711300  73.3922672  82.1880531
 107.6646042  73.1683540  83.6559486   2.3202544  96.1270618  83.6771774
   2.9365473  95.5644989  84.1461468   2.1330863  96.8392944  84.2886639
 101.6555786  63.8409615  91.6051579 102.2244644  63.0735683  91.5442753
 102.2232914  64.5337963  91.9426632 115.9051895  25.5572534  28.4444562
 116.2615871  25.3930497  29.3175260 115.1456451  24.9779940  28.3829728
 103.8811398  73.4201956   6.6472951 104.6899509  73.8267183   6.3361780
 103.5761929  73.9982033   7.3466913  97.4649811  80.6211948  98.0122566
  97.5925732  80.6234169  98.9609051  96.8980503  81.3741112  97.8450775
 113.2837391  18.7193394  93.3028221 112.5921631  18.1625664  93.6605453
 113.1293011  19.5771456  93.6984921  74.9442005  55.8328772  61.1112022
  74.9242115  55.8460855  60.1543045  74.7807407  54.9183083  61.3415813
 120.8614159  46.1534834   8.2199613 119.9887562  45.7632446   8.2691709
 121.3626385  45.7061005   8.9017621  84.7567081  65.4241943  74.3619537
  85.2626896  65.8479118  73.6686420  85.4167366  65.0533056  74.9476480
  99.4417095  50.1395369  98.8395977  99.3953705  49.2861271  99.2706203
 100.3571892  50.4040718  98.9298916   0.0644618  38.0404353  83.3211040
   0.8075266  37.4573588  83.4763432   0.0029021  38.1013846  82.3678303
  89.5930958  85.3761005  82.4761200  89.8195267  84.7863770  83.1952763
  89.2874813  86.1739159  82.9077816 104.7175789  51.0673571   7.7767221
 105.2492619  51.2473583   8.5520498 103.8139629  51.1278200   8.0866472
 102.3961544  76.9435453 101.4995956 103.0775070  76.9180393 100.8277893
 102.0636463  77.8406382 101.4695644  83.8169289  53.5495377  74.8042870
  84.1192913  52.6540375  74.9555731  83.2126331  53.7234354  75.5259705
 105.6060219  85.5955696   5.5536691 106.2615108  85.4297352   6.2312261
 106.0808468  86.0717964   4.8725072  96.0919857  45.4163361   8.5491697
  96.4745140  46.2093115   8.1735460  95.4547024  45.7369566   9.1873781
 111.3030052  48.3134985 101.8454838 111.2534714  49.2685032 101.8037224
 110.5654430  48.0119848 101.3150883 116.9126797  24.2709756 108.5987282
 116.9629574  24.5125628 109.5235729 116.2481880  23.5827494 108.5667324
   1.9386321  78.4360075  87.3377323   2.4013548  79.1437864  86.8892002
   1.0154086  78.5873890  87.1353149 102.2853470  56.6248417  74.2226839
 102.9335308  55.9234715  74.2872763 102.6643276  57.2445488  73.5993338
 115.7369804 100.9154129  91.7880726 114.9160099 100.8968067  92.2799110
 115.9368801  99.9943829  91.6207790 106.2202263 100.7562160  65.7321835
 106.2501526 101.1765480  64.8727322 107.0941734 100.8948803  66.0971785
  12.4370699  37.7653742  89.0025330  12.1496516  37.4356103  88.1511402
  11.6325217  38.0600619  89.4292736  95.9354973  46.2185335  90.9845161
  96.6075134  46.5264177  91.5926456  95.2230358  46.8514252  91.0744190
 110.5221081  69.7027397  98.5460186 111.3239384  70.1032114  98.8820457
 110.1218510  70.3844833  98.0063438  70.9828806  86.6094589 107.6686192
  71.2686253  86.8607903 108.5469246  71.1971378  85.6787682 107.6042080
  80.4415798  29.3166065 108.2790375  79.6077824  29.3391871 108.7486172
  80.8146667  28.4618163 108.4943867  90.1799393  71.6633606  98.1376266
  90.3026199  70.7429886  97.9050446  90.8955002  71.8546152  98.7439442
 124.7686481  76.5137672 107.2420311 124.8249435  76.4003801 108.1908226
 123.9305496  76.9547224 107.1028233  92.6161098  31.9603586 104.6222305
  92.8451729  32.0943117 105.5419159  91.9055367  31.3193703 104.6432877
 118.8759613  18.6642766  85.9204483 119.6790981  18.4585118  85.4420567
 118.7923908  19.6152413  85.8503532 101.3120556  40.6325722  87.8169918
 101.5261078  40.4529572  86.9014835 100.4187012  40.9753227  87.7912903
   5.5440264  89.7067738  90.6970215   6.1142378  89.7302914  89.9285603
   4.9879103  88.9399624  90.5592346  88.3013535  27.9683042  13.9063493
  88.0614662  27.0897937  14.2011396  88.9706135  28.2550311  14.5277253
 118.7878513  49.5015001   5.6493417 118.3391571  49.1347361   4.8875085
 119.5376015  48.9226580   5.7873670 101.1974525  98.7928009   4.4651643
 101.0456562  99.6806240   4.1411821 100.3779030  98.5520935   4.8971692
 111.7463207  68.5985279 105.8294392 111.0344505  68.1577921 106.2933636
 111.3054371  69.1553211 105.1877022 121.2128162  48.9370728  87.2920513
 121.6166019  48.1661081  87.6905537 121.4593029  48.8861799  86.3685322
 113.1231499  96.7481136  91.5254593 113.8930035  96.5480900  90.9929752
 112.3890400  96.3821793  91.0320950  77.9231977  33.9950442  85.5449867
  77.1380234  33.5227776  85.2680492  78.6424875  33.5436463  85.1032925
  77.7004814  81.0647202  90.7038879  77.4368668  80.2451611  90.2854729
  78.5098553  80.8478737  91.1666298  99.0742683  48.4924316  19.2786447
  99.2856789  49.3892479  19.5379773  99.5086956  47.9451942  19.9328843
  76.5763569  39.8654079 104.9078274  76.9986057  40.6460524 105.2663422
  77.2892618  39.2359352 104.7993565 117.4496746  56.3839197   1.0533372
 118.1031322  57.0510817   1.2633840 116.6722202  56.8815327   0.8000032
 123.3462524  45.4638195  40.6382600 123.4485149  46.2752581  40.1409189
 123.1697369  45.7523537  41.5337030 111.0156441  46.9101620 105.3494072
 111.5770721  47.6460600 105.1055241 111.4331532  46.5374327 106.1259270
 110.3007889  14.7806644  87.4965000 109.4765091  15.1682782  87.7906990
 110.3079033  13.9072084  87.8879833 121.5190983  18.1778324  85.0905991
 122.1964359  18.8104713  84.8513794 121.8693447  17.7320993  85.8618832
  70.0331593  91.3895321   8.8301603  70.1485538  91.5808201   9.7609273
  70.9242725  91.3158321   8.4885255  95.6436634  50.1183796  83.7711716
  95.9584332  50.0248337  84.6702766  96.0241604  50.9430075  83.4687710
 118.9745331  74.6548653 103.5806084 118.7322712  73.7462997 103.7596321
 119.8426342  74.7528124 103.9718151  77.6482534  64.5705366  80.6314373
  78.2321978  63.8266945  80.7795811  77.6422405  64.6847677  79.6811008
 117.6038933  59.7527456  23.1480066 117.5259686  58.9954805  23.7282697
 117.5374126  59.3865776  22.2661153  87.9112816  38.3991385  73.6956501
  88.4846306  37.8260326  73.1866789  87.8757572  37.9940701  74.5621872
  82.5722218  56.4958477  81.1855316  83.2030678  56.8513918  80.5595493
  81.8888950  57.1637249  81.2424850  84.6815586  79.4332981 104.9446964
  84.8909855  79.8726559 105.7689095  85.3512955  79.7394276 104.3331718
  94.7341919  52.6487160 104.8312187  95.1058483  52.6171017 105.7127571
  95.1424026  53.4140921 104.4264984  82.6131916  45.8105612  96.5560722
  81.6771889  45.9927034  96.4726257  82.9412937  46.5015888  97.1314526
  64.4335413  89.6258545 106.3106441  65.1213074  90.0615120 106.8140507
  63.6693287  90.1940155 106.4076042  12.4408084  58.2039213  98.8052845
  12.7248602  57.7335167  99.5890331  12.8426962  57.7256489  98.0800533
  54.8087263  75.5470371  82.1186638  55.3708887  74.8048830  81.8963718
  54.5365477  75.3795385  83.0209351  49.9903774  65.1368523   1.4366762
  50.0020075  64.2350674   1.7574254  49.0960979  65.2673817   1.1213056
  77.9342699  53.1449080  72.2592449  77.2883368  53.6546183  72.7483225
  77.5722170  53.0845451  71.3752174  99.9877453  57.4235773  72.8696537
 100.7789230  56.9096470  73.0313396  99.3816853  57.1537495  73.5596657
  70.0789785  38.5502934  94.8606682  69.1415739  38.4251213  94.7128868
  70.1266956  39.1066718  95.6380939  98.0061531  51.6425419  90.9964275
  98.6974049  52.0600557  90.4825401  98.2061100  50.7075214  90.9518719
   8.1911688  71.8389606  64.5629883   8.6559039  72.4742126  64.0182781
   8.7697440  71.6972780  65.3122616   9.1252928  63.4300137  85.8377934
   8.8411456  64.1349506  86.4196587   8.3200675  62.9612494  85.6184769
  87.3273468  64.3797922 100.1300240  86.4194393  64.4818068 100.4155540
  87.8339863  64.3686771 100.9420776  87.2512913  65.3531027  58.3486986
  87.4470234  64.5049906  58.7469816  86.5713406  65.1629782  57.7023697
 104.8450661  59.2778921  87.2352123 105.2727413  58.8514519  87.9778194
 104.5609856  58.5554361  86.6752243  80.7227039  50.5893230  96.9707012
  80.9014988  49.8285055  97.5233459  80.8880711  51.3419676  97.5385094
 101.2402153  41.2040997 100.6197071 101.9567108  41.7977762 100.8442497
 101.5470886  40.3417063 100.8996105  85.4268169  95.6308746  59.1836882
  85.6370354  96.3470936  59.7829151  86.2424850  95.4675484  58.7101555
  84.0116787  44.5198250 102.2211552  84.4974518  45.1164103 101.6516495
  83.1685066  44.4039536 101.7831421 118.0279827  46.7625999  91.7164612
 118.3312988  47.0095968  90.8428288 118.8288403  46.6847563  92.2349262
  73.7664843  64.1842461  74.4622469  73.5163498  63.8541269  73.5992956
  72.9502630  64.5135307  74.8385382  92.3531437  45.2886248  43.4287643
  91.7582512  44.8319960  42.8339291  92.5486469  46.1139488  42.9850960
  76.9810438  62.4057293  76.2304592  76.6444111  61.5789557  75.8849764
  77.3623800  62.8453302  75.4704857  83.1262875  56.0397291  84.6215343
  83.9723873  56.4510822  84.4450474  83.0307198  55.3830242  83.9317226
  29.5690942  51.6487455  93.7805843  29.8065710  50.7489634  93.5564709
  29.7550869  52.1503353  92.9868317 101.9172287  72.4240828  11.3293496
 101.2757587  71.9056940  10.8435384 102.7595997  72.1880341  10.9408704
  70.6923151  28.9240956  86.9082451  70.7887554  28.9486742  85.9562302
  71.5739632  29.0887880  87.2426224  87.5103378  70.5461454  85.0560570
  86.8558025  69.9461126  85.4135227  87.5228405  70.3557730  84.1180611
  84.2094231  70.3515387  79.9068975  85.0084114  69.8541403  80.0813866
  83.5323238  69.6846914  79.7925234  52.2811508  72.4958944   1.2036077
  53.0445147  72.5085258   0.6262533  52.4603128  73.1764174   1.8524686
   7.7017909  59.1527557  93.1215858   8.2136660  59.8355103  93.5552406
   6.8161040  59.5123959  93.0721283  81.5019703  92.1359825  15.7411519
  82.2507191  91.9876575  16.3187448  81.8134022  91.8767738  14.8739473
  66.5105057  58.6315632  87.1306896  67.4656010  58.5905743  87.0821953
  66.2575817  59.1958094  86.4000130 115.6710625  74.3451166  79.7346163
 115.1472950  74.1855097  78.9494896 115.8942127  73.4713125  80.0553894
 108.0312347  50.9216690   2.8720704 107.7847576  50.5404377   3.7147752
 108.1717300  51.8494892   3.0608503 101.2305927  31.0231614   1.5083162
 100.4932308  31.4221549   1.0464422 101.8097687  30.7130623   0.8121625
   5.8094149  72.1649981  90.6525135   6.0791617  73.0826616  90.6893730
   5.1193457  72.1446466  89.9894619  92.9442215  89.4997597  59.8090076
  93.4231949  89.4891071  60.6376839  93.3099079  90.2437973  59.3305492
   2.7561503  85.8023262 109.7919846   2.4780875  85.8352280 108.8766575
   1.9456225  85.8979511 110.2921200 112.2193623  72.5773668  81.9362259
 111.9074249  73.2754374  81.3603592 113.1464577  72.4828863  81.7176151
  15.5554419  72.5353289  81.9277668  16.1258631  73.0363655  82.5107098
  16.0770922  72.4053240  81.1357975  93.6080933  53.3538294  80.1995277
  93.4608364  53.6763716  79.3104172  93.2490540  52.4665260  80.1949596
  95.8951950  62.2179413 106.5404129  96.7058086  61.8140173 106.2306023
  95.5520248  62.6823521 105.7770061 110.7780266  75.2960157  55.7670021
 110.4272175  76.0407162  55.2785492 110.0053215  74.8589373  56.1249447
 100.7740402  64.5957041 104.1733074 100.7799721  65.5191660 104.4251347
 100.9760666  64.1255522 104.9822426  90.0234604  83.7823772  84.7288609
  90.5662155  83.0461597  84.4466400  89.1246796  83.4655285  84.6392536
  85.8148861  85.2550888  99.7679329  86.3575077  85.7454681  99.1504097
  86.0229301  84.3372631  99.5931435 107.4582386  54.0017366  97.8756809
 107.1666336  54.0668154  98.7850571 108.0515385  54.7440290  97.7607059
  96.5365314  85.2858925  11.7825643  96.9428635  85.6471920  12.5703374
  96.3854313  84.3642330  11.9921914 109.9841881 101.0157394  88.9452171
 110.4481983 100.3948593  88.3835697 109.1698360 100.5683517  89.1751957
  94.7879696  42.3152637   4.9521200  94.9447250  42.4395800   5.8881799
  94.0729809  42.9176950   4.7469274  77.8490639  53.9267540  62.4489260
  77.8036976  54.5162773  63.2016802  77.1281242  53.3114767  62.5827742
 102.7167797  90.0858307  92.3232651 102.8792381  89.3729973  91.7054462
 102.0107937  89.7618008  92.8825665  98.2170773  42.4467564  99.5341301
  98.7814331  42.4426079 100.3072548  97.6288795  41.7026711  99.6629620
  90.1098442  74.1270447  80.8561134  90.3772068  75.0325966  81.0133457
  89.7881603  74.1253853  79.9545860  88.7531948  60.5608511 102.6826382
  89.1813946  60.4792213 101.8304539  88.1384563  59.8277664 102.7130032
  86.4728928  73.6708975  69.2106104  86.0304070  74.4233608  68.8178730
  87.0385075  73.3357191  68.5149288   4.5824175  98.0691528  92.2859859
   3.9104586  97.8177834  91.6523361   5.3120833  97.4752712  92.1096039
 114.9212742  43.9726400  76.8360043 115.0301552  43.5211086  75.9990454
 113.9758778  44.0967703  76.9199657  90.5278873  63.8414621 104.5720959
  90.8069038  62.9905128 104.9101162  91.2274837  64.1023540 103.9731407
 106.0845947  71.4468670  78.7069082 106.2725449  70.8606434  79.4398832
 105.8376122  70.8625364  77.9901171  79.7759867  41.0139990  96.9229984
  79.4614220  41.5995121  96.2341881  80.6455898  41.3482141  97.1428013
 115.9515953  43.9093161   9.4665948 115.7956600  44.8330021   9.2698232
 115.5233479  43.7687016  10.3110257 121.3716698  59.1491079  85.3721428
 121.8684578  58.3450794  85.2205849 120.4799461  58.8498306  85.5496025
  86.6227245  86.3893700  96.5406990  87.1346092  85.8214664  95.9647751
  87.1476078  86.4573574  97.3382664  58.7956572  88.7033081  80.8510208
  59.2416191  87.8740120  80.6789684  58.9825344  89.2400455  80.0808048
  77.0296526  84.6893883  85.9793758  76.1487913  84.3177700  86.0264301
  77.3111296  84.7546768  86.8919182  82.6363277  40.7419729  93.1014061
  82.9995728  41.1977959  93.8606930  81.9008827  40.2399969  93.4526634
 117.6000977  79.7534275  91.7358494 117.3240280  79.0095711  92.2712803
 117.6266861  79.4091606  90.8430958  12.4202567  79.9773264   5.6324807
  11.7045909  80.2640247   6.1998025  12.0193606  79.8877907   4.7678987
 121.9888496  49.5514774  84.1676521 122.9447746  49.5345640  84.1213989
 121.7184544  50.0058603  83.3697414  86.1914825  45.2416754  99.3266678
  85.6819916  44.4349432  99.4030094  86.4278126  45.2889395  98.4003067
  98.9704704  33.5889292  82.8157043  99.6835804  33.5426998  82.1788502
  98.1804943  33.6863995  82.2840405  93.5941505  39.6383023 103.8133526
  94.2777443  39.6098161 104.4827557  92.8380299  39.2201066 104.2252159
 109.2835903  56.3713026 105.9155846 109.2270947  55.4274464 106.0645008
 109.0656376  56.7608404 106.7623329 121.2090588  50.4855871 100.6364918
 121.0801697  49.8669529 101.3554573 121.2176132  51.3447380 101.0584164
 113.6576843   1.1119246  59.3461704 114.1172314   1.9487302  59.4154882
 113.8413429   0.8108091  58.4563208  69.7593355  30.3342843   7.0534936
  69.9297285  29.7548103   7.7960531  70.3153181  31.0970783   7.2124235
  96.7288876  56.7140961 100.5454445  95.9533119  56.2471294 100.8563232
  96.4484501  57.1271229  99.7287464 112.8440952  41.2331867  76.9984674
 112.4894905  41.3795090  76.1214924 113.7589550  40.9939575  76.8500519
  10.5165415  30.8376932  84.0349483   9.7378855  30.6845450  84.5701885
  10.9488803  31.5844607  84.4492626  91.2001419  76.2893248  96.0260582
  90.5650997  75.8968019  95.4269981  91.8148613  75.5818748  96.2206554
 102.1420860  50.7714605  98.6975574 102.9888916  50.5675936  99.0945148
 102.3591995  51.2920284  97.9241848  95.8108044  92.3785305 100.9774590
  96.1764622  93.2561588 100.8665562  95.5723000  92.3336792 101.9033813
  80.2966213  71.0478115 103.2592583  80.7969093  70.5686760 103.9198494
  79.3875217  70.7918978 103.4150887 108.7228298 105.1008797  50.7384348
 108.0030537 104.5215511  50.9884834 108.6143970 105.8717442  51.2954330
 112.1993542  54.2313623   7.4521962 112.9716682  54.4086361   7.9891530
 112.5449371  53.8005161   6.6704217  83.9617825  78.5981941  98.9588070
  84.5700645  78.0901480  98.4220409  84.0228748  78.2035208  99.8287106
  97.3764896  55.7156801 105.9213924  97.9591370  54.9710083 105.7723522
  97.9516697  56.4086771 106.2456894  66.7367268  59.8434782 102.2924995
  67.1619129  59.7993183 101.4360523  66.8573618  60.7505751 102.5733089
  29.8385787  94.1185379   4.2931215  28.9469504  94.2421913   3.9676324
  30.1966429  95.0042152   4.3530885  96.1649513  70.4793310  78.5397959
  96.0202694  69.6707869  78.0483103  95.4946709  70.4675055  79.2230368
  82.2041225  96.4792061  71.9277239  82.5695419  96.3374996  71.0544443
  81.7624474  95.6566715  72.1389055  77.2892046  27.8788328  78.2566929
  76.5514231  28.3997703  78.5737610  78.0117416  28.1057358  78.8420916
 102.1352196  83.2581997  84.4766331 102.0029354  82.7054310  83.7064552
 103.0516434  83.1200504  84.7160530   4.2492991  63.1662416  83.3285904
   4.7490435  62.3700809  83.1479836   3.3468371  62.9383993  83.1052399
 110.9838963  39.2718768  27.6632380 110.4371643  38.8175297  28.3042359
 110.7808399  38.8459086  26.8304420  81.3330555  80.8893299  85.9798241
  81.3285446  80.1604176  85.3594208  82.1679306  80.8064556  86.4406490
  92.1423721  48.2873821   9.6315042  92.6644611  49.0169621   9.2977849
  91.8461418  47.8261900   8.8467828   1.0735064  45.4770756  10.5563489
   0.7897025  45.5879402  11.4637605   2.0211058  45.6094503  10.5838910
  97.4229240  78.2717514  96.7226124  97.3346138  79.0623331  97.2549820
  97.7563095  78.5851526  95.8818626 109.9945831  31.7415881 101.3932705
 109.5828438  30.8847904 101.5055084 109.8233700  32.1992683 102.2163391
 103.8539028  61.4894295  91.4237881 104.7914791  61.3363409  91.5410137
 103.6455250  61.0711098  90.5884361 100.0768375  74.0180159  63.1167650
  99.3567753  74.3888474  63.6268854 100.5279064  73.4352922  63.7276697
  12.3212462  70.3894663  90.3572750  12.2274619  71.2024927  89.8608685
  12.5598841  69.7344923  89.7013092  87.8177452  53.9298248  62.2495842
  87.6196289  52.9934072  62.2392559  87.3145008  54.2891836  61.5189457
  55.9440517  42.9597902 101.9498730  55.7811213  43.4130716 102.7770519
  56.7378998  43.3686161 101.6050529  93.4859276  61.8568087  73.8507080
  92.5755119  61.8279934  74.1449118  93.4346867  62.1529341  72.9419088
 101.2586880  35.2698159   1.0838357 101.2844944  34.6972132   1.8504468
 100.5330467  35.8695149   1.2571374 104.3483448  39.2108059  91.6085529
 104.0321922  39.9190187  91.0475636 104.2007637  39.5271945  92.4998188
 108.2217598  95.8229923  50.8283234 109.0479469  95.4837036  51.1726093
 108.4823132  96.5049362  50.2092123  92.5060177  73.1457663  91.8317795
  92.7336693  73.9669228  92.2677898  92.8154564  72.4640799  92.4282551
 113.7100220  59.6574259  66.4098406 113.6388206  59.0996981  67.1845055
 112.9767895  59.3914270  65.8549929   3.8352137  69.6542692  66.1355209
   4.3237620  69.7766304  66.9495106   4.3570643  70.1065254  65.4726744
 113.2338238  24.3147850  89.6267891 113.7987614  24.8867035  90.1463890
 113.2174110  23.4896326  90.1116371  87.8739834  73.6972094 101.1217213
  87.1109200  74.1366196 101.4970684  88.1053543  73.0275059 101.7653084
  88.6720085  99.9186802  90.4820156  88.6681747 100.8725834  90.5613804
  89.5425034  99.7100544  90.1429653  98.2656765  82.2832203  88.4261703
  97.3531246  82.5377846  88.2895279  98.3129597  82.0497799  89.3532658
  12.8989821  69.0758181  43.1838417  13.5462218  68.4939146  42.7854681
  12.2075778  68.4898901  43.4918690  94.9185181  44.8300171  67.9538202
  94.2206478  44.8889971  67.3013449  94.9968433  45.7183123  68.3017159
  94.4174671  76.6628838  21.7295305  94.5128250  76.4115953  20.8108369
  95.3115368  76.6647339  22.0713846  83.5826683  45.1096821  60.7085419
  83.4311676  44.1647387  60.6896162  82.7159405  45.4939032  60.5766964
 102.1675682  74.4416046  80.7951832 102.6186562  73.7686634  80.2853775
 101.2759113  74.1083622  80.8958149  95.9981060  45.5920458   2.4369470
  95.2923012  46.1543989   2.7560369  96.7729950  45.8847094   2.9166642
 116.6625500  50.2996254  74.4668198 116.8852520  49.9839258  75.3425884
 117.4362850  50.7870293  74.1839790  88.7687111  25.7932615  92.9148388
  89.4972801  25.2459812  93.2079411  89.1448689  26.6697550  92.8342342
 116.2341976  76.4320612  75.0181961 115.6563187  77.1144152  74.6765995
 116.6742706  76.8416548  75.7630444  73.1960392  59.1089296 105.0446987
  72.8401661  59.9758673 104.8497677  73.5803175  58.8163996 104.2182636
 117.6887321  77.2487497  93.3831882 117.5834560  76.8853426  94.2624378
 117.7178288  76.4830923  92.8094673 112.8836060  41.3111639  71.4983368
 112.3220634  40.5516911  71.6535759 113.7420464  41.0457563  71.8282938
  60.6419086  99.1242790  70.8013153  60.4076719  99.8753262  70.2560663
  60.3669405  98.3626747  70.2908373 106.4236259  63.5047436  98.2282829
 107.0444679  64.1615105  98.5436344 105.7053375  64.0145588  97.8536129
   9.1337710  70.8116102 105.3984928   8.5163813  71.2540865 105.9809685
   9.9434119  71.3156414 105.4801941  95.6907272  71.1405849  92.7180386
  96.5002155  70.6540394  92.5623798  95.2427769  71.1371374  91.8721294
  95.3272820 100.7364368  84.4058037  94.5083237 101.0778618  84.0466785
  95.8132458 101.5153885  84.6765518   2.7193671  94.9694061 106.8379593
   2.5159293  94.3825912 106.1096191   2.7870303  94.3924141 107.5987053
 107.5880527  99.9644756 106.1621857 106.9568825 100.3942394 106.7393780
 107.2458363 100.1124287 105.2805805  97.0013714  64.0595150  10.4173700
  96.3722038  64.5160532   9.8588411  96.5047073  63.3326721  10.7932130
  98.3973503  45.5413198 103.9930439  99.3240547  45.4890442 104.2269516
  98.3963394  45.8405924 103.0838299 116.9702435  49.2750788  43.3634996
 116.0428715  49.4751787  43.2363605 117.3854351  50.1292801  43.4826279
  74.5108557  75.6012201  86.6955566  73.7950945  75.2940750  86.1391544
  74.0809155  75.8939075  87.4991226  93.8802433  42.0139647  74.1257715
  93.4570789  42.7830458  74.5074463  94.7646523  42.3096466  73.9098454
   5.4584628  58.3516836   8.5137979   5.6508380  57.6575136   7.8834382
   4.5541125  58.6024380   8.3253709  64.3291140  73.4508896   0.9120122
  64.8246956  73.0142689   0.2191964  64.7430277  74.3097019   0.9977666
  75.0353765  57.3797178  75.8502150  74.8585558  58.0313301  76.5287209
  75.9860325  57.2691536  75.8662510  17.4554473  71.0367298  87.8398037
  18.1041842  70.5003214  88.2954788  17.0879393  71.5989733  88.5217476
  84.2585468  85.3368950 108.0153179  85.0056267  85.5256271 108.5831833
  84.6262074  84.8168755 107.3007298  90.6286430  31.1665654  79.3419838
  90.4141140  32.0647216  79.5940256  90.4139137  30.6433129  80.1142025
 116.3329792  85.2245903   0.4148332 115.5923367  85.8236313   0.3208009
 116.9477844  85.6908989   0.9812204  89.7719669  34.1377306  93.9852428
  89.7039223  34.4518137  93.0836010  90.6505203  34.3965960  94.2633820
 107.8127861  49.3644762  87.9364491 108.2979965  50.1895761  87.9331112
 107.8738022  49.0543842  88.8399696  85.0044918  63.2647276  68.4095669
  85.2805233  63.3159590  67.4944639  84.2440224  62.6835299  68.3981752
 124.2765331  43.3490753  96.4502525 123.9814186  44.2176294  96.1768436
 125.0409794  43.1722736  95.9019947  80.3417206  62.0128012   7.8752748
  80.0805855  62.9311323   7.9439012  79.8612547  61.5740633   8.5773317
  90.5868149  69.1403151   4.6619741  91.2455845  68.9175463   4.0042344
  89.8925495  68.4938812   4.5341245  97.2750092  57.9575062  94.7188187
  96.9925308  58.8268280  94.4347095  97.3209572  57.4449444  93.9117241
 108.6706352  86.3218021  98.1271935 108.0802917  86.3634968  97.3748684
 108.1133747  86.5187454  98.8801289 101.7673683  68.3155775 108.1751919
 102.1687031  68.3275318 107.3062706 101.5355587  69.2287159 108.3445358
  98.2639122  14.3872631   2.8996126  98.1266403  13.7034357   3.5551778
  97.5493431  14.2664802   2.2742788 116.4286137  57.1488714  73.2769203
 116.0437870  56.8332005  72.4593067 116.3609600  56.4055252  73.8761616
  89.0562153  45.7883596  74.2877817  88.7684917  45.7813263  75.2006912
  89.7036266  45.0852680  74.2352819  86.7229366  46.6113806   1.4479867
  86.7505932  47.5681019   1.4603082  86.9466877  46.3537645   2.3423044
  99.8894501  74.1880178  97.6433945  99.9286652  73.3101225  97.2639275
  99.2940044  74.6704626  97.0698738 112.5757885  67.7668715  89.3976212
 111.9074726  68.4499121  89.4527721 112.0838070  66.9635773  89.2275810
  97.9924679  73.6069298 106.1464500  97.7728176  74.3670464 106.6851616
  98.4705162  73.9713860 105.4015541 107.8915882  84.4106293  63.2636881
 108.1098938  84.4329834  62.3319817 107.9326630  83.4832382  63.4971285
  74.0934324 106.2431908 108.7417984  74.4978666 105.3998280 108.5383320
  74.2819786 106.7895317 107.9787827 111.0367203  51.1972427  72.5619078
 110.7204914  51.6039848  73.3686256 110.2838421  50.7089424  72.2287941
  47.6436853  80.4951572  92.5775337  48.2412338  81.0184479  92.0433712
  46.7827368  80.6392956  92.1848297   1.4461165  86.0099030  78.7372780
   1.6334467  85.7062912  77.8490448   0.7815104  85.4027748  79.0627480
 106.1937428  59.9905396  51.4879465 106.6955662  60.8049393  51.5221167
 106.0205173  59.8548603  50.5563784 115.0668240  33.9630389  73.8118029
 115.5478764  33.6370206  73.0511856 114.4556618  33.2589364  74.0284824
  81.8866348  74.1585159 107.8508759  81.0119152  73.8799858 108.1220245
  81.8505383  75.1148176 107.8712654  10.7613783  70.2447891  64.5891142
  10.0429755  69.6798897  64.8737335  11.0315734  69.8819923  63.7455463
 103.9805222  63.7811565  65.5283403 104.7611618  64.2775822  65.7741117
 103.5522366  64.3215275  64.8644161  87.5053024  53.0059671  73.7416172
  87.1452045  53.8271856  74.0765285  86.8659496  52.3416042  73.9986897
  97.9021072  20.4196191  88.1655216  97.0977974  20.7192159  87.7417660
  98.3008289  21.2171650  88.5136127  12.3271304  46.3484573  97.3643970
  12.1671706  46.8747711  98.1477451  11.4545470  46.1685753  97.0144176
  53.4634018  91.5905857  41.6517202  52.6194620  91.1391068  41.6387883
  53.2417536  92.5157452  41.5459672  44.5835238  69.8286247  56.5155983
  44.9204188  69.2712355  57.2170591  44.5851260  69.2661905  55.7410717
  66.5228558  74.3778610  88.2093334  65.9338331  73.7886190  87.7380848
  67.3477125  74.3288040  87.7261829 105.2529049  77.1312618  72.7909088
 105.4763031  77.3064947  71.8767881 105.7851791  77.7504063  73.2904816
 112.2103119  53.5660505  92.0125675 112.5614071  52.8803253  92.5806713
 111.6290569  54.0726757  92.5797558 102.9522324  59.7811127  89.3538475
 102.3982239  59.0993071  89.7339058 103.3901215  59.3518496  88.6188507
 106.2170410  56.0047293  77.8657866 105.4117489  55.7004404  77.4472809
 105.9293175  56.6900587  78.4689283  91.6464520  58.4660435  74.7025824
  91.9364643  57.7040863  74.2010403  91.8191814  58.2323503  75.6146049
   0.8264857  56.4632988  71.7812538   0.1460486  57.1180868  71.6247940
   0.9221583  56.4401007  72.7333784 108.5627270  74.5463943  59.0654469
 109.2670631  74.1909599  59.6074963 108.0627251  73.7785196  58.7886810
  73.9121246  41.9863939  98.4151745  73.9004135  42.3946810  99.2808533
  73.7593269  42.7096939  97.8071308 121.2582493  63.9566374  87.9479218
 121.4497757  63.9850473  88.8853359 121.5154934  63.0751944  87.6775169
 114.3835258  26.0196018  92.1279430 115.3214645  25.8458543  92.0484734
 114.2679882  26.8898916  91.7465305 100.3337383  37.3957777 102.7953434
 100.1357079  36.4733005 102.6339340 101.2884521  37.4473548 102.7495956
 113.1484890  89.2110634  74.0698242 112.6919937  89.4035721  74.8888350
 113.0416012  90.0037289  73.5440016   3.4279090  59.6311617  85.1654434
   3.3560019  58.6864614  85.3018570   3.1588870  59.7630501  84.2563438
  91.4797115  58.1907463  82.0776939  91.2436771  58.9371300  82.6285458
  90.7354355  58.0856133  81.4850521  79.4310570  80.2917099 103.8338661
  80.3473377  80.0415134 103.7152958  79.1479492  79.8044968 104.6076298
  90.3274727  69.4457150  89.5017719  90.7285500  70.2013874  89.0724468
  90.1644516  69.7383022  90.3984642  82.8654957  88.2139969  82.6901722
  82.7991295  87.2702694  82.5445175  83.7730598  88.3511925  82.9617119
  99.6732426  16.5211654 109.5299435 100.1752472  15.8234584 109.9511623
  99.9194717  16.4693546 108.6064053 102.5815582  66.3343143  92.5759506
 102.8683472  67.2448015  92.6466465 101.6503143  66.3587570  92.7959824
  76.3078785  58.6536360  71.7800856  75.5617857  58.8459349  71.2121105
  76.7635822  59.4907379  71.8685389 116.4199162  90.0872898  26.8338243
 116.1258221  90.5672264  27.6080362 117.3654842  89.9975395  26.9525186
 105.6401825   7.6171148  87.7468681 105.6957531   7.4905235  86.7997074
 106.0754871   6.8492085  88.1170940 121.8176174  82.9560566 105.8988762
 121.5589046  82.0345306 105.8901978 121.6665077  83.2387733 106.8008041
  94.8961449  68.7555408  80.6898403  95.1627922  67.8368282  80.7229614
  94.8478985  69.0241575  81.6073036 100.1905251  99.9158096  84.9702072
  99.8004341  99.0539074  85.1157856  99.7017288 100.2782345  84.2313194
  99.5446587  25.4824877  99.7132587  99.9499226  26.1100030 100.3117657
  99.5291996  25.9326720  98.8686752  94.8334312  74.5588970  54.9336672
  95.7749367  74.6698427  55.0659323  94.6278286  75.1245737  54.1893816
   8.4171134  79.7124624 101.1979580   8.5000735  80.6523228 101.3592434
   7.5022059  79.5148993 101.3983536  83.8348770  35.0565886  96.5304184
  84.7744274  34.8744702  96.5479469  83.7581348  35.8718038  96.0346699
  72.3026800  91.9608688  99.0453148  72.8017330  91.9752216  98.2286358
  71.7432404  91.1877728  98.9705944  96.1685658  70.5694056  55.6590652
  96.0943031  69.6400928  55.4420519  95.9928799  71.0226965  54.8345089
 108.6408520  44.6911573  17.8633920 108.3636665  45.5625534  18.1463662
 108.3489132  44.1077375  18.5638372 104.6087360  29.5550060  45.9394884
 104.8762989  29.1708660  46.7744017 104.5493793  28.8101649  45.3412247
  88.4858990  68.6074829 102.5438023  87.5529289  68.4302568 102.4238491
  88.9061165  68.2024717 101.7851162 117.9386425  72.3005056  80.2074528
 117.4327755  71.7012024  79.6586609 118.1306076  73.0441523  79.6361637
  99.7875690 122.0045948  91.8382835  99.9870872 121.6951084  92.7218246
 100.6439877 122.1545792  91.4379406   5.3381377  66.7229319  75.2962542
   5.4962760  66.7498064  76.2399197   6.0077124  67.2972822  74.9247456
 105.4846382  77.0083284  56.9710922 104.9649429  77.8114986  56.9385052
 105.2372265  76.5306664  56.1793470 122.8972912  85.6468201   5.7996503
 122.4755287  86.2168980   5.1567308 123.0297375  86.2059975   6.5651742
   6.0547762  70.5539417  92.9726982   5.8422118  70.8643436  92.0925331
   6.0445815  71.3433123  93.5140133  73.2087088  75.8181000  72.4602222
  72.4827337  75.9670115  71.8544054  72.9808569  76.3286209  73.2371902
 103.0484104  66.3612652  78.9040279 102.4790287  66.2922144  78.1376934
 103.9127445  66.5586615  78.5432148  80.3757954  76.5485573 106.3219643
  81.0058689  77.0472336 106.8421078  80.8813381  76.2300587 105.5741596
  78.3277512  28.0677581  96.1232185  77.9475975  28.8925266  95.8207798
  78.7042665  28.2768083  96.9780731  98.5601902  57.5950336  82.8598690
  97.9883957  57.9424810  83.5443878  98.8396645  56.7417288  83.1915188
 109.7665882  16.3398671  85.2549839 110.0288010  15.6135762  85.8206463
 110.4450989  17.0022738  85.3856659  95.8077526  34.9355626  58.0626631
  96.4272976  35.5629039  57.6900434  96.3169956  34.4547534  58.7151384
  92.2889233  60.2220201  88.2267857  92.8112411  60.1496363  89.0256405
  91.7119312  60.9692526  88.3847523 112.6818943  55.9173965  72.2649145
 113.5343933  55.5559874  72.0223141 112.3921013  55.3755379  72.9988337
  84.4112206  88.2336807  56.4692640  84.1136551  87.8696060  55.6355143
  83.6065578  88.3868217  56.9645452 100.2088165  43.8835049  49.7241354
 100.1635265  44.7077036  50.2087784 101.0674381  43.5226536  49.9449968
 103.5288906  24.3465853  23.9724422 103.7896538  24.1651273  24.8753881
 102.9183769  23.6426568  23.7533855 111.1690617  55.0543356  69.9205112
 110.2644062  55.3645849  69.8807001 111.5492630  55.5195999  70.6656361
  99.8844910  62.1372938  61.9200182  99.9557209  61.2057781  61.7115974
  99.8192120  62.1648407  62.8745890  80.9516144 140.7093620  70.7640982
  80.0290966 140.9261417  70.8990383  81.4266682 141.4801979  71.0745430
  78.0762148 102.2047424  58.5329342  78.3440495 101.6955376  57.7679443
  77.1369362 102.0391464  58.6139917 114.6238232  76.1371040  28.1381297
 114.2576504  76.7959023  27.5480986 115.0030994  76.6433334  28.8565373
  90.4754925  35.2816081  67.3518229  90.0426769  36.0707569  67.0260239
  90.3899956  34.6495390  66.6380930  66.9424200  33.8364697  58.3441114
  67.8340769  34.1803551  58.2900620  67.0480251  32.9504013  58.6904621
  85.6165600  75.9263468  84.3671608  85.9656620  75.0758457  84.1006851
  84.7193623  75.7407808  84.6443653 121.1300755  65.2342033  85.3694916
 121.2037086  64.8626137  86.2485504 122.0352268  65.3286600  85.0728035
  88.5423279  39.8244357  46.2261724  88.6858845  40.7590628  46.0775185
  88.9854527  39.3947148  45.4945898  87.9305363  61.0927773  53.6617708
  88.3552647  60.6397533  52.9333448  88.4182739  60.8114624  54.4358540
 116.5108871  58.3965635  50.1640177 116.7647171  58.5609198  51.0721970
 117.1084976  58.9365530  49.6468210  26.5831214  76.8855524  47.7327681
  26.2970763  77.7943850  47.6409531  27.5163012  76.9055748  47.5206423
  89.9956131 101.3986969  62.8640938  90.5165672 101.1789799  62.0917225
  89.9877071 100.5951595  63.3841753  63.4542131  69.0742636  76.3655043
  63.0174160  68.3833933  76.8636370  64.3111944  68.7074852  76.1480379
  97.3199654  62.3615360  47.7783394  97.0965767  62.3480082  48.7090063
  96.7082500  62.9896641  47.3942947 108.9948368  74.8361969  22.0556569
 109.2520618  74.4654369  22.8998160 109.5835400  75.5807066  21.9316840
 115.6844902  61.4738894  94.1529751 116.0081100  60.6216049  93.8612270
 116.2271118  62.1089363  93.6855221 112.0973873  83.1635475  79.8805761
 112.7074909  83.3520794  79.1675091 112.2940350  82.2610569  80.1317310
  89.3219090  19.9902093  88.6102200  88.5058403  19.6870971  89.0082073
  89.4173145  19.4551516  87.8222847 113.9039707  46.9890976  57.8192663
 114.4006157  47.7232313  58.1806755 114.5349789  46.2705660  57.7773237
  65.6300688  76.6047001  89.2871284  66.3076925  77.1223927  88.8523197
  65.8397579  75.6982946  89.0619850  91.9139385  77.9144907  41.2859344
  92.3468971  78.3608198  42.0136499  91.8923473  78.5654449  40.5844879
 120.9254265  90.2429104  94.4899559 121.5022564  89.5034027  94.2985916
 120.2908897  89.8957348  95.1169014  84.9698639  63.8287210  71.2531233
  84.9153996  63.7446308  70.3011847  85.8003902  63.4121609  71.4832354
  87.7381611  70.0251961  93.6904621  87.9567242  69.8264170  94.6009254
  86.9601440  70.5799770  93.7465477  12.0617133  83.3438969  73.1443739
  12.0948725  84.1321945  72.6024199  12.1628790  83.6648655  74.0404606
  98.2605362  63.3653927  65.7267714  97.5194931  62.7686501  65.8315563
  98.6198711  63.4582806  66.6090870  90.7388687  86.6878223  51.5141106
  90.5549812  87.4134350  52.1106815  90.4845047  85.9053040  52.0031834
  93.1018925  55.0369835 100.0917339  93.2997417  54.1035652 100.1679897
  92.4321842  55.1949978 100.7571411 111.1584663  88.9173031  37.1508384
 111.7372322  88.5164738  36.5023017 111.5647888  89.7619724  37.3448992
  92.3042202  49.2546844  88.4238338  92.7032852  48.5368633  87.9321861
  91.3862801  49.2495537  88.1525612   1.1466151  73.4832239  43.4271860
   1.7614012  73.9948750  43.9529991   0.6791716  72.9425144  44.0638685
  85.3221607  83.8238525  60.7141876  86.0062122  84.0378666  61.3486195
  85.7143974  83.1519699  60.1565552  90.7466984  41.9804049  95.2955627
  90.0521469  42.3652744  95.8300686  91.0387325  41.2179279  95.7951355
  85.8456230  92.5590420  76.1488819  85.6659603  92.5359058  77.0887804
  86.6781235  92.0965290  76.0527086 103.1707668  49.7713137  85.8563423
 103.0052662  50.3878307  86.5696049 104.0323448  49.4034433  86.0527992
  78.0889225  36.0718513  49.3601751  77.6619434  36.8340588  49.7512770
  77.5194550  35.8261681  48.6310816  86.6824818  78.8773632  95.1943684
  87.3736191  79.3581247  94.7389317  86.8189907  77.9644012  94.9411869
  68.4212780  68.8455486  68.2305717  68.0657053  68.2158613  68.8577080
  68.5060644  69.6582651  68.7291002  99.1228008  52.4445057  66.4883280
  99.8810291  52.3950624  65.9061956  98.7433338  51.5661192  66.4624977
   0.9717398  87.6700115  56.4569902   1.3975268  88.4562492  56.7987061
   1.4725619  86.9448471  56.8305492 109.3588448  57.3563576   3.0698530
 109.1078854  56.4546490   3.2702962 109.2157650  57.8322840   3.8879339
 103.5078526  53.7208033  69.8751688 102.6473331  53.9778852  70.2062988
 104.1289902  54.1543436  70.4603767  90.2965546  65.0608921  57.4565792
  90.7999611  65.2488804  58.2487154  89.4787884  65.5447912  57.5720215
  99.5913029  79.0924263  53.6028957  99.0107822  78.4667206  53.1696177
  99.2815685  79.1193008  54.5081997  84.9135494  82.8113270  40.2742481
  85.0341511  82.0095634  39.7654653  85.8026791  83.1161976  40.4551935
  95.6407738  35.5239964   6.5877763  95.7943439  35.4455996   5.6462327
  94.7385311  35.2280903   6.7087499  98.1280994  49.4037199  60.5991459
  99.0240002  49.2506647  60.2988720  98.1174850  49.0755463  61.4982653
  89.1659546  75.7728291  33.7921786  89.8555565  76.2512970  33.3320236
  89.1126156  74.9325895  33.3367825  98.6369801  52.9247236  49.3605137
  98.3421707  53.8299799  49.2613792  99.5896053  52.9729414  49.2804527
  12.6674014  67.8142691  58.6660910  13.1206065  68.3295155  57.9987431
  11.9877844  68.3997393  59.0001297  85.6889820  38.1308627  64.2164230
  85.2846909  37.2760677  64.3651152  86.4856529  38.1145287  64.7467852
  91.0280228  51.2355328  72.9368305  91.6670609  50.6826830  72.4871540
  91.3700294  51.3217735  73.8266754  94.1556835  46.5596104  97.8449345
  94.9855042  46.0844088  97.8874683  93.5876846  46.0025597  97.3126793
 112.4580193  43.3933210  93.8656616 112.4026585  44.3484592  93.8360691
 111.5758228  43.1095791  94.1053486 116.7834854  28.5796905  89.0450478
 117.7404976  28.5862517  89.0274429 116.5435219  27.7187824  88.7022877
  92.5939083  47.0471907  56.8671227  91.9976997  47.6206112  56.3855076
  92.9116726  46.4267826  56.2111092 118.7097645  82.7301121  77.2132921
 117.8798199  83.1874371  77.0781326 119.3768787  83.4085178  77.1086168
 120.7055473  87.4332619  50.3424644 119.8755264  87.5807667  50.7958317
 120.8104038  86.4818287  50.3382874  96.6375732  63.2986593  40.0668383
  96.9028950  63.7308455  40.8786583  96.8568230  63.9266014  39.3784761
  85.3689480  66.0596991  84.2308998  85.6153297  66.5964270  84.9841976
  84.4684505  65.7908106  84.4126701  87.4838257  52.3675299  49.4084120
  87.9843235  53.1739855  49.2844486  86.5717220  52.6552677  49.4471788
 110.1314259  37.1073961  90.8885384 109.6176434  36.3495922  91.1678219
 110.1393509  37.0523882  89.9329567 105.7718086  92.9636192  45.4957390
 106.1125755  93.8572216  45.4560757 105.2311325  92.9482937  46.2854719
 103.9543152  68.9555645  45.8032370 103.6132526  69.8348665  45.9667397
 103.3104610  68.5535288  45.2200985  74.5315218  42.3476791  82.8465748
  75.1162767  42.8775835  82.3048210  74.8272467  42.5053549  83.7431908
 104.0568352  21.0320783  84.0346718 103.9757156  20.5030465  83.2410908
 104.4346046  20.4365969  84.6819115  86.5533924  35.3622460  59.3668842
  86.7829037  36.2689185  59.5705986  86.6021538  34.9080443  60.2080488
 116.9902992  46.7050362  48.6075354 116.3386250  46.8532848  47.9222775
 116.7933655  47.3651218  49.2721701  83.8368893  87.8801537  76.0030794
  82.9484940  88.2306480  75.9387398  84.3395996  88.3825588  75.3619003
 106.6270256  94.9014091  53.1425285 107.0562840  95.0097847  52.2938728
 105.7437420  95.2455711  53.0098486  82.6363659  51.8937922  61.9463730
  82.3788261  52.5472641  62.5966597  83.5099030  52.1665335  61.6657019
  76.5520859  52.5269747  77.4838781  76.9450283  51.9196558  76.8569851
  76.9780350  53.3652067  77.3045158 122.7179146  56.5982008   7.1904794
 122.3884010  57.0966482   7.9382840 122.4289417  55.7005930   7.3548642
 120.1546764  56.8055058  59.4045305 119.7775555  56.1295557  59.9676466
 121.0558224  56.5186644  59.2565918  82.5581551  84.3684769  98.7683296
  82.2771454  85.0514317  99.3772984  83.4923363  84.2588711  98.9458561
  94.1433334  85.4828930  73.4993649  94.5425224  86.2707806  73.1304169
  93.2024002  85.6567955  73.4740448 106.7330170 100.9012985  41.0118532
 106.5618515 101.0687447  40.0850868 105.8822823 101.0121250  41.4363718
 102.5848866  74.4807529  83.3870029 102.1893406  75.3513718  83.3446217
 103.0376530  74.3823624  82.5494194 100.8152866  71.9021702 103.6121845
 100.4268646  72.7073431 103.9543056 100.1735210  71.5758562 102.9814053
  75.2144051 128.8486767  60.7928944  75.3240824 128.8196659  59.8424387
  75.5715418 128.0156517  61.1007404 106.9574928  49.2279434  62.5983572
 107.7364445  49.1853523  63.1530142 106.4662266  49.9784040  62.9325724
 122.9243755  38.9759517  78.6081076 122.9049492  38.0197477  78.5690355
 122.2237968  39.2540550  78.0181265 107.6298809  46.0861206  51.6192055
 106.9081497  46.7021847  51.4934635 107.6765347  45.6005478  50.7956314
   7.8270369  59.4099236  81.1918545   8.7130766  59.0709829  81.3194656
   7.2557192  58.7193871  81.5279865 100.8751297  31.0847521  88.6388588
 100.5498219  31.9849777  88.6374283 100.2012825  30.5858469  88.1770611
  91.1440086  78.8391256  91.7136192  90.3105640  79.0638781  91.2999916
  91.0255241  77.9392672  92.0176792  85.5451488  81.1436081  59.5559740
  86.0523033  80.3737831  59.2982912  84.8152065  81.1676502  58.9372301
  71.3067341  45.0015450  52.1901703  70.7517433  44.3254185  52.5788546
  71.1561441  44.9227142  51.2481833 104.9184704  75.5402374  59.1576147
 104.3532085  74.8363590  58.8394022 105.3366661  75.8864975  58.3692932
 100.4536438  57.1337223  69.8594189 100.0468636  57.3757887  70.6913853
 100.7630157  56.2382030  69.9956751 103.7252522  94.8525238  71.9929886
 103.0660820  95.2072048  71.3963842 104.4275475  94.5462513  71.4192295
 108.9518166  51.7478848  94.3441582 108.4360409  52.2378492  93.7037468
 109.0604877  50.8815670  93.9518261  91.9933605  96.1606884  58.4762335
  92.1044064  95.4811096  59.1411257  92.5048256  95.8504963  57.7289629
 110.5707169  52.5110865  65.5843306 110.3471375  53.4210920  65.3890419
 111.5248394  52.4786520  65.5148268 107.2556496  44.9772739 105.7104111
 108.1833553  44.7695398 105.5988216 106.8466091  44.1389179 105.9250546
 119.1870117  76.7191410  54.4679070 119.5275307  76.0861063  55.1000023
 118.5040665  76.2426472  53.9959240  95.5325603  64.5195580  72.9376554
  96.3533115  64.5494127  72.4460125  95.7593060  64.0771866  73.7556505
 101.1877918  72.7027321  77.6758242 101.3944340  73.4496307  77.1139717
 101.8190098  72.7606964  78.3930731 121.7197227  62.2302914  51.4974260
 122.5393200  62.5363684  51.8857765 121.9580460  61.4243031  51.0393620
  85.6723690  61.9149208  50.6403828  85.4168606  62.4950218  51.3576221
  84.8457336  61.5601444  50.3132057  95.9032536  89.6009064  50.4988432
  96.5551567  89.1154766  49.9932623  95.9915161  90.5052376  50.1978159
  91.9706726  54.7026157  70.8518887  91.2069702  54.8020172  71.4203119
  91.8979931  53.8128662  70.5065012 115.6064224  91.4612865  56.5540743
 114.8968887  91.7526913  55.9814739 116.3612843  91.3700294  55.9726286
  89.6555233  68.2829428  45.7208347  89.5118618  67.9385948  46.6023207
  89.9072266  67.5182390  45.2030468 100.7303333  95.7762718  60.2241325
 100.0555420  95.2146053  60.6054783 100.6455517  96.6056347  60.6944561
 118.7252712  67.9551315  84.2260075 119.3630028  67.2572660  84.0759754
 118.1702328  67.6245832  84.9323368 121.7316055  79.4212580  38.2250381
 121.5124798  78.7565756  38.8780427 121.0001755  79.4010305  37.6079202
  64.6841288  47.9440832  82.5128651  64.7105169  47.6265383  83.4154701
  63.7513256  48.0331421  82.3174667 123.0879593  49.9762249  94.2515182
 122.6941490  49.5349216  93.4989262 122.6038361  49.6408796  95.0061131
  88.2601929  86.4524841  63.5991526  88.3953094  85.7771683  62.9343843
  87.5596142  87.0002937  63.2451296 117.0469093  67.6068258  57.1863794
 117.0934772  68.4985828  56.8416595 116.1933136  67.2830820  56.8986130
   6.6935378  42.0859957  24.6541834   6.1803656  42.4509287  25.3750944
   6.6716223  42.7630091  23.9778662  96.7882538  87.6883888  62.2168207
  95.9229469  88.0068398  61.9598007  97.0700359  87.1419811  61.4831543
  99.4168377 125.6224918  85.3599262  98.7131882 126.0299587  85.8649826
  99.8331833 125.0176716  85.9739971  81.0265827 101.5858746  62.3314095
  80.9650993 100.6306553  62.3292685  81.3173389 101.8091583  61.4471912
 117.8623295  47.0037460  86.3623428 118.1460190  47.4029970  85.5399418
 118.4340572  46.2435341  86.4692688  40.4214668  81.2229443  34.4019866
  39.9782944  81.5618610  35.1797843  40.4987574  81.9800186  33.8213849
   5.9957533  53.4806252  74.7487116   5.9607630  54.0211058  73.9594793
   6.6653090  52.8233004  74.5593643  85.3892326  85.0642967  82.6129341
  85.4482651  86.0125828  82.7291489  84.9021530  84.7590542  83.3783245
  96.4199638  64.5552969  68.8592625  97.2705173  64.9822474  68.9617729
  95.8015442  65.1476431  69.2869473  83.6449337  73.9834738  84.0874290
  82.7862835  73.5713005  83.9922714  84.2502403  73.3772993  83.6603546
 118.3688259  77.5855541  82.7103806 117.4538994  77.3535681  82.8695202
 118.3265114  78.3233738  82.1020508  73.0079842  28.8549399  88.5704136
  72.8426123  28.6010289  89.4783878  73.8776684  28.5042810  88.3782578
 107.4238777  31.1051178  48.0046368 106.6955280  31.6828108  47.7765894
 107.3377419  30.3632927  47.4058819  97.5287914  12.1167684  77.7161264
  96.9018745  11.8276703  77.0530796  98.3079243  12.3633087  77.2177267
  88.6850834  70.9998131  78.6297750  89.3640423  71.6604710  78.4927368
  89.1663837  70.2078342  78.8692617  95.0892448  87.0814991  55.4880524
  95.0532913  87.2862339  54.5536947  95.8061981  86.4523506  55.5679798
 108.5844517  76.7242670  74.2609262 108.2704258  77.5253010  74.6803999
 108.3990192  76.0326910  74.8962021  99.7444630  59.3328190  61.2731647
 100.1357079  58.4902430  61.0424328  98.8492298  59.1175747  61.5348005
  95.7915306  73.4796238  45.8386564  96.6185665  73.1076527  45.5322599
  95.1279068  73.0885172  45.2704382 100.9024048 100.5043793  32.6350665
 100.0325489 100.7116699  32.2935843 101.3980865 100.2159214  31.8686962
 108.2740307  20.7739615  77.5552130 108.2818794  21.6992569  77.3102760
 107.9973125  20.7711053  78.4715414  98.3840466 104.3867970  72.2030163
  98.4794903 103.7338829  71.5095949  98.9567280 105.1056480  71.9356012
 100.7437992  50.4862785  82.8099251 100.6118107  49.7094393  82.2664833
  99.9334145  50.5672503  83.3128738  98.2848454  55.8804941  62.6595354
  97.4382114  55.4564381  62.7996206  98.7916088  55.6683159  63.4433794
   0.2562457  73.1752682  48.9465761  -0.6294984  72.8738213  48.7445545
   0.7548075  73.0066919  48.1470442  23.8793784  62.2548199  58.1918240
  24.0261679  62.0347118  57.2719097  23.1389361  62.8612614  58.1777906
  87.2719574  65.8465004 102.7503204  87.8049755  66.5433788 103.1330395
  87.7566242  65.0430059 102.9393196 106.4139652  43.1053448  92.2689056
 106.8212032  42.7964449  91.4595985 105.5161190  42.7763224  92.2259712
  17.7534037  92.6580715  80.5087376  17.1107703  92.2646141  81.0990334
  17.9240923  91.9804859  79.8545361 111.0981464  55.5453968  83.8235092
 110.7189941  54.8686981  83.2626534 110.4044151  56.1988449  83.9128399
  95.6632519  81.3982201  59.1036940  94.8368740  81.2792683  58.6355257
  95.7092094  80.6523037  59.7017956 101.8050480 109.9761868  60.5223513
 101.5877819 109.9667358  61.4545202 101.7270565 109.0621758  60.2489614
   5.0422221  94.8710918  65.4404449   5.9373026  94.9003220  65.7783985
   4.7694808  95.7879257  65.4051065 108.3051395  70.7053900  86.1840820
 109.0573692  70.5724525  85.6072712 107.9591179  69.8254490  86.3330841
 110.5054569  72.8380823  18.3603930 110.9219170  73.4187794  18.9972484
 109.6957111  72.5568438  18.7863600  94.9354362  78.4852648  40.7747650
  94.0796661  78.2619238  40.4086971  95.4962730  77.7455568  40.5412579
  93.8162613 124.8981190  31.0460019  93.0011082 124.4067001  30.9447289
  93.5493183 125.8163357  31.0028625  98.3425236  71.3775158  57.9468155
  98.3854103  70.4515266  57.7082062  98.3462048  71.8410683  57.1093607
   8.2026892  48.3379936  54.3443680   8.1411677  48.3693504  53.3896637
   9.0815955  48.0003166  54.5167828  11.9175940  72.0423985  61.3337135
  12.0605975  72.2971582  62.2452402  11.0020381  72.2640944  61.1638737
  21.2149840  34.5617414  50.6393576  21.2061244  34.3346143  51.5691805
  20.2907973  34.5974541  50.3927135 111.6297626  50.1280117  59.1461658
 111.3243389  51.0221004  58.9926910 110.8309746  49.6007252  59.1578341
 114.2642212  67.4072742  44.3115854 114.9475193  66.8210888  43.9864254
 114.0869427  67.0988131  45.2002096  95.7244587  80.4726410  45.2477169
  95.7687283  81.4248848  45.1610470  96.1737633  80.1402664  44.4706154
 107.7103519  34.2101741  82.6118469 107.6110744  33.2586670  82.5800800
 106.8204594  34.5397902  82.7370453 109.3328762  81.4695358  31.0922647
 109.9988461  80.7913494  31.2053633 108.7195206  81.0994053  30.4574227
 114.5488644  50.0478935  19.7998333 114.8174763  49.2203045  20.1988053
 114.1174412  50.5262232  20.5078626  92.9000664  75.8819056  62.3545837
  91.9539833  75.8910227  62.2093582  93.0523109  75.1050329  62.8926563
   1.7172747  77.0949984  62.1016502   1.6125422  76.2670851  61.6327953
   2.6636820  77.2351170  62.1318007  68.6454153 102.9421997  79.7083521
  68.8294315 103.8545418  79.4847441  68.0092764 102.6583195  79.0518713
 123.8665009  36.3609910  66.8057919 123.8756371  35.6957245  66.1176300
 122.9733276  36.7049980  66.7945194  94.0594864  46.5642166  70.9116507
  94.3243313  45.9859228  71.6269541  93.3839035  46.0730124  70.4441643
  97.6192093  52.5155592  55.1164055  98.5519028  52.6856422  54.9845266
  97.2022629  52.8329134  54.3153572  91.6466808  53.7378311  89.7540951
  92.0118332  54.6079063  89.5932770  91.7765427  53.5930634  90.6913280
  83.9352894  31.8380904  34.1412163  84.0489578  31.9212413  35.0880003
  84.8254013  31.7526221  33.7997103 103.4259605  85.9223747  55.2648640
 102.9137611  85.8788681  56.0723209 102.7714348  85.9388161  54.5666170
 105.1237679  41.5304518  48.5226583 104.2754269  41.0930586  48.5950899
 105.7632065  40.8186293  48.5482883 102.3942566  60.3489161  75.1435709
 102.8378963  60.6077051  74.3358278 102.9493618  59.6616983  75.5121088
   9.1898375  62.3158693  50.2594185  10.1277285  62.1284485  50.2210665
   8.9227324  62.0241022  51.1310577  77.4669123  51.1458683  58.5402918
  78.3194637  50.7107306  58.5335016  77.6704884  52.0692730  58.6890221
 100.9523773  28.8495469  56.5501928 101.3494587  27.9785943  56.5506077
 101.6951561  29.4514441  56.5974188  92.3068714  42.8287888  88.3426666
  91.4064693  42.7065563  88.0417252  92.8102398  42.1682310  87.8667355
 106.2981033  60.6802368 103.5873127 106.8831635  60.7791948 102.8362179
 106.5673256  61.3706303 104.1932106  72.2081137  39.8669958  78.5384893
  72.1950483  40.5298042  77.8480244  71.4136028  40.0337315  79.0456200
  66.2277031  92.6294708 105.2914810  65.6986856  92.5203514 106.0817146
  65.8364248  93.3790874 104.8429298 119.7461319  22.1609402  43.5545635
 120.4287624  22.4480057  42.9480648 118.9282608  22.4455190  43.1467247
  99.1060257  57.1833515  76.5128851  98.4175682  57.3346138  77.1604729
  99.4603252  58.0540085  76.3321638  68.6036110  62.7456713  89.6284294
  68.4323072  61.8211460  89.8077011  68.9232731  62.7594900  88.7262821
 103.1151390 118.7442112  52.5902367 103.9123344 119.2740154  52.5942421
 103.4285927 117.8399754  52.5719881   0.7610064  60.2143335  90.7026768
   1.1579733  60.6778765  91.4400864   0.5268317  60.9055614  90.0833225
 101.9838619  74.0998077 101.2969398 101.8442059  74.9054718 100.7993031
 102.1352673  74.3958998 102.1945190 102.6609325 100.9380150  38.6941457
 102.1611214 101.7485332  38.5968161 103.4488010 101.0779190  38.1688619
 103.3713341  35.3654361  75.5391455 103.1631088  34.7006917  74.8826456
 102.5294590  35.7728577  75.7428408 113.9517784  64.4770813  79.5653820
 113.1250954  64.5780087  80.0372314 113.7917805  63.7592363  78.9527369
  94.4526100 108.2916451  56.4119816  94.3718910 107.7227974  55.6463909
  94.4001198 107.6960659  57.1594906 113.2705498  67.4868202  22.8106928
 113.7195110  67.8454447  22.0451474 112.3709679  67.3447704  22.5160623
  84.1843033  51.2802601  42.5915241  83.9180756  52.1189547  42.9682779
  84.4025517  51.4846563  41.6822243  89.0941238  60.5046034  84.4061565
  88.7156487  59.7086143  84.0328026  88.8043976  60.5024672  85.3184605
  63.3298254  90.6590176  70.0747061  63.6381865  89.7548199  70.0148630
  62.5904465  90.7005501  69.4682217 113.9850521  37.6980376  98.9233017
 113.6355591  38.3713913  98.3396244 114.1395855  36.9442487  98.3539581
  65.9509134 118.9463043  67.2920132  65.7430172 119.7686863  66.8485117
  65.9068680 119.1591167  68.2242155  95.2009392  37.2107387  72.8060818
  94.8175240  36.7751145  73.5673046  94.4676304  37.3266339  72.2018814
  14.7982531  62.2304010  60.6149817  14.5855837  62.5455809  59.7365379
  15.7390910  62.0566034  60.5858326   2.6429301  68.2314730  91.7814541
   2.7452498  68.7730026  92.5640774   1.7068987  68.0342436  91.7473602
 106.8179035  49.8453236  76.3061905 106.3537312  50.6480026  76.5438414
 106.1616230  49.1541147  76.3942480  98.1516361  49.2399883  63.2522297
  98.7129307  49.9409342  62.9207897  98.5798168  48.9510965  64.0581036
  84.2665005  92.7457333  73.9229584  84.8121643  92.5617504  74.6875763
  83.4873104  93.1706905  74.2814350  66.6639280  99.9572372  80.0576305
  67.5917864  99.8693752  80.2757835  66.2123394  99.8854923  80.8985519
 102.9861546  81.4623356  48.3044052 103.0545616  80.5628777  47.9842186
 102.0456314  81.6392899  48.3224058  80.2337933  88.4261799  67.7042150
  79.7119713  89.1003704  67.2690153  80.8102608  88.0895042  67.0182371
  52.3965645  98.1959820  70.1496029  53.0752754  98.6413670  69.6424341
  51.5995407  98.6962509  69.9743652  98.7635040  22.6405644  70.5434322
  99.1061592  23.1612992  71.2698364  99.5335484  22.2074652  70.1750612
  77.1653843 121.5994740  67.5871515  76.9083452 122.1963596  66.8843794
  76.5529013 121.7885971  68.2980156  84.7862053  65.6375074  53.2965803
  85.4488564  66.2308073  53.6503077  85.1990128  64.7742987  53.3229876
  95.2258682  47.6400948  68.7659836  94.7665501  47.4803782  69.5904589
  95.1774120  48.5883331  68.6446142  87.4631119  61.5645027  24.2507887
  87.0189285  61.0709763  24.9402595  86.7597675  61.8420839  23.6638546
 121.2265015  41.1220932  80.7354546 121.0173130  41.1459303  81.6692066
 121.6517258  40.2742290  80.6068325  99.2111397  81.2369251  59.9975538
  98.7241173  81.7096424  60.6725216  98.5501480  80.7068253  59.5522213
  92.5476360  37.7003884  39.3983293  91.8479538  37.3511195  39.9503112
  92.1439266  37.8036618  38.5365963 102.0509052  77.7533340  44.0139055
 101.7926502  76.8394232  43.8943434 103.0075073  77.7378321  43.9836359
  85.1329327 107.0561886  59.2575598  84.4744682 107.4681568  59.8169756
  85.6013680 106.4579296  59.8396921 109.4677925  51.2687111  36.6710949
 109.3372250  51.3819265  37.6125669 110.4185295  51.2481737  36.5619040
  70.8162642  40.1718903  30.1309609  71.0706615  40.9958220  29.7154474
  69.9259615  40.3275061  30.4462004  34.5148211  67.7651501  34.9300385
  34.5674735  68.7020969  34.7413993  33.5817080  67.5606394  34.8691130
  86.7515469  63.6220074  32.5334930  86.1072445  64.0916204  32.0038009
  86.4221954  63.6925650  33.4294748 118.8978577  59.8506308  41.0657835
 118.1828785  59.7727871  40.4341364 118.4974003  60.2629042  41.8312216
  89.6739864  53.9480019  42.8717852  89.0363884  54.3600035  43.4548378
  90.4723644  53.8851261  43.3960724  18.0443316  51.4964819  43.3656454
  18.0262118  51.1759424  42.4638891  18.6277800  50.8911991  43.8233089
 110.2228451  42.7838230  20.1600718 110.5157185  43.6158895  19.7884166
 110.8410358  42.6074839  20.8692837 115.5907917  59.3811321  45.8866405
 114.6604729  59.1708899  45.9675741 115.9719658  58.6178541  45.4526520
  98.8644409  58.9534569  36.1524892  99.0553188  59.7043228  36.7146277
  97.9163361  58.8396502  36.2186027  65.5284595  71.3004065  88.9361000
  64.6612549  71.6304493  88.7010288  65.3531933  70.5251932  89.4695473
 102.7727127  37.7149034  27.9375291 102.9367256  38.4318995  27.3249507
 103.0873775  36.9340324  27.4820542 119.5996952  80.0953007   5.4875255
 120.2856827  79.4509172   5.3131115 119.4730759  80.5427456   4.6508676
 120.2577877  69.1021013  55.4455614 119.7772312  68.3292007  55.1490355
 119.6249962  69.8173046  55.3800249  55.4769421  76.7274380  22.8980088
  55.9187841  77.2182322  22.2050977  55.4607487  75.8249855  22.5793362
 107.2220707  67.2296524  41.1051702 107.1061707  66.5328264  40.4592323
 107.8426647  66.8686247  41.7382240 119.3131638  72.0257902  43.4270334
 119.8103333  72.0662880  44.2439890 119.4427299  72.8847408  43.0249786
   2.2712355  42.9899502  51.0631704   1.6108161  42.4022245  50.6962061
   1.8318205  43.4132957  51.8006897 107.5322914  75.6299448  42.5590563
 107.6326847  76.4715767  43.0038118 106.9742775  75.8223152  41.8054962
 105.2250576  62.6092100  56.9909859 105.0012779  63.4887409  56.6867161
 106.0011578  62.3706341  56.4840460  20.3187686  45.4273367  33.8335371
  21.0351496  46.0524511  33.7228060  19.5467597  45.9723091  33.9859915
  92.8901482  78.6977673  46.4682102  93.0573082  77.9937124  45.8416367
  92.1753120  78.3687115  47.0131493  80.4815388  53.9397383  63.0582237
  80.8843803  54.7583485  62.7687025  79.5654106  54.0162039  62.7915716
   7.2423201  61.9015360  60.1721096   6.7495089  61.1386013  60.4742765
   7.1085482  61.9130850  59.2243719   5.3838854  64.2243433  58.2124281
   4.6870261  63.6778784  58.5757256   5.1270419  65.1192331  58.4347820
  22.3347693  55.4308653  21.0312510  22.9811984  55.9789371  21.4762020
  22.7748614  54.5890141  20.9135914  94.7874641  72.2701645  48.8580132
  95.1560402  71.8353605  48.0890369  95.0708294  71.7313194  49.5966482
  77.6724958  83.9999866  88.6248302  76.8077135  83.6504364  88.8397694
  78.2355261  83.7023354  89.3394184  99.7495365  71.8508482  61.6691256
  98.8097000  72.0219564  61.6086674 100.0970459  72.5939655  62.1623278
 121.2403870 101.6101074  40.3668165 121.8477058 102.3344803  40.2162170
 121.1495590 101.5676689  41.3187504 118.8416576  45.2627707  31.3761663
 118.2628345  45.9680176  31.0866356 118.4755039  44.4734287  30.9772944
  85.5197430  76.9286728  30.7146239  85.5188560  77.5405645  29.9785376
  86.0609150  76.1972284  30.4173970 110.4129887  55.7241869  56.1154795
 111.1633492  55.2199888  56.4300632 110.3545666  55.5108881  55.1841831
 106.2817669  65.0956249  22.5420094 106.6072178  65.7888508  23.1162500
 106.8120384  65.1729679  21.7488718 107.8013420 111.6825104  70.5975580
 107.2793388 112.4296761  70.3051615 108.6883450 112.0307636  70.6880093
 110.2406788  66.2478495  47.7492046 109.5094395  65.8127785  48.1876516
 109.8831844  67.0889950  47.4647617  99.2396164  79.8410368  64.9472666
  98.4012508  79.4106245  65.1149797  99.6755219  79.2760420  64.3092966
  82.8993607  66.7428064  29.9231267  82.7030563  67.6784897  29.9698806
  83.4140968  66.6458082  29.1219544  87.2438049  59.4999743  44.5667124
  87.4068069  59.4582272  45.5090094  87.6114941  58.6854792  44.2237234
 103.7156105  40.0468588  42.6492834 103.9861107  39.1287494  42.6377249
 103.3498859  40.1997900  41.7780256 119.4855690  84.9124527  17.3411942
 118.7670898  85.3546906  17.7933538 119.0636635  84.2007542  16.8598390
 111.6514111  35.5383062  55.2505064 111.3115215  34.6700835  55.4670620
 110.9035683  36.0007715  54.8722219 101.2650681  75.6392097  31.4770627
 101.6986179  75.1656532  30.7671261 100.4583454  75.9730482  31.0846543
 111.6495323 102.5424099  59.6672678 111.9655418 101.9251156  59.0074825
 110.7953930 102.1978855  59.9279928 119.3973255  61.2471533  45.6551361
 119.8143959  61.7453957  44.9522591 120.0610447  61.2023544  46.3433886
  84.7044945  87.3352432  47.2268629  84.7231102  86.4174938  47.4982023
  85.5412102  87.6906300  47.5265884   2.5161868  49.0013313  47.0608330
   2.8793841  48.6492062  46.2482309   1.5817957  48.7992430  47.0129013
  92.5415230  76.6376019  37.5266862  92.3425770  77.0225239  36.6731715
  93.4798717  76.7861700  37.6435804 121.7316151  37.6657391  63.9747715
 120.8544827  37.9187965  63.6869574 122.2709751  37.7331853  63.1868839
 114.3751812  96.2199593  81.4325142 114.4584179  95.5311584  80.7730770
 113.9130116  95.8015633  82.1588612  80.8446407  70.4535103  95.3012085
  80.3541279  70.9104681  94.6179676  80.2690887  69.7380018  95.5714226
  95.7673454  76.6422367  57.7233267  96.6334629  76.8208933  57.3570585
  95.5881977  77.3916864  58.2911825 110.0984097  42.6447058  46.7776918
 109.4593811  42.6170158  47.4898052 109.9952316  41.8047047  46.3304996
 102.6210403  52.4496698  96.3698196 103.4642696  52.9024172  96.3553524
 101.9787216  53.1442499  96.5155029  87.7419758  66.5926790  75.1435614
  87.6429081  67.4507189  75.5560923  87.5041866  66.7382765  74.2278719
  81.3840199  56.1928320  77.6145697  81.6277981  55.3698635  77.1908617
  82.1852875  56.7162657  77.5999832  82.3952961  86.9862461  78.3771133
  82.7133083  87.6651382  78.9722633  82.7512074  87.2307396  77.5228357
  99.8664284  31.7714262  31.5247655 100.3693295  32.3850060  30.9891868
 100.3598118  30.9525180  31.4779377 110.2556610  82.1491337  59.1453791
 109.5379925  81.5276718  59.0230179 110.9756851  81.7884254  58.6279869
  90.5501556  88.4737968  54.0219116  89.6722889  88.1683922  54.2506170
  91.1164093  88.1041431  54.6993685 101.0484695  53.8623095  51.2159348
 100.9715080  54.7499180  50.8659840 101.3781357  53.3433533  50.4822922
  87.5161171  84.1666126  48.7502193  87.5182629  83.9278030  49.6771479
  88.1199741  84.9070263  48.6922359  93.2938099  86.8747425  25.6695175
  93.7781811  87.6977348  25.6038737  93.3755875  86.6213799  26.5889478
  92.0017433  91.9392490  34.8951721  92.2460556  92.0231915  33.9734912
  92.0774555  91.0028648  35.0787091  96.8509579  70.5534458  60.4289436
  97.4523163  70.4967403  59.6863937  96.0025692  70.2926350  60.0705338
 108.5625553  97.5037479  22.6794052 108.5243225  98.1070042  21.9372106
 108.9145756  98.0296135  23.3975863  74.9960136  63.0113029  81.0151768
  74.6272182  63.4599209  80.2542782  75.6833887  63.5985851  81.3295746
   7.3230582  50.0275612  44.7993708   8.1437998  50.5147982  44.7271872
   7.1794730  49.9384737  45.7415342 110.5109882  47.8792000  64.5856619
 110.8524227  47.6956034  63.7104797 110.1737404  48.7731934  64.5285082
  96.2695980  97.8181648  52.2110319  95.7192230  98.5724831  52.4215746
  96.1717033  97.2331238  52.9622841  22.5404387  28.0905724  54.3181086
  23.0501204  27.3883986  53.9138746  23.1955653  28.7241197  54.6107817
  78.1230688  42.8682327  57.8325605  78.9598989  43.3324289  57.8108597
  78.0906105  42.3940134  57.0017195  82.0263958  83.1598282  42.0469856
  82.2233391  84.0865707  41.9106197  81.3295460  82.9681778  41.4193630
  95.0432587  67.7441120  34.9773288  94.3260860  67.1456194  35.1863670
  95.0550556  68.3668995  35.7041216 117.6587200  67.7872181  40.8378267
 118.1159115  68.6137819  40.9927320 118.3114338  67.2276878  40.4169798
  79.5638990  61.9656754  70.7898474  78.7842703  62.5206518  70.8101654
  80.1494217  62.3978758  70.1680756 121.2190247  65.5009317  68.9255190
 120.7984924  66.3141012  69.2050600 121.8403149  65.7725573  68.2499075
 117.3957634  86.5602970  13.5823727 117.5982666  87.2840881  14.1751134
 118.1412506  86.5258503  12.9829597 104.7788048  61.0741377  64.9559116
 104.9371815  61.7227173  64.2699909 104.5422459  61.5921116  65.7253075
 114.3976784 101.6207027  56.7618465 115.2594662 102.0233440  56.6549158
 114.5847034 100.7009602  56.9498014 110.1768398  41.6790199  31.0321522
 110.2740002  42.6260185  31.1320662 110.9258366  41.4165354  30.4970503
  94.7443581  36.5200663  36.5894055  95.0190163  37.1003222  37.2994041
  94.0939617  37.0272374  36.1036134 113.9830112  72.6483440  59.6781969
 113.7175179  71.9364405  60.2603817 114.0947056  73.4022856  60.2572727
  91.6538143  53.7974739  36.4782929  91.9839668  53.8742304  35.5831194
  90.7181358  53.6243820  36.3744664  99.7837448  93.7639618  39.8191214
 100.6242466  94.2185020  39.7627854  99.4695377  93.7286186  38.9156556
 120.4891586  88.7853146  31.9726110 119.7241592  88.2269478  31.8339467
 120.6471443  89.1911411  31.1202121  93.4813499  61.5267563  67.3915052
  93.8740540  62.0636511  68.0798101  93.7201595  60.6290436  67.6224232
  78.3973122  38.8895845  54.0563107  79.2088270  39.1012120  54.5177174
  77.8882170  38.3814692  54.6878719  34.4645071  72.0002413  20.7944560
  33.8550210  72.6781940  21.0862494  35.1274729  72.4741888  20.2923751
  97.3208523  70.7653809  31.4876127  97.9258633  71.4723730  31.2632036
  97.7519512  70.2996445  32.2041893 118.7837505  45.9943342  53.7349176
 118.9574242  46.1932278  54.6549749 119.6466923  46.0036612  53.3208227
  95.2666283   8.0172455  44.7538567  95.4180813   8.8682038  44.3425608
  96.1267948   7.5973457  44.7592497  70.8499432  79.1354513  34.7886801
  71.7099047  78.8221550  34.5084190  70.8504677  80.0667000  34.5672965
  13.0538683  51.8559933  88.2384777  13.3526068  50.9706593  88.0307007
  12.8838759  52.2575665  87.3863792  92.7339172  45.2118254  50.8936787
  92.7248192  44.3139124  51.2251854  93.3036041  45.1776695  50.1252174
  94.2266369  65.1056099  34.3589258  93.5595989  65.3321218  33.7108612
  95.0047207  64.9010134  33.8403153 107.9427242  37.4121070  45.3039360
 108.5201740  36.6976476  45.5728579 108.3550835  37.7704263  44.5179319
  75.1370907  75.6557035  10.9278643  74.7143745  74.8734665  11.2823403
  74.4286156  76.1390066  10.5027604  79.3748808  96.6132259  69.5698309
  80.2523518  96.6816616  69.1935349  78.9805412  97.4716854  69.4156599
 114.9207497 107.0231915  89.2138863 114.1381454 106.6965485  88.7699699
 114.6741295 107.0600128  90.1380348  86.7316723  83.4935474  77.0377731
  86.4777851  84.2356873  76.4891338  85.9028721  83.1393909  77.3601151
 115.7669926  90.8495998  35.8116555 114.9248123  90.7892227  35.3607464
 116.3584614  91.2330055  35.1640487 106.1045933  91.9331455  54.0092754
 105.5297756  91.9431400  53.2439566 106.3975430  92.8398228  54.1006422
  19.2756491  46.8183851  56.4617443  19.7414141  46.7690086  57.2965240
  18.4566813  47.2677088  56.6706228 116.3677025  37.7670836  51.4805603
 116.6504574  36.9034886  51.1797428 115.8911324  38.1356215  50.7367229
  97.9140282  67.5414658  49.3680096  98.5181904  66.8173075  49.2042732
  98.3247375  68.2961178  48.9460421  25.7297640  69.3493271  83.6039829
  24.9491721  69.8644447  83.8078499  25.6074935  69.0791702  82.6938820
  92.4115086  84.6852303  32.3745227  93.0260277  84.5232677  33.0903220
  91.6161728  84.2186928  32.6314688  84.4141769  93.9186764  42.5084972
  83.9726353  94.6857548  42.8729963  85.1290607  94.2802334  41.9846249
 100.7353115  64.4760799  80.7111645 101.1098480  64.3907499  81.5879059
 100.2730370  65.3140688  80.7287121  88.8902187  64.3435431  52.0349360
  89.2048836  64.4704533  52.9299831  88.0517197  63.8933706  52.1374083
 104.6888542  56.2811422  55.9495497 105.2722263  56.3857746  56.7011881
 105.2740479  56.0870266  55.2173615  81.7756653  38.7755179  42.6955605
  81.6063595  38.5897684  41.7719460  81.9514370  37.9184794  43.0839205
   5.5506449  55.0128174  72.4131966   5.8521300  55.8832645  72.1530724
   4.6554881  54.9594355  72.0784283   7.8873377  36.1025381  40.6965876
   8.3125907  35.9106445  41.5323925   8.3070021  35.5101371  40.0727510
 103.8426685  67.1585846  37.2826791 104.5127869  66.7669296  37.8428388
 103.8543701  68.0884361  37.5095415 103.3982754  55.0314617  81.4457130
 104.1607857  54.6731138  80.9913921 102.6598835  54.8278952  80.8716297
   5.9980422 104.8161411  47.4380064   6.5487605 104.0400982  47.3344612
   6.5319758 105.4218769  47.9520416 111.4183998 114.3688679  82.9839611
 111.8286610 115.2330208  83.0179405 111.6532516 113.9593315  83.8166428
 102.7932739  17.3183525  91.9132805 102.6051617  17.7624869  92.7400780
 102.5704670  17.9612005  91.2399769 124.8804474  46.4293861  47.3801088
 124.2460632  45.7587910  47.6332808 124.3710423  47.0618963  46.8734932
   9.6771651  77.3959923  20.6828952   9.4598036  78.2523346  20.3145647
   9.2921382  77.4074459  21.5591693 112.5654888  80.5308819  39.9514103
 112.2157860  81.4036846  39.7720766 113.2043934  80.3810215  39.2545772
  12.3108798  57.8564405  26.4867926  12.1627265  57.2068930  27.1740842
  11.5292864  58.4086657  26.5066338 101.9225407  73.0109549  55.1159763
 102.0174980  72.4584436  55.8918285 101.6189957  72.4137115  54.4323158
  88.3689404  63.7943792  41.6652536  87.9388618  63.5111046  42.4721098
  89.3042946  63.7080669  41.8493795 112.9726601  88.7404156  34.8705220
 112.6090813  89.2543888  34.1494942 112.9514885  87.8369236  34.5551229
   0.8920508  58.8230562  16.5279436   1.7189627  59.0496588  16.1023784
   0.3632575  58.4333897  15.8316886  88.0048561  69.1796589  18.0566323
  88.4741306  68.3570290  18.1955099  88.0996895  69.6520758  18.8837111
   5.6866389  54.4677782  61.3754511   4.8614054  53.9854383  61.3248444
   5.4726058  55.2571058  61.8728352 102.6499271  65.4947901  75.6847954
 101.7047787  65.6298637  75.6162977 102.7567768  64.5435762  75.6816006
 102.2040081  45.4355001  43.3890676 101.4802933  45.6510687  42.8008509
 102.3919106  44.5141649  43.2099819  80.3783989  55.8692026  65.9018469
  79.8992205  56.0456276  66.7114687  79.8189068  56.2229776  65.2104425
  79.2347431  81.2406731  73.4061766  79.8809195  81.3313580  74.1065073
  78.4173059  81.5551853  73.7923241 122.4406528 104.2563725  42.6707840
 122.7062035 105.1728725  42.5949192 122.4821472 104.0718746  43.6091185
 100.2303410  65.1052141  57.8953743  99.3040943  64.9228382  57.7371836
 100.5127239  64.4113350  58.4912157  18.3091097 103.8692379  34.5887470
  17.6262599 103.5810375  33.9830351  19.0431529 104.1117859  34.0243173
 107.8160667  76.0052538  27.2288942 107.9983234  75.9859800  26.2894034
 106.9412041  76.3879204  27.2953463 104.4850445  97.3342705  72.3865604
 104.1818237  97.4582577  71.4871645 104.4782734  96.3854790  72.5129652
   1.7205649  44.7500706  64.6411371   1.6745501  44.1208601  63.9212656
   1.5632563  44.2267895  65.4270506 115.9364986 144.6025033  59.7688198
 115.4054070 145.2648430  59.3266964 116.4046860 144.1594260  59.0612078
 115.2062225  72.3829317   8.5820627 115.6704426  72.2929478   7.7498126
 115.2730465  73.3139467   8.7941450  96.5775871  67.5606632  29.8290539
  96.3779449  67.7395296  30.7479548  96.9105911  66.6632605  29.8265934
  35.5715304  88.1833649  35.8888721  36.4764338  88.0400753  35.6116581
  35.2673464  87.3201370  36.1691236  93.2102680  70.7356548  28.8401651
  93.9262104  71.2405205  28.4544706  92.4195385  71.2172461  28.5971665
 100.9353542  75.5384588  54.4704485 101.1981201  74.6606255  54.7471952
 101.1674118  76.1018276  55.2086878 103.6562252  77.1093130  27.9553986
 104.3089008  76.5936756  28.4290743 103.7988758  76.8889046  27.0349073
  74.9514961  70.7779598  36.4652181  75.9013700  70.7238245  36.3601565
  74.6087646  70.7314873  35.5726886  84.9424362  63.9713287  26.5743732
  84.6347713  63.0807257  26.4058661  85.1872635  64.3073082  25.7121611
  77.3467731  48.9397526  72.6302767  78.1207800  49.4971561  72.5499821
  77.6074314  48.2552719  73.2465363 113.0287170  63.7909985 105.6944466
 112.6562691  63.2109308 106.3585472 112.2988033  63.9796686 105.1046467
 119.6507740  91.9953632  58.5440397 120.0918484  92.3948479  57.7943087
 119.2994118  91.1722469  58.2045317  -0.1784486  41.3566589   4.5551923
   0.1252776  42.1926594   4.9088562   0.2724772  41.2740707   3.7149075
 113.3465767  49.0509033  51.0629845 113.9080620  48.8447046  51.8102741
 112.9438305  48.2149172  50.8281279 102.8015614  89.2076683  45.6566477
 102.1486378  89.6029568  46.2342882 103.0532837  88.3970070  46.0990334
 100.9548092  49.8197269  67.2877359 100.1722145  49.4026470  66.9274330
 101.5755653  49.8339605  66.5592480 114.8412895  94.0141773  68.3605862
 114.2291641  94.6487904  68.7331390 114.3082714  93.2368755  68.1934881
 101.7574120  52.4604368  37.3247194 101.9362450  51.7564154  37.9480982
 101.4041328  53.1706810  37.8604221  26.3869315  73.6953640  37.7495766
  26.2658244  72.7471256  37.7005243  26.6047507  73.8618755  38.6666679
  92.6042652  52.0393133  59.6203232  91.9882679  52.7136564  59.9067354
  92.2303677  51.2200260  59.9446726 109.8197651  90.5626106  87.9816628
 109.0054226  90.1153374  88.2119370 109.5418835  91.4308357  87.6897717
 105.3239536  40.9891748  53.1402111 105.0564766  40.0781298  53.0189943
 106.0989475  41.0868931  52.5869894  84.0754509  47.3464155  85.6053162
  84.2626572  48.2743406  85.4633999  83.2079315  47.3362112  86.0097122
  64.6184063  34.0297771  29.2962670  64.3877554  34.7347713  28.6912751
  65.5647373  34.1141534  29.4127536 101.7772961  73.6174679  18.0212069
 101.3862228  74.4795084  18.1632435 101.2473202  73.0235004  18.5527670
  95.4932022  59.2846775  48.3068848  95.6177807  59.1411638  49.2450285
  94.8866558  60.0234222  48.2560587  89.1126537   8.6350310  48.0032921
  89.1474915   9.0892845  48.8451195  90.0256252   8.5852200  47.7200508
 107.0250225  51.2873220  33.4842968 107.4750423  51.5868139  32.6943445
 107.7295017  51.0977983  34.1039872  97.9446507  80.4086876  37.9714274
  98.6175156  81.0726738  37.8210855  97.6515579  80.1618099  37.0942831
  15.5633574  54.6858549  44.9578667  14.8849707  54.7456264  45.6305075
  15.6615573  55.5821037  44.6364260  13.6559325  84.4332218  50.2777243
  14.1945582  85.0301266  50.7971716  12.7556544  84.6528244  50.5175257
  95.0634670 106.7591286  59.0004921  95.1721668 105.9667587  58.4745979
  95.9276104 107.1707821  58.9948273 111.3680363  52.4244308  70.2202940
 110.9662914  52.1507835  71.0448837 111.1014652  53.3377695  70.1154852
 107.9980087  48.3379745  40.8805370 108.6869717  48.1718779  40.2371311
 107.2644138  48.6728764  40.3648663  94.6094799 128.9626122  30.1332092
  93.8911533 128.4911442  30.5550575  94.3427658 129.0352821  29.2167950
  96.4110565  84.4052601  37.5991726  96.7604351  85.0615120  36.9962716
  95.4787064  84.6119785  37.6641607 112.9061699  92.7968311  47.4975491
 112.8607368  91.8541813  47.6574850 112.0184898  93.1117535  47.6680946
  94.2262650  77.1898222   0.3145704  93.9620972  76.3900137  -0.1401385
  93.5548210  77.8308821   0.0812531   1.4271670  46.2902689 100.4045963
   1.3875228  45.8832216  99.5391560   1.1782771  47.2018814 100.2521324
 120.7001114  59.8694706  54.8005962 120.7618523  58.9756107  54.4637966
 120.6684589  59.7654438  55.7515955  98.8877010  96.2526798  41.1440659
  99.5112705  96.8314266  41.5827513  99.2901325  95.3855801  41.1933613
  77.6694393  48.3313274  60.0073242  78.2664013  48.7289381  59.3734646
  77.2839022  49.0741491  60.4718733 114.3010044 120.2626991  51.6257620
 113.8076115 119.5068836  51.3071203 113.6681271 120.7612896  52.1425772
  96.0262203  86.0795879  87.3060608  95.9803772  86.4711285  86.4338112
  96.9335175  85.7861996  87.3895168  91.5477848  56.6468620  48.7836695
  91.5682983  57.2069407  49.5596361  92.4571609  56.6159439  48.4864902
 100.0746632  65.9296083  23.5316062  99.9092388  65.9494448  24.4741917
 100.3452969  65.0286388  23.3548379  93.1552505  62.1559429  62.1605635
  92.6977730  61.3640928  62.4432611  92.8432751  62.8380203  62.7552652
  92.7088737 110.9407520  51.8104649  91.9434452 110.3849697  51.9569635
  92.5116253 111.7494678  52.2830200  91.8969822 102.6644611  39.6408796
  91.6446972 102.1962738  38.8450241  91.3810730 102.2532463  40.3344011
 116.6194630  51.5283585   4.8201219 116.6910076  50.7883358   5.4230157
 116.2201691  51.1581945   4.0328733  75.3834677  88.8079548  74.3521357
  74.8053980  88.0459118  74.3151474  75.3195047  89.1996002  73.4810686
  76.1078024  67.0765162  89.1586304  75.7542276  67.3034334  88.2985592
  77.0385933  66.9185162  89.0008545  86.0299015  87.9517746  33.1573129
  86.0670567  88.8124466  33.5745597  86.9416428  87.6622200  33.1239319
  90.0328445  60.0123262  23.4421515  90.6518936  60.6765366  23.7451959
  89.1774368  60.3350639  23.7256336 104.1106224  64.8429012  80.8828831
 103.5023785  65.1080370  80.1929760 104.5728779  65.6477356  81.1169529
  73.7233019  53.4757471  66.1303711  72.9677057  53.1094837  65.6708527
  73.4594822  53.4917212  67.0503569   9.3648749  48.4916973  32.6633549
   9.3837100  48.4372711  33.6188197   9.3240862  49.4298220  32.4776483
 122.8514290  70.1032829  25.3132629 123.7235641  69.7177601  25.2297139
 122.9197693  70.6891680  26.0671234 110.1529980  69.2479467  64.7152662
 109.5252895  69.9686956  64.7674656 110.9824657  69.6686506  64.4889402
  85.2202129  53.1552553  60.6051064  85.7088089  52.3809910  60.8844328
  85.1048279  53.0383396  59.6621084  83.1522369  42.7303219  38.8416314
  83.3654881  43.2278919  39.6310496  82.9321861  43.3966827  38.1906533
   3.1101161  40.5671024  81.2245750   2.8814250  40.1072788  80.4168034
   2.4387389  41.2435579  81.3134003  71.8762541  45.7523203  46.5358257
  72.4119759  46.5356207  46.6610432  72.2848988  45.2979231  45.7991028
   5.9983759  67.3406649  43.0809927   6.2589675  66.4313173  43.2273340
   5.7787638  67.6700974  43.9524746 121.8317890 103.1569290  49.1003466
 121.3467598 102.8035450  48.3546209 122.7139664 102.7981663  49.0040159
 109.7245312  48.1963444  51.5355968 110.5266380  47.8226519  51.1706257
 109.0968132  47.4737978  51.5240145 124.2368507  67.3027468  38.2773829
 124.3111992  66.4831161  37.7885962 124.7310925  67.9369879  37.7580619
 105.7134056 107.8030777  27.6262403 106.5044212 108.0632019  28.0983305
 105.4688358 106.9625759  28.0135107 116.5006447  94.1201210  55.5460167
 116.0798645  94.1404629  54.6865034 115.8431530  93.7352753  56.1255217
 104.8143768  65.6499338  35.0938940 105.5273819  66.2022543  35.4144931
 104.1156769  65.7627344  35.7383537  93.2301331  63.9113951 100.4694041
  92.6489925  63.1622648 100.3378483  93.7628841  63.6710262 101.2274488
  85.7690811  74.2079210  29.4568777  86.1248875  73.5513163  30.0556326
  86.4827347  74.3849230  28.8440084 103.2732582  61.6729450  58.8830805
 103.6074543  62.3945427  59.4158506 103.7425804  61.7511129  58.0525017
 101.8767643  72.9279137  48.6797237 101.3319492  73.2828617  49.3821669
 102.3284626  73.6905336  48.3183336  77.9316998  85.3015995  21.7714047
  78.2305384  85.0027084  22.6302361  77.7182913  86.2257576  21.9003439
 123.7698555  55.9945107  36.1630821 123.9566326  56.4428234  36.9879246
 123.8233566  55.0635242  36.3790274  97.3647881  53.7594175  27.6382852
  98.2195187  53.3515406  27.4993491  97.4790859  54.6621752  27.3413134
  76.9458485  79.0221834  34.5011067  76.9122934  79.1967916  35.4416466
  76.1332512  79.3949938  34.1591549  90.4504108  68.2961941   8.3142734
  90.0961590  67.5209808   8.7499177  89.6897411  68.7106943   7.9070657
  99.2911720  98.0705357  29.6029854  98.4286594  98.3593941  29.9011040
  99.7774792  97.8971004  30.4089952  96.3101673  51.6517448  19.9874330
  96.9309902  51.7493105  20.7094407  96.6891861  52.1658802  19.2745233
  98.4863091  75.9735250  57.5249720  99.3954849  76.1070776  57.2570229
  98.5481930  75.5962753  58.4025145  91.3159847  52.0414495  46.6143084
  91.9232559  51.5545368  47.1714115  91.0039997  51.3966942  45.9793425
  75.9282970  84.9091434  40.2576160  75.9550285  84.1558743  40.8476162
  76.8364477  85.0277996  39.9793792 110.3006077  54.1263056  53.7975979
 109.4289207  54.3613195  53.4795427 110.8619690  54.1868830  53.0246544
  55.9827375 101.4223194  22.3176575  56.1910772 100.5935669  21.8863869
  55.0440693 101.5392303  22.1711469 108.3966732  86.8269920  64.3242693
 108.2634735  85.9738064  63.9112711 107.7464199  87.3963451  63.9129019
  91.5645504  51.9310951  39.3032455  91.5415668  52.7415562  39.8120284
  91.2282562  52.1792698  38.4421158  99.7614956  88.8223934  62.9327869
  99.4016552  88.0062485  62.5854254  99.0065575  89.2772484  63.3061409
 121.3761711  69.1264439  21.5076709 122.1271706  68.9151907  20.9530497
 121.1891651  68.3136606  21.9774008 105.1008701  54.6189308  25.1447463
 105.7884884  55.2051115  25.4606628 104.6079063  55.1453066  24.5153475
 117.8814507  77.8011560   4.7443372 118.1648445  76.9821978   5.1508272
 118.5005569  77.9395437   4.0275449  96.0196686  51.8325520  34.1501737
  96.9648933  51.9816446  34.1739464  95.7043171  52.1598196  34.9925971
  98.1487751  82.2003555  18.6846900  98.8324261  81.9423676  19.3029928
  97.4405098  81.5744591  18.8358688  94.3152618  70.5558825  24.2974806
  94.2564869  69.6135616  24.1399455  94.9849796  70.6440258  24.9756646
 115.7905960  32.7059603  57.8897810 115.4826069  32.1750283  58.6242723
 114.9938869  32.9440403  57.4156523 114.2954445  18.8079023  48.1814098
 113.5644627  19.2905390  48.5673475 115.0762749  19.2184496  48.5528898
 110.5452251  47.7942991   5.0104696 111.1538792  47.2399807   5.4988390
 109.7582912  47.8232384   5.5546403 106.5687561  30.2308846  28.0499339
 105.7870197  29.8488116  27.6510048 106.6182613  29.8256588  28.9157104
 102.5496769  69.9590921   8.9669251 101.8342209  70.5016613   9.2985517
 102.2751045  69.0610838   9.1524637 111.6956711  28.2877803  47.8054047
 111.5073490  29.1984391  47.5785494 111.6735840  28.2698059  48.7621832
 104.3957996  67.6623869  16.4117575 105.3234291  67.8004217  16.6032600
 103.9431381  68.3318758  16.9247079 112.1761131  57.0163107  54.2033243
 112.9219723  56.4194345  54.2638874 111.8384933  56.8885708  53.3168030
 110.6435776  38.4537911  38.9746571 111.2399292  38.9300156  39.5524240
 111.0662079  37.6054215  38.8409066 106.2253666  45.9347630  54.7150421
 106.1776733  46.5647888  53.9960003 105.4078388  46.0591745  55.1971197
 118.1543732  82.9142857  57.5223017 119.0074635  83.0216980  57.1016693
 117.5208855  83.0581570  56.8192911  89.0365028  91.1775208  12.1659744
  89.5185184  91.9841385  12.3483586  88.3980179  91.1142254  12.8762960
  92.4255753  46.8912697  59.6989870  92.6294899  46.9283247  58.7644911
  93.1954193  46.4840651  60.0961590   8.9331275  46.5073967  49.6662378
   9.0454131  47.4502134  49.5449066   9.7567683  46.1268854  49.3611908
  99.7129059  99.7350121  45.2599096 100.2151394  99.3354321  45.9700680
 100.2700901 100.4459000  44.9430132 107.3294258  57.5922251  38.2190371
 106.7248249  56.9589853  38.6059523 107.0170498  57.7039099  37.3211646
 117.7138329  87.1250057   7.1793044 116.9042015  86.6562176   6.9768649
 117.4398804  87.8381062   7.7560878 115.7563114  68.6194801  38.6289811
 116.1079693  67.8938293  39.1447353 114.9786472  68.9010334  39.1108394
  87.0643425  65.4107237  45.6745577  87.3971272  64.5148230  45.6211233
  87.6584911  65.8510733  46.2822676  73.8834715  60.6995535  29.5996404
  73.4705305  60.9627008  28.7771678  74.8226690  60.7359600  29.4184899
  59.4146061  75.0248384  22.3457336  59.4254971  74.2445707  21.7913938
  58.7087393  74.8639393  22.9719114  93.7196541  67.9259300  57.1513700
  93.5272503  68.8043690  57.4793386  94.0702629  67.4586439  57.9096222
  89.9601078  65.5812931  76.0336924  90.4297352  66.4118624  76.1100674
  89.1582298  65.8022261  75.5599594  95.8374977  84.4074726  42.1934462
  96.6405678  84.4075012  41.6725636  95.1401997  84.2435837  41.5585089
 110.9055710  62.7207279  18.6068654 111.2123108  63.2318592  19.3557906
 110.5800819  61.9061661  18.9899814 112.9240704 105.0917912  47.5750113
 112.2472382 104.7708607  48.1709433 113.1828976 105.9379864  47.9399633
 119.2546558  90.8128834  34.1048861 118.8995647  91.6642380  34.3605137
 120.1808167  90.9818172  33.9319301 119.8092556  96.2066841   1.4512593
 119.1881180  95.9450722   2.1309423 119.9062157  95.4281425   0.9028932
  81.4879894  78.5141611  42.2776270  80.8061314  78.4374189  42.9450178
  82.2288322  78.0243969  42.6347017 113.5488701  31.0622334  30.0309348
 114.3943024  30.6347418  29.8940825 113.6191273  31.4595962  30.8989191
  66.4553070  90.2205658  37.5795245  66.7440176  89.5417213  38.1894803
  66.6451406  89.8605728  36.7131543  89.4165230  42.4963522  31.9652438
  89.3306541  41.9462729  32.7438784  89.6074963  43.3692312  32.3085260
  85.5273438  76.7044878   6.8849874  85.6054401  75.8358812   7.2795200
  84.6494675  76.9994259   7.1270031  99.9835300  85.6042480  95.2780791
  99.8681641  84.6756649  95.0764295 100.6713963  85.6211758  95.9434935
 106.7076302  82.8251457  86.0033512 106.8251324  82.0147228  86.4989662
 105.7606888  82.8976536  85.8838367   0.7850390  75.3527021  50.3429890
   0.2804499  75.0465155  51.0965633   0.6940585  74.6547747  49.6942616
  77.6952410  74.5747471  74.5168257  77.4449635  73.7157345  74.1766930
  76.8802404  75.0767136  74.5228338 117.7732277  57.3677015  70.0095844
 117.4022484  56.7185593  69.4119072 117.2166443  58.1388474  69.9010992
  86.8955803  54.1888189  43.8629627  86.0858345  54.5069170  44.2621613
  86.9015789  53.2498932  44.0490150 118.3983707  77.3788738  37.8793430
 117.7276230  77.9601860  38.2376742 118.8025475  77.8851938  37.1747065
  87.7157116  56.7407131  32.7774382  87.4054432  56.2974262  33.5670376
  88.4998703  57.2115850  33.0595684  70.5214739  73.2485151  22.5036311
  71.2619448  73.8182163  22.2953582  69.9936533  73.7571716  23.1191874
 102.6532459  57.9908657  34.3575072 103.3153725  58.6156082  34.6533298
 102.6830482  57.2859907  35.0044179 121.0917664  90.4673958  89.6867975
 121.7371941  89.7615910  89.6482404 120.8529186  90.5232620  90.6120344
   6.6968756  39.8468256  59.7728920   6.2033778  40.4067612  60.3721905
   7.0145445  40.4431009  59.0948248  93.8154030  52.0548916  18.6793113
  94.6056461  51.6632652  19.0512896  93.7422562  51.6651964  17.8080940
 102.2971344  51.6436386  15.5195630 102.3841858  52.4033785  14.9438524
 102.3690128  52.0035410  16.4036071 101.5294743  40.5161333  22.1669722
 100.7390499  40.3853846  22.6907706 101.7755222  41.4270496  22.3279572
  85.0171089  35.0681710  15.8600152  84.7851276  35.5409312  16.6593349
  84.6974277  34.1779733  16.0069239  87.8048134  67.3442125  20.4790926
  87.6511192  67.9016924  21.2418675  87.4983501  66.4786243  20.7494020
 108.0361748  54.9517870  45.1369572 107.1716785  55.2720976  44.8795223
 108.1925678  54.1994333  44.5662260  78.7342548  19.6595192   6.9799554
  78.8911057  18.9535737   6.3528425  78.6796618  19.2188597   7.8279358
 101.6054916  53.8584280  56.3499451 101.0618305  53.5523224  55.6240177
 102.4870491  53.5545826  56.1336756 100.5203915  88.9342213  27.7031589
 100.0553608  88.7647820  26.8838501  99.8445797  89.2552662  28.3001757
 101.9731617  26.1878204  50.7185698 101.3451767  25.8316398  51.3470650
 102.6872826  25.5505633  50.7061911  12.8618556  90.0126934  17.7626169
  13.2402735  90.8412075  18.0568802  13.2706385  89.8512840  16.9122791
  94.7103405  65.1548386  77.5729942  95.1229191  65.8757925  78.0486441
  94.4513226  65.5379820  76.7349339  15.0526362  93.8810349 104.0583649
  15.8224135  93.3755207 104.3193700  14.5102625  93.2585812 103.5740044
  90.9530544  88.7563801  26.7636299  90.6129265  88.0344868  27.2922325
  91.5267563  88.3350372  26.1236572  94.1096973  53.0975723  10.9562886
  95.0447083  52.8952503  10.9886026  93.9641762  53.6776018  11.7036986
  66.5654325  86.8842220  33.8061690  66.3396883  87.6301956  33.2504749
  67.0476484  87.2682953  34.5384192  88.4615612  40.3717232  53.0528688
  88.5053730  40.7156849  52.1606779  87.5523281  40.0912189  53.1570387
  73.1115484  79.8295307  30.9673977  72.2640324  80.2597618  30.8540416
  72.8953218  78.9581966  31.2994385 105.7994461  75.0435781   5.3032291
 106.3341808  74.2499733   5.2812618 106.4044952  75.7325363   5.5779785
 112.6501560  75.9781694  49.1185999 113.5512352  75.8360338  48.8286066
 112.5874805  76.9241238  49.2507744 115.1207638 115.7761192  36.5879607
 115.0497627 116.4005375  37.3099661 115.4493332 114.9748516  36.9956994
  78.7323332  92.1533775  10.8148015  79.1359568  91.8801308  11.6386068
  78.1035328  92.8289509  11.0686684  90.3797150  67.3178530  30.6898308
  90.2711582  67.1542740  29.7529793  89.6762943  66.8174887  31.1034226
  78.9811659  65.4538298  70.5059338  78.8661671  65.3981352  71.4545679
  79.8797321  65.1600504  70.3559399 104.2983818  56.1885881  41.4160633
 105.1671505  55.8583403  41.1871099 104.0355110  56.7147827  40.6609154
 109.1670227  69.1354179  49.9974918 109.4375992  69.9816513  49.6412611
 108.5347271  68.7992811  49.3623161  71.7821598  27.7344847  50.5260181
  71.6477442  26.8890047  50.9541893  70.9026241  28.1025267  50.4412127
  90.6404591  69.5732212  33.9759660  90.9978294  69.5967770  33.0882931
  90.8812714  70.4191589  34.3536377  98.9435959  35.0164390  26.2664056
  98.4110069  34.7777128  27.0250821  99.4792938  35.7489777  26.5707827
  71.6718054  43.4572124  56.8138313  71.2339592  43.9555836  57.5038671
  71.7232466  42.5655842  57.1581984 119.5666599  69.9098349  41.3948536
 119.5681286  70.2353621  42.2950029 119.4124126  70.6878757  40.8590460
 112.4104977  70.5661678  52.6544857 112.3192024  69.9653053  51.9149876
 111.5112019  70.7513046  52.9251003 124.1792679  81.9382286  35.6569648
 124.4198895  82.3793697  34.8422694 124.5555401  82.4858284  36.3460159
  85.4460907  48.7181139  47.4023247  85.0733185  48.1930447  48.1105375
  86.2249088  49.1204166  47.7868128  92.2182846  54.6193647  55.3601313
  92.8624344  53.9302158  55.1977110  92.6605988  55.2253819  55.9545469
  97.3411846  79.7054148 100.7562270  96.4696693  79.3937159 101.0001978
  97.6814079  79.0302086 100.1692232  62.0292377  41.8912935  22.7702975
  62.4083281  42.7559662  22.9279637  61.7818069  41.9032240  21.8457055
 101.2053299 108.0035591  90.3028202 100.9408379 107.1943760  89.8652077
 101.9488811 108.3209801  89.7903633  89.1570282  93.1454659   6.9417655
  89.8706913  93.4805298   6.3989425  88.5215473  93.8607216   6.9701374
 117.9507732  77.0676041  19.4491935 118.6705780  76.5014267  19.7277033
 117.6794720  76.7114353  18.6031604  96.0019112  92.4804688  14.7910011
  95.9468937  93.0294514  15.5731952  95.1738834  92.0004654  14.7765613
 121.5857506  49.1851139  29.3366504 122.2402573  48.4867573  29.3489695
 121.2726593  49.2040205  28.4322977   2.6568442  55.2611542  97.3230168
   1.8296843  54.9976110  96.9197985   2.6105528  54.9136257  98.2136985
 111.9480038  63.9765310  23.1315899 112.8188229  64.3220329  23.3279085
 111.5668201  63.7866449  23.9888334 122.1478176  24.6573353  17.2772026
 122.5482368  24.3301153  18.0826974 121.2058544  24.5922661  17.4344051
 112.2321224  17.4221122  26.8696856 112.2390938  16.4843273  26.6780019
 112.8401566  17.8008699  26.2348032  79.2822313  46.0796118  69.8723936
  79.9741220  45.8992624  69.2359972  79.0082836  46.9764996  69.6806335
  18.5894232  97.8457260   7.3093063  18.1156664  97.1337891   7.7393568
  19.5076876  97.6901627   7.5302601 101.7072868  45.2409840  36.1972451
 102.5540638  45.4552603  36.5887547 101.4346600  46.0475826  35.7598495
 120.1009274  74.0080786  34.3750095 120.7309532  74.5434427  34.8573732
 119.2468452  74.2892170  34.7032356  87.7215767  86.2517834  43.0010509
  87.5710106  87.0704937  42.5285196  88.0519581  86.5262413  43.8564777
  88.7630749  34.6920514   0.9614608  88.9730072  34.0587497   1.6478226
  87.8228855  34.8448181   1.0559593  84.6545124  57.7174711  39.5931983
  85.5286407  58.0777407  39.7426844  84.2462635  57.7124214  40.4589605
  79.7038889  48.5690880  42.0033503  80.1014805  49.2024803  42.6008129
  78.9101076  49.0019131  41.6890097 108.2916069  46.0027552  22.4966216
 108.3386135  46.6548538  23.1957579 107.5678921  45.4303646  22.7512360
 104.0321445  89.5905685  10.2776635 103.8002014  90.4483891   9.9218732
 103.5466766  89.5333767  11.1006296  91.8284416  91.7971706   9.4484067
  91.6296005  92.3945522   8.7274104  92.4311638  91.1571312   9.0698594
  89.5446968  70.8101511  54.4027519  89.3422127  69.9255705  54.0982151
  90.4915810  70.8917904  54.2888403  78.1162214  75.4434776  39.2876816
  78.4687805  76.2987471  39.0418291  77.9830217  74.9909115  38.4548092
  88.4599781  44.5922804  79.3850899  89.0925980  45.0249338  79.9585247
  87.6626205  45.1149178  79.4706154 112.6392937  58.2061768   6.6990787
 112.9156303  57.8164196   5.8696467 111.7996883  58.6209106   6.5008718
 106.4532280 108.0095482  54.9080276 105.5809689 107.7559853  54.6061945
 106.4767838 107.7398014  55.8261299  74.3204498  40.2438831  28.7700772
  73.5271931  39.9732804  28.3077407  74.1361284  40.0582647  29.6908402
  83.0476284  52.3963356  30.7918239  83.5975742  51.8273258  30.2532887
  83.5757256  53.1834650  30.9251547 105.2057457  25.9558606  52.1152449
 104.6455765  25.1913834  51.9810152 105.8069801  25.9459686  51.3704872
  10.5643302  58.0970907  20.7974815  11.4314013  58.2616949  21.1680555
  10.6632739  58.2845449  19.8640442 123.0374718  73.6528206  62.4675322
 123.8503170  73.9486790  62.8773880 122.3458290  74.0898514  62.9643869
 101.9930649  74.0460920  35.9080935 102.7218437  73.9606667  36.5227604
 102.0729923  73.2840204  35.3344297  84.2071152  55.1799440  49.6413612
  83.8600349  55.1277924  50.5318975  85.0072002  55.6985140  49.7261143
  71.8904114  79.1153049  27.0092320  71.6470909  78.6116457  27.7859902
  71.1245251  79.6598577  26.8272638  88.3939362  88.8749409  25.2629638
  89.0299320  88.9447594  25.9749103  88.3184719  89.7657776  24.9209952
 116.9564247  76.3410187  96.2336334 116.8300819  75.6130886  95.6250414
 117.5128937  75.9816837  96.9246122 105.4901981  65.2685785  56.6740656
 106.4344597  65.1307297  56.5992737 105.3709221  65.6405067  57.5479507
  80.1095200  43.8479567   4.3067929  79.2128992  43.9213562   3.9798266
  80.6263065  43.6092949   3.5372418 101.6761684  20.8539176  74.2293453
 100.9216976  20.2793097  74.3590689 102.3902130  20.4209781  74.6972466
   5.4039507  62.6800394  44.5244360   4.7574359  63.0233765  43.9076996
   6.0713034  62.2745562  43.9708519 100.0067425  33.7967014  50.5900574
  99.3288231  33.6668134  51.2532234  99.8272324  33.1273627  49.9297571
  89.0831470  33.4962320  50.0323915  89.6087551  34.1773605  50.4519463
  88.4846973  33.9748001  49.4587469   4.0439921  48.1380415  44.9814463
   4.3706637  47.5200081  45.6353235   4.5723277  47.9640865  44.2024565
  84.3355274  44.8558331  68.0466127  84.3810654  43.9305830  67.8056431
  85.0894165  45.2540350  67.6115179  94.3185234  64.6245098  37.1671486
  94.0571022  64.6869135  36.2484550  93.5540676  64.9308157  37.6550317
  56.0094929  70.3319645  14.8355806  56.9653654  70.3410435  14.7860146
  55.7566738  71.2515402  14.7537613  89.5133972  39.5908403  26.0130191
  89.1028595  39.3247557  25.1902866  89.2269421  38.9335728  26.6471887
   4.3152934  74.2352343  65.4508066   4.7594100  73.4567690  65.1146936
   5.0250559  74.8291731  65.6951475  79.5445967  65.5076504   4.2351779
  80.3290272  65.7960224   4.7018027  79.8636103  64.8572588   3.6095145
  71.9802713  89.6409988  -0.0441459  72.4608278  88.8142204  -0.0857515
  71.1198330  89.4008732   0.2996741  97.7818775  50.0492907  66.6810226
  97.3218536  49.2752314  66.3563013  97.0849228  50.6390858  66.9684792
  99.9099159 121.3269997  39.2413378  99.4710159 121.0208511  38.4476900
 100.0332355 122.2656345  39.0999341 117.3919106  57.6847363  27.0251155
 117.5320244  57.8176832  27.9626250 118.2109165  57.9672146  26.6181087
  92.1139336  87.1636009  11.3335073  91.8697834  87.5795078  10.5066848
  91.3649559  87.3174381  11.9093454  93.3842373  94.5409679  23.0312634
  93.5050869  93.7631702  22.4866104  94.2710972  94.7942162  23.2873201
 113.2959843  79.5036364  14.8972678 113.4410286  80.4478359  14.9579477
 114.0996075  79.1626072  14.5046818  96.7471600  49.7357368  98.9265379
  96.8858337  49.6982956  99.8728993  97.5434494  50.1414299  98.5836502
 114.8564911  46.0144424  43.1041479 115.2063560  46.1232758  43.9884472
 114.6855831  45.0757027  43.0280447 104.0650368 110.9707451  39.0612626
 104.7807503 111.5982723  39.1621995 103.2707787 111.4938545  39.1696286
  94.9443722  78.4182453  50.5146599  95.0634480  79.0718174  51.2037849
  95.5095863  78.7160540  49.8018646 115.0995922  88.8515854  43.7042618
 114.9259186  89.6947765  44.1227150 114.7291374  88.9392376  42.8260183
  93.1255722  78.1709719  24.6415138  92.5463867  77.8797245  25.3457522
  92.6137352  78.0442953  23.8426352  17.3535376  45.2341700  29.7023058
  17.8543883  44.5420933  30.1340532  16.5012389  45.2202892  30.1377654
  59.4406652  94.6660519   0.1208006  59.9233294  95.4626465   0.3414728
  58.5210800  94.9011326   0.2446184   1.7410212  82.1216488  33.4033871
   1.8475466  82.1692753  32.4533248   2.4251109  82.6943874  33.7501121
 118.1796074  67.4264383  32.2467709 117.5164032  67.5665379  32.9226136
 118.4509373  66.5158319  32.3625731  55.4765558  55.2130127  21.6175270
  54.7699070  54.8226595  22.1318293  55.4587746  56.1409712  21.8516397
   3.8855010  42.5354385  36.6441631   3.3643370  43.2102680  36.2091637
   3.2401686  41.9111347  36.9758582 110.7318878  49.5069551   2.2064672
 109.8099327  49.5531273   2.4596407 110.9611988  48.5828161   2.3045273
 103.6779690  53.3361626  62.6718569 103.1138229  54.0669489  62.4190331
 104.2592239  53.7018538  63.3386755   8.4110289  83.2192326   2.9655287
   7.9232627  83.3103085   2.1469826   8.8052207  84.0800285   3.1064939
  80.4273605  72.4402428  24.0697670  80.3681278  73.0057240  24.8398018
  81.3665009  72.3045588  23.9439178 110.1541328  85.5893517   5.0655437
 110.6710815  84.8294830   5.3330994 109.6864128  85.8520031   5.8583146
 118.0511284  62.4237251  51.2659025 118.1970119  61.6236401  50.7611036
 118.3477592  62.2067261  52.1497297  95.7433510  87.3494911  18.1356776
  96.1177540  86.5521145  17.7611697  95.5121803  87.1072865  19.0324116
  86.9254112  70.8450127  75.8833981  86.2754726  70.2368021  75.5314064
  87.2064781  70.4452658  76.7064619  95.2862358  49.7675419  52.8416300
  94.5134354  50.0056648  53.3537817  95.8341980  50.5522442  52.8559875
  98.7309456  58.5315132  48.0404234  98.7818432  58.0631781  47.2071743
  97.9147530  59.0286446  47.9862881   8.8423853  73.1901217  53.6937714
   8.2692462  72.5069857  54.0417242   9.6521311  72.7318573  53.4689808
 115.6495476  53.4760427  49.1469383 115.9062290  53.1402493  50.0057697
 116.2108517  53.0076122  48.5290813  10.4905158  82.2391129   5.3602582
  10.6001692  83.0836773   5.7972038  10.2231913  82.4634933   4.4689542
 107.1060181  39.8174357   7.3817664 106.5859604  39.0146589   7.4181247
 107.9541302  39.5702863   7.7503467 119.6884060  97.4483681  49.9965477
 119.1927242  98.2642651  49.9269533 119.1575623  96.8936348  50.5681324
 109.8650551  56.8282366  23.1951356 109.0164089  57.2661972  23.1300998
 110.3435612  57.3299742  23.8550758 113.5285187  54.4694424  28.2065606
 113.0976486  55.2667522  28.5145879 114.3171501  54.7799349  27.7617240
  89.7218800  31.8998384  89.1752720  89.8279190  32.8097987  89.4526863
  88.8090801  31.8402147  88.8933372  89.9319839  40.1600504  39.3813825
  90.0950527  39.4313216  38.7825561  90.1451683  40.9414864  38.8713336
  93.8253498  58.0801344  46.7338991  94.2503548  58.3688402  47.5415182
  93.7839890  58.8670444  46.1904860  57.8516245  95.3815746   7.6770431
  56.9638062  95.2106380   7.9913533  57.7302694  95.9366417   6.9067103
 102.3399734  77.4038315  24.1184521 102.7820587  76.5881968  24.3540931
 101.4078999  77.2062111  24.2101598 111.6914654  68.4952021  35.5539703
 112.2289467  69.2035770  35.9082961 111.7729664  68.5846615  34.6044517
  82.4418259  24.8579431  62.1198034  83.2668877  24.7432160  62.5913477
  82.7037907  25.1456714  61.2452650  85.9640408  81.0756779  23.8160610
  85.2798080  80.4791641  23.5123849  86.3710403  81.4017868  23.0134106
  77.5201511  51.4712238  38.2004976  76.8888950  52.1840239  38.1021905
  78.0904055  51.5491247  37.4356627  22.8461485  70.7313585   6.8071210
  23.2206183  69.9774313   6.3514918  21.9883662  70.8549976   6.4007139
 100.8459282  70.2264261  24.2801642 101.5775299  70.7636261  23.9761901
 101.1907578  69.3335152  24.2863131   8.8137179  40.4833460  56.2234783
   8.3931666  39.9843526  55.5232096   9.1058093  41.2906456  55.8001900
  91.5370560  54.4842243  45.1113653  92.4847412  54.6187639  45.1161528
  91.4062500  53.6835051  45.6192780  86.1273384  97.6687527   7.7892405
  85.3400326  98.0350018   8.1920278  86.8215466  97.8332806   8.4273905
  99.5998287  47.8054190 100.0286635  99.7160530  47.9798746 100.9626278
  99.4591618  46.8600035  99.9772932  87.0802498  51.8355274  95.2072144
  87.0617008  52.6080370  94.6423054  86.5495014  52.0803356  95.9652424
   5.3950148  69.6822500  32.1812892   5.0704318  69.7682190  31.2849164
   4.8954707  68.9527130  32.5479770  89.5368004  40.5853558  42.1666718
  89.6524143  40.6090307  41.2167740  90.3394508  40.9731531  42.5153780
  80.0157356  79.6193504   6.5401882  79.2441320  79.4534111   7.0817918
  80.7119942  79.8125029   7.1679980  73.7391853  74.8109055  38.5856032
  72.7856636  74.8004532  38.5024071  74.0337276  75.4004574  37.8914118
 116.6648293  71.4402056  43.2478857 117.5453854  71.8035460  43.3418751
 116.8023300  70.4961395  43.1699753  85.6167126  76.2285995  14.1289651
  86.4054203  76.4528608  13.6351311  85.3494835  77.0508146  14.5398009
   3.0033236  74.5950985   7.3970866   2.3901396  74.1326475   7.9683799
   3.8389998  74.5575571   7.8623515  11.2076502 101.3137817  14.6441495
  12.1139269 101.5413189  14.8518121  11.2743884 100.7300091  13.8885140
 111.9089317 108.7521935 101.9909539 112.8250885 108.9830017 101.8372902
 111.9480705 107.9435349 102.5016179  95.6499195  45.4558468  11.7306411
  96.3816261  44.8998785  11.9984782  95.4877090  46.0192442  12.4872828
 102.9191208 135.4791362   0.0068667 102.9452610 136.4340145  -0.0544076
 102.4465656 135.3042025   0.8207007 107.8716183  84.9296951  87.6831230
 107.4098492  84.6322250  88.4670337 107.6626110  84.2733383  87.0184811
  47.3368263  73.2468414  13.1933236  47.5617027  72.9199743  12.3222208
  48.1120253  73.0653954  13.7247133 100.5502319  45.7477999  11.8246949
 100.7509804  44.8463917  11.5729189 101.1350727  45.9267139  12.5610304
   1.1139041  82.4370384  18.3910131   1.7905551  83.1110001  18.4554315
   0.7229643  82.5718784  17.5277567 107.4771976  79.0039635  23.8304329
 107.0814228  79.3822193  23.0452466 107.7413464  79.7606373  24.3537879
  81.2504005  68.3914518  18.4044456  81.5053463  68.0830288  19.2739928
  80.2986717  68.2912827  18.3843005  84.8445415  67.0142508  19.3745446
  84.8620033  67.8161716  18.8521910  84.6674252  67.3131895  20.2664518
  92.7856731  57.2229385  33.3651757  93.1779003  57.1629190  32.4940944
  92.4486256  58.1174564  33.4149671 113.2544518  46.1588717 101.7076513
 114.0732098  46.5535164 102.0078512 112.5730610  46.7545414 102.0192935
  86.3339710  53.6835051 108.6387502  86.0215378  52.8959179 109.0840923
  85.7672405  53.7657118 107.8717464  92.9731178  98.7478256  22.8104210
  92.8021622  99.6630192  22.5880980  93.3950615  98.7846661  23.6688137
  85.8833408  73.5895538   5.3026462  86.2631226  73.2250690   4.5031786
  85.0001717  73.8567924   5.0480312   1.1149912  53.7768793  16.6974020
   1.2954932  53.2591295  15.9128106   1.4881354  54.6376371  16.5074384
  73.2991552  24.7769022 106.6624033  74.0251350  24.2505002 106.9971963
  72.7523756  24.1539001 106.1837288   7.1068507  55.2417612  99.7920724
   7.1753150  56.1960173  99.7615012   6.6044646  55.0125074  99.0102240
 122.4646950  76.0989761   3.0189341 123.3641624  76.0414553   3.3412313
 122.3284149  75.2804184   2.5418332 106.8085575  80.9226036  38.7437105
 107.2969723  81.1349773  39.5390558 105.9220791  81.2405300  38.9149451
  69.8959160  97.6888371  37.8111982  69.3444967  96.9064331  37.8073168
  69.6293545  98.1658268  38.5971141  60.5533743  61.2917423  22.1566081
  61.1237860  61.9440317  21.7499375  60.5778217  60.5454826  21.5576673
 106.7040539  65.3583288  86.2751087 106.3248539  65.0353765  87.0925101
 107.4308109  64.7616816  86.0960516  81.2719154  55.6720829  33.2634068
  81.0847855  54.7739601  33.5365176  80.5833244  55.8786392  32.6314163
 103.8534546  42.7884197  92.0840796 103.3629704  42.1022081  91.6315683
 103.3033276  43.5677528  92.0052072 103.2429886  84.0447712  20.5125356
 102.4822617  83.7715626  19.9998176 103.3971024  84.9516296  20.2477860
  83.7265205  38.7555480  29.0220404  84.0367126  39.6411777  29.2109132
  84.1871452  38.5062075  28.2208657  93.9531040  81.3783836 106.4240035
  93.3857727  82.0859814 106.7300489  93.3631992  80.6346989 106.3007989
 123.8065052  48.5848999   2.4293186 124.1179085  48.2910109   1.5732297
 123.2514000  49.3403244   2.2358659  96.8275070  73.4155035  39.3331432
  97.3814964  74.0445614  39.7953343  96.7297554  73.7826538  38.4545755
   7.4542265   5.9561211  94.8581418   6.7798644   5.4060227  94.4595715
   8.2515936   5.7483077  94.3710574  16.8646842  81.2125397  96.5501233
  16.3979464  80.9589005  97.3463973  17.1142226  80.3824425  96.1440560
  65.9141254  43.7127829   2.1543729  66.1912632  43.8074923   3.0656672
  64.9665117  43.5870981   2.2040395 115.1388454  39.5376134 107.2308876
 115.6049824  39.9263787 107.9710282 114.7162724  38.7600613 107.5956851
  64.5400095  60.0062895   8.8698280  64.4720554  59.9860573   7.9152572
  63.9892197  60.7433748   9.1335845  91.5929508  82.8258896  12.4898982
  90.8892727  82.9884911  11.8617046  92.2003651  83.5547161  12.3630977
 115.5844021  78.1431055  20.1596212 116.4957809  77.8846025  20.0224900
 115.6334305  78.8793945  20.7692981 109.7685623  82.0597363  93.6610922
 110.1053905  81.9301128  94.5476445 110.0895309  81.3034248  93.1699701
 113.4901810  87.4806118  18.4720862 113.3199120  87.1521282  19.3548882
 112.9368019  86.9429398  17.9055941  62.7296019  17.7818036  24.4995284
  63.1062555  18.1326461  23.6925125  63.4854364  17.4921548  25.0104570
  88.0061722  61.9179296  43.6817551  88.0679703  60.9639168  43.7294436
  88.0227661  62.2049570  44.5947552  92.0718765  26.1475468  29.4148207
  91.3975143  25.9960866  30.0770378  91.6525364  25.9110522  28.5875010
 118.8801003 110.0202560  65.0019312 119.7118568 109.7298241  65.3761911
 118.7675858 110.9119129  65.3313589  48.9844990  72.7240372  39.8861456
  48.5350561  71.9055843  40.0967836  48.6740208  72.9489231  39.0090704
 120.9792519  59.9380875  33.9589524 121.2975502  60.7454252  33.5550594
 120.0852013  59.8423767  33.6306858  80.9679508  90.5718899  34.5256996
  81.5794373  89.9308681  34.8882103  81.5110683  91.3340855  34.3249297
  61.7372227  90.5422592   3.0264929  61.3321972  90.4045391   3.8827750
  62.6427269  90.7804680   3.2253727  92.3512268  99.4814110  86.1472710
  92.4333954  99.3548965  85.2020343  92.2088623  98.6011505  86.4952596
 119.9512386  57.7039766  38.1461191 119.1214943  57.9765701  38.5378265
 120.1912212  58.4267187  37.5662231  88.8436222  44.6198416  46.9055414
  88.6311436  45.2081156  46.1809587  89.4618511  45.1151848  47.4428082
 109.3208599  36.4062262 108.3241937 109.0439987  35.5738354 108.7072191
 110.2357578  36.4995170 108.5896894  83.1370354  57.0732212  14.4270861
  83.0095196  57.2026825  13.4872925  82.2592068  56.8977022  14.7659647
  83.5659122  73.0384827  40.1169872  83.4308529  72.0962954  40.2183151
  84.5150757  73.1512356  40.1679611 114.8337650  77.5844765 106.6123822
 115.3950405  77.3662663 105.8683436 115.1192665  76.9935560 107.3091843
  11.7718630  35.6858277  95.9615513  12.3590785  35.5502152  95.2179011
  11.4286070  36.5707040  95.8374282 109.5676708  88.4916210   1.0828731
 110.1732063  87.9424477   1.5808468 109.8890114  88.4468174   0.1823359
  99.4675541  48.2746983  43.3609819  99.2175484  47.5071335  42.8466129
  98.7405586  48.8867760  43.2466793 110.4317188  40.6800032   6.0476506
 110.5912495  39.9206591   6.6081685 110.9724236  41.3739586   6.4248550
   4.6951609  45.4213476  32.9520607   5.5350905  44.9885750  32.7988887
   4.1230803  45.0849247  32.2622967  65.6044054  45.8819723   0.1083334
  65.3007889  45.2400541  -0.5335341  65.8939886  45.3564310   0.8541085
  92.2060871  66.8011808  82.1687850  91.4788246  66.5306759  81.6082891
  92.2425556  67.7527046  82.0712789  86.4626789  67.6954937   5.7002908
  86.9295120  68.1489515   6.4021969  87.0766068  67.6946115   4.9659079
  87.3955631  41.4162159  28.8246012  87.2813511  41.4613247  29.7738910
  88.2229519  41.8689299  28.6611295  90.4305840  87.9266357  15.1074433
  90.2136898  87.8566074  14.1777742  91.3257694  88.2653427  15.1196814
  95.2576351  63.3797169   8.2757854  94.7265434  63.7615347   7.5769407
  95.8929920  62.8279781   7.8195536 117.3593044  17.5213194  88.2236942
 117.8754330  17.4673295  87.4193748 117.2125530  18.4585071  88.3516535
  88.5871792  87.2044468  32.8233385  88.6992264  86.4063549  33.3397818
  89.4793510  87.5046921  32.6498246  99.0087128  55.0629044  99.5717534
  98.2551384  55.4881763  99.9810269  98.6826897  54.2036295  99.3041774
  84.3280029  70.9476328  26.5684485  83.7685776  70.6485796  27.2852778
  84.9561405  70.2364922  26.4421511  14.7123175  31.5928173  10.1562655
  15.1368838  32.2293544   9.5811182  15.4161196  31.2734675  10.7209861
 111.3627720  26.4673162  11.5136683 110.6937122  26.3992071  12.1948075
 111.5404510  25.5613208  11.2610233 116.2928867  65.8802652  37.6187491
 115.7778168  66.5187883  38.1119227 115.6755733  65.1759338  37.4210715
  92.0376968  90.6937790  28.3014035  91.4833832  90.0718117  27.8301048
  91.6215897  91.5434456  28.1559467  84.2290783  68.8154650   3.5793790
  84.4430733  69.6711588   3.2075894  83.3120155  68.8913822   3.8429132
  80.0679207  96.6093254  18.1525242  80.1215363  96.3954353  17.2210693
  80.9797764  96.6812229  18.4346294  70.3230572  16.3301063  31.9527936
  70.0701189  15.9360194  31.1179566  70.5188847  15.5844116  32.5200868
 103.0521679  62.5420284  27.1581697 102.6816273  63.4245539  27.1489692
 102.5449848  62.0762396  27.8230381  80.3426075  60.5327320   5.3194380
  81.2406445  60.7020473   5.0346810  80.2263641  61.0897493   6.0891473
  84.4869614  80.0644493 108.0211990  83.8022614  80.7290459 108.0969618
  84.7655964  79.9037790 108.9227407   1.9599753  24.1169119 100.3340104
   2.6458769  24.4212437 100.9282830   1.1556559  24.1679239 100.8504351
 102.0250225  73.1003904  15.2980649 102.1265793  73.3872223  16.2056148
 101.7387486  72.1894884  15.3653789 117.1658802  75.5275249  68.5789736
 117.5473499  75.0310659  69.3030175 117.3019218  74.9731922  67.8105696
 101.0017395  38.2455444  99.8089876 100.9220028  38.7515759  99.0004047
 100.2121067  38.4610343 100.3052523 121.4999580  62.2259617   5.3306973
 121.1008072  63.0047274   5.7185525 122.1199512  62.5696850   4.6875036
  95.3567696  89.3597031  57.2792864  94.8830223  88.8320732  56.6363192
  95.0074673  89.0776539  58.1246710  78.5623121  48.7659597   4.0965870
  78.2391882  48.1492949   4.7535130  79.4391870  48.4484768   3.8808846
 100.7189274  67.2616673 104.6137538 101.5214157  67.7170324 104.8684710
 100.0429630  67.9391384 104.6321943 111.7904091  60.8180714  24.1124034
 112.7126312  61.0009956  24.2920661 111.3115120  61.3897657  24.7124481
 109.8309231  66.6181421  26.1711645 108.8926220  66.6085672  25.9821582
 110.1741123  67.3395634  25.6439018 116.0355663  79.2176580 101.2040367
 115.7641506  79.5717430 100.3571680 115.3230953  78.6309528 101.4577922
 108.6299133  71.2732077  31.2691760 108.4559631  72.2129250  31.3230562
 108.4064198  70.9380817  32.1374917 115.3428268  18.4582233  95.5818649
 115.3729534  17.6425576  96.0818788 114.6810150  18.3018959  94.9082156
  85.7222557  15.1257956 109.4271233  85.8104706  14.9509776 110.3640808
  85.4550838  16.0436845 109.3788504 112.1662617 112.0668602 105.9433540
 111.8565941 111.6198158 105.1556441 111.8410587 112.9626656 105.8538541
  78.6298418  70.1635456  14.3784332  77.6765060  70.0792170  14.3618524
  78.7854385  71.1015749  14.4885361  77.2665501  10.4517782 107.2463419
  76.6932535   9.7723103 107.6011475  76.6766500  11.1738169 107.0297550
 113.7942600  37.4502087 108.3605342 113.8835335  36.8754482 107.6003283
 113.3454800  36.9143748 109.0145307 107.3760891  38.9205194   3.1017625
 108.2210732  39.1566753   2.7190626 107.5671005  38.7652707   4.0267727
  94.4361401  60.6550694  13.7614608  94.2559910  61.5938902  13.8103843
  93.6223793  60.2717686  13.4341943  82.5959873  27.9137945  35.8063889
  82.8858948  28.4217072  36.5641546  81.7662144  28.3169436  35.5510759
  60.7657957  43.9968443  30.2832913  61.3881254  44.7047281  30.1164246
  61.3130140  43.2218170  30.4102325  63.5740471  55.5846310  24.6351194
  63.5119963  54.6323919  24.5600963  63.9265823  55.7332897  25.5125308
  79.9372530  73.9892101  26.0195518  80.6416798  74.5979881  26.2418151
  79.5025539  73.8111305  26.8535495 106.0090637  81.3631248  22.6032758
 106.6823101  82.0319080  22.7285886 105.1819134  81.8336487  22.7065372
   3.9759856  74.3362331  95.9504708   4.3742781  74.3436146  96.8208393
   3.4719115  75.1489830  95.9108409  88.4367180  51.2427473  37.0900130
  87.9363632  51.2828112  37.9050446  88.6538029  50.3161383  36.9875455
   0.0832968  96.2765408  97.4164971   0.6777506  95.7885742  97.9863568
  -0.6791658  96.4589024  97.9657062 108.8611507 106.6603756  97.6665624
 109.1559982 106.7586708  96.7612239 109.4945812 106.0608578  98.0609914
  80.2607536  75.5092287  22.5156188  79.9214602  74.7795153  23.0339074
  80.8421326  75.0985432  21.8756485  85.5156136  48.2855415  35.2648234
  85.6975174  47.8544235  36.0998559  85.8880615  47.6990891  34.6063519
 123.7330437  70.1660872   4.7006497 124.0517998  70.9233141   4.2094916
 124.4152164  69.9977875   5.3506839 101.7620754  48.4078264 105.0845593
 102.1432590  47.8147459 104.4371118 102.4956799  48.9506674 105.3733056
 109.1261768  81.9118404  14.0926075 109.2367840  81.0042572  14.3759584
 108.4585190  82.2663879  14.6797669 111.1337090  74.7168493 108.1667031
 110.4173470  74.1168785 108.3742914 110.7951736  75.5824041 108.3956922
  78.5521793  39.4317102   1.5814970  77.8974819  40.0767183   1.8490142
  79.2571402  39.9517941   1.1957885  99.4042206  50.9512663   3.2384133
  99.2838287  51.3011312   4.1212115  99.2192650  51.6913271   2.6601967
  90.4076195  51.4296293  31.0292315  91.1159992  51.4414120  30.3855705
  90.7754517  51.8650818  31.7982006  71.4048958  57.5756407   2.6250422
  71.5905762  56.6418552   2.7240476  72.0439911  58.0082750   3.1912765
  91.2773514  61.0118437  21.0245585  90.5526352  60.7108831  20.4764366
  91.1827374  60.5180359  21.8390703  76.2729168  53.7193203  43.1530142
  75.3340673  53.8687229  43.0413580  76.6161060  53.6744642  42.2605753
 100.3442001  55.8054018 103.3167853  99.6572018  55.1584721 103.1563171
  99.9279022  56.6474867 103.1328698  76.9669247  33.3346581  37.9345679
  76.3736629  33.2359362  37.1899033  76.5435553  33.9864087  38.4933281
  93.6886024  56.2795067   8.9913166  92.8362179  56.2121296   9.4215989
  94.3168736  56.3329935   9.7114813 101.9430161  77.0595360  20.6643701
 102.6557446  77.4388075  20.1501703 102.3682690  76.7283487  21.4553857
 121.6997242  63.0533504  41.2755156 121.7715549  63.7283707  40.6006670
 122.1611023  62.2987413  40.9095478 123.3957386 104.8452759  79.2599829
 123.4872913 104.3115902  80.0493082 124.2626190 104.8240566  78.8546380
  75.0339746  37.1753097  21.9507694  74.7283936  36.7015648  21.1771965
  75.7288504  36.6238737  22.3103476 106.5853405  24.4044948  18.6665678
 107.1601105  23.7678504  18.2416546 107.1697330  24.9231958  19.2194438
 110.9811211  93.5588741   7.4408853 111.6817951  93.7692451   6.8236101
 110.2051544  93.4440041   6.8923336 121.5994930  56.5329552  34.7375727
 122.3810673  56.3613558  35.2628708 120.9839153  56.9371319  35.3490639
  97.1213055  52.1750021  11.0451055  97.3237133  52.3611879  10.1282656
  97.1831894  51.2223959  11.1153746 109.5003796  59.8091125  12.8748369
 109.7035599  60.4703045  13.5364807 109.0235615  60.2875662  12.1966326
 103.5186195  56.1235142  17.0896423 103.9775658  56.1185074  17.9296279
 103.9825439  56.7777157  16.5671277 116.5646362  65.5010843  13.1368840
 117.3361301  65.6209183  13.6906612 115.9178829  65.0926352  13.7123013
 105.6706047  48.9142084  86.3329538 106.0331154  49.3109083  85.5408367
 106.3633633  49.0086317  86.9867095  96.6272926  85.3122997  16.4164734
  97.4052620  84.7640514  16.3144362  96.4342403  85.6212711  15.5313182
  66.1955786  74.5511627  23.0274415  66.4984894  74.2967463  22.1558046
  65.5916643  73.8542509  23.2840133  79.4863749  59.6254349  26.2060118
  79.9893284  60.1406050  25.5752420  79.6938610  58.7158251  25.9920096
  10.8191996  59.9665833  53.2775831  10.7099562  59.0573454  53.5561275
  10.0351458  60.1549244  52.7618122  94.8965168  27.6529527 101.7331477
  94.0374374  27.4282384 101.3757696  95.5001068  27.5311995 101.0002848
 120.0870991  59.7312021  20.6506872 120.6866264  59.0253973  20.8928370
 119.2895985  59.2823362  20.3700638  -0.1278657  65.6873322   4.2755848
  -0.4615278  66.1742878   3.5220784   0.7278948  66.0776806   4.4531623
 110.8822060  68.8797712   0.7819312 109.9552345  68.6413336   0.7921014
 111.0209465  69.3372440   1.6112068  92.1695042  52.3610783   5.3670591
  92.7444458  52.0072460   4.6884710  92.5540733  53.2091951   5.5885082
 124.3716812  83.9328289  90.3347155 124.8449707  84.7643566  90.3066751
 124.0396786  83.8762951  91.2307140 106.4186859  58.5583591  32.8054953
 105.5823231  58.7255573  32.3710275 106.6336155  59.3850088  33.2375717
  17.5799876  98.8621044  41.4450645  17.0203047  98.1787395  41.8138361
  17.1855479  99.0626049  40.5962753   7.4745684 103.2219696 106.9240212
   8.3805590 103.5000801 106.7896243   7.5002318 102.2695446 106.8319770
 101.8819046  59.4405651 105.2587371 101.8108177  60.1227856 105.9263858
 102.2739601  59.8824453 104.5055672 118.3849716  77.2186089 106.3018417
 117.9195213  77.2815466 105.4677972 118.5200500  78.1275177 106.5699246
 107.2287750  62.6855230   8.3974653 107.2118092  63.0856085   7.5280541
 106.5677166  63.1664753   8.8953805 100.2138138  26.8481445 109.0794657
 100.8159256  27.4627709 109.4988991  99.9448776  27.2886968 108.2733502
 121.7261505  64.9198008 105.7408821 121.9451714  65.8060980 105.4532530
 122.4394417  64.6763515 106.3309484 114.7866249  61.2949562  18.8361025
 114.0329266  60.7096577  18.7613380 114.7257137  61.6519070  19.7221661
 103.7318516  35.6257105  26.5274358 102.9993057  35.0168610  26.4330411
 104.2011547  35.5666232  25.6952739  52.5728321  76.5320826  22.6059914
  52.3212051  76.9826508  23.4121561  53.4924698  76.3014555  22.7375531
 117.4051189  93.2391548   9.0358222 117.8151035  92.7487755   9.7483325
 116.8118286  92.6113701   8.6233681  68.0659628  40.3330469 102.3377397
  67.8370476  41.2510157 102.4832233  68.4018183  40.3090572 101.4417168
 114.4827366  45.3417301 106.6361668 114.5565605  46.1669350 106.1567726
 114.5122814  44.6671343 105.9577295 104.4175434  86.4118481  97.8860029
 105.3232765  86.6249466  97.6613661 104.4841671  85.9076691  98.6969241
  76.5371180  36.7388988   5.8312702  77.0881414  36.8656015   5.0589025
  77.1569061  36.6041160   6.5481585  72.8201342  23.5286832  95.8031698
  72.5643396  24.4096470  95.5298480  73.6563730  23.6507082  96.2526616
 107.2919273  66.6976738   3.2566744 106.6579151  66.2703276   3.8325554
 107.5694275  66.0087395   2.6528561 100.6564999  34.4318414  10.6674731
 100.9008408  33.9235425   9.8940623  99.9139690  34.9631739  10.3801215
   9.1011363  54.7356319 101.8517902   9.7171717  54.8811293 101.1337664
   8.2532244  55.0041866 101.4980211 114.2647362  88.5965633   3.0586088
 113.8702679  87.7257442   3.0105531 113.9065075  88.9778709   3.8601762
 117.3896313  58.7545586  38.0116081 117.6545906  59.3686628  37.3268437
 116.6609859  59.1894674  38.4545064  99.6047211  40.8721590  46.3674593
  99.6340275  41.8050337  46.1550379 100.5219364  40.6238127  46.4826488
  77.8476763  64.7229433 103.1788137  78.5475969  64.9531031 103.7898513
  77.8406811  65.4378462 102.5423446  95.1334095  75.1030111  30.7176757
  94.5906353  74.9161291  31.4836383  95.9566689  75.4290104  31.0812807
  96.7198467  42.8609324  35.1133657  97.4582863  43.3700514  35.4476333
  96.2273693  43.4793091  34.5736384 109.8171902  66.8566322  21.7718124
 109.9144459  67.0892000  22.6952219 109.3321133  67.5883484  21.3903356
  93.1689835  29.1272473  18.1204963  93.0997753  28.4172583  17.4822521
  93.7619495  29.7586155  17.7130616  92.5362778 124.4049263  13.3163106
  91.6380119 124.1345596  13.1259143  92.7618694 123.9371586  14.1203868
 107.6811028  51.9461489  16.4326155 108.4938526  52.4013853  16.2125695
 107.2063255  51.8893576  15.6033993 101.2320042  75.0846338  41.6591597
 100.9754467  75.1790190  40.7418251 100.4117489  75.1619339  42.1464396
  96.2298107  55.8667946  31.1006951  97.1034908  56.1325741  31.3875151
  96.3208485  54.9389362  30.8838439  68.9606333  35.4554033  37.3590374
  68.8571787  35.8197284  36.4799476  68.3765316  34.6972275  37.3743534
  82.1261883 112.8638268  16.8410194  81.2957478 113.3302212  16.7457020
  81.8733692 111.9664288  17.0577991  85.8987141  77.4617529  97.5421318
  86.3727951  76.6999388  97.2088023  86.3091850  78.2087374  97.1065112
 105.7067490  63.5540676  50.5367565 105.2657986  63.4555340  49.6929026
 106.4289379  62.9266644  50.5043221  91.2250710  88.8580227  98.3314654
  90.9935474  89.4798279  99.0213867  90.4042721  88.4096336  98.1278356
   2.9893714  49.1388798  29.4712114   2.0890551  49.0725613  29.7894454
   3.5283118  49.0528917  30.2575827 113.6260223  66.9012117 107.9132136
 112.7964687  66.7530251 107.4592098 113.4006310  66.8623972 108.8426890
  68.9863968  35.8650923  30.7684755  68.2252502  35.8611274  31.3488817
  68.8061571  36.5659022  30.1418924 117.9568195  35.1533437 101.4382436
 118.9080429  35.1788092 101.5419241 117.8205109  35.0910425 100.4928484
  94.7392082  25.8465195  97.2513887  95.0726223  25.2263761  96.6029354
  95.2360630  26.6491532  97.0928129 106.6354752  40.6994104  17.9345858
 106.1186504  39.9950624  18.3257711 106.8007278  40.4060078  17.0385742
   1.0089617  69.6290255   6.4405417   1.5382796  70.1905012   7.0069337
   1.4181548  68.7663698   6.5085322  82.0037556  33.8035297   6.7407066
  81.9826317  34.4937086   7.4036074  81.0916996  33.7063909   6.4669383
  87.9259968  60.8243227  21.0665798  87.4935913  60.2226067  20.4606128
  87.8561211  60.3962374  21.9198632  84.3374252  85.0852203  21.6459990
  84.5682907  85.2485752  22.5604677  83.6126518  85.6854916  21.4710402
 124.9990463  83.7470913  63.3972129 124.8380184  82.8059196  63.3301696
 124.1970539  84.1004753  63.7821301 102.2141171  30.9518957 103.4369942
 102.4415207  30.2712393 104.0704205 103.0480289  31.1906719 103.0322584
  92.0569038  78.2640076 108.8406672  92.5858879  78.2810354 108.0430990
  91.5686989  77.4424362 108.7867745  78.8475704 119.7153568 110.0555835
  79.0679836 119.4436741 109.1646060  78.3520699 120.5265427 109.9429698
  75.7360363  47.4373055  18.1154764  76.6378689  47.3211193  18.4145212
  75.6831121  46.9242716  17.3091102  85.2513790 101.1880493  20.0038648
  84.4984150 100.7004547  19.6699071  85.1391888 102.0716286  19.6532488
  84.2938900  23.0996490  10.2135030  83.7020779  22.4948859   9.7660009
  83.9331913  23.1782031  11.0966531  94.5039940  21.4234757   5.0517503
  94.5187664  22.1149182   4.3899957  93.5737419  21.2525272   5.1988164
  89.2907810  39.2351508  92.1057892  89.7000980  38.6694813  92.7605438
  89.9792862  39.8524427  91.8585205 103.4552956  60.6971455 103.3396530
 104.4084835  60.6186867 103.3007812 103.2653046  61.5274715 102.9029655
  78.6805296  63.8834906  97.6348209  78.7777090  64.1281748  96.7145348
  78.3798885  62.9750490  97.6106548  81.3823509  39.3507171  84.6614456
  80.4457951  39.1579437  84.7054958  81.5459442  39.9174452  85.4152966
 102.7801228  79.2223883 103.5901260 102.2103596  79.9477625 103.8459110
 103.1495762  79.4929314 102.7495575  75.3662491  20.9007978  68.0220175
  75.6643343  20.0306630  68.2870531  74.4247770  20.7991838  67.8822660
 117.8188229  42.1669531  20.6131116 118.6784935  42.5848436  20.6637994
 117.6694298  42.0392942  19.6762983  98.6636353 145.3342156  13.1014863
  98.5805702 144.9376587  12.2342626  97.7890015 145.6712531  13.2955018
  98.4073544  47.5036097  68.8649559  98.3622074  46.5479088  68.8360834
  97.8980064  47.7904558  68.1069899  67.7200890  46.4262533 106.0675240
  68.0017567  47.1082163 105.4577541  67.8066778  45.6116295 105.5724239
 122.2625923  43.8865995   1.6959611 121.4260578  44.3396950   1.5903798
 122.2227001  43.1616402   1.0722009 113.2052326  13.8562024   9.2850915
 113.5827923  13.7776983  10.1611749 113.3062744  14.7817326   9.0627900
   2.5157672  55.5981588  14.2631284   3.0264884  56.3512421  14.5602075
   3.1518298  54.8852015  14.2052404  87.9846668  44.8057556 104.5254803
  88.4661961  44.1000700 104.9571991  87.4859238  44.3682146 103.8355255
 114.1549110  46.1836195  12.2560922 114.8133564  46.5039587  12.8725854
 113.5757351  46.9323015  12.1137754 120.3498459  43.1881046  67.5754976
 120.0013161  43.3878899  68.4443140 120.9706783  42.4749804  67.7246523
 110.6194401  50.1354980  81.7982101 110.8215141  49.2004108  81.8298912
 110.5181885  50.3898716  82.7154255 104.4654942  26.8718433 103.8885498
 105.1440620  26.5003514 103.3248425 103.7863255  26.1981487 103.9216709
  72.8450680  42.6822996 106.0579300  72.6927423  41.8186522 106.4415264
  72.1177769  42.8050566 105.4478455  83.8101006  26.2695813   4.0476648
  83.4549618  25.4025435   3.8518182  83.5159302  26.8186545   3.3208791
 122.2398281  41.5054035  95.2076626 121.4796829  42.0815897  95.1274872
 122.9481697  42.0818853  95.4942703   3.2077342  89.6887684   9.7129766
   3.5678130  89.1158104  10.3899614   3.8848525  90.3510571   9.5747033
  57.6947165  21.7297053  96.6272831  57.3573971  21.1452961  95.9483719
  57.0317602  21.7031503  97.3172188  84.8998165  42.5793266  71.4574051
  84.3455505  42.1703529  72.1220589  84.7956371  42.0246410  70.6842947
  88.2863712  34.1190410  17.3944990  88.0535316  34.6852946  16.6587201
  87.5448322  34.1902637  17.9955713 104.7921181  67.6085663  32.8498212
 104.9437237  67.1654844  33.6846486 105.6585121  67.9123735  32.5791017
  87.3927212  98.6285782  87.7315044  87.4920845  99.5010853  87.3506165
  86.9959164  98.7850857  88.5884094  92.9769135  44.8876667   5.7163659
  92.0255280  44.7828865   5.7052080  93.2301044  44.6809292   6.6160241
  72.4514961  45.8933973  84.3667126  71.8082952  45.1851940  84.3978691
  72.3968458  46.2273645  83.4713364 112.7358055  27.7205396 102.6899147
 113.4401512  27.6391935 103.3329582 112.4700546  28.6387086 102.7406216
 104.8204613  58.0297661  79.6140003 104.4339466  57.8975010  80.4796505
 104.6764565  58.9573288  79.4265842  69.3212700  35.5447078  91.4011478
  70.0466967  35.7136536  92.0023537  68.7119055  36.2672997  91.5520382
 120.0055599  79.6205807 103.1043339 119.6033001  79.6178007 102.2357655
 120.6088257  78.8775253 103.0912685  87.2744274  54.7805643  91.4013672
  86.8537140  55.5690241  91.7442417  87.0449829  54.7714663  90.4721165
 104.2157555  25.2553272  95.9552479 104.7886181  24.6965718  96.4804745
 104.1844273  24.8286438  95.0989819   4.7575694  39.0885949  50.0233117
   4.4729643  38.1764579  49.9663965   4.3109065  39.5245862  49.2976133
  79.4322586  35.6946230  82.6021290  79.6502447  36.2170076  81.8302250
  78.6656380  36.1287189  82.9764175 116.3933945  65.3438520  98.3626556
 116.1486530  65.5028772  97.4510384 116.8599129  64.5082617  98.3431339
 101.4607239  25.6515503  92.5473499 101.4453411  24.7785640  92.1550560
 101.3297653  26.2477827  91.8100643 124.1894531  32.7830410   8.3096925
 124.7131634  32.3686147   8.9954130 124.7815609  33.4182572   7.9070321
 100.2410984  47.7842283   9.9662725 101.1275864  47.6350641   9.6374646
 100.1056671  47.0913744  10.6126825  95.2507877  36.0971785  93.6717606
  94.8397732  36.6835427  93.0365658  96.1568165  36.4009833  93.7268734
  98.4490871  41.2491274 105.6836414  98.4160709  41.0225916 104.7542191
  99.0117168  42.0225763 105.7218075  96.2916756  52.6990509   5.3075544
  95.8954525  52.0837116   5.9244863  97.2163200  52.7232075   5.5538694
 107.2795296  41.2436152  76.3479090 106.6693592  41.0813618  77.0673561
 107.1732330  42.1738434  76.1488867 114.2311001  65.1593399  23.7149755
 113.9821053  66.0685539  23.5489312 115.1313496  65.0954819  23.3960573
 110.6881237  69.8664999 103.6732960 109.8577595  70.0566578 104.1098309
 110.4350662  69.5210981 102.8172112  99.6474648  38.0129361  78.7390137
 100.3897953  37.9767299  79.3422270 100.0466537  38.0857086  77.8720713
  82.7546787  58.6759186  87.8283501  82.3736858  58.2516956  87.0595169
  82.5191689  58.1039524  88.5588455 114.3688965  55.8866549  93.0943966
 113.4117794  55.8939362  93.0839348 114.6102428  55.2124357  92.4592495
 100.7245064  64.4874191  28.3826963 100.1377010  63.9331007  28.8971082
 100.7497406  65.3169346  28.8596669  85.5526543  42.1076298   3.2103196
  86.4692020  42.3725939   3.1331102  85.1418400  42.4296236   2.4079553
 108.2148933  70.3846216  90.1628590 107.9091072  71.0892773  89.5917320
 107.8532696  70.5992699  91.0227394  94.1020775  78.1472397 106.7446136
  94.9644566  77.7821875 106.5464306  93.6110210  78.0586672 105.9277630
 102.9664993  41.0106993  89.9335289 102.2295094  40.7085896  89.4026852
 103.5725975  41.3993120  89.3027782  91.6895866  61.3007545 103.6283779
  92.0217800  60.6191683 104.2126083  92.4681473  61.6344881 103.1826210
  93.5394669  57.5634098  12.9801885  93.7909889  58.0097818  13.7887231
  92.6296043  57.8234482  12.8361169  80.8160877  39.0911412  94.0212059
  79.9616098  38.7323427  93.7817001  81.3608170  38.3218288  94.1875267
  88.1675720  59.3172741   9.5296995  88.3847713  59.8182631  10.3158704
  88.4762764  59.8619890   8.8056699 113.3819962   3.9012119  80.5006886
 114.2531872   4.1816494  80.2202988 113.5054016   3.6005268  81.4010143
   2.7350264  40.9677601 102.9711151   2.2345667  41.5098047 102.3612213
   3.1172114  41.5918636 103.5880852 119.6909046  24.6214247 105.7900143
 119.0163326  25.2913070 105.6784439 120.4538441  25.1011682 106.1125088
  91.7754936  24.1713691  90.0129509  91.8292713  23.2486200  90.2616978
  91.0942936  24.1990018  89.3410683  46.7168140  38.4711576  97.2781658
  45.8910513  38.2078862  96.8719196  46.6027975  38.2672381  98.2064152
  69.3591404  56.6551018 101.5533257  69.0416622  55.8052301 101.8585491
  69.5589828  57.1381760 102.3551559  85.0111198   7.6550013 107.0357704
  84.9448109   8.5826373 106.8092251  85.9321785   7.5294548 107.2640800
 107.0182705  18.8608968  53.2828522 107.7484226  19.4371796  53.0570269
 107.3226929  17.9847252  53.0464602  96.8462753  45.0710964   5.6607095
  97.0952511  44.3486404   5.0842515  96.8264294  44.6834469   6.5356771
  91.7764282  69.3725348  81.3347149  92.2616673  70.1157331  80.9763432
  91.1078739  69.1831160  80.6763935 108.9082336  17.8395784  94.5036316
 109.4945621  17.1069252  94.3147755 109.4707394  18.4972084  94.9127102
  98.4483337 143.7264950  90.6650543  98.4323120 142.8820587  91.1155033
  99.2068672 143.6734510  90.0836372 116.2332344  48.2993269   4.5842592
 116.6805267  47.5263166   4.9286786 115.6493378  48.5731936   5.2915708
  98.3695602   3.9555269  98.4756756  99.2913628   4.0024221  98.7292767
  98.2719612   4.6284953  97.8020096  96.6905212  43.9973116  24.0442888
  97.2565937  43.3183241  23.6771814  96.7269802  43.8540459  24.9899999
   0.2230959  36.4064097  87.2991180   0.9602290  36.9633913  87.0488453
  -0.4864854  36.6708040  86.7136097 113.6193466  59.0953159  90.3372002
 112.9661751  59.7780371  90.4904747 114.2431545  59.4927263  89.7296143
  91.7832279  34.5587301  30.9218637  91.6475201  33.6537027  31.2024823
  90.9422588  34.9874043  31.0806981 112.5455093  63.9134359  86.5550327
 113.3006191  64.4918728  86.6620827 111.8011761  64.5070744  86.4560699
 114.5925426  65.0681448   7.0036069 114.6103668  64.8495150   7.9353372
 115.4879761  64.9116421   6.7036954 114.3097210  24.4274306   9.2996064
 113.7878799  24.1572070  10.0551740 113.7091064  24.9501038   8.7682859
   4.2658072  48.9586687  93.2790756   4.6324092  48.3225489  93.8932323
   3.4902220  49.3010902  93.7234211   0.2199107  39.1757083  96.7664146
  -0.1951665  38.7882233  95.9958363   1.0556346  39.5131898  96.4440727
 107.8650475  47.3282194   6.0860864 107.2100258  47.1567917   5.4094735
 107.8911591  48.2823658   6.1578885 100.3645420  82.2642612   7.2664682
 101.0845184  82.8742409   7.1058694 100.7943439  81.4499855   7.5281087
  73.2139254  24.7098899 103.5453415  73.1876230  25.1413703 104.3993664
  72.2953081  24.5483136 103.3302307  97.2033596  42.2241497  94.4407654
  96.8655872  41.8749809  95.2655220  97.5100994  41.4539289  93.9623356
  96.8014717  70.7147074   9.9495164  95.8512783  70.6957865   9.8354570
  97.0789337  69.8112392   9.7979108 113.3375454  51.5672588 101.8370056
 112.4249840  51.4514303 101.5723515 113.2937908  52.1373463 102.6046753
  68.8543034   0.9069984  79.4511604  68.1997299   1.5061986  79.8099375
  69.5776033   1.4743200  79.1842890 112.2224331  15.6388259  92.3184586
 111.7494106  15.3529930  93.0999851 111.5602779  16.0785902  91.7851830
  70.2432060  24.7248077  14.1624109  69.9966669  25.6452012  14.2536870
  69.4763851  24.3094420  13.7678376  62.8967714  46.8296003  93.8723087
  62.1117735  46.9966269  94.3939495  62.9036474  45.8806610  93.7470055
  80.0325298  45.5386877  84.9189568  79.1207218  45.6175852  84.6385956
  80.1116562  44.6352291  85.2251148  84.9306107  45.1215792  72.2898531
  84.6700001  44.2765617  71.9234371  84.1047668  45.5787039  72.4487209
 104.5069408  65.6407547 106.6288948 104.6602440  64.7751665 106.2500954
 103.7885475  65.5077505 107.2473240  86.9478130  29.6023941 108.0236244
  86.3901806  29.1811299 107.3695469  87.3791122  28.8762569 108.4741116
  98.7164974  44.9297142 107.4668312  99.0467072  45.5621862 106.8287277
  98.0603313  45.4147053 107.9672813 107.8302383  28.6845565 100.2203274
 108.3067322  28.2080936  99.5405006 107.2386169  29.2621684  99.7380543
  67.4374437  69.1377163  28.1139795  67.0075655  69.6239328  28.8175622
  67.1955681  68.2250023  28.2710878  97.0995140  72.3142862  90.1699638
  97.2431183  72.0522785  89.2605877  96.2463188  72.7481461  90.1623440
  76.9015455  75.1129675   7.0298711  77.5832653  75.4762268   6.4645997
  76.2984705  74.6768856   6.4279023  83.8285923  27.3211646   6.7204706
  83.6824512  26.7080617   6.0000650  83.9082241  26.7652845   7.4956456
 118.3100700  35.0181293  19.9953977 118.9732933  35.3136277  19.3716661
 118.3604336  34.0627742  19.9639074 104.1008377  54.4569540  73.8173485
 104.9217510  54.8735762  74.0795660 104.3612289  53.5907793  73.5040379
 119.5841408  55.0823450  83.1806850 120.5331516  55.2037334  83.1509304
 119.3688869  55.1051283  84.1130829  67.1698332  13.8142788  95.5186844
  66.6048622  13.9284325  94.7544861  67.1420860  14.6603000  95.9655762
  90.8748531  40.9242725  60.8657026  90.8143902  41.1573696  59.9392891
  91.4675045  41.5768671  61.2386894   2.9111701  35.6692743 106.0992432
   3.4323340  35.6649303 105.2963829   2.1352225  36.1843705 105.8783150
 108.1408882  69.3739080   7.9828492 107.8396606  68.9807081   7.1637670
 108.6144161  70.1601601   7.7111570  96.4815998  50.0358105  31.1054078
  96.1429119  50.3133965  31.9565622  95.7241631  50.0760603  30.5215398
 104.1239929  28.8399935  90.7198048 104.4168949  27.9287362  90.7266235
 104.4780731  29.2114425  91.5278149   0.2305060  44.0376425  17.8535692
   0.6605750  44.0597200  18.7084237   0.1031142  44.9585533  17.6256887
  80.8424664  26.9695377  83.5685730  81.3949871  26.8228579  82.8008175
  79.9525166  26.8013096  83.2588673 102.5149727  47.5615358  29.2838231
 103.2258701  47.3946142  28.6649648 101.9866085  46.7636538  29.2625467
 106.6860485  33.8265944  11.7363588 107.3571491  33.1442022  11.7223493
 107.1767330  34.6432257  11.8289510  67.6882410  43.2629824  84.0974808
  66.7711210  43.0346203  83.9458847  67.9329681  42.7659273  84.8780441
  70.0820303  45.3113508 109.6843910  69.7104645  46.1932182 109.7062683
  70.8245134  45.3791142 109.0840912 116.1522007  50.6582880  11.6299001
 115.7926369  50.7268000  10.7454530 116.0107136  51.5237045  12.0136682
  86.1005020  31.2580466  87.8109264  85.8777237  31.8113804  87.0623112
  85.9441090  31.8137383  88.5744476  65.6267405  28.9813113  99.4407654
  65.3254318  29.8295140  99.7663403  65.0220966  28.7691712  98.7296867
 106.7157650  22.9616189 107.9835606 106.8464184  22.1379399 108.4533596
 107.2931099  23.5838675 108.4259605  88.0507374  66.9861412  24.8685018
  88.9825535  66.7697048  24.8350469  87.7057362  66.4497328  25.5822793
  71.2210989  36.5556169  93.4017086  71.2343550  35.8823299  94.0819645
  70.8574867  37.3274255  93.8356876 114.4101334  52.9932213  19.4049207
 113.9760590  52.6251125  20.1745359 114.4690895  52.2617006  18.7904016
 121.2347221  43.1348228 105.4401875 121.3266563  44.0533257 105.6934357
 120.2916050  43.0081797 105.3366184 102.7214050  26.1271453  79.0365362
 102.1807766  26.9144797  78.9728546 102.5270081  25.6378150  78.2371616
 110.7278824  85.2560902 100.5934429 110.3670120  84.7235012 101.3022137
 110.3909969  84.8511791  99.7942066 104.4864082  25.2382517 107.1039867
 105.4304123  25.0960183 107.1736240 104.1074944  24.3607926 107.1561718
  94.9031544  32.8959513  84.0947533  95.4694366  33.3450484  84.7223473
  94.7402573  32.0392752  84.4894695 111.5132904   8.3767498   2.7238504
 111.2056541   8.9657646   3.4127942 111.0846043   7.5421250   2.9132119
  89.3995380  16.1741149 104.1863537  89.9753857  16.1674249 104.9509335
  89.6318817  15.3803074 103.7045670 108.5225582  63.6347485  85.2574635
 109.1925430  62.9595184  85.3642750 107.7794552  63.1751156  84.8666000
 119.2169857  48.4260511  47.5822679 118.4661102  48.2049370  48.1331960
 119.9665165  48.3994722  48.1770269  96.5172005  43.8855553  89.2100334
  96.1194992  43.8577080  88.3398056  96.0649872  44.6009064  89.6572495
  98.2129383  28.8041306  64.8770046  98.9074707  29.2258215  65.3829956
  97.5757504  28.5223365  65.5333757 116.6279697  26.8496847  85.9827995
 115.7092571  26.9885945  86.2127876 116.6022110  26.5097642  85.0883579
  88.7741566  52.0792198   0.3743116  88.5670853  52.7975082   0.9721509
  88.0042744  52.0077467  -0.1899584 108.6810112  32.6478887  26.3784543
 108.5227966  32.7010131  27.3209993 108.5856915  33.5484719  26.0684625
   8.8198214  21.2402987  76.6377687   9.3545275  21.3005257  77.4294090
   8.3212214  22.0572495  76.6227865  79.8788023  34.2475152   4.0171949
  79.6997929  34.9875045   4.5973722  80.8125305  34.3189645   3.8190118
  62.6484060  33.1120014  25.1185457  62.1079206  33.8468313  25.4086152
  62.3588133  32.3748279  25.6560842  88.1665993  47.7039099 107.2707462
  88.8852596  48.2346678 107.6143456  87.6526737  48.3119011 106.7392731
  96.1465740  26.0251570 107.1611118  95.7841778  26.1701441 106.2871170
  95.7242107  25.2218390 107.4652958  75.2516890  49.3533516  91.7082596
  75.1301384  50.2006626  91.2798691  74.6448898  49.3699121  92.4483585
 108.6037064  84.1513443  72.4374008 109.0579510  84.9921227  72.4919224
 109.0271759  83.6971188  71.7089844 116.6677094  70.7960987  78.3173800
 117.1406937  70.3412247  77.6205206 116.0731697  70.1359701  78.6737299
 119.4260883  40.8025074  83.1633568 118.9667892  41.4546680  82.6342392
 118.9837170  39.9774671  82.9637432  65.4715633  30.6780529   3.6127130
  65.6816673  30.5878353   2.6832238  66.2987280  30.9326553   4.0216199
 102.2883129  41.7187119  12.7247468 103.0660915  41.7469072  12.1675245
 101.8430805  42.5492382  12.5567380 120.5242634  57.1675253  99.2523098
 120.8961391  57.8145552  98.6529064 121.1605549  57.1076441  99.9649048
  85.2341270  75.3601789 102.2494507  84.6118355  74.9320173 101.6615105
  84.9872494  75.0554371 103.1226158  22.0714503  43.0923319 100.8980560
  23.0281573  43.1227970 100.8950901  21.8613463  42.1873617 101.1285210
  84.4610786  75.5273247 105.1910782  84.9149990  74.6846676 105.2013969
  85.1528168  76.1737490 105.3320122  94.4835186  67.7975130 103.5412979
  93.5912991  68.0438948 103.2974434  94.3724823  67.1822739 104.2661285
  68.8710022  90.9107208  93.2995224  69.6026707  90.4175377  92.9284954
  69.2570448  91.7430496  93.5723495 101.5568638  63.3954716 106.6360664
 101.6693020  62.5972128 107.1521759 102.4054337  63.5292244 106.2138557
 101.1421585  31.5643191 106.5281200 101.8996334  31.3572502 107.0754623
 101.4992142  32.0946980 105.8157730 120.8035469  54.5032358 100.0234413
 120.9214878  54.6940994 100.9539795 120.5249119  55.3356075  99.6416569
 112.6438141  27.5142241 107.5117970 112.1297169  27.3953915 106.7131615
 113.2693100  28.2050896 107.2934151 119.1593552  23.0993390  91.4841557
 118.7147999  23.8230562  91.0427570 120.0893974  23.2517505  91.3167572
 113.5768890  83.8968945   8.8778440 113.9711761  84.7681808   8.8375799
 114.2346668  83.3182716   8.4921590 103.8789082  18.6999726  17.5569383
 103.2623482  19.0119374  18.2193319 104.1260052  17.8240144  17.8533689
  92.3925209  56.8035603 103.7670994  92.1422291  57.6839828 104.0471745
  93.3373928  56.7646646 103.9151859 104.0911388  16.0620487  17.9768697
 104.1655254  15.3188205  17.3782865 104.7633743  15.9039640  18.6397020
  69.4795227  16.7811584  77.4286842  69.1863346  15.8941424  77.2201729
  68.6755562  17.3001885  77.4506712 123.9863110  30.4726410 101.4655876
 123.1521034  30.8746719 101.7078876 124.5801353  31.2122297 101.3366985
  86.8728256  19.1438401  89.5350266  86.4431667  18.9472854  90.3674889
  86.1604595  19.4147158  88.9558983 103.5475159  65.0183392  16.0421315
 103.5674381  64.8794842  15.0952665 103.8452625  65.9206200  16.1582033
 123.3078575  43.0967093 100.1071072 124.0826607  42.8537655  99.6002674
 123.4092712  42.6314688 100.9374714 104.8492241  47.0565367  96.6242695
 103.9180660  47.2323608  96.7594147 104.9746037  46.1655664  96.9508934
 109.9885559  58.8213444  90.4967213 109.7350121  57.8984118  90.4847813
 110.5099201  58.9368010  89.7023106  16.6262656  35.5717230   2.2254602
  17.0193320  35.9974957   2.9873411  16.7594748  34.6362877   2.3786012
 113.2691479  52.9987764  56.4748144 114.1673279  52.6983118  56.3361168
 112.7248287  52.2586632  56.2061596 101.3736248  56.6978312  99.5137787
 100.5137539  56.2940502  99.6313095 101.6809845  56.8701172 100.4037666
  15.5896216  50.6418562   9.9770871  15.0352984  50.3138781  10.6851713
  15.3259497  50.1323175   9.2108766  54.2326832  40.8976889  86.4918137
  54.9605703  41.5058994  86.3633919  54.5278502  40.3152800  87.1917439
   9.7020465  39.7318029  79.8112726  10.5388003  40.1524782  80.0090408
   9.0448504  40.3952885  80.0212955  66.4314699  38.6755872  26.8235055
  66.7784929  39.4693542  26.4163915  65.4825735  38.7493205  26.7215673
 116.8502045  39.9733615   2.2925607 116.2902737  39.4139886   1.7542211
 117.4837780  40.3416395   1.6767923 107.1952724  29.4774079   6.8365899
 107.3622894  30.0523376   6.0897390 108.0402565  29.0644550   7.0146314
 103.3253002   8.6115456  55.3152180 103.5676670   7.6956290  55.4515505
 104.0645885   8.9862019  54.8363447  86.4227009  45.1383686  96.3584328
  85.6004620  45.2747440  95.8877468  87.0153046  45.8002186  96.0020542
  87.4706936  44.8779058  29.0096704  86.7932320  44.6866035  28.3610669
  87.0958710  44.5861197  29.8406926  96.6262150  38.1437969  76.1592197
  95.9045029  37.5964189  76.4686251  96.2209415  38.9901018  75.9701347
  77.4273539  71.8943119  31.7269079  77.9614305  71.7364740  30.9483949
  77.2852850  71.0244656  32.1002904  75.2407169  26.5796638   4.1034452
  74.9109077  27.1295023   4.8141710  74.4534111  26.2321377   3.6843816
  77.4303198  58.8900280 107.0140362  76.4967632  58.9482117 107.2172928
  77.4660301  58.4071589 106.1883259  92.0898914  67.7569914  93.7718582
  92.8835106  68.1996059  93.4710407  91.3733101  68.2934666  93.4328365
  99.2970276  59.2314386   6.0001603  98.8851261  58.6480427   5.3628103
  98.7812138  60.0365686   5.9562532   4.3641596  35.5620670  67.3288107
   4.0119963  35.9981132  68.1047440   3.7938052  35.8464861  66.6146469
  90.2543831  46.4589500  93.2746792  90.9160423  47.1381378  93.4055996
  90.5630207  45.9674597  92.5134850 117.1657562  95.8142090  93.0621529
 117.1510220  95.4364395  92.1827793 118.0960369  95.8945560  93.2727528
   0.9408217  44.0653419 105.0501823   1.5907031  43.7856627 104.4054508
   0.1560908  43.5620594 104.8330975 117.7130413  21.7302775 106.4194870
 118.1683445  21.5023732 107.2300339 117.9934597  22.6258492 106.2309361
  87.9812908  55.0584555  94.8301029  87.4138165  55.8188391  94.7035027
  88.4595966  54.9765348  94.0050411  91.6178131  58.7097549  77.5116968
  90.9342861  59.2552662  77.9008627  92.3083973  58.6823559  78.1739378
  78.0551910  90.3283501   8.9648954  78.1817102  91.1196995   9.4883386
  77.1053553  90.2483082   8.8775197   1.5274458  35.4285574  15.2491990
   0.6474715  35.3219509  15.6104699   1.6471797  34.6671748  14.6815816
  59.6069050  19.6744084  87.9907322  59.0900707  18.9000797  87.7681732
  59.8828840  19.5263064  88.8952351  11.0311442  38.9141655  13.6895124
  10.5884200  39.1917467  14.4914953  11.1499243  39.7218084  13.1896821
  91.2523079  38.8111401 104.8551750  90.8951092  39.4801092 104.2711163
  91.0073280  37.9809093 104.4466019  84.6174049  43.3023643 105.5357742
  85.2247334  43.9345598 105.9201145  85.0795174  42.9613256 104.7700214
 100.2763081  51.7864466  85.6167698 101.0518456  51.7573261  86.1770630
  99.9374676  50.8913279  85.6300735 121.0651875   4.4123247  98.1974983
 121.1058998   4.3584457  99.1523170 120.3381920   5.0097752  98.0221081
  66.1617899  51.5574217  87.5176525  66.8176985  51.0721731  87.0171070
  65.8294535  52.2130871  86.9045639   6.0042697  36.9741917  64.9941015
   5.9042388  37.4114799  65.8396769   6.6823226  36.3153791  65.1438856
  83.5271835   1.3670179  60.9757233  83.2466888   2.2609809  60.7798100
  82.8022671   0.9928368  61.4764357  63.8318348  80.2473927  76.1172724
  62.9567766  80.0875568  76.4707708  64.4180250  79.7687626  76.7033863
 104.2348576  65.6522655  85.2369022 103.9757824  65.9260035  84.3570328
 105.1809788  65.5197287  85.1776600  13.6866217  53.9707613  98.8577271
  14.1080599  53.1680155  98.5507870  14.2845755  54.6706295  98.5953045
  79.1670370  58.0438471  88.5511780  79.3782949  58.5649967  87.7765751
  80.0163460  57.7519751  88.8824081  99.9842834  50.3809309 104.1972256
 100.7718754  49.8652887 104.3705463  99.6004295  49.9775457 103.4186649
  98.5827255  31.1011505  72.1608734  97.8869057  31.7548180  72.0917320
  98.5038471  30.5818129  71.3606882  72.3575497  76.9123077  74.8481464
  72.6248741  77.5716925  75.4884434  71.6468287  76.4359760  75.2773476
 122.9990387  72.7218437 100.6450748 123.0874825  72.1563053 101.4122677
 122.1999264  73.2230091 100.8078003  24.3892985  30.2362132  69.9359703
  23.6415701  29.7727442  70.3132391  24.0803176  31.1346769  69.8196602
 110.0612450  54.0515089  80.4667377 110.0941086  55.0078678  80.4897022
 110.0159740  53.8357067  79.5352840  97.1213341  30.6376505 101.6110516
  96.1901665  30.5344772 101.8073082  97.4996567  30.9832120 102.4195576
 100.7420254   5.0211662  76.6734600 101.1457157   4.1607571  76.7873192
 101.4774609   5.6105196  76.5060377  89.5387745  28.3690023  60.5910301
  89.1499901  27.6927257  60.0363016  89.9601650  28.9698339  59.9764919
  92.6738167  68.3839798  77.9750776  93.1153107  68.6419344  78.7842607
  93.3791161  68.3015490  77.3332167  88.9513969  54.1406202  53.4679031
  89.5103455  54.8356915  53.8153028  88.6212158  53.6883068  54.2441940
 112.8359985  31.3211989  98.4483910 112.4592590  30.4418826  98.4816265
 113.0736256  31.4453769  97.5295067   9.0640765  62.1766376  97.8405094
   9.5541030  62.3521328  98.6438179   8.8583403  61.2428474  97.8846169
  78.6816120  54.5728159  89.2070293  77.7687883  54.3557072  89.0177059
  78.7557125  54.4882917  90.1576138  92.0424271  48.0685568  16.5875188
  92.8574657  48.4543943  16.2664739  92.2119141  47.8852463  17.5115911
   0.3976470  32.1368670  97.8765965  -0.3886766  32.6740670  97.7798843
   0.6895285  31.9758010  96.9793224 106.4679146  55.9772873  49.7517920
 105.8531189  55.8409882  50.4726744 105.9484196  55.8262157  48.9621496
  81.3530540  22.8186131  94.6178055  81.7614460  23.1942654  93.8378525
  81.9440651  23.0520749  95.3336430  69.2147255  77.4577332  24.0790025
  68.9264011  76.5572786  24.2282811  69.7930431  77.4010611  23.3183709
 118.5459995  41.2908363  63.8125277 118.7199020  41.8329477  63.0430460
 117.7186203  40.8521557  63.6144304  94.5250797  57.2103405  16.8996469
  94.9635983  56.5174055  17.3933832  95.0811768  57.9798651  17.0214025
  66.8865108  19.2474484  66.3990021  66.4654779  18.4092999  66.2080240
  66.1794233  19.8004508  66.7313385 101.0961819  59.3863344  86.8160534
 101.4285183  60.0680494  87.4000454 100.5272198  59.8522806  86.2033463
 114.1171837  52.9146051  70.7665825 113.2334423  52.8202534  70.4111671
 114.6898079  52.5787878  70.0769711   6.2444716  75.8965921  72.4741936
   6.3117247  75.3134155  71.7181396   5.8421355  75.3589725  73.1563330
 119.6000671  47.7390003   0.3127996 119.4799900  48.2625437   1.1050836
 118.9023018  48.0297136  -0.2744254  73.5877371  49.3773222 108.0630970
  72.9981565  49.2808819 107.3152161  73.7531805  48.4808016 108.3548260
   6.7574149  56.5888357  94.0701389   7.0841151  57.4811935  93.9552784
   6.2284499  56.6281366  94.8669338  16.5533572  33.5070825  75.2381468
  15.8069735  34.1062975  75.2472448  16.9678431  33.6536789  74.3878841
 121.3045692  60.5119228  79.1189575 122.0626640  60.2503681  79.6415615
 120.5541134  60.1413584  79.5834255 103.6541939  43.0803347  61.0828638
 102.7259636  43.2146645  60.8916378 104.0928555  43.8286877  60.6781626
  63.0193281  34.5143366  94.0084934  63.4791136  34.0269828  93.3248901
  63.7067747  35.0113750  94.4518852  85.8588505  61.7679405  18.6184255
  85.6910896  60.9393120  19.0672723  86.3520050  62.2883177  19.2526475
 105.1967621  69.8787737  76.4620256 104.6914768  69.2087889  76.0015488
 104.8240662  70.7079649  76.1624098  81.8694782  17.9575908  37.3761201
  81.2667561  18.2231653  38.0706906  82.7283478  18.2528710  37.6784325
  96.1983395  54.7071075  68.0321312  97.0535946  54.2803144  68.0833054
  95.6897068  54.3097925  68.7389994 103.0399227  62.1219587  97.1457577
 103.5280514  61.3024378  97.0660400 103.7017918  62.7733612  97.3778057
 106.7543411  40.4722357 100.3806973 106.5493870  41.2650394  99.8850250
 105.9088612  40.1743078 100.7162952  92.4142075  39.6152997  73.5398960
  92.9251671  40.3541565  73.8704252  91.6254139  40.0146103  73.1730461
   4.3636256  48.7411356  85.7648563   5.1902133  49.2152071  85.6740665
   3.8681346  49.2451000  86.4104080  91.1152554  43.7191725  73.6756277
  91.0509014  43.2815647  72.8267527  91.0155773  43.0149937  74.3162775
 107.3763943  66.0801888  98.6919403 106.9261742  66.0109377  99.5338154
 107.0003986  66.8595028  98.2826519  93.9539719  75.3654051   5.9800283
  93.1218243  75.6704712   5.6185285  94.5505238  76.1051178   5.8652440
  84.6502495  47.4813604  82.6685810  83.7490940  47.7965736  82.5994015
  84.7135162  47.1297693  83.5566139 116.3094044  62.7645731 101.6889381
 116.2076950  62.6612186 102.6350975 115.4874039  63.1621313 101.4017010
  26.0563689  49.2677879  67.9862356  25.6703311  49.8091364  68.6748219
  26.2009459  48.4180117  68.4024143  87.0093250  45.2349377  66.9600296
  87.2672653  46.0963488  67.2881508  87.7708626  44.9282169  66.4678860
 106.2868404  57.6476526  89.1453838 106.2737465  57.5814056  90.1002026
 105.7036304  56.9489813  88.8488007 117.8216934  21.3380313  60.5430174
 117.1639824  21.5498781  59.8806238 118.0593967  20.4286075  60.3622484
  94.2701912  46.0881662  94.0452576  94.6483707  45.3612852  94.5400906
  93.9373684  45.6846666  93.2436085 123.5504818  16.6149843 107.9790497
 123.7969303  17.4569678 108.3618832 122.8014565  16.8168890 107.4183178
  75.3953695  24.4754601  30.3185225  75.4549503  23.5570359  30.5815482
  74.9610186  24.4527125  29.4658470  99.2647266  59.2415285  80.4531765
  99.1449261  58.8121700  81.3002396  98.3783722  59.3329811  80.1035213
 112.4667835  34.6353936  76.6272926 113.3643436  34.5294666  76.9425535
 112.2817135  33.8240242  76.1543608 101.6176224  62.5882721  78.8807249
 101.5700912  63.1922054  79.6218348 101.7304802  61.7261982  79.2811251
 109.0147877  32.8550243  53.7601423 109.1622639  33.2465911  52.8992367
 109.5343399  32.0511651  53.7498236 122.0633030  25.9856534  69.5831251
 122.2307396  26.8114352  69.1289473 121.1147976  25.8696628  69.5273304
  78.4367895   8.9327383  77.5917721  77.5828838   9.1490442  77.2172165
  78.4249258   9.3321627  78.4615707  79.0292740  67.4419260  74.5850468
  79.4203997  68.1021309  74.0128708  78.1803274  67.8099871  74.8300982
 107.4112797  60.7629395 108.1209946 108.1288147  60.1299429 108.1473160
 106.9291878  60.6124592 108.9341164  98.7723541  59.4059610  88.1422997
  99.3265629  59.2143154  88.8988495  99.3767262  59.4203377  87.4001694
  90.7824993  29.6715665 105.1199627  90.3904915  29.9580669 105.9448719
  90.1022816  29.1432858 104.7022724  86.2191296  45.3328276  60.7284784
  85.2665329  45.3378153  60.6348324  86.4618778  44.4095945  60.6581831
  74.5615482  26.1347008  71.5321112  74.4622087  25.2183580  71.2738895
  74.3183327  26.6314149  70.7508612  53.5291243  50.3871250  74.5716906
  54.4827414  50.3434038  74.6418953  53.3316994  49.9744940  73.7308645
 101.8358040  32.7506876  59.1851711 102.1570683  33.4724903  58.6447763
 101.1883736  33.1541061  59.7633648 100.6213856   4.2718101  73.8402939
  99.9059010   3.6375964  73.8860703 101.3503933   3.8432413  74.2887306
 102.6386929  24.7908425 103.9945602 102.3757744  24.7612047 103.0746555
 102.9268456  23.8992476 104.1901493  96.9746494  61.5235424  73.5347986
  96.4332294  62.0947218  74.0796423  97.7581978  61.3632154  74.0607119
 100.1126003  11.9403303  83.2374763  99.6942902  12.7996027  83.1836224
 100.8023453  11.9677460  82.5743484  71.8750095  38.1882000   2.6525155
  72.1259785  37.3625040   2.2384206  72.7054214  38.5909462   2.9063741
  93.7500858  45.0499535  73.0009937  93.0249691  45.3669024  73.5394907
  93.4162426  44.2488718  72.5972080 104.7791481  62.8996372  85.3384399
 104.3735790  63.7652445  85.3880978 104.0503788  62.2874784  85.4403687
  16.8841773  44.1179466  79.7466850  16.6541510  43.3916283  80.3261471
  16.3242179  44.8394823  80.0331688 116.3187122  55.3167534  68.6270428
 115.4306412  55.4142666  68.2834578 116.8047523  54.8951340  67.9183578
  13.6186343  59.4136000  24.6625844  13.2441454  58.7012959  25.1808587
  14.5616942  59.2503262  24.6772615 122.5951767  77.0141745 101.2515831
 122.5160217  76.8449306 100.3127956 122.6592731  77.9668713 101.3186359
  69.0959024  40.8302927 107.3489857  68.3403015  40.9165716 106.7677402
  69.2986774  41.7277288 107.6130295  69.5285654  90.7705402  27.3564950
  70.0440645  90.9464741  28.1436006  69.3916798  89.8232269  27.3666231
  79.6835184  11.5494776 103.0667686  80.5964756  11.5736735 102.7801418
  79.6880579  11.9871926 103.9180183 115.5154705  15.5410767   0.0386087
 114.7290134  15.6978989  -0.4839953 115.1968861  15.4832041   0.9393731
 109.3238640  24.1403866  67.9873419 108.5408401  23.6242580  68.1789351
 108.9892483  25.0080299  67.7604961  87.6708794  38.5811806  65.9962606
  88.5926914  38.4103942  65.8030510  87.6879501  39.1238284  66.7845964
 106.3945580  84.8479557 105.9681034 106.7345428  85.5785465 106.4847088
 105.8769703  85.2629471 105.2780819 109.9410820  44.9817133 103.7453079
 110.4591560  45.4435205 104.4045162 110.4162884  44.1641903 103.5967636
 122.8059196  62.5901890  81.5177727 122.5673008  62.1047115  82.3074627
 121.9892979  63.0002737  81.2328148   5.7919245  62.3271465  79.0638256
   5.9200793  62.7947330  78.2384968   6.6745978  62.0772791  79.3371058
 101.8290520  78.3296490  97.6900578 101.0090733  78.6019373  98.1020451
 101.9465256  77.4211931  97.9677868  97.5684834  42.7067804  60.2790785
  97.7456665  43.0574799  59.4062376  97.2675514  41.8119478  60.1211119
  85.5664539   5.1133221  63.4975863  86.0334587   5.2441317  64.3228292
  85.7352734   4.1992438  63.2691288 113.8203526  81.9503403  83.2381630
 114.2485905  81.8765450  82.3852921 112.9511833  81.5727520  83.1032181
 117.4975872  19.5940042  94.4860363 117.4827385  20.5066586  94.7742653
 116.7382526  19.1960037  94.9117756 110.0691986  77.1580410 108.7367344
 110.7529449  77.7403593 108.4056473 109.9003220  77.4684286 109.6263313
  97.6777649  52.4456167   8.4180394  98.4409714  51.9592857   8.1062261
  97.7408123  53.2954550   7.9821149 121.1787987  44.0325403  83.9074516
 120.3044701  43.6911106  83.7198448 121.5170479  44.3063021  83.0548859
   1.7351847  27.8881693  22.2174970   1.9382029  28.5958982  22.8291646
   1.2031966  27.2767091  22.7267495  95.2455902  46.4159727  44.6435547
  94.4527340  46.9346333  44.7799349  95.4267406  46.4970922  43.7071609
 104.3755627  52.9637432  88.5873318 104.9840450  53.1739855  87.8789711
 104.9129200  52.5131559  89.2388344   9.4842177  37.8334308  77.9398394
   8.7889987  38.2562470  77.4357319   9.8386889  38.5311532  78.4909868
  64.1928577  88.9557266  77.1992207  63.5263252  89.0555763  77.8789234
  64.9778318  88.6795425  77.6722622  85.5024052  45.3622198  55.6329489
  85.9134007  44.8136234  54.9648523  84.6111870  45.5021334  55.3129530
  25.6512290  57.0507669  56.7569256  25.9295302  56.9995213  55.8425093
  26.0814696  56.3078356  57.1802187  76.7900324  35.4185581  26.6196251
  76.6647530  35.9776998  25.8528829  77.7342558  35.2648926  26.6522908
  16.3308268  35.3440142  92.7989769  17.2122794  35.0658083  92.5502205
  16.4715796  36.0445976  93.4358501 118.3145046  76.6222668  88.3771133
 118.3158398  75.7354069  88.7372780 117.9444408  76.5239525  87.4998379
  13.8116770  40.1102638  78.5048437  14.4691401  39.7088885  79.0730524
  13.1718379  40.4878235  79.1084099 108.7099743  71.0431147  66.0207748
 109.2527390  71.2868404  66.7706013 107.8265381  70.9632349  66.3804674
 107.7950764  36.2926698  94.0120220 107.8417015  36.9245720  93.2945538
 108.7055206  36.0440373  94.1717434  78.4131861  20.9718561  77.8899670
  77.7458477  21.2889767  78.4985113  77.9173326  20.6506753  77.1368408
 101.4449024  46.9872713  84.6994305 101.6713333  46.2051725  85.2027035
 101.8090725  47.7124882  85.2070427  75.9405947  66.3725138  99.1979027
  75.9787846  65.6007767  98.6329269  75.2225399  66.8952847  98.8410664
  76.2648964  55.1272869  64.9675465  76.9521856  55.7442617  64.7161484
  75.4567671  55.5228090  64.6408606  68.2633400 144.7967129  29.4408751
  68.6090279 144.4264779  28.6286831  68.9730930 145.3450263  29.7752929
 108.3482361  25.3605604  91.7614651 109.0678406  24.9835467  91.2552452
 108.7300873  26.1297059  92.1843433  88.8065434  50.2458096 101.3908005
  88.9641666  50.2271891 102.3347473  89.6790409  50.1897192 101.0011292
  81.6623306  89.2042446  75.7188988  81.6217613  90.1596451  75.7612801
  81.1687565  88.9093685  76.4841890   9.9025374  78.5535479  70.2419138
  10.3525382  78.8823891  71.0201168   9.0797549  78.1949949  70.5746031
  95.2660179  30.4158020  67.8387976  95.8261871  31.1883140  67.9140711
  95.8384800  29.7391319  67.4773693 117.7205372  83.5869122  92.8833580
 117.1572399  84.0385437  92.2548962 118.4783363  84.1631317  92.9830170
  95.4263306  47.9392576  80.0083447  96.1454391  47.5114107  79.5435190
  94.6347618  47.5688505  79.6178961 105.7149124  58.7088537  74.6819878
 106.3116550  59.4529104  74.7626972 105.2950001  58.6444569  75.5397511
  80.7655525  30.0740361  73.5092258  80.3082752  29.3624544  73.0611372
  81.5156555  30.2681184  72.9471684  89.4992733 143.7402965  95.2857208
  88.8872910 143.2767675  94.7140217  89.7911930 144.4896882  94.7666550
  90.1058006  63.2719135  91.0853958  90.9860325  63.3696699  91.4485359
  89.8859310  62.3523283  91.2345695 105.8906555  65.7320595  70.7847309
 106.4360714  66.3224363  71.3045454 106.5154839  65.2048445  70.2868748
   7.3943167  78.1390095  11.5186826   6.7395812  78.5122728  12.1087877
   7.1683627  77.2103024  11.4669172 104.0840340  38.5111237  83.5368919
 104.9084377  38.9750028  83.6831760 103.4078407  39.1363263  83.7978745
 105.3639698  15.3442979  68.8867426 106.2893009  15.5748510  68.9694834
 105.0256062  15.9459329  68.2235861  99.0996552  49.2455292  85.0672626
  98.5539722  48.4595251  85.0415707  99.9866295  48.9166594  85.2134037
 101.2901115  22.5025940  53.9716625 100.5588341  21.9416952  54.2302370
 100.8751106  23.2843781  53.6072159  69.9519539  81.2889576  62.6564741
  69.6511602  82.0681381  62.1888924  70.6987000  80.9764576  62.1456480
 120.1245689  32.1942306  84.6503162 120.0658417  32.9390526  85.2486610
 119.5027542  32.3985004  83.9518547  64.0829849  21.7593956  95.9549046
  63.7035179  21.6355443  96.8249035  65.0240707  21.8349767  96.1126137
  93.2575130  40.6022310  86.8715191  92.9623222  39.6916986  86.8664742
  92.8702736  40.9839201  86.0837364  78.1389523  54.6631908  86.2129974
  77.7565241  55.1203442  86.9619942  78.2754898  53.7679482  86.5230370
 120.8324242  45.6899405  96.2813950 120.1516342  46.1392593  96.7822647
 121.6506672  45.9431219  96.7087173 100.9707928  39.4088626  73.3720493
 101.7815685  38.9056325  73.4470606 100.4567814  39.1503143  74.1370153
  72.4904013  70.4473495  84.5230579  72.1731710  71.2935638  84.8385239
  72.6681662  69.9463177  85.3190422  95.2849388  63.7354088 104.2400646
  94.6286392  64.4107962 104.4113731  96.1002541  64.2205000 104.1128349
 109.7309875  31.4658403  31.3117027 110.4171371  30.7997680  31.3539219
 110.1156139  32.1734738  30.7944512  89.8744965  59.6413612 108.9730930
  90.0417995  59.0271902 108.2582283  88.9294147  59.7904587 108.9445210
  85.0355244  19.9134731  77.3064756  84.8980045  20.6687260  77.8782415
  85.9578037  19.6870673  77.4263859 103.2385445  29.6266556  19.3094993
 102.7288437  29.7569799  20.1091552 102.7715015  30.1305079  18.6429882
  67.7293253  71.4242601  73.3019543  68.3075523  71.0048914  73.9391470
  66.8462420  71.2369251  73.6202288  93.0292606  58.9674950  71.5265751
  92.8511906  59.8893309  71.3401794  92.4758816  58.4873438  70.9105730
  77.7260494  35.0145531 108.8792515  78.2403517  35.2798271 109.6417236
  76.8164492  35.1487565 109.1454315 104.2632484 102.1592522  51.9305086
 104.2432117 101.2185860  52.1065235 103.4140587 102.3461723  51.5302992
  72.5181961  23.7290549   5.3986684  73.4718847  23.6473775   5.4049245
  72.2006798  22.8411508   5.5631200  75.2995539  36.9580412  79.0929842
  74.9482441  37.4813724  79.8133564  74.6330070  36.2893677  78.9354420
  87.7909279  33.2223701  82.2348404  87.0857525  32.6382017  82.5135994
  87.4333668  34.1024828  82.3522472 105.7296562  42.7801561 106.9049549
 105.3043556  42.4579048 107.6996326 106.1940765  42.0191860 106.5564346
 103.8239670  27.1040654  65.9315777 104.5741940  26.5724969  65.6654406
 103.5828590  26.7637205  66.7931271  86.2088108  45.9076452  80.6107330
  85.8632278  46.4286757  81.3355255  86.2923431  45.0241137  80.9693909
   5.2565318  58.5639000  76.1412621   5.3195887  59.2286444  76.8271017
   5.6218272  57.7737236  76.5392733 103.3661842  29.9504328  88.4228420
 103.6851501  29.6744227  89.2820930 102.4961758  30.3106856  88.5947037
   4.6336012  46.7219973  10.1005498   4.3944197  46.8174791  11.0224572
   4.6889430  45.7761812   9.9641839 106.4555931  44.8486471  82.8359699
 105.9496880  44.6272039  83.6178017 105.8428097  44.7247601  82.1111298
 100.0306797  26.7290330  97.5205612 100.1446629  26.1834431  96.7423725
  99.6714497  27.5509095  97.1863365 112.0297050  31.8054795  72.3206472
 112.7308750  31.6967130  71.6781807 111.4870644  31.0237193  72.2176170
  94.9236393  63.5378933  81.5802956  95.7310295  63.0459023  81.7296124
  94.4566536  63.4906912  82.4145126 117.3972321   9.9378735  84.3512154
 116.8732929  10.2233803  83.6027431 118.2840538   9.8478925  84.0024090
 118.0102348 130.9381027  88.9210510 117.1119976 130.8813853  89.2469025
 118.2292175 131.8678589  88.9829540 121.9715500  60.9782791 109.0579891
 121.1194324  60.7942152 109.4532776 122.1936989  61.8569136 109.3660069
 101.3820362  57.7942324  78.5526848 101.0518837  58.0892324  77.7040386
 101.5267467  58.6010456  79.0469933 108.7261295  51.7221451  97.7031326
 108.3468246  52.5857449  97.8660774 108.7721729  51.6568804  96.7492676
  94.5918369  22.7563763  84.9653912  94.9810600  21.8873858  85.0633240
  94.6594143  22.9449892  84.0293980  91.0104942  38.1559467  37.2687507
  91.6276169  38.1738496  36.5372729  90.3885365  37.4650645  37.0405340
  86.1319351  31.6827869  28.8964883  85.9309769  32.5818515  28.6366216
  86.8665123  31.4303112  28.3371297  87.4022484  40.5729055  97.8410816
  87.0114899  41.1182404  98.5238361  87.0990658  39.6869206  98.0394363
  81.5809059  14.2919087  72.9613924  82.4752522  14.5067155  73.2263803
  81.1786366  13.9270759  73.7496281  13.2609969   8.4854323  68.0850029
  13.5067492   8.7280416  68.9777422  13.6271220   7.6091242  67.9655552
   6.6329699  17.5600445  82.9246902   6.3204699  18.3546019  83.3574200
   7.0600730  17.8736341  82.1275234 123.4979820  19.9782300  80.6395149
 123.4476471  19.0452909  80.8476543 122.5893211  20.2397895  80.4906845
 113.0594540  43.2194185  56.7315149 112.7166939  42.3838472  57.0486355
 113.5441208  42.9936504  55.9375620   7.6853400  72.8240347  71.5709209
   7.9599028  72.4323654  72.4000454   6.9464808  72.2867107  71.2852621
  11.7963820  55.6956482  85.6042862  10.9945613  55.9739542  86.0468483
  12.5015288  56.1011934  86.1087894  89.6049500  30.5417728  92.9214191
  88.6974525  30.6449676  92.6349926  89.5709133  30.6567144  93.8710880
 104.3060684  48.4295988  79.2341042 105.0464535  48.0866671  79.7345591
 104.0028286  49.1829252  79.7408295 111.0972118  64.1497469 103.6031628
 110.8008862  64.8511314 103.0230904 111.6777134  63.6178923 103.0587673
 123.0422115  23.3685660  10.1507226 122.9948044  24.2568254   9.7971956
 123.9684772  23.2416010  10.3559915  28.1313925  91.9217491  90.2200890
  28.2929164  91.1024952  90.6880283  27.1779948  91.9761276  90.1544571
  98.1488228  26.5464640  68.9213371  97.5075722  26.0842943  69.4611740
  98.1186390  26.0975552  68.0764723  91.9442940  65.4260921 102.5848866
  91.2296963  65.8880234 102.1464825  92.5743866  65.2430820 101.8879414
 123.2603073  56.9719696  85.3195286 122.4756432  56.6580963  85.7689857
 123.9388371  56.3377857  85.5511570 100.5991173  26.5347648  74.9149942
 100.1992798  27.3795795  75.1215219 100.3986835  26.3947725  73.9895439
   9.9043208  18.6051452  70.7639360  10.1385813  19.3101335  70.1603270
  10.4246455  17.8567767  70.4716301  73.9101648  52.7140093  88.0668259
  73.0460644  52.4964523  87.7172184  73.8453579  52.5219011  89.0023136
  95.6467915  58.1009722  84.0101337  95.2752781  58.1185055  83.1281471
  95.0907993  57.4887466  84.4920921 104.4126701  62.1516275  81.1442757
 104.3070698  63.0938101  81.0124874 103.6943436  61.9095469  81.7287827
  83.7606049  31.3962913  48.1362152  83.7698650  32.2854114  47.7818012
  84.2073917  31.4699435  48.9795351 119.7579670  24.3542719  58.8193893
 119.8878193  25.2073479  58.4051085 120.5287838  24.2379498  59.3748569
   7.3051196  22.8049541  63.3298349   6.7676001  22.9914427  62.5600767
   7.8658515  22.0776582  63.0599165  88.0242538  48.4506083  89.4012928
  88.0925179  48.2277203  90.3296757  88.2085896  49.3892336  89.3661404
  85.0615311  94.2097187  82.5698185  85.2840519  95.1293087  82.7149487
  85.9071732  93.7680054  82.4923515  82.4339676  64.9845028  91.5684128
  83.3308125  65.2852964  91.4220810  82.3497009  64.9368429  92.5207043
  89.6828747  44.6828508  52.5799179  88.7634754  44.9470186  52.6138449
  89.7863960  44.0806723  53.3167315 103.1837654  30.1517057  84.7523689
 103.6511898  29.6048307  85.3837776 102.5337887  30.6201196  85.2761555
  95.8712482  62.3949099  97.2223473  94.9803448  62.2824144  96.8908978
  95.9890652  61.6747379  97.8417873  82.0891380  35.7592106  70.9837770
  81.3191319  36.2786412  71.2150908  82.1012974  35.0497627  71.6262436
 115.2814579  42.2032881  74.5865250 115.5630302  42.0311594  73.6880159
 115.2890778  41.3442230  75.0086403  95.3311443  22.1063566  72.6934958
  94.4848537  21.8649149  72.3170233  95.5450535  21.3844800  73.2845688
  75.3434515  23.5686016  90.1554871  75.0022745  24.0229607  89.3851662
  75.3020954  22.6407051  89.9241161 111.1480141  30.7084632  56.7014885
 111.2356567  29.8036790  57.0013475 110.2050018  30.8725452  56.7076540
 102.5673866  33.1259036  74.1976595 102.4909210  32.7919459  75.0914478
 101.6708851  33.1200385  73.8622618 110.4127312  67.2488070  86.9836617
 110.5991936  67.8756762  86.2847328 109.5832825  67.5464582  87.3573589
  94.4389915  54.8905945  74.3575716  94.0527630  55.5891132  73.8292456
  94.8401642  55.3446770  75.0985909  96.7229366  45.5308914  71.7002201
  96.6294289  45.5421829  70.7476664  96.4124775  44.6638298  71.9610929
   1.8063956  38.3003974  72.0367241   1.3309317  37.6867819  72.5967598
   1.3902503  38.2137108  71.1790848 108.3438110  37.7700257  67.9746580
 108.8065243  38.2595992  67.2946262 107.5098228  38.2290244  68.0747700
  84.2285633  37.2103190  58.6922216  84.7363281  36.8468142  57.9667807
  83.5264874  36.5755248  58.8349247 116.9975185  40.2594280  42.0413113
 117.6323986  40.5349636  42.7025557 116.5107346  39.5484734  42.4582243
  88.9199829  57.5878143  89.4366646  89.8603249  57.5862122  89.2578030
  88.7063885  56.6698313  89.6037483  74.7218800  56.1810350  94.5051003
  74.2453527  55.5137348  94.9989319  74.2916489  57.0038843  94.7375870
  94.4508076  30.0400782  73.0334902  94.2251492  30.5402374  72.2491741
  95.1565456  30.5411339  73.4422684  70.2758646  33.7032032  61.9638586
  69.6634150  34.3563318  61.6253901  70.9828138  33.6808777  61.3189125
 109.0644073  65.2019167  65.9372377 108.1229019  65.1176596  65.7866240
 109.2408657  64.6240616  66.6796494  69.8874950  57.9698467  54.2623234
  69.5179129  58.8455963  54.3750381  69.2906809  57.5345469  53.6535883
   1.2327796  44.7982883  84.6750546   1.3961535  44.4928503  85.5673790
   0.4667216  45.3668976  84.7530174  58.7065125  30.1632261  74.4488001
  59.4828176  29.7238994  74.1015577  57.9785395  29.5916414  74.2047167
 107.3804665  57.3675442  42.8325224 108.2149887  57.7380514  43.1198263
 106.8853283  57.2369194  43.6412287 116.1257172  69.7000170  87.4277973
 116.4418507  69.5841026  88.3238220 116.9193745  69.7062540  86.8927288
 109.4000053  59.3535614  46.4515400 109.4692421  58.4043789  46.5540123
 109.9933624  59.7097588  47.1128130  93.4763813  61.5669918  42.0770359
  94.3920422  61.5025663  42.3484182  92.9781818  61.3027143  42.8504610
 116.8503761  50.0765944  66.3117361 116.9680309  49.1454411  66.4997244
 115.9201336  50.2372360  66.4701033 111.3957787  37.6582694  59.4041729
 112.0105743  37.3333502  58.7463903 110.9652996  36.8716002  59.7389412
  90.0423241  72.4642658  82.9675579  90.4747486  71.6515732  82.7052975
  89.8144341  72.8915548  82.1418953  83.5449886  50.0185061  38.2691002
  83.8884640  50.9119368  38.2635713  82.7729988  50.0621748  38.8333344
  16.7379027  11.4913225  66.5735340  16.0200053  11.9079089  66.0967541
  16.4104682  11.4009440  67.4684381   0.2588111  71.4642191  45.1899099
   0.7875853  71.2579346  45.9606695   0.0225955  70.6109285  44.8261356
 100.1163483  54.2439270  58.8757896 100.5973911  54.0166521  58.0800724
  99.2963791  53.7547588  58.8079262   4.7929793  42.2707844  73.6503839
   4.8028021  42.7897024  72.8461123   5.4107409  41.5588808  73.4836578
  89.8786831  65.5014467  72.5082970  89.6086693  64.5996284  72.6816368
  90.6200123  65.6466961  73.0961561  89.6539307  32.5120163  38.9903784
  90.4981899  32.9575205  39.0609264  89.0224266  33.2168794  38.8468194
   7.2720175  23.6557937  76.3724327   7.4552184  24.2449164  77.1042824
   6.3544303  23.4088373  76.4876652 110.8193111  24.2655396  80.1621532
 110.9069824  24.4072247  79.2195654 110.3761864  23.4204054  80.2371216
  80.4545593  58.9167213  80.0895119  80.0516796  59.7237873  80.4097748
  79.7147131  58.3543491  79.8601580 113.1488800  64.3350315  50.3331089
 114.0258980  64.0003729  50.5203915 113.2997608  65.1904011  49.9308586
  99.7671700  59.8081732  53.7483931 100.1434708  59.0223455  54.1447639
  99.6864510  60.4272413  54.4739723 123.8156891  55.2721548  58.0913496
 124.3289375  54.5483255  58.4503508 124.3150520  55.5648565  57.3289871
  76.5596485  64.9039268  82.9415035  77.1683359  64.7593784  82.2170448
  76.8990374  65.6793833  83.3883953  90.6646252  29.7426343  45.9971571
  90.6529331  28.8985658  46.4484262  90.2291203  30.3435111  46.6017389
 107.7619839  42.4661732  61.1948299 107.5715637  43.2545805  61.7031479
 107.7244091  42.7543259  60.2828074  86.7427349  38.0412197  50.7598734
  86.3631248  37.1626592  50.7757187  86.1476231  38.5689211  51.2924099
 104.7253227  25.1936412  54.9925756 104.3699360  25.9492731  54.5246506
 104.6088886  24.4609380  54.3877459  77.9556990  50.9022379  68.3579683
  77.1300840  50.8585548  67.8755951  78.2197332  51.8203592  68.2981920
  86.3218307  54.9648952  67.3891306  85.4587650  55.1039839  67.7790213
  86.8672180  55.6580114  67.7611256 120.9173489  50.3716183  68.4599543
 120.2614307  50.5571651  67.7879715 121.0949612  49.4354200  68.3692551
  80.5272865  77.9759455  91.7310619  81.1797905  77.3036289  91.9271755
  79.7122812  77.6328659  92.0975208 105.8538246  38.5840821  68.8596058
 105.2073574  39.2886615  68.8163567 105.9209442  38.3774948  69.7918367
  74.0958500  43.2872200  67.3543501  74.8814964  43.8077641  67.1869516
  74.4264555  42.4617624  67.7086878  26.3041049  18.1299973  70.4160261
  25.6078272  18.0759406  69.7614241  26.6345053  17.2345805  70.4887581
 119.3190098  70.4655933  66.7789793 119.5265198  70.8438015  65.9245062
 120.0261974  70.7637548  67.3510075 113.1538200  66.6417980  60.5216217
 112.2943401  66.7069912  60.1053572 113.2837868  65.7031775  60.6570292
 102.0845413  64.8389912  63.8071251 101.9151402  64.8124027  62.8654099
 101.6520119  64.0571499  64.1504574   5.1405554  72.8605604  46.9777441
   5.8506995  72.4993086  47.5082493   5.4231864  73.7522030  46.7744398
 108.0348778  62.2193670  50.3700399 108.9596272  62.4640322  50.3353262
 107.9013920  61.6766071  49.5929813 124.0232086  46.7351770  86.1421776
 124.3488216  47.0218658  86.9954205 124.5520687  47.2201920  85.5086994
  81.4092159  64.3778896  70.8593273  81.8231392  63.5391283  71.0627460
  82.1197701  65.0164413  70.9193802   0.0920516  45.9900093  81.4682484
   0.1492720  46.1067438  80.5199146   0.8064871  46.5220451  81.8185997
  20.1316672  82.5165367  24.9418068  20.2112036  81.6045284  25.2213717
  19.7065955  82.9565144  25.6779885  69.7594690  21.1348033  56.6542149
  70.2815580  20.6375647  56.0246038  68.8976908  20.7187581  56.6323090
  98.2264042  41.8497229  50.7420063  98.5094452  40.9828281  50.4511166
  99.0382862  42.3030949  50.9690094 104.5345879  71.7819452  56.3245964
 104.5244026  70.9131145  55.9230232 104.8309612  72.3652649  55.6259298
  96.2710571  73.0187893  70.3360081  96.1610794  72.7151537  71.2370872
  95.3999138  72.9373026  69.9477959  97.9612732  26.0705709  48.3414793
  97.4769783  26.0010266  49.1641903  97.5194836  25.4601908  47.7511501
  87.7620983  12.2446442  33.4069753  88.5747242  12.7244711  33.2468581
  87.1497154  12.9092419  33.7224579   1.1670428  43.6414051  53.4821939
   0.9701567  44.2481852  54.1958380   1.3099223  42.8000593  53.9157248
  92.7911186  50.1555109  48.1059599  93.1937504  49.4931936  47.5443077
  93.4911728  50.4217911  48.7019920   7.2501975  61.2301207  85.8115482
   6.9381362  60.5097628  85.2638912   7.2564440  60.8710957  86.6988468
 101.6424942  68.7513638  56.0731888 101.5465736  69.2413616  55.2565336
 100.7829857  68.8104200  56.4903116  93.4635735  18.8908827 102.3564911
  92.6966476  18.9919949 101.7927170  93.1014442  18.6951029 103.2206440
 120.1984692  35.1021409  87.5832748 120.0587845  35.7815933  88.2428646
 119.3638420  34.6355510  87.5395775 116.7489529  25.2282429  83.7395191
 117.2608566  25.3404593  82.9385281 116.9444084  24.3359661  84.0256500
 101.5727520  45.2388573  82.0044327 101.8345451  44.8814201  81.1559486
 100.7202721  44.8402882  82.1795177  73.4486198  86.9459057  74.6254778
  72.5240326  87.0899200  74.4238997  73.6336422  86.0694981  74.2879915
  82.0322514   8.1874567  82.0720863  81.1500740   8.5585809  82.0554352
  82.1092224   7.7154934  81.2428951  86.9618225  32.4690342  20.8503079
  86.8439674  33.2069683  21.4484668  86.6939831  32.8079677  19.9961293
  91.6479778  64.7522688  60.0112295  91.7957306  63.8891554  59.6246576
  91.6633034  64.5975018  60.9557104  82.4688148  55.9947681  64.3347597
  81.8689632  56.0114956  65.0805044  82.0180702  56.4938307  63.6535835
 119.4148159   6.8412828  51.4519262 120.0289822   6.1087191  51.4032173
 119.9611378   7.6195681  51.3422346  82.5686359  24.5163465  31.5693855
  82.8548050  23.6579204  31.2572289  82.2239685  24.3495083  32.4466538
  91.8295193  45.1825142  69.7055340  91.0294819  45.5254173  70.1037741
  91.8150043  45.5201530  68.8099766 121.6500568  38.8281631  70.5614281
 121.8648434  39.2791533  71.3779497 121.6227531  37.9014874  70.7996655
  86.4914608  38.1029630  44.7633362  87.3629570  37.8596640  45.0756359
  86.6537762  38.5885215  43.9545631  68.2992029  24.1508389  87.3837566
  69.0592384  24.5146918  86.9296741  68.5896254  24.0446091  88.2896233
  75.9260845  37.1892500  62.9206276  76.0916185  36.2901783  63.2043505
  76.7129564  37.6700997  63.1772232 111.9780350  18.2745445  85.4942989
 112.8643513  18.4003794  85.8331585 111.4152718  18.7297297  86.1206722
 102.1443558  39.4735026  80.6142807 102.1013546  39.1180587  81.5019989
 102.5716209  40.3238440  80.7172012  97.8052902  54.5884800  52.9807615
  96.9666386  54.7423506  52.5457764  98.2378578  55.4423475  52.9758644
   7.0968371  25.1808476  51.3697386   6.3692122  24.6678424  51.7213297
   7.8754550  24.8047638  51.7802954  67.8288555  31.6020846  52.2430372
  67.5046825  30.9516287  52.8659725  67.5434589  32.4417472  52.6032400
   3.9863806  38.8225865  73.6366987   3.2502490  38.8149357  73.0249023
   3.7587863  39.4968629  74.2768431 119.6885300  56.8452692  54.2392588
 118.7875366  56.8901014  54.5593071 120.2051449  56.6106367  55.0101614
 120.0915813  60.2833939  99.9876499 120.2710438  60.6222534 100.8646870
 119.1491222  60.4046059  99.8722744  94.7601700  70.2802277  31.1515570
  94.6363735  70.6463957  30.2758718  95.7026863  70.3429794  31.3063550
  93.5399723  26.0615563  77.9789782  93.2867622  25.3554702  77.3843670
  94.1216469  26.6158032  77.4586964 123.9477634  47.9045343  29.1904330
 124.2601871  47.9270601  28.2859325 124.5459652  48.4818363  29.6648955
  79.6071815  36.5355635  66.9206572  80.0711250  35.8897853  67.4535322
  80.2104950  36.7328119  66.2041855  78.0094051  35.6065369  61.0382462
  78.8591909  35.3908253  60.6541061  78.1733322  36.3957167  61.5545368
 118.5668182  52.0643282  89.4862652 118.4486675  52.9304504  89.0962696
 118.3663750  51.4531088  88.7774086 115.4931927  49.5101070  79.8692369
 115.0758076  48.9418030  79.2218876 115.1798630  50.3886318  79.6541548
 113.3350754  75.1563644  85.5490589 113.4507942  74.6685600  84.7336578
 113.1670570  76.0558891  85.2682590 114.4530106  31.4186621  74.1068554
 113.8135815  31.6438770  74.7826004 114.2679691  30.5031228  73.8976145
  87.9824066  54.0844107  27.1511841  88.6599350  54.0516996  27.8265500
  87.2638798  54.5702219  27.5560760 105.8422756  68.1491137  66.8162107
 106.0057831  68.3484697  65.8943939 105.4802990  68.9589643  67.1758509
 100.7730198  60.6474495  96.4423084 100.1514244  61.1420679  95.9082699
 101.2986374  61.3170671  96.8799973  95.9428596  31.5917158  74.8677492
  96.5965748  32.2123790  75.1897192  95.1648808  31.7671561  75.3970814
 116.0532284  25.1591659  79.1335726 116.0672665  24.3344498  79.6192455
 116.2297440  25.8291173  79.7940588 111.6327572  40.0300455  68.3405542
 111.3053322  40.9287310  68.3778238 111.5128613  39.7691226  67.4274445
 109.6666527  41.6725445  63.9162445 109.3006802  42.3651648  64.4663143
 109.3467808  41.8713951  63.0362606  91.9098186  68.1235838  36.0551238
  92.1386051  68.8281488  36.6613269  91.4155102  68.5572004  35.3595209
  50.9849548  25.2481627 100.7349300  51.3073254  25.9792089 100.2077866
  51.7519474  24.6906137 100.8656693 117.3554993  69.3806267  23.0516577
 117.1655464  69.6844625  22.1640587 117.5738335  68.4546375  22.9462481
  79.8304605  40.8428955  70.9016275  79.8679972  41.6919851  71.3419342
  78.9083433  40.7343197  70.6689405  79.1130543  39.1884899  81.7184258
  78.9941883  38.5426402  81.0220242  79.0016508  38.6906457  82.5283527
  13.1408816  63.6371756  51.9514561  14.0187483  63.3465242  52.1986628
  12.7670317  63.9853001  52.7609491  10.5472498  51.0809088  89.2941952
  11.3897162  51.5046167  89.1300201  10.2353983  51.4754677  90.1086235
  19.0728789  94.5768070  49.4756699  18.2986193  94.1105556  49.7909021
  18.7257033  95.3726959  49.0728521   0.6853800  23.7935305  61.6240692
   0.3638297  22.9224777  61.8566847   1.0553389  23.6861539  60.7478094
  80.3263187  53.7775612  79.2953205  79.5488930  53.2216501  79.3483162
  80.0957775  54.5601034  79.7960329  96.7631245  62.7989101  50.6124878
  97.6643085  62.8900385  50.9219790  96.5131664  61.9091272  50.8615541
 123.6000919  47.3343611  18.3281843 124.3820572  47.0831108  17.8366224
 123.8757706  48.0902004  18.8467828 100.6195736  30.0835347  80.1041412
 101.1986828  29.5779514  80.6744576 100.6836033  30.9804583  80.4322624
   9.0530329  68.2832766  74.1506577   8.3553248  68.6788464  74.6731091
   9.3505889  67.5384855  74.6731281  80.7684231  12.5294888  87.3990345
  81.2286949  12.1695709  88.1572151  81.3632393  13.1937182  87.0508671
 106.4813519  61.1697388  91.7715073 107.3113441  60.7255030  91.9447136
 106.3840008  61.1329365  90.8199883 109.2865467  42.4358988  87.1096325
 110.1068211  42.2119617  87.5492287 109.5587158  42.8265905  86.2792587
 105.0790119  62.4693823  68.8213491 105.1721573  61.5886545  69.1844988
 104.4434738  62.3701954  68.1124878 120.7748032  50.0834703  81.5979576
 119.8750496  49.7884703  81.7381287 120.9170914  49.9796009  80.6571102
  95.6760693  68.0297661  69.7352505  95.1372433  67.3997784  70.2138042
  96.4798069  67.5514936  69.5315218 112.6854992  62.3924923  89.8486328
 111.8240070  62.7609730  89.6529579 112.5930119  62.0196390  90.7253647
  93.3787537  84.8520660  12.6266614  92.7537537  85.5563641  12.4546663
  93.8652515  85.1463223  13.3966962  99.3967152  51.2007713  72.6971626
  98.5750961  51.6046381  72.4177456  99.9561977  51.2344790  71.9212294
 121.9487858  20.7696819 105.5162621 121.1854744  20.2118039 105.6657982
 122.4713421  20.6792545 106.3131237  92.2999001  78.5070324  67.4853039
  93.0683422  78.0227280  67.1833611  92.1572590  78.1966305  68.3794689
 119.0088654  28.2618189  81.7047405 119.4299030  27.4085903  81.8094635
 119.3598080  28.6027122  80.8820248   3.1456595  34.2111945  76.6739893
   3.2658129  33.2618260  76.6516829   2.3717242  34.3418598  77.2218752
  82.6743126  65.9762764 106.0211182  83.2646465  65.2532387 106.2331581
  82.3040104  66.2382078 106.8640327 111.4054203  52.5818634  48.9729738
 111.3756371  52.1864653  49.8441839 110.5596828  53.0203962  48.8799381
 103.4304905  53.1635189  58.8252449 103.9457798  52.3570347  58.8421440
 103.2098198  53.2874537  57.9021072  95.9175777  55.6442451  86.2778854
  96.7999554  56.0144424  86.2537479  96.0256290  54.7468519  85.9628487
   7.5275355  64.3253088  91.7000771   6.9569998  64.7913980  91.0889530
   7.8876048  63.6017323  91.1872292 119.5338058  25.0731254  55.0125647
 118.8036728  24.9256730  54.4114065 119.2764282  25.8446336  55.5172968
  95.6701660  52.9811573  72.8598642  95.3978252  52.0805454  73.0358124
  95.0555420  53.5190868  73.3589649  92.6478195  56.2040854  78.0909872
  92.1470451  56.9952250  77.8920984  92.4690819  55.6165838  77.3567343
  92.9012394  39.9871421  51.3805819  92.4408436  40.5843496  50.7909966
  92.7262592  39.1162705  51.0239363  84.7570610  37.7748990  82.3765755
  85.0405979  38.4255457  81.7343235  84.5014381  37.0161343  81.8520069
  88.9285851  57.5672913  72.0991421  89.8399925  57.7074766  71.8424177
  88.9733124  57.3433924  73.0287123  89.4498539   4.3641213  68.9653015
  89.4994926   4.6708927  69.8706484  90.2732944   4.6502784  68.5699606
 117.2150898  10.5633557  17.5408912 117.1203423  11.3056052  16.9439650
 116.3220882  10.3698254  17.8260589 104.8827076  60.6706619 107.0248032
 105.7437706  60.9912205 107.2932148 105.0442505  59.7784805 106.7179585
  96.4188290  33.1946182  64.7058296  96.7141247  34.0972948  64.8250198
  96.5255642  32.7919292  65.5676174  94.1309547   4.2611536  55.2496529
  93.3336067   4.2858765  55.7786751  93.8387775   4.4830090  54.3655491
  95.2961540  18.3868968  37.8852129  95.0349808  19.2456651  38.2176876
  95.9013557  18.5810816  37.1694899  97.8162384  31.0977077  39.4751692
  97.0066929  31.3950181  39.8904753  97.7199364  30.1472116  39.4158769
 103.4375763  91.5458488  63.6462355 104.2293358  91.0447216  63.4507370
 102.7770615  90.8822060  63.8450289 100.1489258  14.9221981  71.3027048
 100.5016327  14.0531516  71.4939928 100.7508183  15.2875543  70.6542635
  81.0067844  43.7645531  58.8142681  80.7456112  43.0305624  59.3703938
  81.9268894  43.5957766  58.6113787 111.0973454  51.9124508  55.4255533
 111.2657166  51.3911009  54.6406460 110.7274532  52.7309275  55.0946474
  95.3658581  76.8119478  85.5696678  96.1362076  76.6345167  85.0299358
  95.1202679  75.9576416  85.9247494  87.2598553  59.5143843  47.3620987
  86.3608074  59.5126724  47.6906395  87.6839924  58.7893820  47.8211308
 110.3627300  47.1059465  76.7523050 110.8300591  46.5431070  76.1350155
 109.7765636  47.6276970  76.2042046   4.6703559  11.7751479  75.4595709
   3.9693003  12.1835983  74.9517012   5.4295378  11.7923117  74.8768377
 105.0149441  60.6791782  78.8072062 104.6825027  61.3511515  79.4023228
 105.8343124  60.3886223  79.2077637  86.3118649  75.4962683  73.4890509
  86.8984127  75.0602055  72.8709555  86.8023586  76.2634277  73.7841988
  82.7920532  41.2031221  86.3453197  83.5312080  41.4190245  86.9138908
  82.1504498  41.8931007  86.5141869  95.6119919 100.1646042   4.3141977
  94.6709442 100.3229332   4.3889467  95.7340527  99.8678017   3.4123937
 121.8354511  65.2498198  44.5495367 122.1719170  65.1308632  45.4377270
 122.5071621  65.7681465  44.1063881 121.0595703  82.2469425  56.5163898
 121.2680912  81.6910172  57.2671843 121.1416721  81.6673374  55.7590580
  76.0341167  35.3940892  47.6162195  75.6647205  36.2718797  47.5199699
  75.3132248  34.8673892  47.9613781 106.5382290  57.2707558  58.1798887
 106.3896275  58.1822634  58.4315062 106.1364460  56.7597771  58.8825321
 121.0423183  39.3156147  76.5783501 120.7023048  39.5605755  75.7177591
 120.5503178  38.5294914  76.8153715 118.9385605  25.6919026  42.4899721
 118.3641434  26.0173535  43.1830502 119.7725201  25.5244923  42.9289722
 120.7983971  23.1274748  53.5764217 120.5556774  23.7882042  54.2250776
 120.4892921  23.4843755  52.7437735 110.5602360  55.8733463  65.8688021
 109.9425125  55.8841228  66.5999126 110.1557350  55.2952242  65.2219772
  86.4148617  64.5345640  76.3659477  87.0369148  63.8261366  76.2004042
  86.9363785  65.3336859  76.2907553 103.7864494  55.9024239  88.8648891
 103.0065346  56.4387608  89.0074158 103.4841537  55.0026226  88.9882183
  99.1080379  19.8572052  53.8236094  98.8361454  19.9743068  54.7338820
  98.3336830  20.0885439  53.3106899  96.9137859  34.1228127  73.8601398
  96.0204411  34.4270587  74.0201616  96.9143295  33.8541079  72.9414272
  85.6371593  25.5931616  80.3001595  86.1386013  24.9887657  79.7529078
  85.5796432  26.3950992  79.7807169  13.6034804  18.1388354  84.7040081
  13.6225730  18.1772578  83.7477779  13.5642939  19.0546131  84.9797821
 124.3797970  59.2820692  75.6959343 124.4104099  59.6289492  74.8043251
 123.4739017  59.4165993  75.9742975 104.2447090  43.2399082  54.5889664
 105.0985146  43.5304022  54.2682552 104.2961597  42.2841883  54.5751238
 100.9387875  50.7573700  59.0132046 101.0517979  51.3314342  59.7707748
 101.8110275  50.7013178  58.6229467 101.0444164  76.2255001  51.4968252
 101.3650799  76.1620951  52.3964834 100.4684162  76.9899893  51.5011692
  84.2264366  28.6849976  74.3906832  84.8287582  29.4288826  74.3823433
  83.3679771  29.0699196  74.2142916 121.0860920  39.0665388  23.3799577
 121.4864826  38.6313987  22.6272464 120.3295994  39.5265675  23.0161977
 117.6118469  43.2574844  61.9786692 117.5970364  43.8823557  62.7036142
 117.0358372  43.6429024  61.3184404  99.2315960  58.1078148  90.6295681
  99.4331741  58.5048008  91.4769173  98.5449219  57.4691772  90.8215714
  90.2193260  59.2155790  67.0628977  89.2726326  59.1665602  67.1956015
  90.5105686  58.3038616  67.0762444  92.5207138  42.2311544  54.1773605
  92.8987694  42.5238228  55.0066090  93.2774639  42.0470667  53.6208677
 107.8026676  38.8574362  62.0340109 107.1320152  39.4591808  62.3570681
 107.5255775  38.6462712  61.1424589 100.5726147  48.4751892  89.0164089
  99.6381092  48.2954502  89.1195583 100.9154606  47.7065325  88.5604954
  89.4164848  74.0570545  78.0426741  89.3953228  73.9337349  77.0936871
  88.4970188  74.1471481  78.2930565  97.4771500  36.7214322  50.5188227
  96.5373421  36.8729067  50.6189823  97.5411701  36.0618234  49.8281288
 108.4481525  48.9674044  54.0388918 109.0862179  49.0499592  53.3301735
 107.6015472  48.9205217  53.5947084 103.6905003  66.1212778  95.6922626
 104.3470764  66.6630936  96.1299610 103.2423496  66.7221165  95.0969696
  96.7470074  44.7396851  64.8594427  96.5935135  44.2259789  65.6523943
  97.6611805  44.5661974  64.6348906  95.9903812  25.7737064  70.3656721
  96.0617924  24.8532462  70.1129198  95.1903057  26.0782838  69.9374866
 121.1904144  40.9607315  86.8342304 121.8152714  41.0987377  86.1223793
 120.6440353  41.7466497  86.8290520  12.9861289  51.5683031  55.9469986
  12.2946864  51.1324453  56.4451694  12.5603037  51.8408060  55.1341963
  66.0927534  43.4603977  99.6032619  66.3477612  42.6665258  99.1331863
  66.0620975  44.1387844  98.9286613  80.0252151  44.1382122  89.0341091
  80.5215168  44.9049187  88.7476063  80.3881931  43.9255047  89.8938942
  67.9997063  31.8259692  48.4494305  68.1674767  31.0798502  49.0250921
  68.0281353  31.4581633  47.5661755   7.1018439  33.5103559  74.0337276
   7.3105364  33.8556647  73.1657171   7.9372817  33.1854153  74.3694353
  91.5935993  27.0139718  40.1880598  91.2923145  26.1900997  40.5710697
  91.3220692  26.9654250  39.2714643  84.0319252  38.6708117  75.4408741
  84.3495846  38.1928802  76.2069702  83.7024689  37.9903913  74.8537445
  75.5523634  28.0206752  99.0569782  75.2175188  27.7921748  98.1898594
  74.8508358  28.5346937  99.4568253  85.0889111  60.0753117  63.9694691
  85.3167152  59.4200516  63.3099508  85.4657745  60.8902216  63.6376143
 103.3282375  24.1771579  71.6652203 102.7038574  24.4963741  71.0136938
 104.1183281  24.6959543  71.5141201   1.2702494  26.6904759  57.7816486
   1.6184073  25.9084249  58.2099152   1.4659815  27.4035931  58.3894205
 119.2013931 117.8993601  61.9822359 119.7907543 118.0718870  62.7164793
 119.7786427 117.6158542  61.2732649  12.9093581  61.7973423  14.4900501
  12.8887873  61.4510679  13.5979164  13.6562853  61.3605452  14.8993552
  85.1384735  64.4961214  56.6892242  84.5262909  65.2272892  56.7720270
  84.5953846  63.7596750  56.4082718 102.4473381  76.1299324  95.1711178
 103.2625008  76.4540529  94.7881222 101.9471169  76.9204092  95.3740120
  80.9186363  45.9856319  56.4710760  80.6834221  46.1741352  57.3795795
  80.4809093  45.1567078  56.2773895  90.5602169  32.3983312  70.4233837
  89.9540043  33.1351662  70.3471422  90.8392620  32.2237611  69.5245600
  94.0307903  45.2102184  40.1496506  93.3154774  44.6388483  40.4291058
  93.6021900  45.9006596  39.6438599  83.7589073  57.5494194  44.4593668
  83.0841637  57.0865917  44.9560976  83.4767723  57.4774599  43.5475302
 110.3445816  76.5497637  81.6933632 110.3837967  76.2161446  82.5896835
 109.9835300  77.4318457  81.7817020  84.3178177  56.2459183  76.5066004
  84.2448425  55.3832960  76.9150019  84.8092937  56.7696762  77.1393394
   3.9753848  31.7291093  76.8590450   4.4839507  31.4628267  76.0930967
   3.3640605  31.0068703  77.0035458 104.1493225  79.8234606  70.8310604
 104.4714165  80.7158279  70.7039022 104.9336243  79.2767525  70.7840347
 103.3205032  55.7503223  29.7433186 103.7215042  55.8346796  30.6083703
 103.6101627  54.8944187  29.4274807  94.8220730  27.2470832  75.8785343
  95.3904247  28.0172801  75.8767748  94.3724155  27.2793007  75.0341415
  85.3755951   6.8479127  28.4152579  84.7590160   6.8159038  29.1467214
  86.2322426   6.9552165  28.8286281 118.5784245  42.9232597  77.7382469
 118.1269836  42.1992064  78.1720448 118.1205177  43.7071657  78.0416489
 103.7973213  89.6037865   5.2699298 103.5603046  88.7936974   4.8184767
 103.0676842  89.7672176   5.8675563  86.7900753  48.6150646  75.0841808
  86.2662125  48.0938339  75.6925535  87.1787071  47.9720736  74.4910908
  91.4332104  30.4863572  35.0601864  91.0767078  31.0057974  35.7808232
  91.7988586  29.7093439  35.4830146 116.1268997  51.7714453  57.7770472
 116.1198997  52.3176622  58.5630655 115.6128216  51.0003710  58.0166245
  78.1608963  38.0063057  64.1735125  78.9911890  37.5358295  64.2476463
  77.8630590  38.1103754  65.0772285 112.6674271  76.5198898  52.1340084
 112.3074722  76.0084438  51.4093781 112.1004772  77.2891569  52.1890640
 103.0495262  44.4027185  47.8186560 102.8081894  43.8362312  48.5515118
 103.3167171  43.7980413  47.1264076  81.8042469  47.4403238  52.8062868
  82.4713707  47.7403545  52.1889019  82.3008633  47.1302223  53.5635471
 101.8305588  30.7941294  23.3948112 101.3662720  31.6309571  23.3752036
 101.4377117  30.2855802  22.6853895  86.3606262  56.3780022  56.4456749
  85.5160236  56.4154768  56.8945360  86.4709282  55.4544544  56.2195683
 103.5641956  62.0558786  37.4074888 102.8709126  62.6310682  37.7311349
 104.0152740  61.7567635  38.1969762  88.1824017  46.4726973  86.4145088
  88.1017494  46.3182259  87.3557186  87.3834324  46.1003542  86.0413551
  11.8716841  67.6186895  76.8549490  12.7468520  67.8566885  77.1609926
  11.3339930  68.3872843  77.0457029 112.1014309  82.9301643  38.7287617
 112.3836231  83.6820412  38.2079172 111.3685226  83.2603264  39.2484450
 121.1110210  47.4747896  68.0801821 120.4958916  46.8146849  67.7606392
 121.3232040  47.1935463  68.9701891  91.3958740  45.9348392  47.9974747
  92.1527863  45.3867865  48.2047272  91.5389347  46.2080765  47.0913267
  99.9586773  42.1446943  97.6428699 100.8728695  42.0965481  97.9224873
  99.4772053  42.3765039  98.4370232 120.0717068  63.2215166  81.2388802
 119.4449425  63.8436794  81.6080856 119.5695591  62.7352428  80.5849457
 108.0598831  42.5451994  12.2254741 107.6942730  41.9522142  11.5690207
 108.3691216  41.9681358  12.9237545  32.8738814  36.9475460  46.6792202
  32.7691584  36.4750743  45.8533669  33.8069754  36.8750334  46.8799829
   3.3532553  27.1353483  19.0348887   3.8969737  26.8512082  18.3001316
   2.7190619  26.4278889  19.1511905   1.9069319 102.0928478  52.7224064
   1.2043791 102.3054695  52.1080351   2.6825266 102.5171757  52.3554993
 108.0215263  44.6505308  78.5205317 107.2510815  44.1186428  78.7199020
 107.7992058  45.0974607  77.7037954  77.4750376  53.3835506  32.4042368
  76.8935394  52.8111219  31.9038296  78.1639528  52.8024197  32.7266049
 102.3916435  36.3880324  64.6716404 103.3105946  36.6527963  64.7122812
 101.9034672  37.2104478  64.7110271 100.8955765  20.2988172  58.4910965
 100.3574181  19.6357739  58.0586672 100.8377457  21.0643697  57.9194164
 105.5606747  63.1938219  34.0449429 105.3711605  64.0984106  34.2940187
 104.7212696  62.8480911  33.7414598  82.5813198  22.5797200  54.6424484
  83.4751511  22.2854924  54.8177433  82.0338058  21.8253970  54.8602819
 101.5307808 138.1949777  53.3076715 102.2748661 137.6463432  53.5558033
 101.9057751 139.0675832  53.1886101  94.0689182  82.8274345  30.1197839
  95.0091457  82.6505756  30.0893211  93.7375259  82.2443199  30.8027124
  72.9415798  45.4771614  60.7642889  73.6659241  46.0902977  60.8892822
  72.4615622  45.5015802  61.5920734  68.0204153  29.6624875  39.7473574
  68.4951115  30.3855133  40.1573944  68.4351826  29.5587730  38.8909435
  88.4171391   1.7428413  27.1344471  89.1956139   2.0802234  26.6913056
  87.9348946   1.2779404  26.4506769 108.0315399  89.7840309  59.1361332
 108.1316280  88.9106655  59.5148849 107.8518867  90.3511524  59.8860168
 100.9482098  51.2273169  34.8687887 101.1842346  51.5458155  35.7400393
 100.1082039  51.6457510  34.6802497 106.0621738  35.8191061  41.5494108
 106.8506813  35.5540228  42.0229292 106.0237694  35.2274203  40.7979727
  81.4042282  38.4839463  61.4777565  81.8077374  38.6369228  62.3321629
  82.1423817  38.4268618  60.8710432  67.6669312  75.9877253  78.1054068
  68.4210300  75.4162979  77.9603672  66.9235373  75.3892326  78.1789398
 113.7539864  35.6187391  34.2843723 114.6502686  35.5865526  33.9498878
 113.4338570  36.4838386  34.0287256  78.8743305  40.5481291  30.4373789
  79.6873331  40.0920057  30.2200937  78.1820154  39.9386096  30.1816130
  81.2189960  43.6931896  11.3790727  81.4058781  44.5557928  11.7495120
  81.9879150  43.4894800  10.8466327   5.5779677  62.4220228  31.6238022
   6.5045577  62.1819258  31.6273165   5.2271872  62.0349169  32.4258852
  92.3211479  41.8990517  30.6748414  92.6180744  41.0701561  30.2993345
  92.6836205  42.5683975  30.0944805  89.9096775  48.8114738  36.1957026
  89.9115467  47.8611612  36.3103199  89.5666122  48.9454889  35.3122020
  89.0331268  26.6176510  79.1118097  89.0816021  25.6644893  79.0385818
  89.4989872  26.9411063  78.3407164  84.1808701  47.5764418  49.5639563
  84.0753174  46.8952131  50.2280521  84.3271255  48.3787918  50.0650311
  87.1724796  65.1157570  22.2910643  87.8069496  65.4325390  22.9339695
  86.3234997  65.2209187  22.7204895  94.8352146  71.2981319  19.0950847
  94.0594959  70.7782030  18.8849580  94.9447441  71.8797207  18.3427608
 102.7278996  32.3410487  33.6619711 102.9294395  33.1713390  33.2304263
 103.5541821  31.8580079  33.6497545   8.0789500  42.2679186  16.5919030
   7.8697043  41.6487455  17.2912371   7.9066401  43.1283283  16.9743073
 106.7520809  11.0732841  52.2250223 107.2571087  11.8633306  52.0326376
 106.1372280  10.9984207  51.4952421  77.0949316  74.9698734  66.2034225
  76.8782711  74.5174789  65.3881741  76.2509012  75.2647352  66.5453243
 106.7428493  56.8871927  25.6522083 107.6476955  56.9810438  25.9500146
 106.2145615  57.1736574  26.3972402  97.1051502  69.3777084  75.2300501
  97.7059174  69.4901371  74.4933939  97.6754570  69.3062544  75.9954739
 123.6512947  23.5249186  43.1658363 124.3252754  24.1892910  43.0223370
 123.9121151  22.7941799  42.6052761 112.9996967  31.5907955  39.3478584
 112.3716068  30.8775496  39.2337465 113.4990215  31.6031599  38.5313106
  55.2147102  52.9458427  24.8546052  56.0115337  53.4605074  24.9827790
  55.3582716  52.1504164  25.3673601  72.5829124  44.7392607  63.6496544
  73.4360313  44.9371338  64.0360069  72.0514441  45.5139446  63.8330603
 105.8348370  51.7215967  79.4302130 106.6400146  51.3326550  79.7717619
 105.1868534  51.5746689  80.1192379  84.6175957  52.6990747  37.8845978
  84.6941662  52.2843599  37.0253062  85.3378010  53.3289957  37.9115677
 112.8393078  57.1054888  76.1445999 113.7795448  57.0265961  75.9834623
 112.6211071  56.3362217  76.6707611  70.5824566  29.2365193  18.1521952
  70.9268713  28.3443499  18.1116772  69.8007011  29.1668177  18.7001288
  74.8689604  47.3788929  61.0087156  75.2466345  48.2514191  60.8978510
  75.2775335  47.0405197  61.8054581  81.6779041  47.9253101  70.3205872
  80.9342098  48.3613777  69.9046564  81.8672943  48.4587860  71.0924482
  79.2711067  29.4087315  16.0662889  80.1010132  29.3681097  15.5910659
  79.0216351  30.3322887  16.0341001  68.7662983  17.8142774  67.7165890
  68.5317564  18.3906996  66.9892883  68.4032488  16.9625199  67.4738216
 118.4713745  11.7271316  55.3654861 118.6714840  10.8582604  55.0172758
 119.2351055  11.9543242  55.8958912 103.0152225  31.2399650  56.9996405
 103.5211372  32.0313334  57.1840954 103.6515331  30.6307626  56.6251802
  85.6679821  28.9948225  39.7005820  85.9512329  28.4031916  40.3976965
  86.2240887  29.7673559  39.8013902  92.0638084  55.3102112  64.9853039
  91.6385460  54.5137262  64.6674967  92.9977322  55.1004457  64.9827099
 114.7210693  32.5063205  48.3385515 114.7130966  31.6216326  47.9731798
 113.7968922  32.7227497  48.4621572 109.7112942  61.4106035  15.0802457
 109.1982746  62.1731091  14.8126197 109.2340088  61.0513020  15.8281255
  80.4141331  56.5754271  53.6377811  81.0388756  55.9703922  54.0376043
  80.1294136  56.1322165  52.8385735   6.1169749  88.1351566  26.0958457
   5.7405406  88.9179516  25.6936502   5.4974299  87.4364090  25.8857632
  66.5012312  22.7464151  72.3308229  66.3051319  21.8679023  72.6563931
  67.2121811  22.6161218  71.7032814   5.3769713  25.7438159  25.6962681
   6.0868579  25.1933050  25.3657722   5.7604724  26.2081313  26.4402890
  69.5426369  75.0785112  84.0497684  69.5074701  74.1695690  83.7517548
  69.6182299  75.5915976  83.2452393 108.6855793  61.7211437  41.2584209
 109.5139122  61.4366961  40.8721828 108.5983181  61.1943245  42.0528269
  96.9757938  65.1244402  22.2541738  97.8459835  64.7368574  22.1604323
  97.1184158  65.9075880  22.7857471  16.1840468  34.5039058  49.7585392
  16.1023646  34.1134048  48.8884401  15.9928446  33.7860441  50.3621483
  16.2242632  76.7296505  36.5410900  16.7086440  77.2957897  35.9401727
  16.8970233  76.1904716  36.9569159  98.7332439  69.7665596  63.6599970
  98.9009476  70.5775213  63.1799412  97.8380585  69.5270348  63.4202051
  72.7416754  24.3697929  53.8901711  73.0055475  25.2833176  53.7802887
  73.0934381  24.1200018  54.7446299   8.1637698  35.6622672  49.2035961
   7.2483187  35.6114268  48.9286375   8.1321936  36.0765600  50.0659132
  98.1359005  33.2611251  37.8139925  97.2475719  33.4742141  37.5281692
  98.0441284  32.4317884  38.2830429 106.2634659  71.3978338  62.7677059
 106.0619164  71.0811996  61.8871641 107.1645641  71.7150879  62.7077341
  98.9570713  42.5018930  66.2466431  99.0154076  43.3996677  66.5734863
  99.6572304  42.0349932  66.7027283 111.6837406  18.9096272  48.4623718
 111.6630840  18.6531520  49.3843365 111.4342594  18.1168103  47.9875708
  85.5795574  63.1515551  65.8446407  84.6286583  63.1717777  65.7368803
  85.9144402  62.9304743  64.9756145   9.3765097  51.3332224  41.0704517
   9.9569254  51.0704660  40.3560877   8.6457377  50.7167244  41.0243988
  92.5684357  63.9346647  48.1086063  92.1820354  64.7756529  48.3528519
  93.4783840  63.9957190  48.3992910  97.8069305  29.5163870  46.5177011
  98.2190323  29.1874361  47.3165703  97.1330738  30.1215076  46.8275070
 115.8825970  35.5983472  39.3700957 115.0150490  35.2595162  39.1492343
 116.4895153  34.9347091  39.0422630  83.9554119  38.5531735  68.5825348
  84.1149235  37.6101542  68.6213303  83.0035686  38.6375737  68.6382437
  96.0326099  46.0726833  58.0478477  95.7437801  45.3075647  58.5452366
  96.8082905  46.3831472  58.5149240 101.7116737  16.9606555  10.9802651
 102.2654819  17.7413440  10.9872139 100.8173561  17.3012197  11.0014892
   3.4554511  54.0056658  46.6129255   4.0205508  54.5905638  47.1176958
   3.7791091  53.1275511  46.8139076  99.2294598  41.2946463  40.3057194
  99.7968960  41.6485500  39.6208835  98.6561394  40.6799650  39.8477960
 101.9603825  49.7826481  26.9689417 102.7044582  49.8204231  27.5699139
 101.5059376  48.9728069  27.2010183 107.5561428  66.7047119  18.6028075
 107.8950405  67.0944595  17.7969050 107.2861767  67.4527550  19.1355193
   7.5645762   9.1502398  44.9322319   6.8961363   9.5576483  45.4830790
   7.8282576   9.8414224  44.3248034 115.5806255  64.9837685  61.8155098
 116.0569191  64.9569654  60.9856558 116.2648010  65.0387335  62.4826765
 119.8973751  61.6448832  89.8698425 119.3379974  62.2691584  89.4076633
 120.7353306  61.6873980  89.4091320   2.7848368  50.5409956  10.3237736
   2.6849585  49.7344971   9.8179919   2.7331954  51.2402868   9.6721911
 107.8058052  46.5939283  61.3943195 108.3811855  46.8830156  60.6860781
 107.2086048  47.3290300  61.5328979  88.9042950  55.0866604  80.8782864
  89.2001629  55.6391573  80.1548004  89.6300030  55.1002359  81.5023136
  72.7116251 132.2381634  60.3290510  73.6501598 132.4238796  60.3589487
  72.5360584 132.0390172  59.4094038  68.3962297  43.6249495  21.6625333
  68.1354713  44.4555664  21.2646484  68.7372732  43.8682747  22.5231791
  74.5747232  44.2709398  80.2759171  74.5057678  45.0805759  80.7818508
  73.6958265  43.8931036  80.3076267  94.8790073  47.8432655  47.8794575
  94.7577381  47.7576637  48.8250780  95.2455902  47.0017910  47.6078510
 105.6771278  25.8755255  42.2755623 105.0693512  25.1796508  42.5257635
 106.5062809  25.4240537  42.1177435 101.7446041  60.2447176  80.4309559
 100.9398365  59.7276974  80.4665184 101.7869186  60.6808233  81.2819862
  79.2253256  62.8866529  25.2707410  79.2956018  63.8242769  25.4500675
  80.1306152  62.5947952  25.1635265 100.5806637  69.9506235  59.8601675
 100.2815247  70.5998039  60.4968071 101.4457035  69.6877527  60.1745653
  84.9045086  49.3667507  60.1474762  84.1801834  49.0290070  60.6742859
  85.5234718  48.6383963  60.0963593  87.4977779  21.2302876  43.9038658
  87.8356266  22.0809531  43.6237621  88.2765198  20.6809187  43.9932299
  92.6634693  73.8212681  49.8807621  93.4006882  73.5003757  49.3613672
  92.4393845  74.6630573  49.4840240  86.7024994  40.3935385  26.5416932
  87.0301342  40.7956028  27.3462033  87.0975876  40.9087515  25.8383465
 104.3453979  70.8961678  52.6322412 105.0932026  70.4922104  52.1919823
 103.6439705  70.8747101  51.9812632  16.8138342  72.4261856  22.8905010
  15.9850150  72.9049444  22.8820157  16.7858534  71.8848848  22.1015525
  84.2818451  23.8580751  47.0578861  83.7420368  23.8841105  47.8479242
  83.6526680  23.7854242  46.3401937  95.3235340  79.6035147   3.8940564
  95.5198574  79.0296602   3.1535283  96.0988617  80.1583576   3.9792196
  95.0312614  45.2659559  77.3985338  94.2191219  45.4215670  76.9164038
  95.7165909  45.3019524  76.7312527   5.7110530   8.8430697  33.7461138
   6.4329844   8.8818020  33.1187749   5.8731967   9.5734024  34.3432379
  73.3430195  39.2955828  56.3090801  73.9877510  38.8111639  56.8247271
  73.8632536  39.7745776  55.6639862 107.7115631  74.4354010  17.2863162
 107.2219849  73.9573717  16.6169596 108.6262226  74.3583059  17.0148849
 101.8825340  72.4662209  64.4447947 101.9041824  71.5162611  64.3292999
 102.7352428  72.6810217  64.8229170  96.0580826  41.0461807  86.5302118
  95.1801777  40.6650543  86.5457424  95.9086895  41.9916344  86.5249976
   0.4563647  40.0184393   7.0017282   1.1821108  39.5796299   6.5578977
   0.3225356  39.5103216   7.8018133 104.2632008  44.9201727  37.5349283
 104.6783161  44.2054653  38.0177450 104.9610233  45.5639315  37.4130678
 115.0927734 140.2265907  34.1201591 115.8681488 140.7766438  34.2318392
 114.3878174 140.7178951  34.5419216  81.1914349  59.0825558  45.7020330
  81.2471485  59.1321945  46.6563225  81.8199539  59.7341490  45.3912067
  78.1351566  36.0281110  39.7777414  78.5624409  35.7266068  40.5794621
  77.2279358  35.7356977  39.8653269  81.0367012  60.2685928  39.8417974
  80.8433914  61.0269022  39.2905879  81.5694904  59.6988344  39.2870474
  87.9369831  57.5325727 106.5365982  88.0327988  57.4160242 107.4818325
  87.3937321  58.3154154 106.4456558  92.6327133  45.7730150  75.9560108
  91.8109894  45.3660488  76.2305593  92.4217415  46.7024517  75.8672714
  99.7460556  19.5246613  35.6902933  99.2581844  19.5439768  34.8669815
  99.0712929  19.4758499  36.3674521 114.1115952 142.1743722  57.5445843
 113.4917641 141.9880892  56.8393660 114.2628002 141.3258243  57.9609203
 104.2599583  42.0088387   8.1538016 103.4527111  42.4986172   7.9966217
 104.5306778  41.7085123   7.2861928  86.3253498  48.3117390  44.6858549
  86.4281750  47.3606539  44.7189760  86.0683632  48.5559702  45.5749798
 100.7485199  50.6121826  52.1509695 100.5142498  50.3483200  51.2611818
 100.0305748  51.1809444  52.4289894 124.6054935  56.8373919  62.1941328
 125.1531029  57.4673414  62.6626587 124.3352413  56.2098217  62.8644657
  79.6991491  47.4893236 106.6769143  80.3487396  47.1981049 107.3168037
  79.4918013  48.3867168 106.9375362  93.6080074  79.2492342  43.6512566
  94.4866180  79.4727802  43.3441639  93.6298275  79.4290829  44.5911551
  94.1114712  45.9797573  54.3901014  93.7861061  45.4782629  53.6425257
  94.8968983  46.4172029  54.0614891  18.8593703  63.4653568  74.7301674
  19.2663699  63.4939957  73.8642788  18.9341288  62.5499678  74.9998045
  78.6854601  52.6467371  45.3208971  78.5322762  51.7267179  45.5361509
  77.8282261  52.9752445  45.0498533 104.4175529  32.6579595  37.0656085
 103.9382648  32.1166801  36.4382839 105.2039337  32.9321074  36.5937209
 100.7179928  56.6515684  60.0154352 100.3297520  55.8679247  59.6263218
 101.4702320  56.8485975  59.4572687 113.2902813  43.8054514  32.3259926
 113.0494881  44.1212559  33.1969237 114.1763401  43.4595490  32.4331546
 116.5733337  91.0052299  53.8306046 116.1393738  90.1524067  53.8059616
 117.3955536  90.8692646  53.3597517  79.6871996  57.6311827  19.2684448
  80.0084972  57.3819256  20.1349711  80.2457333  57.1495914  18.6582422
  63.4012985  36.1936831  63.1984425  63.5423422  36.4997220  64.0943670
  63.7955761  36.8711472  62.6490641 110.3456974  24.4091702  77.2445726
 110.7144165  24.8716617  76.4919901 109.4682789  24.1520190  76.9613028
  76.7290592  29.7774315  70.4454851  76.7562294  29.0341592  69.8429585
  76.7133999  29.3796492  71.3159800 102.2152233  52.8584480  49.0931606
 102.2474766  52.0090294  48.6530685 102.8283882  53.4058046  48.6025953
 110.4983997  68.7477303  56.8864822 110.0517559  69.4330502  56.3894129
 110.0488853  68.7331104  57.7314472  77.7539778  25.3154397   4.1130489
  77.5972366  24.6156788   3.4790164  76.9058514  25.7495046   4.2052427
  71.8844986   5.9475625  82.4872780  71.9748688   6.0400796  83.4357071
  72.2254276   6.7688155  82.1329594 106.9448090  41.5875721  85.6582069
 107.1440887  41.0760260  84.8740864 107.7946186  41.7254591  86.0766029
 102.2670460  55.4967833  62.3699474 101.5386009  55.7394552  61.7983627
 102.0421791  55.8770800  63.2190895 111.5824795  25.2592754  40.8791542
 111.1970997  25.9961772  40.4051399 112.3700333  25.6212759  41.2852764
 105.2948666  44.0794611  50.9013557 105.6198406  44.4492579  51.7222548
 106.0800266  43.9509583  50.3691435 102.8762245   7.6514995  41.1237574
 103.5290051   7.2484076  41.6961479 102.3122406   8.1484455  41.7163801
  60.6096363  31.1723971  22.6877642  60.6064844  31.6847253  21.8792200
  61.4703798  31.3375139  23.0725837 112.4880791  30.4619837  51.6669703
 111.9600868  29.6944737  51.8869305 111.9253826  30.9838390  51.0948944
 106.5196228  35.1708579  48.1233168 105.8844280  35.7342148  47.6812792
 106.2846756  34.2842269  47.8496027 121.5872478  40.5457067  26.2193513
 121.2501717  40.2725840  25.3661156 122.0810032  41.3452148  26.0370612
 101.1485863  65.3332758  87.2273159 101.9810390  65.6791258  87.5492382
 100.6314850  65.1791334  88.0179405   8.1094771  28.4472322  56.9271755
   7.3617964  28.9216852  57.2906446   8.1237441  28.6947799  56.0026503
   2.5861102   8.9097285  16.9522703   3.2921343   8.2880175  16.7755425
   2.8207427   9.3064749  17.7911806  74.0876293  56.5059757  39.9744606
  74.8242712  56.8262482  39.4538713  73.3478498  56.5043449  39.3670416
  17.5770026  35.9909391  77.2611904  17.5859004  36.8541956  76.8477392
  17.8644114  35.3922439  76.5718460  94.3887520  73.0338001  62.0906115
  94.4822979  72.8781652  63.0304289  93.5795212  72.5814915  61.8523121
 113.9879227  36.0913730  60.7752800 114.1294098  36.9556618  60.3889942
 113.5780048  36.2713504  61.6213322  91.6632462  26.6089201  61.9388866
  91.0181618  27.2366929  61.6133022  91.6415024  26.7146540  62.8899813
  71.7519379  27.1678209  32.8180671  71.9892073  26.2414789  32.7753687
  72.4140215  27.5586104  33.3882928 107.2645283  52.8744793  25.3392577
 107.8248978  52.9150391  24.5642924 106.4347553  53.2578850  25.0551581
  86.6092873  39.4633317  57.6412249  86.4329720  38.5253406  57.5683260
  87.5493050  39.5436239  57.4795151 101.9547462  99.1553020   8.9168489
 101.8019199  98.3279896   9.3733835 102.6374626  98.9532661   8.2770765
  82.4224472  12.3489773  60.8660078  81.9110680  12.3900485  61.6741085
  83.3293056  12.2645235  61.1604738  91.1971951  53.7799883  61.3245058
  91.6221905  53.4305143  62.1077490  90.9128571  54.6581554  61.5779066
  95.5239773  30.9192777  47.2077799  95.3670883  31.7217374  47.7054501
  94.7555065  30.8332133  46.6436195  53.3802557  36.8741608  52.4159527
  54.0886688  36.7336416  53.0441570  52.6343393  36.4025593  52.7866697
  20.1015883  13.8871694  67.1933603  19.9012595  13.1115830  67.7173471
  20.0988894  13.5726821  66.2893009  99.0770817  25.2176285  57.4185848
  98.1242657  25.3081656  57.4321175  99.3184280  25.0883412  58.3357906
  86.9840622  62.2676992  71.9326019  87.9411697  62.2649288  71.9456768
  86.7470455  61.4150524  71.5678501  78.7212992  40.7970619  46.4454794
  79.1384077  40.4107332  45.6754160  78.2180882  40.0796223  46.8305635
  94.1191769  28.2580924  39.9346209  93.3709526  27.6828313  40.0941801
  94.2379475  28.7306690  40.7585144  91.5228462  38.6415815  53.4422541
  92.2594643  39.2211485  53.2480431  90.9134007  38.7774897  52.7167606
  96.3855934  69.1175795  62.7560043  96.2511730  69.8799658  62.1930408
  95.5392742  68.6704159  62.7597666 108.3222866  31.0381103  75.0488329
 108.6860180  31.4510226  75.8320570 107.5327301  30.5934429  75.3572130
 104.4227314  63.3731413  71.4133835 105.2313042  63.5027122  71.9090223
 104.7121620  63.2616138  70.5078316  88.4323788  73.1811476  75.6741905
  87.8938961  72.3936272  75.7522058  87.8081989  73.9046478  75.7306433
 113.7061310  47.5012541  91.0903454 114.3247223  48.1172943  91.4828682
 113.8996696  47.5317574  90.1534176  81.8954182  46.6620684  34.8141694
  81.7105007  46.1893034  34.0026736  82.6926994  47.1573734  34.6264482
 110.7180405  15.2009034  94.8906803 111.6187382  14.8775554  94.8702526
 110.1938534  14.4349837  95.1248360  98.4641361  43.0010748  63.0158377
  98.8783264  42.1382046  63.0274296  98.0579281  43.0601645  62.1511173
 122.0223141   5.1546425  31.6011190 122.0501614   6.0496688  31.9393253
 122.6054859   5.1671273  30.8421803  54.2149878  23.0190134  49.6756601
  53.7526321  22.5835109  50.3917599  55.1162434  22.7043462  49.7460413
  83.8451099  59.2260695  57.3831081  83.4780312  59.1865349  56.4999771
  83.4390545  59.9982595  57.7769184  72.9802132  39.6678257  31.4672732
  72.1705770  40.1019430  31.1984491  73.0160618  38.8751030  30.9319830
  83.1094360  56.6145039  25.3733349  82.8205776  56.9439697  24.5223093
  82.9665565  55.6692505  25.3252792 102.7865982  34.0801597  22.8521609
 101.9806004  34.0034366  23.3627701 102.6205921  33.5637116  22.0635200
 113.6735058 142.3866505   9.3781251 113.2268524 141.5594325   9.1979849
 113.2648468 142.7095587  10.1812208 113.7640476  18.4455884  56.5883160
 113.3237171  18.4422386  55.7384205 113.7303162  19.3591785  56.8719482
 110.0672722  77.5173235  27.9463339 109.2232513  77.1564960  27.6749277
 110.7139587  77.0054436  27.4605227  85.3458023  64.4591999  80.7978916
  84.7116566  63.7454557  80.8661270  86.0731030  64.1877556  81.3578796
  55.5270052   8.3920532  85.5478700  55.5445337   8.2166189  86.4886936
  54.6108580   8.5952586  85.3591498  99.5254421  51.2256289  39.7526717
  99.1375828  52.0942974  39.8585725  99.1930866  50.9160376  38.9101005
  71.3413858  15.4034865  17.4763429  71.0647964  15.5210710  16.5675521
  70.5245113  15.2934015  17.9629874   9.3342429  51.5415573  33.0840349
   8.7286692  51.7478228  33.7960505   9.8182040  52.3544121  32.9381800
  77.0822430  58.8267565  36.1692429  77.9586267  59.1401577  35.9457231
  76.5575790  59.0058708  35.3889370  86.3435078  16.8842661  38.4138131
  85.4813099  16.5921295  38.1180191  86.8316936  16.0749507  38.5652018
 114.0588760  68.1862974  77.5353336 113.6355114  67.3285675  77.4993706
 113.4296513  68.7450409  77.9915237 111.5109158  93.4227085  36.0620213
 110.9361172  93.5371876  35.3052282 111.8914032  94.2889881  36.2070084
  94.0387630  52.8255844  30.8337092  94.9655247  53.0619431  30.7954359
  93.9302826  52.4202681  31.6940475 114.6685886  45.9458733  23.2378435
 115.2608395  45.2740574  22.9000044 115.1186752  46.2976980  24.0058708
  97.7769089  65.3401852  63.7307549  98.0311394  64.6769810  64.3724394
  97.8375435  64.8925829  62.8868341  82.4765491  58.3291054  41.6288090
  81.7825127  57.6717663  41.6783476  82.1452045  58.9811802  41.0113621
  76.0452747  59.6920872  90.2562237  76.0198832  58.9644194  89.6348572
  76.9080925  59.6274567  90.6656170  96.3591957  56.1560392  23.4417629
  95.5000305  56.5758371  23.3988905  96.2386417  55.3176498  22.9958892
  75.5410004  26.3150835  43.4800768  76.2863970  25.8380079  43.8447857
  74.7756195  25.8110499  43.7564325  77.5767803  64.5248461  10.3393054
  76.9667625  64.9872351  10.9140289  77.0184898  64.1093874   9.6820831
 100.3577900  59.0464544  25.8008766 101.2393379  59.2934370  25.5214119
 100.0741386  58.3996248  25.1548219 107.6774025  50.1641130   6.3744414
 108.2354927  50.6256962   7.0003062 107.0803165  50.8358812   6.0451192
  92.7328491  46.6833973  35.9987116  92.4786854  46.6711235  35.0759530
  92.0350361  46.2043715  36.4457345  88.7260628  26.2123108   1.1236317
  89.2320728  25.4364705   0.8822666  89.0122890  26.4175963   2.0136693
  82.9091454  62.6863432  72.4232769  83.3302212  61.8334198  72.5302839
  83.6113071  63.2643318  72.1247387  86.1621857  15.8628976  47.1330976
  85.7899857  15.0768900  46.7332315  86.8516827  15.5345118  47.7101517
  92.7837563  85.2350330   5.2860624  93.3937740  84.5188046   5.4625040
  93.0820560  85.9482384   5.8504969 110.6095791  36.1937451  31.1596203
 110.0839806  36.3710976  31.9396996 111.2498379  36.9048858  31.1354351
 106.5737534  33.6344504  35.3193402 107.3002911  33.9108396  35.8778930
 106.9949436  33.2829165  34.5349622  99.7535229  80.7502174  15.6006348
 100.7093525  80.7007027  15.5876863  99.5608902  81.6840076  15.5160224
  86.1470222  78.9800882  25.9690118  86.7426205  79.7208023  25.8556962
  85.3296852  79.2652941  25.5605412 107.4271965  36.4879680  28.4955430
 106.8452358  37.0634198  27.9991555 106.8387032  35.8775783  28.9397526
  80.1002979  49.1092968  31.9008350  80.8597088  49.4061422  32.4022388
  80.3189468  48.2139158  31.6425347  93.8976288  55.5673599  47.9627466
  93.9059639  54.8463821  47.3331833  94.0856266  56.3456106  47.4381351
  99.2815399  87.9211998  33.3790898  98.9597607  88.6212158  33.9471221
 100.2257538  88.0696392  33.3274269 101.8138123  63.6479712  19.4733500
 101.8932915  62.8038120  19.0291584 101.9574070  63.4465170  20.3980279
 101.3721657  81.5524197  25.4426455 100.8265305  81.0971260  26.0839081
 102.0340252  80.9083366  25.1909900 113.8324928  20.1194620  17.3210180
 113.4390163  19.2470741  17.3022759 114.1650963  20.2130651  18.2136774
  67.3992729  34.2667890   9.9695319  67.2934771  33.8352418  10.8173573
  66.5056133  34.3838906   9.6472114  77.7387524  50.0079489  22.9413915
  78.1079388  50.8901453  22.9005623  77.1538639  50.0278997  23.6988449
  -0.1750345  51.7066145  55.3775263   0.7399588  51.7192698  55.6583500
  -0.2967615  52.5386763  54.9202681  15.9623175  83.1431770   9.3983209
  15.3231745  83.2859135   8.7002146  16.6621047  83.7697697   9.2141652
  95.1283932  30.5196023 108.7545109  95.7567215  30.3571939 108.0509039
  95.6677246  30.6189680 109.5390368  99.5921612 105.4143620  77.3388386
 100.0572109 106.2061119  77.6092052 100.2750015 104.8446655  76.9847012
 115.0956249  62.0087099  42.5358677 115.3691578  62.2228289  41.6439199
 115.0621128  61.0522509  42.5530148 114.9240112  78.9096975  46.9978428
 115.1011562  78.2934380  46.2871552 115.4461956  78.5855627  47.7316618
  89.3739414  52.8964233   4.5323306  90.2825546  52.7761030   4.8083201
  89.2281532  53.8404989   4.5931673 109.7372818  23.2630801  52.6061440
 110.2054024  23.9088631  52.0769453 109.2128944  23.7855172  53.2130289
  81.1656761  21.8798876   8.0875492  81.4210987  22.2707820   7.2519702
  80.3194904  22.2789335   8.2899344 114.2084599  44.0803766  46.4957142
 114.9989414  43.9579010  45.9700155 114.4779778  43.8622618  47.3879099
  92.6249886  59.8880911  37.7012682  92.6772213  60.7442713  38.1260777
  91.8119907  59.5059395  38.0317664 115.4294109  24.0863037   3.7309065
 116.1875057  23.5222793   3.8838708 115.5721092  24.4472861   2.8559434
  85.1969433  85.3527260  43.8846445  86.0030556  85.7315063  44.2352629
  84.9920845  84.6320248  44.4803429 119.0669727  60.0363159  49.6738195
 120.0153732  60.1060200  49.5647240 118.7299061  59.9394178  48.7831831
  96.4882088  73.7726784  24.1618848  96.5628815  74.3922043  23.4360456
  96.4976788  72.9116583  23.7438059  81.1488533  23.1302810 107.0156732
  81.6959953  23.8424921 106.6845866  81.7712021  22.4940085 107.3679005
   7.9574328  66.1058760  39.4865036   8.2745295  66.5370464  40.2800846
   8.0385142  66.7715931  38.8035131  22.1401339  74.7513390  75.0771141
  21.8596964  75.6087923  75.3970575  21.3853961  74.4182634  74.5916605
  52.4494314  55.1523733  13.5764301  53.2599926  55.3345299  14.0518689
  52.0351982  54.4454384  14.0712881  61.2645769  35.7497787   6.2722397
  61.2572145  36.2877560   5.4805589  60.7033253  35.0039387   6.0602224
  99.9359322  74.6717167  24.4185591  99.2890835  74.3943691  23.7697935
  99.9366665  75.6272840  24.3627048  56.4540291  66.5465117  15.2172768
  56.1983013  67.0813036  14.4657230  55.6307888  66.1839104  15.5444229
  85.8903217  62.9481411  53.4248877  85.3858566  62.6419306  54.1785336
  86.7172432  62.4691534  53.4795856  99.8511791  18.0336142  63.7809277
 100.1671600  17.1990299  64.1271257  99.0212917  18.1821334  64.2342043
  85.2915287  35.4130435  50.5836058  85.5181408  34.5136333  50.3470898
  84.6506882  35.6797981  49.9245214 104.9357128  41.0112000  38.9543724
 104.3365479  40.9809494  38.2085037 104.8004913  40.1771688  39.4041920
  81.4711189  60.7586765  82.2010803  80.7643986  61.3429689  82.4756241
  81.1194420  59.8784208  82.3341274  84.8193550  42.1019840  49.4407320
  85.1062870  41.4260721  48.8266945  85.6284237  42.5295019  49.7215700
  78.0439186  24.3728447  13.9983058  77.7593946  25.1762533  13.5626328
  77.6345682  24.4112611  14.8627067  62.7188683  51.6921091 109.2402734
  62.6420164  50.7720518 108.9876431  62.2805929  52.1710396 108.5368717
 103.0039787  97.8973484  33.9088631 102.0511150  97.8186035  33.9544487
 103.2980156  97.7730942  34.8112655  98.1010342  60.5701113  12.3206782
  98.1943893  59.6190071  12.3746300  97.9717255  60.7455969  11.3886285
   7.1015101  34.2082882 105.2704298   6.6407328  33.5217953 104.7881042
   7.2021704  33.8539505 106.1539143 108.4679031  15.1309156  28.0946255
 108.1953907  15.4914927  28.9383984 108.4394836  15.8765626  27.4950957
  15.9715682  44.1495037  71.8411350  15.1035338  43.8273716  71.5982723
  16.1328917  43.7739325  72.7066708 108.6390877  89.1336155  41.3133383
 108.9282227  90.0381470  41.4335632 109.3285275  88.7298393  40.7862139
  85.1340199   0.3329450 105.0860839  84.5037842   1.0471182 105.1809093
  85.4722595   0.4286292 104.1957637  85.2663326  33.0349851   1.2644568
  84.9165440  32.7713585   2.1155605  85.8048630  32.2939253   0.9868773
 115.1636314  43.6505604  58.2556248 115.6761169  44.0624285  57.5599575
 114.3754292  43.3318758  57.8158474  99.4032001  55.3959656  33.7730575
  98.7913036  55.9643555  33.3053637 100.1959896  55.4047918  33.2367396
  84.5911121  54.0239000  52.7214956  84.7938538  53.4800196  53.4826279
  85.1872253  54.7692823  52.7941227  88.6409187  29.0023541   0.5310871
  88.7814140  29.4178605   1.3818793  88.5918140  28.0666447   0.7267074
 114.4660282  44.0558815  85.8487225 114.0682697  44.2409801  84.9979877
 113.7730694  43.6239481  86.3482094 108.8699722  38.6945963  48.3575106
 109.3290520  38.7379861  47.5187063 107.9457664  38.7968326  48.1302929
  85.2732468   9.1955912  73.3005571  86.1953068   9.0103638  73.1224394
  85.2220821  10.1509905  73.3292961  69.7933388  34.7833943  40.5145454
  68.8881111  34.9971700  40.2884960  69.9363422  35.2099133  41.3594484
  80.2974415  78.9915371  25.8897257  80.8337879  79.6873522  26.2697411
  79.6737480  79.4502163  25.3268361   2.7734595  33.6739373  11.0427976
   3.5887652  33.2828498  10.7288623   2.7257662  34.5192266  10.5962062
  62.5699472  30.5722952  66.9992590  63.0076885  29.8227477  66.5957832
  62.1472311  31.0243487  66.2690592 114.7939301  16.9835293  16.2502766
 115.7135391  16.7519414  16.3803744 114.6077347  17.6212513  16.9393873
  23.2644969  26.2875247  15.7150936  22.8101283  25.4453230  15.6931698
  22.7095156  26.8449521  16.2605345  95.9892082  39.4095016  32.7346873
  96.7588234  39.3712425  33.3025432  95.3705120  39.9665952  33.2070136
  82.6999283  34.9844480  55.9321213  83.2067108  34.3892336  55.3797340
  83.2291412  35.7809210  55.9744549  94.7303104  45.4804087  34.0929794
  93.8624954  45.1313972  33.8897300  94.5576191  46.3279963  34.5028639
  96.0675812  94.5206356  23.4346914  96.6668415  94.8997307  22.7917242
  96.6141129  94.3546963  24.2028022   7.2721606  52.2798347  61.9527817
   6.7411452  52.9927206  61.5977430   7.4676257  52.5505924  62.8498363
  84.1027927  69.0357733  32.0715570  84.0121937  69.9844408  31.9818211
  83.2163525  68.6974812  31.9450212 102.8091049  38.0949473  35.2465558
 103.5862160  37.8990221  34.7231627 102.2414970  37.3335457  35.1268530
  93.7495613  61.3914633  47.7185392  93.4755039  62.2856951  47.9221869
  93.4699631  61.2555742  46.8132257 100.9376144  68.9569330  48.3903837
 100.5581665  68.7844849  47.5286913 101.8304348  68.6169100  48.3313322
  98.4410000  54.0238667  43.5904408  99.2532063  54.3258858  43.1838322
  97.8279877  54.7487926  43.4682465   7.8459864  69.9247265 108.6492881
   7.7222949  70.8684969 108.5481135   8.7067824  69.8385382 109.0589614
 104.4810200  65.6379509  29.2382789 104.5756912  66.4289999  28.7077045
 105.2605820  65.1201010  29.0374041  97.2514343  43.2177401  18.8249683
  97.3013783  43.0789995  17.8791940  96.3404846  43.0256319  19.0474451
 102.1391392  71.3409996  30.3299928 101.6770458  70.5087137  30.4299879
 101.6299629  71.8206596  29.6766186  88.7621689  51.3978195  41.7554331
  89.0564060  52.1567059  42.2591686  89.4372654  50.7356167  41.9036007
  99.4126606  88.2658863  25.3107309  99.4398689  88.2483768  24.3540788
  99.4725609  87.3461151  25.5689144  88.3392715  63.5675144   9.8845172
  88.8968086  64.2923307  10.1674032  88.1538296  63.7531281   8.9639789
   0.8952838  64.2829561  45.7192516   0.3597098  63.9207888  45.0134039
   0.8171588  65.2314329  45.6166792 112.5615120  40.2419186   1.0094896
 113.2424545  40.8930159   0.8402924 112.4619579  40.2413177   1.9614980
  17.0172148  49.0294313  20.6747174  16.5299349  49.4430876  19.9621999
  16.7161017  48.1208277  20.6749010  81.2221622  44.3778706  66.1423254
  81.5637970  43.7596750  66.7883539  81.5803814  45.2247095  66.4083672
 101.7989254  44.3982124  54.0494537 101.9204426  45.2456760  53.6213493
 102.6845741  44.1163635  54.2784214 102.4838352  51.6691732   9.7753686
 102.3651409  52.6033878   9.6039593 101.6533947  51.3888502  10.1601005
  58.8029909  46.5759611  27.8709221  59.7306585  46.4008331  27.7128124
  58.3557701  46.2011194  27.1121597 109.4751358  56.5672970  61.2071371
 108.6213589  56.7299080  61.6082144 109.8812866  57.4321318  61.1494589
 106.4618206  41.4987135  58.7259531 106.7247677  42.3770380  59.0009689
 105.5481625  41.5953159  58.4573793  88.9424133  65.7760382   0.9461892
  89.5095444  65.8727121   1.7112054  88.7587929  66.6736984   0.6691964
  80.4441929  48.6785269  49.3943548  80.0132656  48.7359762  48.5415745
  79.7458124  48.8453865  50.0273323 109.1182518  75.6670237  33.1432152
 109.6224594  74.8679304  33.2963800 109.7536373  76.2858391  32.7832317
  63.4117365  62.5858212   1.7284407  64.1397095  61.9647503   1.7522269
  62.8136539  62.2287846   1.0718933  81.0922813  41.2493896  32.6456785
  80.1547432  41.2286758  32.8375745  81.1499786  41.0498524  31.7112851
 119.6031189  39.8661232  65.7409239 119.4579411  40.5033922  65.0416040
 119.7379017  40.3978634  66.5253401 121.7440319  20.1128268  27.9157066
 122.4004841  19.5935106  27.4513698 122.2080803  20.4595256  28.6777377
 114.9641800  15.7402515  54.1191435 115.5865192  15.0227594  54.0002441
 114.5156384  15.8103716  53.2764578 101.8300915   9.1979128  16.8760061
 102.3378658   9.8772418  16.4322627 102.4698067   8.7365210  17.4183321
  67.6959753  54.1754055  82.7287197  68.6203766  53.9503002  82.8337574
  67.6519632  54.6175098  81.8808746   7.2128516  50.3831911  31.5880060
   7.8202181  50.8113194  32.1913624   6.6777545  51.0966921  31.2403989
   4.4639903  64.2882299  34.2972422   4.6243125  63.3466339  34.2345738
   5.1847773  64.6187544  34.8333907 111.0537434  51.6112137  51.5405846
 111.5400410  52.3623180  51.8805885 111.0782146  50.9690237  52.2499704
 116.0978889  34.8535609  65.7802868 116.4869022  34.2214489  66.3847113
 116.7528439  35.5475545  65.7052231  64.1002798  92.0538807   1.4602339
  64.2650843  91.8999386   2.3904872  64.2961502  91.2162304   1.0404629
 119.8476696  39.1810679  52.1235752 120.3800869  39.4311261  52.8787136
 118.9479446  39.3654871  52.3932552   2.4413806  66.6266108  75.4362583
   3.3905058  66.7491436  75.4559708   2.2858363  65.8695793  76.0010052
  57.3741007 100.8200932  96.5146168  57.7160168 100.8950615  95.6237158
  56.4231062 100.8474445  96.4092776   2.6739245  56.1944246  60.2975750
   3.3193236  55.4972601  60.1807404   1.8680602  55.7370234  60.5375719
  94.9452209  59.3323421  66.3961267  94.8967743  58.9646053  65.5137110
  95.2331161  58.6023998  66.9443321 120.9988308  15.6826854  98.8363095
 120.8390617  15.4561615  97.9201254 121.5828896  14.9944758  99.1548511
 105.7618046  28.5818648  18.4780288 105.7853508  28.0724454  17.6679862
 104.8897648  28.9764476  18.4875596  83.0657005  18.6458468  24.4626570
  82.5289631  18.0217206  24.9511266  82.4326706  19.2126453  24.0219259
  67.7593470  22.8189087  30.1108360  68.4597158  22.1664476  30.1135135
  67.8834772  23.3001781  29.2927885  22.2515708  36.5971756  52.4706602
  22.1513968  36.9302320  53.3624363  21.5843897  35.9151721  52.3933411
  97.1361923  73.0416155  61.1042595  97.1006584  72.1161461  60.8624268
  96.8276882  73.0644751  62.0100975  63.9081669  41.9074869  59.7595310
  64.7306919  42.3236513  60.0173807  64.0125418  40.9912729  60.0162125
  63.9642811  68.3144522  32.8284097  63.6129332  67.4988842  32.4711537
  64.9097109  68.2467031  32.6950002  98.5125828  39.1108966  42.8158045
  98.5013103  40.0672483  42.8544569  99.2756176  38.9019465  42.2769690
  94.2009354  63.9188576  25.5646968  94.4972038  63.0982399  25.1709437
  93.9690495  64.4723415  24.8189616  87.9823399  80.6950092  28.3441401
  87.9531288  81.3761330  27.6722383  88.8520145  80.7809448  28.7346625
  94.0349674  49.0810347  41.3656425  93.3712673  48.3929729  41.3176250
  94.7242355  48.7108850  41.9171238  77.2008467  54.4768858  40.5483580
  76.7268133  54.2842484  39.7394013  77.0268774  55.4036331  40.7130146
  86.1318588   7.9243016  38.7400746  86.7777157   7.9457027  39.4462252
  85.9479332   6.9937330  38.6118340 119.4903564  30.6117034  44.2196321
 118.8629532  29.9592161  43.9084244 120.1702213  30.6305814  43.5460901
  93.9396191  87.3939991  30.3095818  94.8583984  87.3070049  30.5635738
  93.6316299  86.4929199  30.2124453 100.6210518  94.3413734  21.4174509
 100.8085728  94.9567795  22.1262169 101.4417362  93.8654709  21.2900567
 109.0475273  51.8636560  46.0902643 108.3439350  52.0972109  46.6957760
 109.6523571  51.3404417  46.6162539  84.7476578  24.3013120  34.3005538
  84.6721458  25.2230048  34.5475626  83.8539982  24.0383434  34.0804458
 117.6544189  44.4850111   3.1106919 117.3694801  44.7313499   3.9906693
 118.0357552  43.6135817   3.2175836 111.9299030  76.9065952  60.0731230
 111.4844799  76.9153404  60.9203291 112.1968269  77.8151560  59.9334717
  88.6642933  40.1155567  19.8870349  88.8948345  40.7362127  19.1957557
  89.1414547  40.4260159  20.6565595  96.4955521  63.0912876  36.2126589
  95.8197784  63.7536001  36.3572145  96.1786556  62.5850677  35.4646254
  83.6399841  71.8517160  31.4590597  83.5802746  72.6771402  31.9400358
  83.0268574  71.9537830  30.7311225 117.0814228  57.9697275  32.1769953
 117.0068264  57.0225048  32.2928905 116.1767578  58.2743502  32.1062207
 116.3627911  80.1246834 103.5687312 116.3813210  80.0341702 102.6159998
 117.0065689  80.8075619 103.7570169 106.2191105  45.0927877  32.1407771
 106.9783878  45.3152943  31.6020656 106.5918446  44.6929646  32.9265523
 113.8172626  51.2059212  93.1377348 113.8861847  50.8481359  94.0228733
 114.6753979  51.5950584  92.9692038  95.9893608  57.3960924  68.0323124
  95.8483410  56.4494944  68.0495167  96.0904789  57.6399469  68.9523888
 113.6227036  91.3197708  71.3109779 113.7184334  92.2213936  71.6177893
 113.1114292  91.3939857  70.5051708  13.1388884  55.4011822  73.3107090
  12.6520663  55.9972906  73.8798189  14.0585452  55.5827284  73.5044003
  95.9258461  42.1082687   0.2348803  96.7424107  42.0504522  -0.2612165
  96.2046242  42.1735716   1.1482544 109.7574902  39.8133349  45.6700182
 110.1425743  39.2015934  45.0425529 108.8426208  39.8900461  45.3991413
  94.3770790  34.4657350  10.5751681  93.7245083  33.9588189  11.0582995
  94.8846912  33.8095117  10.0977457 105.8278084  57.2563457  45.0703907
 105.3513336  57.9711008  44.6480894 105.1760006  56.5633202  45.1757240
 100.1331139  46.9126797 106.3634583  99.9814224  47.3254204 107.2136759
 100.7843208  47.4711561 105.9388822  89.6061325  64.7668886  33.8313293
  90.0036144  64.4044495  34.6230865  89.5982647  64.0373087  33.2117462
  94.5975018  54.0350151  16.0152435  95.3803444  53.8503981  16.5341997
  94.1403103  53.1955910  15.9645200  93.2327271  80.8787346  18.3744109
  93.3463287  81.1548901  17.4649787  92.3745441  80.4550934  18.3906591
 107.2875023  36.3346291  53.0358267 107.5156403  35.4140425  52.9065800
 106.9528580  36.6200972  52.1856785 105.5651665  59.5716095  48.8689899
 105.4537201  58.7576818  48.3777332 106.1524200  60.0994396  48.3279181
  85.3328609  37.7351570  20.7452703  84.9439430  38.6069703  20.8153963
  84.5836163  37.1435428  20.6756544 104.8357964  67.8612852  27.9516387
 104.8606300  68.6372566  28.5115314 104.4899464  68.1787777  27.1174812
  91.4842987  52.0510674  22.5699306  90.5434608  51.9163322  22.6835442
  91.6224861  51.9905996  21.6246915  98.1067181  45.4722786  28.3615017
  98.2606411  44.8343945  27.6646185  97.6827049  46.2094116  27.9220986
 111.4245415  61.1642170  34.5082617 112.3111916  61.0764694  34.1584134
 110.9659290  61.7053699  33.8655639  84.8619080  48.7932062  17.1097708
  84.6745110  49.4199800  17.8085339  85.7316685  49.0389061  16.7945397
  98.0805302  38.8510156   9.8450881  97.9433441  37.9904461   9.4490689
  97.9697037  38.7029052  10.7842433  92.3818874  86.3363075  21.6009879
  91.6984558  85.6668758  21.6329837  91.9835567  87.1049595  22.0093298
  84.7642708  66.6163826  35.5522251  84.5219231  65.9129143  34.9500370
  85.0732613  67.3221159  34.9841595  99.4990921  72.1280384  65.9581089
  98.8115883  71.7623138  65.4014921 100.2214336  72.3112917  65.3573799
 103.5617733  57.2825146  39.0089655 102.9107094  57.8563690  39.4127536
 103.8024330  57.7277279  38.1965017  90.7736588   8.5871613   6.5434432
  91.1291313   8.7555063   7.4161017  90.5603504   7.6540422   6.5476280
 117.4201870  29.9218202  33.2727742 118.2253933  29.4634533  33.5131526
 117.6772785  30.8418584  33.2122254  71.0384226  45.1856709  35.2014732
  71.8523312  45.1875114  35.7052422  70.8148289  46.1112976  35.1042485
 112.2689056  68.2768393   9.4057190 113.0080605  68.7508488   9.0246570
 112.5636864  67.3671198   9.4475180  98.0887604  67.7441549  52.2426081
  99.0344143  67.6366234  52.1405983  97.7101517  67.2064161  51.5471029
 104.0060329  16.9434941  52.3910141 103.1460190  17.2347033  52.6940060
 104.3834782  17.7134669  51.9656801   5.1070624  57.4190664  61.0132170
   5.2684527  57.5188160  61.9514227   4.1556483  57.3430490  60.9406042
 106.7426395  46.1680412  43.2720423 107.5229263  45.8013630  43.6878872
 107.0645714  46.5550709  42.4579191  79.5086575  41.6408396  24.6542549
  80.1910305  41.8389845  25.2956128  78.6882591  41.7612696  25.1324534
  14.5199614  22.2319984  41.3600826  14.2147284  21.4699626  41.8523884
  13.7285739  22.5899768  40.9578466   9.5869475  48.1485796  13.0737650
   8.6755210  47.9544067  12.8550518   9.9461394  48.5400820  12.2775650
  94.0454865  64.2180109  11.3937378  94.1842365  64.5889044  12.2651851
  94.5606995  63.4113026  11.3919616 104.7150230  57.1886969  10.4880166
 104.0168953  56.6922665  10.9151089 105.4350471  57.1805239  11.1186790
 113.1409550  80.6088448  18.8522768 113.5625839  80.5779743  19.7110581
 113.8594437  80.7592106  18.2379627 100.4263973  62.4987125  64.8688698
 100.5945301  61.6123629  65.1887846  99.5993996  62.7491379  65.2806807
 102.6163292  48.7471724  34.6469426 102.8978348  49.6596956  34.5814228
 102.6750946  48.5448503  35.5806684 102.9724216  20.6986356  46.1443233
 103.8374233  20.4667401  45.8063316 102.7836990  20.0274277  46.8001413
  98.7321281  22.3503685  30.8042884  99.5914078  21.9673228  30.6278276
  98.4003830  22.6017666  29.9423289  82.8789234  48.0425787  21.1036634
  82.3073387  48.0705786  21.8709588  82.5341988  48.7212467  20.5233097
 101.2459946  26.5200543  19.9698019 100.9626102  26.6386223  20.8763742
 101.9298840  25.8520770  20.0180483 104.5295334  44.3801117   4.5916519
 104.3373966  43.5554886   5.0380892 105.0780487  44.1281462   3.8487682
  68.1432104  43.5901403  27.7738857  67.9022598  44.0792894  28.5605955
  69.0841150  43.7380171  27.6787019  97.4848270  51.7242050  70.4935122
  97.3846054  50.8115005  70.2230310  96.9472122  51.8008327  71.2817574
  82.6797390  68.4271622  64.9634314  83.3656788  67.7760363  64.8159552
  82.5285721  68.4059906  65.9083843 100.5094814  40.2850771  31.9877958
  99.9534893  40.6020975  31.2760329 101.3950825  40.5447197  31.7337656
  51.7426157  46.7296648  20.7595587  51.8518591  47.4035692  21.4304876
  50.9581757  46.9947433  20.2793241  76.5234280  44.4154215  29.4127178
  76.0570860  43.8218164  28.8241673  76.6565466  43.9050770  30.2115035
  88.3773232  69.8929405  31.5376019  89.3030167  69.6735239  31.6433048
  87.9113960  69.1910076  31.9919562  10.5525046  39.0856290  57.6649952
  10.5735617  39.4015574  58.5683107   9.9772101  39.7003627  57.2096109
 105.2708912  79.4450998  45.5187130 104.8399830  79.1044760  46.3026285
 104.6325779  80.0478363  45.1372862 101.5794659  49.3346882  40.2731419
 101.9696999  50.1798487  40.0503349 100.6374741  49.5035219  40.2926731
  80.8381844  32.6119661  37.9426789  80.8510208  33.5687590  37.9178476
  80.5977440  32.3989797  38.8443780 104.2883205  40.0677109  45.1712513
 103.7792778  40.2228069  44.3756008 103.6638927  39.6774292  45.7828093
  68.3264637  67.3954868  81.2462234  69.0301514  67.2511148  81.8788433
  68.5404348  66.8174410  80.5138969   1.6386824  91.7937756  27.4088550
   1.6736823  92.6444626  26.9714403   0.8266001  91.3961792  27.0947504
  75.1093149  41.4213991  95.6094702  75.5059099  40.6983042  96.0953458
  75.3240633  41.2412548  94.6942314 103.9479065  50.1340342  13.8037908
 103.6056614  49.8405743  12.9594088 103.1683540  50.3393841  14.3198991
  78.9391136 142.5469721 100.3980269  79.7801399 142.8776968 100.0825461
  78.9247990 141.6296662 100.1249393 113.5805798  70.7135105  86.5256604
 113.4460068  71.6539574  86.6426214 114.4693851  70.5572319  86.8447550
 114.3467903  12.6401377  27.5944233 114.2733479  13.5102034  27.2022200
 115.0591564  12.7225661  28.2284307 101.9266415  52.5613689  29.7924972
 101.2358093  52.2258425  29.2211699 101.7792320  52.1220160  30.6300354
  86.3412666  41.6017723 100.1590385  85.4682732  41.9756031 100.0391414
  86.9310474  42.3549223 100.1250925  84.7586250  59.6535063  94.2116877
  84.6516800  60.0985050  95.0523826  84.2202187  60.1591349  93.6028477
  17.5480490  79.8117018  41.3116407  18.2778292  79.3624306  40.8852482
  17.3956614  79.3127871  42.1141958  74.8565340  29.4036627  26.4348459
  75.0644016  29.7868538  25.5826807  73.8998938  29.3870473  26.4630508
  87.4143219  40.6151819   0.0748412  86.7238998  41.1595011  -0.3036497
  87.7728367  41.1442375   0.7874424  61.8284273  15.7339764  11.0514426
  60.8760977  15.7310772  10.9550786  62.1532154  15.3606987  10.2320468
  82.7466774   2.9305398  95.5352839  83.4741783   2.9474628  96.1571296
  83.1254578   3.2463008  94.7148832  76.4820194  74.9966288  27.4605274
  77.1427536  74.6128702  28.0370569  76.1722517  74.2629385  26.9295144
  87.2563362  54.2646360  16.4178240  86.5578175  54.7939682  16.0329854
  86.7996693  53.5419893  16.8484867 112.7295876  36.5916061  41.8769693
 112.8030491  35.7898450  41.3592672 112.3169708  36.3120675  42.6941824
  86.5106583  76.0953856  37.9665565  86.7567253  75.2363873  37.6233292
  85.9533978  76.4742756  37.2867513 113.8774490  34.9407887  13.2010150
 113.8849449  35.8905768  13.3196545 114.7458553  34.7358465  12.8544414
 107.7346516  33.2469273  29.2393947 107.0113754  33.8336301  29.0183091
 107.3665333  32.6466966  29.8878098  93.2320023  72.0548820  55.2291822
  94.0215015  72.5933647  55.2835083  92.6097775  72.5909996  54.7376013
 115.3560066  33.8273692   7.0288688 115.2312660  33.0394244   6.4998955
 116.2140083  34.1596651   6.7649603 118.1542301  55.9003925   8.4701377
 118.8230228  56.5249252   8.7510455 117.6803970  56.3542032   7.7731657
  51.6850185  52.7288055  14.2922628  51.3145494  51.9919920  13.8063705
  52.3001099  52.3263597  14.9053967  95.7613564  32.1000028  13.9627314
  96.4790916  32.0684385  14.5952547  96.1145782  31.6799331  13.1785071
 113.5651112  38.9364195  34.3073106 114.1950417  38.4714818  33.7566304
 114.1029930  39.3877864  34.9578381   6.5336257  43.1494284  32.7364755
   6.4431315  42.9154205  31.8127418   6.1938696  42.3902750  33.2102633
 122.4259758  28.9632106  24.1692829 121.6836643  29.4437838  24.5357013
 122.1509743  28.7392664  23.2802057  90.3001499  73.5588360  15.0878239
  89.5664692  73.8967228  15.6014144  90.0493908  73.7187624  14.1780031
 121.5565872  64.0970898  94.2434748 121.1704350  64.6121550  94.9518760
 122.1109772  63.4559298  94.6882137 123.1149006  38.2471848 104.8842385
 122.6550388  38.3491635 104.0509590 122.9119396  39.0470481 105.3692695
  77.1332216  66.9998169  84.7237190  77.1292448  66.2990141  85.3757127
  77.5751400  67.7290630  85.1586231  89.0339661  49.7672224  95.4814156
  88.3161163  50.3999424  95.4571530  89.2933273  49.7344494  96.4022251
  98.9966965  57.7241087 101.7690083  99.1121483  58.6249113 101.4665868
  98.2477760  57.3980522 101.2699708  89.5627403  17.7260125   3.3370337
  90.1523590  18.4694707   3.2111329  90.0714207  16.9662488   3.0537912
 108.6275768  47.0152807  11.8709970 107.8466511  46.6491365  12.2861028
 108.2936382  47.4925375  11.1114299 118.7672806  37.7576113   6.1763144
 118.3045387  38.2409883   6.8607473 119.4500732  37.2758913   6.6431934
  87.9100227  46.4398241  26.3218474  88.4487534  47.0599747  25.8305168
  88.5197639  46.0226059  26.9304276  96.9058514  43.1077194   3.2998154
  96.2699413  42.4813318   3.6454856  96.3742256  43.7685919   2.8561339
 112.5757313  48.2571840  28.4217262 112.3522758  48.1786299  29.3491578
 112.6700211  49.1986656  28.2769847  69.8243713  11.7307174  10.6546962
  69.8593998  11.4035606  11.5535700  69.5585155  12.6459932  10.7431281
 104.3757439  51.3784742  33.3031559 105.3022385  51.3792753  33.5436201
 104.3546677  50.9818459  32.4322534  77.3606968  45.5933428  22.8117537
  77.7395535  45.2134085  22.0190692  78.0743313  46.1002159  23.1991029
 100.1396942  30.6943488   9.8942792 100.6898403  30.8022165  10.6701279
 100.2906990  31.4882731   9.3813324  89.1621017  11.6904068  12.1353757
  89.4818687  12.3206019  11.4897466  89.5150280  10.8495343  11.8444967
  89.2315483  48.2914257   3.4572679  89.6944714  47.5349808   3.0970976
  89.2224026  48.1389856   4.4022074  59.6968889   6.7300832 104.4803556
  60.0451612   6.2121701 103.7546130  60.3040171   7.4654937 104.5627948
  13.3174067  19.5729399 102.1074327  12.9443102  19.4520080 102.9805889
  12.8421717  20.3207946 101.7453721   5.0016814  28.4724522  96.7740592
   5.5481654  29.1209555  97.2179445   5.1146727  27.6724195  97.2872933
 117.5740242  49.5654297  31.7891979 116.9118118  49.1807890  32.3634434
 117.2976589  50.4754257  31.6807842  21.1513739  37.6168942  42.3210192
  20.9476023  36.9959807  43.0204344  20.7456427  37.2398806  41.5403271
  92.6553154  92.3961163  32.0457983  91.7449379  92.2099304  31.8160629
  92.8270435  93.2574368  31.6651893  99.1353226  78.5442448  17.1518207
  98.7999058  79.0318775  17.9041064  99.4727325  79.2175770  16.5610492
  88.5612488  34.1084623  26.8548012  89.2294025  34.0220666  27.5347543
  88.7239265  33.3728743  26.2643099 107.4484348 114.9632454  72.0334864
 106.5637207 115.0932503  71.6919947 108.0210018 115.3377056  71.3640261
  95.4450226  69.7765970  88.6012276  94.8287201  69.8472691  87.8722438
  96.1951923  69.3074512  88.2360276  93.6974525  71.8049431  37.8038144
  93.5550499  72.5514841  38.3857298  94.3128204  72.1281815  37.1457410
  95.7696724  80.8945942  39.6777344  95.4765987  80.0222015  39.9409342
  96.5507793  80.7351398  39.1479397  96.0235500  24.6623397  34.1108489
  96.3399506  24.5501971  33.2144403  95.5786800  23.8391542  34.3125629
 109.9546814  70.6227541  37.2177672 110.0477505  70.1299381  36.4024758
 109.0153217  70.6072950  37.4010777  83.5307884  59.1252184   9.8662311
  84.1031170  59.2874146   9.1163254  83.8137722  59.7593117  10.5250764
 102.1205044  44.9600554  29.0406394 101.6050148  44.5908403  29.7577095
 103.0263424  44.7416115  29.2596340  -0.1325673  48.8305902  97.8192731
   0.7750350  48.7909937  97.5177356  -0.0653715  48.9249802  98.7694343
  92.0869923  70.1358414   2.2462469  92.8345203  70.2502775   2.8330439
  92.4379063  69.6427202   1.5046778 116.3298130  37.9714727  43.5331869
 116.5075493  37.1190333  43.1357098 116.9541550  38.0335259  44.2560863
 119.0665340  13.4033334  99.5642384 118.6472225  13.1760907  98.7343153
 120.0043678  13.3717954  99.3752881 117.6496029  50.8428144  84.8065695
 118.3364487  51.3043213  84.3254336 117.6131916  49.9768162  84.4004186
  63.5940027  39.7225642  62.2050476  63.8887119  40.1922274  62.9853010
  64.0783072  38.8971686  62.2251272  93.6391258  67.1517801  17.0922458
  94.4572353  66.6573238  17.0427918  93.8963890  68.0580568  16.9228113
  85.2927399  24.2660642  18.6830795  85.6143951  23.3662343  18.6276221
  85.8771801  24.6910763  19.3107903  95.5644035  44.4695997 107.5611202
  95.8622074  43.5603619 107.5897775  96.0875225  44.9141121 108.2281923
   6.0264140  31.5411592  33.2761693   5.3756934  31.8523002  32.6468945
   5.5942660  31.6204405  34.1265750  94.7461987   5.2190477  28.3113813
  93.9725208   5.2603650  28.8734770  94.4258881   5.4678446  27.4443531
  66.8902206  32.5105023  31.7520094  67.0723057  31.8594193  31.0743880
  66.3307571  32.0529723  32.3796201 107.8594494  94.9278259  32.3344493
 107.6584435  95.5889606  31.6720891 107.7609444  94.0928078  31.8769884
  77.3322630  15.8034301  13.8877034  76.8239641  14.9954951  13.9591348
  78.0351353  15.5907094  13.2737374  40.2433634  66.3012266  20.4352665
  40.3316069  67.2284603  20.2146244  40.5123663  65.8394146  19.6411645
  95.9307194 142.8769336   7.3207253  96.3555431 142.8290058   6.4643049
  96.6512203 142.9987220   7.9390121 100.8123112  41.4374018   5.8041400
 101.3998222  40.7323313   6.0760564 100.8886433  41.4582825   4.8502171
 106.0406590   6.2038606 101.2101664 106.6563797   5.5424368 100.8945110
 105.4428864   5.7214487 101.7812833  92.4898148  31.4523101  92.2562786
  91.6916752  30.9244156  92.2331818  93.1240273  30.9501100  91.7446109
 123.1802750  72.3473549  90.9869953 123.2005024  72.8273630  91.8148931
 122.3820686  71.8211985  91.0346457 108.3481789  50.3510761 102.7321341
 107.5256634  49.9024439 102.5360891 108.0902195  51.1004686 103.2688858
  96.7359734  48.4988403   0.5479895  96.8004513  48.7612867   1.4662468
  97.5334454  48.8414669   0.1443974  81.8623352  66.6182470   5.1663226
  82.4753284  66.0589314   4.6892002  82.3131561  66.8235254   5.9853816
 100.3079033  29.5233965  15.3347278 101.1548615  29.5849872  14.8930311
 100.3668022  28.7220860  15.8549821 113.6956310  35.0843811  94.6655747
 113.8089371  35.7774639  94.0151664 113.2452106  35.5111861  95.3944036
  92.3443890  50.0282097  13.8379323  91.9871998  49.1504002  13.9724720
  93.1274223  49.8891258  13.3052623  64.6340513   7.5864697  90.9439373
  64.4787216   8.5295624  90.8921814  65.4578209   7.5054383  91.4246368
 121.3261986  76.7136860  22.0267725 121.2767315  75.7588625  21.9809866
 122.0960236  76.8879461  22.5682783  68.9152670  32.0401525  27.6922536
  69.6154881  32.1914959  28.3270860  69.3717337  31.8235111  26.8792748
  72.0552874  67.2302055  19.9880600  72.6440859  67.2330189  20.7427382
  72.2465134  66.4072561  19.5381486 106.7294025  43.8372755  23.2776570
 106.6443539  43.6465502  24.2118001 107.3699951  43.2006216  22.9605722
 122.0048046 109.8478127  46.7720366 121.3603687 110.2178097  47.3753929
 122.7346516 110.4668045  46.7920256  91.6836739  60.6194973   7.4982202
  92.2663689  59.8753023   7.6494652  91.8438244  61.2035990   8.2394421
  88.8524342  53.1736994  14.3733156  88.2249832  52.9955530  13.6727417
  88.5290337  53.9741993  14.7866499  57.5936365  25.0585914   9.2902428
  56.7000866  25.1323867   8.9550585  58.0904675  24.6780443   8.5659659
  10.4772215  50.4442501  60.9750756  10.8684569  50.5724430  60.1109370
   9.5985060  50.8158588  60.8976802 101.0956860  60.4820824   3.9334437
 100.8259678  60.3056240   4.8347482 100.2911282  60.7532310   3.4914020
 116.4461994  64.3734169   3.6765242 116.7263412  64.4331598   4.5898607
 117.1450901  64.8026896   3.1830627 124.4710541  66.3448763  44.0696001
 125.2885723  66.2182236  43.5880804 123.9826775  66.9824648  43.5488367
   1.0610800  50.0312471  34.9374151   1.2433653  49.0981102  34.8266983
   1.0416632  50.1606321  35.8856320  77.1001196  75.0544548  22.6914382
  76.9059706  75.9724808  22.5023103  77.2501898  74.6595097  21.8325281
 116.8136978  35.8015490   0.8247880 116.4204025  35.0955892   1.3377894
 117.1548462  35.3678679   0.0426307 112.0783329  63.7054205  39.9273252
 111.8005085  63.7785912  40.8403969 111.9721603  64.5883417  39.5731807
   5.8577471  50.0192976  47.1868658   6.3243418  50.4910707  47.8767633
   5.6616049  49.1649675  47.5714254 107.4452019  52.7959156 104.0389856
 106.8402100  52.0671272 104.1770967 106.8786621  53.5580540 103.9189603
  90.4041386  26.0009718  31.7849183  90.2833366  26.0475469  32.7333212
  89.6578121  25.4890084  31.4732671  97.1587849  79.4885778  35.6663823
  97.5619316  78.6249495  35.5777597  97.0558167  79.7983122  34.7665548
  86.0462666  64.0057755   8.2649946  86.3747787  64.8682499   8.5188729
  85.2513313  63.8895655   8.7853730 100.3121948  47.5299406  27.1263242
  99.3677616  47.4963140  26.9741845 100.5173779  46.6936541  27.5443602
 106.0094261  37.0402074  22.2053885 106.4389038  36.3768387  22.7455044
 106.0157299  36.6708946  21.3223243  92.6150322  43.8063860  28.5583949
  92.6657295  44.3708992  27.7870417  93.3751202  44.0524197  29.0856218
  52.0555449  81.8554401  28.2865167  52.7228546  81.5699100  28.9105392
  52.4789333  82.5523758  27.7852631 114.4614506  35.0511527  86.3932093
 114.9930191  35.5158281  87.0395430 114.7662640  34.1449523  86.4393171
 101.0326004  35.8182573  34.6186066 100.5061817  35.0572371  34.3737316
 101.1435509  36.3054657  33.8021827  23.6348181  45.9707499  16.4705348
  23.2551795  46.0162592  17.3480511  24.3179350  45.3037930  16.5394044
  94.8177338  34.2419863   1.2080149  94.5920563  33.3131194   1.2580948
  94.1014671  34.6359801   0.7100533  98.8364983  37.3638678  15.5078530
  99.6796799  37.7148795  15.7943225  98.2188225  37.6427960  16.1838078
  72.9458523  67.2841358  32.7509975  72.4476814  67.1408749  33.5556912
  72.2977114  67.2061491  32.0509553 120.9004593  52.2762871  49.6981049
 120.3780079  52.9986000  49.3494701 121.1596203  51.7736006  48.9258528
  94.9796200  31.3876843  53.5210276  95.3451633  32.0504093  52.9350233
  95.3872490  31.5662575  54.3684864 116.8718624  54.3325996  33.8119292
 116.9663429  54.0618181  32.8987026 116.0752010  54.8631048  33.8232541
 113.0113888  40.3575087  47.6868200 112.0974827  40.2693844  47.4161816
 113.5090923  39.9212050  46.9953299  72.9581118  41.8803406  36.3028073
  73.8049459  42.1372557  35.9379792  72.8550768  42.4303770  37.0793867
  85.5447388  41.2728500 107.8026433  85.8384514  41.8054771 107.0635372
  85.2113914  40.4700565 107.4018458 113.9871311  82.3388386  15.1034200
 113.2744980  82.7149677  14.5867956 114.7283554  82.9251575  14.9516070
  80.2734280  39.0941024 103.0403473  80.8609009  39.0003514 103.7902238
  80.6575394  38.5362720 102.3639497 107.4893761  13.9675391  93.9873954
 107.3677826  14.7927547  94.4569334 107.5365067  14.2211497  93.0656084
   9.0040427  16.4742565  91.5059241   9.3079691  16.6925788  90.6249043
   8.2938986  17.0935071  91.6746243  15.7369166  52.0523119   7.1250612
  15.1131468  51.5196753   6.6316652  16.5949088  51.7089939   6.8756390
  14.4167071  36.4644718  34.7092867  14.6028166  37.0913339  34.0102577
  15.1581317  36.5473700  35.3089929 102.8946686  57.3435688   8.0296487
 102.0384312  57.6057243   8.3678305 103.5214996  57.7175283   8.6488968
 110.0745392  74.6321440   3.7355718 109.6219730  75.4219294   3.4395084
 110.7742214  74.5027876   3.0953050 116.4769840  55.6492281  22.4315357
 117.1410561  56.2068892  22.8368378 116.7540741  55.5716658  21.5186095
  99.7527409  22.9712415  10.8066046 100.5003738  23.1964493  10.2529228
  99.0609932  23.5728574  10.5313194  92.0040512  60.7547951  94.1489288
  92.0569420  59.7990561  94.1495892  91.0655022  60.9427309  94.1433140
  97.8943348  74.8100710   4.7663829  98.8434124  74.9292707   4.7306889
  97.7380466  74.3834066   5.6088555  99.4237900  62.4860764  29.9460196
 100.2778721  62.1567345  30.2258515  98.7971687  62.0436859  30.5186129
 100.7815075  37.0392418  23.6968446 100.8734322  36.0921288  23.8005614
 101.6780186  37.3724866  23.7349319  96.7262554  53.2709312  30.3004169
  97.1874619  53.4108019  29.4734001  97.3086834  52.7046013  30.8066535
  90.5844784  60.6091166  42.1481276  90.9405518  60.4909611  43.0287409
  90.9822845  61.4218616  41.8359900 122.1062660  27.8106523  75.3162631
 121.8349075  27.2627044  74.5798167 121.8498230  27.3127556  76.0925158
 121.4482117  73.6783743   1.9470266 121.1162758  73.3023787   2.7623042
 120.8257580  73.3900833   1.2794377  52.6783609  44.5196199 103.4221824
  52.8577232  44.4933987 104.3620619  52.9438114  45.3987312 103.1521269
 114.0031242  57.0357656 105.4857456 113.9380074  56.3820219 104.7896066
 113.1465912  57.4629736 105.4940074  82.0741081  40.4648447  99.9498566
  82.6366711  40.5459929 100.7200357  81.1898136  40.3821993 100.3068080
   8.9844828  17.5750363  99.6868249   9.9387198  17.6001024  99.7578009
   8.7910204  18.0619681  98.8857611  13.9544135  40.1586914   1.5783831
  13.3366042  39.4277024   1.5642379  14.8138171  39.7444725   1.6563396
   2.8181677  55.2862453  29.9515486   3.4976893  55.9603739  29.9465466
   2.5323706  55.2410078  30.8639669   1.6606265  71.5225029  19.5204628
   1.9780379  70.8231640  18.9491439   2.2777300  72.2414827  19.3845117
  87.3058701  45.0003290   8.5440463  87.3000908  44.7670984   7.6157123
  86.5008163  44.6171188   8.8922906 104.9591446  52.4112034 102.0714220
 104.1981888  52.7330780 102.5547131 105.4837418  53.1936932 101.9018992
  74.8079538  24.0663242  97.4655136  75.4567528  23.4443378  97.7947923
  75.3262043  24.7973514  97.1289893  93.0163288  40.1159477  92.6945468
  92.1993637  40.6114340  92.7518209  93.5970879  40.6709766  92.1740755
  78.8797474  50.5927038   7.0199448  78.9231205  49.8874664   6.3741958
  78.3077002  51.2481546   6.6207194  72.2509289  38.3337760 100.7999119
  72.0653629  38.9582539 101.5012147  72.4504614  37.5153971 101.2545284
  89.8438740  49.8104572  27.2708702  89.9475384  49.2565012  28.0445719
  89.9165058  49.2061234  26.5321302 102.4828911  48.2257128  50.5323458
 102.6575851  47.5763226  49.8511696 101.7329121  48.7215567  50.2038670
 120.8501530  60.1881838  30.5429959 120.3830338  60.9262609  30.9344959
 120.6789398  60.2669907  29.6045375  95.0344563  48.2048178  16.6140497
  95.4998970  47.8113556  17.3521459  95.6751633  48.2114029  15.9029281
  83.0970383  22.6174521 101.6713443  82.3704433  23.1374598 101.3280090
  82.8961086  22.5096083 102.6009830   4.4906169  61.7869473  22.8148174
   3.8747435  61.0606861  22.7174950   4.0476161  62.5325584  22.4097896
 101.2023163  56.9498491   3.6738625 101.6491508  57.3653603   2.9363537
 101.9044876  56.5407801   4.1796771  89.6812248  63.6941528  94.2988332
  89.2032337  62.9486322  93.9355835  90.3178883  63.9233541  93.6218079
  90.0752735  29.8120427   6.1652541  89.8010063  29.5460796   5.2876019
  89.3823910  30.4007077   6.4646107  79.4654846  36.1173773 102.8698298
  79.3662119  35.3554440 102.2990116  80.4092503  36.1878991 103.0131992
  99.1134071   5.6961054  15.8498180  98.5403633   4.9614310  15.6304955
  98.9384556   6.3474143  15.1705396  10.9062510  82.1164322  93.0178901
  11.3861209  81.2882900  93.0057653  10.0793963  81.9205952  92.5772091
 114.5728970  36.6058731  11.0296810 114.6181583  37.1357107  10.2337825
 114.4078159  35.7166028  10.7163501  89.7177982  83.8138199   6.8783379
  90.4986668  84.1827202   7.2911108  89.9815273  83.6465073   5.9735256
 120.9066105  47.5851202  38.4465408 120.8341503  47.9339457  37.5581145
 121.8484020  47.4971342  38.5932350  93.4400940  51.1354160  16.1828673
  93.9894581  50.3670073  16.3376951  92.8205681  50.8551073  15.5091798
  74.6152878  43.3505583  47.5477791  74.5154190  43.9674664  46.8227386
  74.0976429  43.7298441  48.2580042 112.4580193  57.2849321  12.2392738
 112.5037766  58.2043171  12.5017035 112.4555397  57.3088312  11.2823749
  95.7687473   9.6548086  40.3912783  95.9578705   8.7462384  40.1568365
  96.6090965  10.0061297  40.6855726 106.8196392  52.0978546  86.7616328
 107.7377415  51.8973637  86.5796622 106.4948368  52.4897718  85.9509906
  97.3357677  69.4411230  43.8062668  97.9481983  69.7873592  43.1572056
  96.5572357  69.2079878  43.3005285  68.3029699  43.2502985  93.4511515
  69.2186832  43.4501982  93.2568713  67.9930830  42.7742100  92.6807352
 110.2512455  78.8010359  32.3158979 110.8673096  78.2688761  31.8124127
 110.7065201  78.9806080  33.1385231  69.7229815  65.0413895  16.2374055
  70.3326607  65.7737923  16.3274705  69.0812635  65.3417015  15.5937910
 101.2064266  44.5543575  26.4951158 101.9851780  44.4503069  25.9483504
 101.5500736  44.7543192  27.3658323  74.1523838  74.0185261  79.9182209
  74.4064045  73.1900644  80.3248628  74.6031666  74.0190077  79.0738138
  14.0579444  19.5520151  45.9779119  14.8360854  19.9545181  45.5922842
  13.6286765  19.1103160  45.2451992  21.4530593  33.5884500  11.4019132
  21.6892558  33.5277224  10.4763031  20.5059462  33.7270284  11.3988256
  74.0431499  30.2089477  45.5622864  73.4254026  30.8711481  45.2522755
  73.5953999  29.7888184  46.2966156 122.6816654  28.6611414 108.1315436
 122.0923328  29.3067956 108.5214792 122.9203320  28.0852294 108.8579021
   7.2857314  46.9707298  93.4717437   7.0368414  47.6150990  94.1343721
   7.4854785  46.1787891  93.9709028  74.1478920  31.7931080  20.6188154
  73.3839035  31.3291955  20.2762651  74.6457386  31.1223269  21.0861826
 124.8784447 142.9769028 103.0858447 124.8092461 142.0223183 103.1003978
 124.0422249 143.2721997 102.7256163   4.3820792  22.6086736  99.6656080
   4.8187285  23.3389950 100.1040139   3.4523612  22.8349185  99.6917661
  80.0016880  66.1632395  91.3662966  80.8388042  65.7165909  91.4926776
  80.1376820  67.0358562  91.7354568  71.4385843  26.3266277   5.8318919
  71.8054485  25.4452777   5.7621539  71.4978552  26.6816092   4.9449265
  59.6338701  64.3606615  22.1523929  58.7256432  64.1598892  21.9264555
  60.0475550  64.5727634  21.3156676  92.4885178  59.2836142 105.0852155
  93.3374977  59.3644142 105.5198946  91.8619347  59.6390676 105.7155096
 110.2159119  21.8964934  11.2088537 109.2616463  21.9329119  11.1434293
 110.3856087  21.2136674  11.8578410  73.3781528  28.4061718  15.7927060
  72.9447603  27.9742384  15.0566113  74.0146780  27.7637577  16.1063564
  90.2453423  62.9077387  38.0056763  89.8891258  63.7954712  37.9700398
  89.7697449  62.4874067  38.7221670 112.0975494  31.1879802  85.1314124
 112.7924156  31.1681271  84.4733914 111.4839935  30.5083156  84.8524173
  96.6142750  52.0255995  22.7079678  95.9813213  52.3850489  23.3295727
  97.4485874  52.4215269  22.9597521  78.0013704  55.4682541  13.9860785
  77.7381277  56.2664604  14.4441211  77.7961397  55.6406546  13.0671716
 113.5037231  36.1265516   6.3558618 113.9942551  36.6066003   5.6886522
 113.9288807  35.2698779   6.3956777 117.7135277  51.1126089   7.8219930
 118.2362747  51.9115019   7.7531473 117.7925968  50.6997824   6.9620172
  93.6582756  60.2305651 100.5293179  93.5372257  61.1800718 100.5261326
  92.9646683  59.9026060 101.1016655 107.2502232  64.1270971   1.9868223
 107.4953079  63.2669973   2.3279802 106.6284275  63.9377546   1.2841455
   8.1419211  36.2457919  86.2489128   8.6517554  35.8396029  85.5479813
   7.7400427  37.0120835  85.8396149 116.4733219  17.3463500  12.1288339
 116.3067150  18.1966782  11.7221204 117.2527122  17.0157969  11.6821710
  83.9880085 132.8744359 106.1769485  84.0928459 131.9801528 105.8521366
  83.1805897 133.1849582 105.7672119  84.7480679  31.3815451 102.4016094
  85.4872131  30.8293653 102.1466637  84.8702145  31.5270948 103.3397579
  96.2058544  22.6145816  89.9589729  96.4367104  21.8954730  90.5470467
  95.3949547  22.9703164  90.3224659  91.5177250  14.5905423  95.2645206
  90.5755424  14.6229482  95.4302597  91.8836880  14.1717470  96.0435677
  86.9369411  72.3731375  80.8334160  87.0100975  71.6529083  80.2072048
  86.0101795  72.6120186  80.8165073 122.1017265  56.9324255  79.5802927
 121.7829227  57.2614765  80.4207230 121.4831543  56.2414312  79.3434000
 117.7951717   7.7374226  77.0014572 117.0913601   7.4959439  77.6035881
 118.5752583   7.3178053  77.3642492 109.7131634  10.5451047  83.4648609
 109.4950581   9.6719772  83.1388092 110.0836277  10.9980249  82.7073383
  64.5906687  12.1769893  58.5576630  64.5779181  13.0217171  58.1076622
  65.1998568  12.3023891  59.2852592  23.2984572  20.3388619  66.6061068
  23.1505423  21.2483740  66.3469839  22.7760249  19.8261154  65.9893513
  69.0796614  26.5679526   0.0553266  69.0910101  27.5131321   0.2061216
  69.0629148  26.1856246   0.9326974 123.1323433  37.0472264  49.4406605
 122.2545910  36.6868687  49.3144369 123.7183571  36.3832951  49.0773249
   0.3150874  33.9338875  74.4185400   1.0824900  33.4978676  74.0481091
   0.4930621  34.8677516  74.3069077  74.3842411  46.8038654 108.3601665
  74.0199184  46.1082077 108.9074898  74.4343901  46.4188147 107.4852657
  66.3773680  30.3735805  92.7441788  66.2540817  30.1565957  91.8200874
  67.0319939  29.7467828  93.0521107  92.4214268  40.4989290  15.2180139
  91.7303848  40.2715063  14.5959512  93.0941772  39.8314857  15.0832216
  72.9571819  50.6908751 100.0902367  73.8989115  50.6110859  99.9385452
  72.5841379  49.8995113  99.7019005  66.6991472  63.5838604  97.2539234
  66.9058132  63.2030344  98.1074429  67.0638466  64.4680595  97.2915268
 122.6041985   8.8957590  10.7689039 122.5282574   8.4389549  11.6066400
 122.1148014   8.3500677  10.1533166  90.5245018  60.7198429  27.0997182
  90.8533573  61.2352753  27.8362123  90.7947922  61.2111092  26.3239423
  74.6857882  34.0702891 105.1539421  74.4905615  34.8778605 105.6292725
  75.5573511  34.2141080 104.7852516 106.1573029  34.7404242  85.0204945
 105.3312111  34.5912528  85.4804325 106.8321037  34.5181417  85.6619453
   1.5104991  58.2304144  30.9984247   2.0252925  58.5643768  31.7330686
   2.1393710  58.1527758  30.2809755  58.8835716   2.4578562  74.8075438
  59.5036793   2.1349469  75.4613256  58.3970165   3.1475434  75.2590179
 103.3619881 135.8672113  72.5107956 102.7502728 135.1761586  72.2568512
 103.2693195 136.5318305  71.8282080  88.8218498  35.1070547 100.5303383
  88.3885765  34.2931724 100.2732372  88.1335640  35.6222248 100.9511471
 120.3692722  63.0572367  63.0028152 120.9954166  62.3544264  63.1766796
 120.6847477  63.7939787  63.5261869 123.3945656  64.0443230  96.6351891
 124.0030575  64.6039915  96.1527634 123.9496040  63.5538149  97.2414589
 100.3589630  38.7255573 108.9896297 101.2807655  38.5748839 109.1989422
 100.3068924  38.6105037 108.0408001  81.8459702 144.1611976  84.6157074
  81.9886208 143.7389536  83.7685966  81.7733574 143.4356205  85.2357864
  92.8614902  62.0347166  85.9802151  92.7004242  61.3825846  86.6621304
  92.5037766  61.6419840  85.1839447 123.1154346  40.8820963 101.8196487
 123.8370323  40.3802824 101.4405632 122.4524689  40.2251482 102.0320892
  93.9190483  26.7953610  20.8703557  94.2884445  26.7062235  19.9918119
  94.4266796  27.4997663  21.2732831  63.0031586  11.2972140  70.3057623
  63.7739468  11.8640351  70.2770424  63.3508968  10.4305196  70.5158806
  57.8159904  24.4290280   2.1950857  58.6927748  24.3750453   1.8148652
  57.5297928  23.5184789   2.2673742  89.3839264 143.3465246 101.8514252
  88.7087917 142.8600044 101.3784313  89.0056992 143.5010568 102.7170372
  90.7266998  39.5472908  96.6795254  89.8280716  39.6637583  96.9879818
  91.1439800  39.0116239  97.3541927  91.6565800  15.7310927   2.4589769
  92.6075268  15.6686509   2.5486604  91.3295269  14.8936248   2.7874700
  98.0784988 129.1425831  71.1728811  97.9017544 128.7653358  72.0346689
  98.4528255 130.0033576  71.3604259  99.3727779  24.7603941  60.3600931
  99.8904991  23.9560294  60.3947306  99.9234200  25.4181147  60.7848692
  67.6239443  32.8448963   0.4406396  67.0651770  33.6216450   0.4146615
  67.7663660  32.6214337  -0.4791506 109.7441196  44.7594929  10.6807176
 109.4697189  45.6026649  11.0412637 109.2773151  44.1105413  11.2072126
 120.0161934  37.7337217  89.2683887 120.0570202  38.4503508  89.9016380
 120.8364868  37.7991462  88.7794304  14.9995261  43.2643414  83.7617111
  15.1217394  42.4613857  83.2551956  14.1863185  43.1207371  84.2457581
 120.1232624  68.4318304  90.6558514 119.6233559  67.6614094  90.9256172
 120.8975220  68.4240580  91.2185955  90.3012276  44.0688133   5.6025354
  90.2276897  43.4783316   4.8527662  90.4172993  43.4879208   6.3544122
  71.2163782  38.1633091  76.6445541  71.9117165  37.6901102  76.1875868
  71.6753006  38.6910129  77.2981215   0.5085116  31.4611578  88.8975143
  -0.0058240  31.2982988  89.6881962   1.2965422  31.9046116  89.2115116
 122.0938778  20.4355955 102.8306007 121.6927338  19.5771110 102.6952267
 122.2463703  20.4825711 103.7744045  99.0417194  44.1404676  82.2907639
  98.6082077  43.5304594  82.8875828  98.9192009  44.9992466  82.6953888
 122.7181530  44.2797613  12.7449075 122.6864147  44.9827099  13.3938161
 122.7535629  43.4762001  13.2638112 104.9641514  23.3507013  82.3990250
 104.9550438  22.8485513  83.2138824 104.3924046  22.8598237  81.8087769
 109.6944332   0.0960989  20.7362024 110.4736519   0.4668716  21.1504308
 109.7363281   0.4019532  19.8301545  83.4616089  14.4325829  90.3534794
  84.3513775  14.5646453  90.0262070  83.1158447  15.3173804  90.4709911
  66.8432140  28.8434410 101.8967628  66.5368176  28.5773969 101.0298347
  67.7377272  29.1512060 101.7506313  59.1501188  25.5761027 100.5811405
  58.4695816  25.8158445 101.2101269  59.7118711  24.9647284 101.0574627
   5.7968741 136.3740976 103.3999538   6.0467082 137.0023240 102.7223492
   4.8741751 136.5617872 103.5721016  30.2320194  37.0215988  32.9520646
  30.5029941  36.1073852  33.0358449  31.0238361  37.5245333  33.1426278
  97.8460121 135.6453032 102.8745747  97.7088451 136.5918399 102.9131126
  97.7558517 135.4278094 101.9467735  74.8302412   4.4833949  81.5595341
  74.2894030   4.3816116  82.3427010  75.5989838   4.9677664  81.8606186
  57.7779579  19.0401065  17.1954480  56.9901943  18.5496080  16.9607679
  58.5010004  18.4576404  16.9626943  82.5650311  34.0643430 105.3368378
  83.0204773  33.6014771 104.6335888  81.9308281  33.4294820 105.6699657
 117.5894165  13.1302166   8.3392087 116.8982601  12.8802383   8.9524499
 117.6228428  14.0853536   8.3923856  12.8370696  55.2891397  95.8331394
  12.7357798  56.1673069  96.2002850  13.7689143  55.0940657  95.9323788
  48.8421011  12.0624650  96.2982273  48.2689190  11.3240194  96.0923290
  48.2939959  12.8356981  96.1643505 118.2580566   7.9670495  89.6262455
 117.7909565   7.1417248  89.4962883 118.6996460   7.8622156  90.4690075
 118.0834389  34.7608376   7.1837751 117.7784729  35.0912857   6.3387719
 118.6134052  33.9945889   6.9641725   8.9844828  41.1953974  89.9850750
   8.1666499  41.6040468  89.7015381   9.6683436  41.6886902  89.5320606
  10.7263499  40.4572105  11.0071031  11.4403468  39.8606992  11.2320653
  11.0960513  41.0309887  10.3360406  82.8220844  54.3338633  88.1901932
  83.0257416  53.4810114  88.5741043  82.1991825  54.1387701  87.4900723
  92.3253059  27.7093911  15.8067170  92.7635384  28.4229064  15.3429452
  91.5581894  28.1191278  16.2065641  95.1278400  29.3128157   2.8279821
  95.3470993  29.4473791   3.7499658  95.5925846  30.0111198   2.3668805
  70.7962370  30.4866695  96.1020851  71.4715624  30.6446934  96.7617798
  70.6584740  29.5396543  96.1224365 118.8683891  32.4983740  29.4854204
 118.0732155  33.0311108  29.4741288 119.2928505  32.7191567  30.3144685
 103.3721828  31.1605430   6.6755716 102.9357243  30.3133869   6.7653695
 102.7437782  31.7046070   6.2008706  96.8203545  25.0144577  20.3577653
  97.2158527  25.3719139  21.1527673  96.5507889  25.7845473  19.8572389
 114.3469429   3.4488964  94.5999241 113.5738277   2.9023474  94.7407055
 114.0086651   4.2377007  94.1761398 109.0176010  39.1838288 102.3409367
 109.1324806  40.1144791 102.1487808 109.0372562  39.1323733 103.2965565
 104.9842834  37.2183514  98.3757114 105.3699112  36.4260888  98.0017567
 104.0395832  37.0779014  98.3121490  94.2308140  22.1467161  97.5606251
  94.7102261  21.3413954  97.7551842  94.6642780  22.5019836  96.7846584
  59.6878529  25.4531145  19.3126146  59.1844606  25.8327079  18.5923806
  60.4283142  26.0487604  19.4273320 104.0155220  40.0057030  94.4349098
 103.4007359  40.7219553  94.5937920 104.5254612  39.9441504  95.2426243
  63.3859253 135.6528968 101.9719982  63.8304234 134.8067636 102.0240879
  64.0943003 136.2905020 101.8831253  21.5369921  39.0735078  78.8568592
  21.6783839  38.7805438  79.7570896  21.3535147  40.0096464  78.9356565
  88.2018185  50.8214235  85.3376484  88.6313343  51.2294865  84.5858383
  87.3232746  51.2013006  85.3468609 107.0265484  45.9066343  89.3612385
 106.8610191  44.9708605  89.2465115 107.4603558  46.1742258  88.5510254
 108.8962936  17.3303485 102.3214626 108.3665180  16.5434885 102.4496269
 109.5976448  17.2548866 102.9684830 108.6571980  63.3889103 109.0301609
 109.0934372  62.8193474 109.6638203 107.9369068  62.8593111 108.6882019
 110.6737900  54.1052675 101.7736244 109.9794674  54.6974564 102.0625114
 111.0414696  54.5278692 100.9974384  65.4260492  17.6647782  68.7829065
  65.1410580  17.0349824  68.1208086  65.1423550  18.5137308  68.4437466
  90.5833149 109.5544786  71.6951227  90.6463242 109.6146865  70.7419014
  89.6680641 109.3284459  71.8608570 101.7506599  44.3626976  85.9070301
 101.4893818  43.8765383  86.6890812 102.2014713  43.7168932  85.3630257
  69.6456528  34.6639013  58.2882738  70.3000832  35.3383088  58.1062651
  70.0600672  33.8469172  58.0107212   4.2498999  34.0855813  92.8313351
   4.3671733  33.3285403  92.2574234   4.9515563  34.6867156  92.5812244
 115.6626701  25.7219195   6.6551439 116.1555290  25.1232886   6.0939351
 114.7543621  25.4301405   6.5772001  91.5100574  57.8701591  10.0220815
  90.9166145  57.8263330  10.7718412  91.8318844  58.7716341  10.0237409
 113.1847858   1.2440017  17.2702733 113.7636375   1.0092536  17.9955808
 113.7642479   1.6417311  16.6204587 103.5049438  10.0125623  88.0897045
 102.5858498   9.7465432  88.0627441 103.9864540   9.1968256  88.2274055
  84.9362278  10.0511312  22.9122297  85.7980061  10.4676580  22.9034272
  85.1226234   9.1170830  23.0073205 108.6529922  39.0819073  95.9196377
 108.0956745  38.4777784  95.4290676 108.7411118  39.8444533  95.3478050
 112.2400951  36.0901952 102.4700451 111.4296246  36.5603113 102.6659107
 112.8162670  36.7538404 102.0907879  85.5349159 144.5973917  69.3232489
  86.4443684 144.3060915  69.2578650  85.4555225 145.2849709  68.6620617
  95.2537060  23.8993764  50.9761286  95.3820229  23.1997776  50.3355551
  94.7625637  24.5706892  50.5024719 116.1849976  32.7925658  90.9600544
 117.0897675  32.5444388  90.7701683 115.6743336  32.3935318  90.2556229
  97.0913124  33.5244989  98.6847115  96.2751007  34.0168858  98.7717819
  97.0908070  32.9259491  99.4316769 120.1109982  21.8933725  83.0422115
 120.7538795  22.4686193  82.6274490 119.8348522  21.2998915  82.3438072
  85.9849072  31.1637473  10.9653608  86.2244987  30.9826756  10.0564901
  85.1558590  30.7021022  11.0910264 107.1885395  11.3515508  95.0629711
 107.0669937  12.0145559  94.3833542 106.5384197  11.5707743  95.7304478
 107.5895119  12.1472800  11.0183374 106.7446899  12.5910842  10.9437696
 108.1717110  12.8033483  11.4015333 110.9830093  31.8711138   1.4194051
 110.9369755  31.5212035   2.3091642 111.3288307  32.7570271   1.5280286
  82.6093292  49.7830439  94.7367764  83.3061218  49.6487713  95.3791904
  82.4540997  50.7275295  94.7456932 121.2681580  36.1154842  95.0914383
 120.3325844  36.1386275  94.8904514 121.6955757  36.3604689  94.2707539
  89.2309380  26.3521671   9.7695581  89.8998070  27.0163417   9.6030942
  88.5013294  26.8381000  10.1539747 111.2004471  22.2702742  93.0643272
 110.5948830  22.8255534  93.5554409 111.9987965  22.2610617  93.5923195
  22.8551989  38.4933901  23.6756460  22.7090579  37.5885558  23.9516012
  22.6330596  39.0173626  24.4452802  96.2937355  35.5592465  14.2417375
  96.4354134  35.7291675  15.1730195  96.2297916  34.6062350  14.1791765
  79.0362072  38.2947755  88.0456257  78.7868071  37.3759365  87.9467964
  78.2203054  38.7414575  88.2714748 108.9015770  38.1193089   8.1211988
 109.7799492  37.8168559   8.3518831 108.3270836  37.3924971   8.3618966
  95.3513145   0.6215742  63.4532690  94.7294998   0.1009201  63.9616919
  95.3281021   0.2348908  62.5779581  55.4866791  23.6769032 103.9514732
  55.9249401  23.7455511 103.1032753  54.7311068  24.2600274 103.8785648
  79.3104839   8.5458595  11.6825048  79.4935656   9.1934007  12.3632375
  78.5348320   8.8826406  11.2339727  83.2031345  11.7085302   7.6240388
  82.4604797  12.3055267   7.5330297  82.9214191  10.9068692   7.1833459
   1.5610915  65.8721781  35.2580682   1.7350321  65.3584051  34.4693891
   0.7595759  65.4932070  35.6188623  83.5217857  45.1099539  78.1217289
  83.0065823  44.3072605  78.2022619  83.2707214  45.6330872  78.8829994
  76.2982750  31.1051106  77.5271225  76.8594170  30.7703662  78.2266188
  75.8747149  31.8746567  77.9074192   3.6383086  30.5694318  90.3389645
   3.6832457  31.4910030  90.0841713   2.9530364  30.5386519  91.0065651
  68.1768703  28.2336807  92.9647064  68.5263634  27.8842902  92.1449375
  68.1422901  27.4782920  93.5515785 109.7040749  51.6594839  88.1931305
 109.7284222  51.8689060  89.1268253 110.2146912  52.3547745  87.7783203
   3.5476904  32.0879745 108.8902760   4.3634253  32.5887275 108.8827705
   3.1292086  32.3242664 109.7180843   4.1037207  22.4126840   2.9568235
   4.8048812  22.0168972   2.4391786   3.3055430  21.9867682   2.6442090
  97.5596809  19.7493041  33.8021318  97.3761654  18.8387227  33.5710565
  97.3011780  20.2495980  33.0281011   1.2244444  73.9053154  87.0950127
   1.3797694  74.6567059  87.6673031   0.7773810  73.2682228  87.6522160
  66.8185902  35.9647846  78.9727736  67.5700712  36.5574408  78.9891100
  67.0279837  35.2945089  79.6232462 116.8271828 142.6731826  61.5391111
 117.2729492 142.1761850  60.8531713 116.5405083 143.4766216  61.1049080
 100.1716042  29.0041780 106.9996929 100.1292419  29.9449778 106.8284130
 101.0117722  28.7312222 106.6311073 119.4365501  37.5396562  13.2792417
 118.5447788  37.6848054  12.9631845 119.8980618  37.1635294  12.5297300
  63.9891434  42.5792456   7.9079286  64.7111416  42.8421545   8.4787408
  64.3658400  41.9079065   7.3390333  96.2723351 146.6780756  96.7801285
  95.8186150 146.7848369  97.6161766  96.2167740 145.7404982  96.5954876
  88.7600040  12.8690720   1.4414541  88.6401558  13.2425833   2.3145810
  87.8744793  12.6512742   1.1505071  96.8036652   6.1819130   2.4018995
  96.8021011   5.9279335   3.3247892  97.2597504   5.4672164   1.9575635
  17.6539450 146.3835492  14.6630803  17.9432517 145.4711274  14.6586458
  16.6982394 146.3318554  14.6489087  72.7473307  10.4582512 108.7665176
  73.6434603  10.1751292 108.9482498  72.7287483  11.3782954 109.0299702
  88.8890457   8.1163651  69.0059233  89.0579605   7.5015759  68.2919693
  89.0309238   7.6039356  69.8018599  99.7874546  19.9070203  44.1456556
 100.5763245  19.4326842  44.4081736  99.8816872  20.0238848  43.2003021
  89.6876812  40.8233595  99.5394611  89.2322636  41.6602898  99.6309948
  89.2499447  40.3914595  98.8059235  78.2287884  51.8048573  86.7530632
  78.7073994  51.5339470  85.9696198  77.3621655  51.4110613  86.6524410
  84.0855026   7.9319602  13.5733358  84.2720604   7.7114201  12.6607648
  83.7097931   7.1320558  13.9410726  14.8774081  46.0926294  81.2512398
  15.0287181  46.6499853  80.4878998  14.1320735  45.5452299  81.0041523
  85.7156849  33.1751704  85.6198025  86.4075470  33.8259935  85.7380295
  84.9269485  33.6915207  85.4539013  97.2450161  30.4472208   1.1478368
  97.7897167  30.0644565   1.8356077  97.7787304  31.1542916   0.7853071
  79.7588825  62.7113342  80.4257393  80.4583454  63.0437899  79.8632050
  79.2129946  62.1837616  79.8427343  23.3559447  47.7347088  61.1329937
  23.4610587  47.9704857  62.0547247  23.9233428  46.9729853  61.0143995
 113.1965637  39.2080927  92.4181366 113.1181526  38.9034963  93.3221912
 113.7441254  39.9910855  92.4758434  79.6089077  28.4212017  98.5554218
  80.3339958  27.8221631  98.3775806  79.6997643  28.6384463  99.4832039
 102.5862885  20.2474213 107.3158360 103.4460831  20.0336742 107.6781845
 102.5288105  21.2006140 107.3817921 109.0838432  47.9487801 100.0471020
 108.1397247  48.0929422  99.9830818 109.3424320  47.6629305  99.1709518
 108.4103775  19.8939788  97.6357269 109.0193462  19.9337852  96.8982983
 107.5469875  19.8179185  97.2295284 104.8357391  41.7486238  36.1098234
 103.9723682  41.6521120  35.7079259 105.2765274  42.4087143  35.5748407
  96.7622375  22.8031373   8.1374589  97.5595188  22.2786140   8.0636445
  96.2921524  22.6407838   7.3196069  47.8386021  64.3395853 107.2506809
  47.4633312  64.6248722 108.0837536  47.5808859  65.0183773 106.6269398
 106.0811234 144.0235318  19.2080156 106.2539482 144.7983653  19.7427980
 105.2985382 144.2492553  18.7051812  45.2078629  29.6998477 101.2618542
  45.4179573  30.6028891 101.4997864  45.1824856  29.2319584 102.0965195
  99.3815804  30.8005857  69.2089844  99.1579342  30.0299788  69.7308779
  99.7234821  31.4293361  69.8445988  84.2239952  34.3124747   9.5002786
  83.4215450  34.7356105   9.8056737  84.1158867  33.3922458   9.7405282
 122.5452709  21.1196661  77.3554659 122.8538036  20.2400112  77.5728273
 123.3407974  21.6056442  77.1382380  57.7219629  47.2644186  33.4974328
  58.0455303  47.6726198  32.6943723  58.3132601  47.5792122  34.1811792
  93.6573219 136.9424278   2.2901574  93.5079002 136.8122263   1.3536969
  93.8771343 136.0715277   2.6209871 114.7675991  22.8396010 103.7756062
 115.5845451  23.3381438 103.7928200 114.4714737  22.8963518 102.8671360
 121.6606236   8.1969512  89.3055534 121.0659027   7.8461802  88.6426067
 121.1168098   8.7876254  89.8266983 112.2422695  35.9769773  96.9286728
 111.5589809  36.6052985  97.1622467 111.8737507  35.1247907  97.1614838
  11.3846522  39.7582626  75.8097458  11.7770796  40.4539204  76.3372755
  11.9520693  39.0006399  75.9521198  33.2145357   5.2849007   4.4718305
  33.1792164   5.2261573   5.4265729  32.9511547   4.4160771   4.1684953
 116.7213440  56.4099264  97.9219913 115.9633350  56.9916964  97.9785156
 116.6187477  55.9638453  97.0813274  92.4318981  15.7892632  17.3845331
  91.5943623  16.2474239  17.3148576  92.9114628  16.2683129  18.0603734
  80.1993847 139.5039822  24.3566839  80.4195499 140.3979916  24.6184198
  80.9942341 139.0003867  24.5322839 116.3387489  60.4640484  26.9570485
 116.8772602  59.6915340  27.1287004 116.8837166  61.2016439  27.2312871
  75.2308846  16.1454749 104.4659138  75.7689047  15.3537941 104.4633293
  75.6528473  16.7197430 105.1049709  83.9893913  23.6525106  75.8667898
  83.8606834  23.0846095  75.1070833  84.8069859  24.1154885  75.6839609
 101.9086742  33.3457208  30.4296438 102.3476028  33.8134885  31.1401120
 102.5680828  32.7339196  30.1023713  81.5420246  12.8905046  15.3930131
  82.0211983  12.0620000  15.4075376  82.0471668  13.4693778  15.9639493
   1.4025145  51.9547176  30.0564615   1.3203364  52.0546627  29.1080514
   0.6776839  52.4668884  30.4149667 101.8646622   3.6992243  17.7810327
 101.9421291   4.6048200  17.4808255 100.9286022   3.5791937  17.9410974
  75.8464622  52.9822159 103.5888577  75.1300383  52.3701525 103.4204960
  76.2367392  53.1365967 102.7285767 110.9644127  38.6702275  96.9124031
 110.7514000  38.5060549  97.8310490 110.1172733  38.6722970  96.4667797
   2.5457697  12.7786088 105.1300907   3.0019503  12.3160625 104.4271088
   3.1843405  13.4149182 105.4519176  82.9668522  24.2853737  92.8534985
  82.8427505  25.1731682  93.1891346  82.9465866  24.3841696  91.9016266
  89.3053913  25.2171016  17.9408971  89.1742992  24.5722151  18.6359922
  89.9769592  25.8063579  18.2844011  91.2070179  81.0349274  67.5943565
  90.6438065  81.1333179  68.3620453  91.6885567  80.2230358  67.7530527
  94.9928761 145.9276750  78.2793236  94.2946243 146.5514484  78.4783077
  95.3022480 145.6331865  79.1359377  95.0669861  58.1284857  10.6390706
  94.6196651  58.8927221  10.2756444  94.5033264  57.8399420  11.3569013
 118.2355499  33.9975190 108.5537720 117.3945045  34.0221572 108.0974007
 118.8011456  33.4745741 107.9855633 111.9442368  25.0015926 102.1681213
 112.1644783  25.9209132 102.3183632 111.4414597  24.7462487 102.9415798
 103.6733150  11.0595441  78.5430717 104.0007877  10.6962800  79.3658876
 104.3432426  10.8332765  77.8979158  79.5587111  24.6511316  22.3701040
  80.2132893  24.0550637  22.0061437  79.9049139  24.8911214  23.2296220
  84.6577930  35.8965111  18.4396879  84.1617680  36.0985875  19.2330114
  84.8661327  36.7515326  18.0631772  98.3038044  21.5057373   4.0275995
  99.0346432  21.8010855   3.4845773  97.6462650  21.2041330   3.4007779
 120.5520725  37.8009725  83.7686443 120.4962826  37.0702457  84.3844032
 119.7771740  37.7070308  83.2146263  63.4371185  37.1206498  87.3860264
  64.3118334  36.7369485  87.3237514  62.8737926  36.3917494  87.6460266
  66.7104673  16.7132354 102.9835701  67.5963879  16.8838573 102.6637840
  66.8397093  16.2608171 103.8171482  90.7832241  41.6480780  57.9092455
  91.1183643  42.3674917  57.3741198  89.8800850  41.8966293  58.1062078
 112.4672890  25.7211375  73.6095953 113.1435871  26.2246060  73.1564045
 111.8134022  26.3725090  73.8633108 100.0737286  44.8348331  78.3741379
  99.9583054  44.4576120  77.5020075  99.3920612  44.4231939  78.9052773
  78.1457949  31.7249727  87.4652386  78.9492607  31.6246891  86.9547272
  77.8166389  32.5913954  87.2260761  92.8017902   8.6947972  61.0088968
  93.0024910   8.9811188  61.8999481  92.6088238   9.5038193  60.5351067
  79.7920322  31.1539364  83.4588146  80.0181389  31.0548377  84.3836308
  79.2303467  30.4027820  83.2677555  63.5111284  31.4133930  47.0711946
  63.7042427  31.1198068  47.9615593  63.0109024  32.2210097  47.1885014
  73.4254265  27.2146511  97.2598457  72.8316832  26.6109395  97.7061939
  73.4962368  26.8673658  96.3706875  98.9921665  14.4159603   9.7040025
  98.1540680  14.8493457   9.5427362  98.9709854  14.1922212  10.6344453
  80.0649166  25.3457880  10.5534307  79.9116278  25.8996415   9.7879354
  79.7613525  25.8710980  11.2937871 101.6957569  46.3326693  87.9283142
 102.5973797  46.5559196  87.6970959 101.5111446  45.5360460  87.4307823
 118.6897945  42.5465059 104.0012169 117.8126144  42.2959661 103.7113667
 119.2532539  42.3566628 103.2510757  79.0292215  21.1509275  46.0411596
  78.4294939  20.9890056  45.3129148  79.5235062  21.9267035  45.7764292
  75.7820702 134.6433396  83.9149284  75.0476933 134.5466990  83.3086491
  75.3840399 134.9646289  84.7239876   1.0689955   4.2627534  69.1158581
   1.1578303   4.3904668  68.1713867   0.7777339   5.1126486  69.4461298
  87.6490307  17.1033704  79.6740103  86.7393780  16.8264174  79.7838354
  87.8766251  16.8311191  78.7850142 104.1098499 132.3560078  42.8444910
 104.3515110 131.9069380  42.0344496 104.9457359 132.5582988  43.2647371
  93.8069916 124.8092169  83.1129932  93.9643383 124.8486132  84.0563488
  94.6722794 124.6599693  82.7318764 116.0233307  28.6661148 103.3471870
 116.3008595  28.7812567 104.2560005 115.4452229  29.4098425 103.1772327
  84.3105793  37.3437762  77.6884317  83.9138222  37.6852560  78.4898090
  83.8482666  36.5219831  77.5236416  90.6862545  36.5173054  77.0018005
  89.9021339  37.0262194  76.7958975  91.2444782  36.6148019  76.2303686
  80.1573753  66.6251469  82.3031807  79.9359083  66.5475559  81.3751888
  80.4192638  65.7414865  82.5616169  95.5297470  18.9745224 100.5510807
  94.8097992  19.0439224 101.1780548  95.6190872  18.0348682 100.3920174
 122.0630741  38.5257745  87.5553036 121.7389202  39.3930221  87.3123264
 122.1832275  38.0725360  86.7208099  85.3785515  26.8213892  72.5080538
  86.2572002  26.8109369  72.8876734  84.8213196  27.1708107  73.2034874
   4.4940024  31.9201422  70.6266356   4.3452578  32.8427649  70.8336926
   4.4411307  31.8774009  69.6718550 119.1230392  40.8166838  71.6495752
 118.7424183  40.1040316  71.1362648 118.9923763  41.5966225  71.1102629
  98.3389473  56.5689421  85.4013824  98.0856514  57.4214745  85.7553101
  99.1906071  56.3879633  85.7990742  99.5780087  39.0529990  76.0815716
  99.5340633  39.9419522  76.4337969  98.6730289  38.7418818  76.1029720
  11.5096217  15.7552373  80.4559326  11.9509249  15.6230474  81.2949944
  11.2127429  16.6648543  80.4821491  94.4396114  52.4750280  65.1904011
  94.9852943  52.8648424  65.8734083  94.7005081  51.5542555  65.1718044
  91.8217850  13.5743213  14.0286676  92.0439911  12.7069938  14.3672029
  92.6648045  13.9644718  13.7977067 121.0709667  12.5477207 107.5573349
 120.9977531  13.4852064 107.7362061 120.6634235  12.1269131 108.3143425
  99.6691704  23.4571457  67.5098276 100.3309631  23.8963771  68.0439949
  99.9340439  22.5373244  67.5088120  89.2244911  19.5398629  68.7942982
  89.5519638  20.2950048  68.3056736  88.2791996  19.5489609  68.6440277
 112.7946568   1.2615301  94.8228645 112.1644115   0.8485802  94.2325306
 112.7395821   0.7483596  95.6289959   8.8127928  25.0569272  95.7948017
   8.4393149  24.5899057  96.5422153   9.7516375  24.8772240  95.8449078
 107.8621674  34.3107247 109.4037533 107.3830032  34.4779348 108.5921669
 108.4889030  33.6244130 109.1748142  78.0112457  10.5129731  42.4086332
  78.1946802  11.3759732  42.7798653  78.1842995  10.6131983  41.4725542
 103.6556053  30.5585718  82.1277046 103.1932163  29.7345734  81.9745350
 103.6014175  30.6912899  83.0741119  63.4762669 121.3097663 104.4072914
  63.0700111 121.8440599 103.7248516  63.9781427 120.6503553 103.9282036
  68.2066870  20.8154321  71.4424467  69.0223265  21.2782836  71.6341066
  68.4849358  20.0113606  71.0039473  23.7545615  62.6779604  43.7373686
  23.7461882  61.8367767  44.1940641  24.6822482  62.9030561  43.6669683
  82.4135017   5.2344930  63.9310837  83.3460236   5.2013218  63.7176943
  82.3440933   5.9199619  64.5955753  79.9482727  32.9616833  74.9255943
  79.8867178  32.2474480  75.5598736  79.0715837  33.3456707  74.9114609
  76.3069677   1.3497415  85.1630688  75.3699017   1.4381802  84.9889469
  76.3683081   0.6192768  85.7786083 118.7254143  26.4668751  78.5429764
 118.4223366  26.1113095  79.3784094 117.9347134  26.5256453  78.0067205
 119.0899086 130.0217659 100.4021645 118.8675880 129.1001339 100.2702427
 118.4240341 130.5016381  99.9096394  90.6089973  18.1907439  86.7729568
  90.8935070  17.6579475  87.5155258  90.4828453  17.5625575  86.0618305
 114.4293118  41.7301178  95.7878780 114.5683002  41.8744516  96.7238712
 113.8715172  42.4580145  95.5135250 112.9911423  19.7289741  45.5771446
 113.3323193  20.6207442  45.5095005 113.6397076  19.2638373  46.1055756
  89.6763039  31.6775870  95.5521393  90.5647087  31.6293550  95.9051991
  89.6207905  32.5497437  95.1616287  92.6074791  63.6345243  79.7523594
  93.3164024  63.8971472  80.3394508  92.9331589  63.8409328  78.8762569
  86.5204716  24.6108603  75.7631683  86.7650414  24.2707324  74.9025106
  86.7133617  25.5471516  75.7143402  76.1106539  14.1418147  68.1839505
  77.0037413  14.2913198  67.8736821  75.5616283  14.2900407  67.4140111
 110.8346462  30.4232407 104.6618748 110.6722641  30.4268336 105.6051922
 109.9960709  30.6726503 104.2735291 106.7872334  42.6112843  66.8019199
 106.5300369  42.0515776  67.5345945 106.2812710  42.2813559  66.0593605
   8.8916998  36.3131356  73.9267492   7.9702216  36.0769653  73.8202858
   9.0868216  36.1101365  74.8415995  71.4762354  15.1663530  74.6282101
  72.3889303  15.2805948  74.8931026  71.2768316  14.2550766  74.8427916
 109.5775223  18.9274204 108.1441402 109.8660278  18.1992495 108.6943817
 110.3879452  19.3050838 107.8023434  12.7881079  43.8236046  48.6228418
  12.5727015  43.5295343  47.7377701  12.8732424  43.0159664  49.1295004
  64.2797184 132.8770299 101.0273838  63.7222433 132.5164301 100.3378773
  64.9677515 133.3480317 100.5572796  77.4545765  46.8894815 104.9956703
  77.6516771  45.9969044 104.7115993  78.2343483  47.1651745 105.4775143
  57.6552820  49.6414948  96.7643261  56.9500399  50.2878141  96.7980385
  58.0458450  49.7581100  95.8982468 123.4892082   4.9452600  79.6154642
 124.0235615   4.3029994  80.0825882 122.6249886   4.8785380  80.0215340
 108.0772305  77.2999191  58.0364799 108.5156441  76.6083908  58.5322762
 107.2364044  76.9179440  57.7848101  71.3813877  27.5060844  61.9602919
  72.2211218  27.0976567  61.7498970  71.0385656  26.9875884  62.6882124
  62.6065874  16.0236406  45.9199238  62.5581932  15.1707566  46.3517570
  63.5408783  16.1596251  45.7623053 117.1861362  22.6029229  65.7544899
 117.8908920  22.2825313  65.1915503 117.1179008  21.9478965  66.4491224
   5.9258776  89.1258335  68.9133167   5.7438593  88.1905937  69.0051174
   5.0763350  89.5486355  69.0388155 121.9791698  21.4322495  71.3567829
 121.6607761  22.1448112  71.9109583 121.2094975  20.8833361  71.2066793
   2.7394038 128.1783492  78.2319880   2.3820048 128.9809603  77.8521061
   3.3534175 128.4824736  78.9003611  91.5194321  17.6619828  82.7927208
  92.1115494  18.3937573  82.9663277  90.9644032  17.9679704  82.0754051
 107.0112324 139.8532803   2.8463594 107.8199673 140.3576023   2.7577630
 107.2348976 139.1463757   3.4517518  62.3586082  41.4931488  68.4476662
  63.1511831  41.1724329  68.0173206  61.6722250  40.8876514  68.1675196
  92.8944588  13.3906102  75.9536982  93.5521889  13.9381206  76.3824892
  92.3435020  14.0092766  75.4741907 122.3702335  55.2806568  87.9237556
 122.9089165  54.5722723  88.2762241 121.6489887  55.3660679  88.5472488
 111.3834190 144.7018353   2.9242173 111.7617035 144.9839657   2.0914308
 111.4929008 145.4552008   3.5044614  35.6428528  37.7027893  66.5420580
  35.2098846  37.2823572  65.7990837  35.5121493  37.0956016  67.2703934
 113.0083084   6.9014364  57.6001024 113.4477329   6.0867649  57.8439236
 113.6564159   7.5842410  57.7731991  99.1241455  29.3936896  90.3164768
  99.0927696  29.4395685  89.3608856  98.3947372  29.9414134  90.6066322
  90.7860088  20.9992695  85.7668972  90.5917358  20.0971365  86.0211468
  90.0357342  21.2651491  85.2352715 104.7625351  27.8503680  43.9866400
 104.8895645  26.9780087  43.6136961 104.3947315  28.3663344  43.2692003
  93.9603901  51.2718153  74.7030354  93.0112839  51.1479235  74.6936703
  94.3078518  50.4367781  75.0164223 107.5095749  25.6146669  74.4383812
 107.1705151  25.9387875  75.2727747 108.2385540  25.0439715  74.6815300
  86.9771957  16.6059327  69.3580151  87.6814556  16.4543307  69.9883080
  86.1924934  16.2683034  69.7898579 114.6453285  28.6112809  90.7508850
 115.5165386  28.5707521  90.3564358 114.0534401  28.7465763  90.0108910
  80.5339050  55.6766224  48.7508869  81.1464214  56.4095449  48.8132143
  80.1015282  55.6525755  49.6045303  85.6380749  50.5019712  81.0084724
  85.5405998  50.2262259  81.9198990  85.7168674  49.6838570  80.5178452
 100.1760960  22.0449591  81.5918350  99.6959686  21.2446761  81.8045807
 100.4657078  22.3829508  82.4392509  91.7031002  50.4349422  81.0674095
  90.8252430  50.2166796  80.7544136  91.9425201  49.7044659  81.6377735
  63.1232309  50.4565573  80.1098633  62.3229551  50.1190615  79.7075176
  63.8226652  50.1870251  79.5145750 108.5166454   8.3041418  70.6009245
 108.9454079   7.4640787  70.4375648 107.6239777   8.1844646  70.2768040
 104.0073776  58.3379364  64.6348047 103.7264252  58.2261324  63.7266207
 104.1834831  59.2751646  64.7173834  93.3016872  14.6003485  93.2670784
  92.7247429  14.5717287  94.0303326  94.0254784  14.0157008  93.4918880
  53.9529943  33.7922168  95.4619694  54.6772814  33.6139011  96.0618401
  54.3495941  33.7601089  94.5913887 112.9636669  24.5822620  54.8524904
 112.3411942  25.2881455  55.0270796 113.3852577  24.4204998  55.6964827
 113.5151863  30.5250239  92.8515244 113.5621929  30.3606939  91.9097042
 113.5147476  29.6533489  93.2470131  84.0258026 146.3878207  88.0249214
  83.5237980 146.9458849  88.6188793  83.9400291 145.5083092  88.3928013
  77.4321413  18.0845380  78.4873343  77.3491240  18.9548910  78.8769865
  76.6689825  18.0045080  77.9151297 107.0762730   5.0523788  46.0021305
 107.6930714   5.7843548  45.9992409 107.2591877   4.5882750  46.8190670
  95.4436398  43.6627531  86.4937687  94.6370125  43.5198879  85.9986115
  95.8610725  44.4079638  86.0617542  92.6203823   5.2663797  93.2564163
  92.6907539   5.9798646  93.8906288  92.8351116   4.4791216  93.7567711
  90.2895832  40.8538437  89.4134617  90.9012508  41.5098333  89.7477913
  89.4296932  41.1583757  89.7034073  99.2322159  28.6017156  76.0331488
  98.2943726  28.5768151  76.2230444  99.3955708  29.5015550  75.7505846
  90.3737545  38.8515973 108.4947968  91.0027885  38.5377359 107.8451443
  89.7928905  38.1058717 108.6455441 114.3936348  27.2699761  96.9128418
 114.5113373  26.3538814  97.1641350 115.2464581  27.6738691  97.0734787
  76.2166929  81.8096638  93.4309864  76.7774343  82.1442032  92.7310753
  75.3305149  81.8601418  93.0727005  99.9041176  25.6791949  88.9763641
  99.6803379  26.3586164  88.3403301 100.3843403  26.1424255  89.6626854
  64.0612316  27.9198480  88.6963749  64.1719627  27.0114994  88.9772224
  63.2239437  27.9267645  88.2325554  75.3235197  23.2588077  69.3682814
  75.6130791  22.9847074  70.2384853  75.2153969  22.4407768  68.8831377
 108.1820393  20.0698042  70.4726124 109.0720749  20.0674105  70.1203871
 108.2309628  20.6354094  71.2432814  95.7185745  24.0618443  95.1759148
  95.9998131  24.2777729  94.2868042  96.5334702  23.9761329  95.6707096
  97.6152039   7.5690126  97.9617882  96.7510319   7.9773945  97.9102230
  97.7836418   7.2519892  97.0744610  79.2135429  12.9990149  77.2368956
  78.6541939  13.2792687  77.9613352  79.7857141  12.3338485  77.6195288
  70.9471560  32.3091197  82.5472546  70.8772659  32.0449066  83.4646034
  70.6873131  33.2303667  82.5428772  96.0417843  40.9037447  96.6012669
  95.1469898  40.5950499  96.4588451  96.2735176  40.5741167  97.4695301
  88.8861942  42.0447302  80.3415203  88.5791779  42.8920555  80.0190163
  88.4011841  41.9081879  81.1553764  27.5249224  34.7631192  66.0602951
  26.6316538  35.0920844  65.9598398  27.9737788  35.4397917  66.5671206
  93.1702995  27.4773216  72.8569078  93.7728214  28.2210922  72.8593683
  92.4173260  27.7773738  73.3660507  72.5214243  14.5721710 103.2073021
  73.1605053  15.2708316 103.3475971  72.0111418  14.8625934 102.4513245
 109.5371342   3.2739905  70.9180593 109.5651245   3.1520280  69.9690723
 108.6308002   3.5215682  71.1010885   0.9241038  16.8000090  77.8810596
   1.8048220  16.4250898  77.8818369   0.4095202  16.2038136  78.4251022
  66.5703392  45.0972700  90.8397198  67.0340633  45.0693417  90.0028133
  66.9165230  44.3518353  91.3303566 123.0326462  35.2836490 104.2544365
 123.6288357  34.8424625 104.8595333 122.8464031  36.1245155 104.6721458
  77.2715092  22.1593738  92.4755573  78.0358458  22.7119613  92.3122597
  77.1184540  21.7104912  91.6441059 110.8768463  39.0146303  75.6004095
 110.8185387  38.1559038  76.0192442 111.2291431  39.5892048  76.2801027
 117.5790977  44.0953541  84.0871525 117.2475147  44.8521137  83.6038303
 116.9091415  43.4222889  83.9672661  15.5902701  20.5861640 109.5892525
  15.3594142  21.3480043 109.0577126  14.8753768  19.9666464 109.4431305
  78.9671230  33.2922459 102.8204632  79.4142342  32.8340983 102.1088314
  79.2471933  32.8346586 103.6131859  85.3880882   5.5837786  85.6377125
  84.8542309   5.5319506  86.4305210  84.7642899   5.7916200  84.9420738
  14.6921759  22.0203638  76.2903214  15.0560122  22.8436136  76.6160822
  15.2737361  21.7687440  75.5728960  88.1368828 145.4739596  63.0542612
  88.1422234 145.2313069  63.9801788  87.7153301 144.7350676  62.6154423
   0.3298312  16.6003501  75.0257111  -0.4187364  17.1843231  75.1475573
   0.7227831  16.5299356  75.8956909  64.5875549  23.6416054  52.7121305
  64.6017838  24.4895029  52.2681713  63.9610147  23.7558794  53.4267044
 107.8556633  58.2992935 101.6446304 108.0299568  59.1800165 101.3127041
 106.9654751  58.1046677 101.3514900  97.1389294 141.2153793 101.0113525
  97.0695972 141.9666983 101.6003704  98.0541039 141.2146080 100.7308388
  99.7787762  34.7749305 102.1509933  98.9797211  34.9195004 101.6442013
 100.4467201  34.5783329 101.4941502 118.9738655  11.7726529  51.5828562
 119.0764809  12.7229154  51.6348600 118.4316540  11.5485477  52.3391724
   6.8319636  25.8824396  89.1955090   6.1767035  25.6699061  89.8601151
   6.3451796  26.3588047  88.5229397  93.2431316   6.6701257  95.4813290
  93.9215088   7.0829159  96.0157967  92.7488041   6.1294568  96.0974026
 108.0984306  15.6968439  75.0009537 108.9414692  15.7809281  75.4464197
 108.0829620  16.4237499  74.3783760  92.6226044  21.9203615 100.0181961
  93.0542660  22.3869514  99.3025303  92.2120762  21.1645365  99.5981598
  67.3542023   2.0217514  86.3456917  67.5042295   1.2670322  86.9150066
  67.8883886   1.8471973  85.5708313 122.1546650  19.9686992  13.3581487
 121.9587040  20.7401729  12.8264943 122.8931332  20.2361560  13.9052812
   0.6259184  25.6980157  42.3513651   1.5159922  26.0204244  42.4929190
   0.2427703  26.3173842  41.7302227  91.6303730  23.4532666  84.5241261
  91.4494896  22.7422500  85.1389217  92.5620556  23.6393976  84.6405983
  72.3546314  21.6934919  91.2414837  71.7790270  21.9519830  91.9612789
  73.2388353  21.7927718  91.5944004 103.9490032  20.4061151  76.0758734
 103.2063198  20.0349569  76.5522099 104.3302917  21.0402083  76.6831398
 107.6177692  61.4876461 101.2417221 107.2844410  62.3497009 101.4906788
 108.2670593  61.6690016 100.5621815  80.0604820  36.0652113  19.4869653
  80.3269577  35.7857132  20.3628007  79.4625664  35.3799272  19.1884366
  29.0755015  54.9871635 109.4679546  28.2307082  54.5380020 109.4962502
  29.0456801  55.5029154 108.6621380  99.7018623   7.0896143 101.9032764
 100.1324654   6.3892591 101.4130592  99.8832703   6.8862307 102.8208637
  89.5289040  46.6500711  57.2458220  89.5363235  47.2381401  58.0010366
  88.6781120  46.2137365  57.2903681 106.7219639 133.1228096  43.8287354
 106.6696739 133.3611555  44.7543097 106.9759846 133.9329738  43.3867645
  87.3824120  26.0411286  68.9009905  88.2282448  25.6775808  68.6390257
  87.5249863  26.9873881  68.9232922  72.3016214  33.9659953  53.4777212
  72.6611662  34.8459578  53.3653593  72.6711845  33.4618926  52.7527809
  94.9068165  23.7968326 102.3027802  94.8495007  23.0640793 101.6895676
  95.7610512  24.1908526 102.1259785 112.1142864  36.2451196  85.2484894
 112.3220444  37.1514487  85.0212479 112.8467178  35.9614468  85.7955933
  98.7231255  62.2060966  89.1014671  98.5798645  61.2730122  88.9431572
  97.9467964  62.4890089  89.5846939 109.8061085   0.6334355  74.7379398
 110.6359291   0.8185022  75.1776981 109.1365719   0.9086750  75.3641891
  80.5845451  53.8899326  43.4057713  79.9322462  53.6628246  44.0684652
  81.3961506  53.4937763  43.7229204 119.7597599  11.6273391  66.1943007
 120.6303120  11.7804301  66.5616417 119.2186069  11.3958192  66.9491434
  92.9324436  74.3530321  75.7501411  93.2867527  74.2383432  74.8683596
  93.6721897  74.6744919  76.2655687  32.4832850  32.3069906  98.7966442
  33.0874949  32.7766991  99.3715763  32.0895606  31.6387510  99.3576050
 124.6220112  20.6412315 101.7971325 123.6665535  20.6415749 101.7394161
 124.9135303  20.3262830 100.9415245 123.4353065  34.0001750 101.5831280
 124.2710590  33.5379577 101.5190887 123.3311176  34.1782880 102.5178242
  89.2362881  30.1020885  81.7550850  88.5606766  30.3818512  82.3727512
  89.2688465  29.1502285  81.8506527  62.3157787   5.7897615  19.7668878
  62.4027729   6.7068821  20.0268022  62.3522329   5.3029805  20.5902616
  73.8440180 138.0289341   6.4117376  73.9363194 138.9230753   6.0827581
  74.6226120 137.5740308   6.0906736  74.7701836 144.7892601 100.2859020
  75.5686426 144.3211991 100.0417519  74.8239279 144.8742306 101.2378025
  60.0239515  24.8155499  82.6472282  59.3495703  24.2339945  82.2961712
  59.8859119  24.7981644  83.5942650   4.2550402  48.7831354  78.3991194
   3.8082152  48.8123131  79.2451286   3.8970500  48.0083513  77.9657793
 102.5531197  16.9301081  96.4737225 102.3871994  16.4840448  97.3042202
 101.6908264  17.2308075  96.1869049  56.1136055  35.5584407  50.8391094
  55.9610081  35.8453774  51.7394495  56.6973543  34.8045707  50.9236670
   9.5552569   7.5404394  33.8534880   9.2528468   8.3886766  34.1779518
  10.5048781   7.5635916  33.9714479  78.4596157  20.3371382  82.7294159
  78.8391972  19.8160708  83.4369755  79.2150831  20.7058668  82.2716618
  81.6968918  39.8288441  58.2341528  81.0149193  39.9318337  58.8978767
  82.5166988  39.8499060  58.7278223 117.9705048  30.8844757  68.9569044
 117.1541786  30.3978634  68.8426542 118.5116768  30.3185081  69.5073986
  86.0288620  12.7051961  92.7810860  86.0783291  13.5563135  92.3459053
  86.8616486  12.2813463  92.5736046 103.4380817  18.4170556  70.1984310
 102.8194141  18.8336051  69.5984554 103.2046223  17.4890101  70.1769590
   6.4268237  56.9308376  45.8621025   7.3437434  56.7082500  46.0232019
   5.9316760  56.2942743  46.3777065 106.5928364  50.1303053  73.3022165
 106.4199352  49.2074251  73.4883070 106.7004776  50.1669121  72.3517942
 100.1461411  37.4318004  88.4845352 100.3112316  37.3246241  89.4212723
  99.3304253  37.9307055  88.4406281  84.0736961  51.7864943  88.6570072
  84.2313957  51.5628052  89.5742416  84.9338818  52.0374537  88.3203602
  79.6725273  23.3837724  74.9372339  80.1624680  23.1253552  75.7178831
  79.7551918  24.3369222  74.9071884  71.5360785  13.7551498   1.8914071
  71.2812376  12.8710282   2.1552602  70.9037590  14.3267083   2.3269788
 101.7459297  25.0444269 101.6531277 101.9092560  25.9504056 101.3909054
 102.2153950  24.5191813 101.0050869  16.6703730  30.4480767  65.6326628
  16.6004305  30.8581066  64.7705650  17.4836283  29.9447942  65.5932426
  50.3647709   1.8295202 103.0338383  50.7266331   1.2338478 103.6899376
  49.7860765   1.2803158 102.5049591 108.6540508  25.3085089  87.8606224
 109.5173073  25.5258536  88.2124615 108.7068462  24.3748736  87.6562405
  98.8142300  39.7016621  97.6364136  98.3126736  39.6050000  98.4459400
  99.1359615  40.6028605  97.6601601   9.7320777  38.9682174  93.3472252
   9.3925315  39.8630667  93.3337402   9.9781066  38.7916851  92.4391842
 110.9964752  39.8937559  72.9297686 111.1111641  39.3814969  72.1293449
 110.8412075  39.2405415  73.6119938  99.1428089 144.0738707   6.9472162
  99.0852165 143.2939149   7.4991075 100.0803852 144.2579732   6.8898240
   8.0133467  33.0444074  84.3716335   8.5468035  33.7484908  84.0029526
   7.1222430  33.2435369  84.0843868  85.4766560  24.0723538  71.2908697
  84.7642136  23.7111092  70.7634544  85.2669811  25.0028229  71.3714695
  74.5402288   8.9866459 104.5973015  74.7493410   9.9127096 104.7194099
  73.6715603   8.8839769 104.9860287 103.2150173 143.2607565  94.5370770
 103.4124660 144.0091575  93.9739227 104.0022087 143.1475873  95.0697708
  85.9519768  52.0448494  91.3111305  86.5085793  52.7900267  91.5372753
  86.5657520  51.3566685  91.0543823  81.6074276  26.5480971  81.0385990
  81.4554977  25.7078624  80.6059837  81.8520164  27.1420932  80.3289700
  42.8309155   9.8358947  22.8489343  43.3849096   9.6126235  23.5969106
  43.4456778  10.1149774  22.1704046 101.9674873  16.0253537  69.2220259
 102.2333241  15.1060617  69.2004013 102.1025372  16.3348603  68.3263683
  55.5517864 132.8225667  55.9452581  55.2992964 132.7647252  55.0237703
  55.7314730 131.9180031  56.2015963 113.3704853  57.8861904  68.3586025
 113.3957577  58.2183170  69.2559814 113.2175827  56.9462442  68.4553099
 101.7264175  29.9142098  59.5268106 101.1307335  30.5395150  59.9395847
 101.9809723  30.3328729  58.7045240  89.6437263  29.4002271  50.9212255
  90.3559208  28.9734769  51.3975477  89.2926311  30.0413299  51.5392494
  67.1352720  17.8954327  76.8693590  66.5235806  17.6446426  77.5615788
  67.0195532  18.8412654  76.7785788   2.9644328  57.3184156  86.3610363
   3.2122737  56.9362879  87.2029209   2.0246821  57.1511316  86.2894344
  96.8479156  38.0427957  88.9277172  96.4945030  37.1574855  88.8407898
  96.3307476  38.4393740  89.6287823 100.7968807   9.1097152  88.3209991
 100.2298355   9.5496356  87.6876259 100.9771442   8.2555795  87.9283237
 110.1511192  23.2281089  90.6017399 110.6865501  23.8647676  90.1282310
 110.7067490  22.9391003  91.3256073   6.1952906  58.9943218  72.4664164
   6.4323359  59.8713493  72.7678585   6.1075717  58.4806538  73.2693386
 120.4926395  24.8225021   8.1048242 120.7532692  23.9059687   8.0139104
 121.3186169  25.2996206   8.1844941  11.8541747  31.9250774  73.2920504
  12.7841216  32.1412325  73.3607006  11.7152434  31.7582417  72.3598003
 110.1156902  13.0225229  43.5880423 109.9268436  12.2716427  44.1508436
 110.5520344  13.6500239  44.1643000 105.2517223  13.0688274  96.6394234
 104.6285343  13.5117197  97.2153664 105.4001522  13.6886966  95.9253025
  85.7879543  14.6084750  58.1709003  85.4701900  14.2922497  57.3251724
  85.4565239  15.5044162  58.2315111  84.7418785  35.9043217  69.7892952
  83.8905811  35.9591556  70.2234650  85.3694153  35.8012366  70.5047035
 122.8711224  37.4380684  45.6106901 122.8217220  37.8618336  46.4675522
 123.5445309  36.7657733  45.7144403  91.1047363   3.1825027  70.9906483
  91.5302372   3.2247305  71.8470335  90.2350998   2.8263259  71.1725950
 103.0531788 146.4925983  80.2376461 103.6912155 146.8603519  80.8491230
 102.7613544 145.6819815  80.6547451 111.2161732  18.5862923  60.7437849
 110.4071712  19.0406513  60.5085850 111.3271046  18.7628400  61.6779995
 106.9621563  10.1426637  66.1472654 106.1298847  10.0974548  65.6766129
 107.6262188   9.9919945  65.4745531  90.1050186   6.8866003  71.0854959
  90.0949192   6.3191372  71.8562841  90.9979248   7.2298998  71.0524988
 103.5817814  20.7470036  50.5647993 104.2793083  20.3056931  51.0494947
 104.0401363  21.3617826  49.9919224  49.0084791  24.5296860  69.0713739
  49.7489166  25.0630045  68.7823105  49.3793917  23.6575127  69.2054272
  28.4612113  21.5595484  56.8264532  28.6857443  21.2098813  55.9641600
  27.5044661  21.5885925  56.8314266  91.1617279   3.0884272  77.3954678
  90.7556057   3.9402467  77.2351694  90.5488586   2.4563830  77.0197868
 110.7940006  30.1148176  76.0552359 111.3228798  29.5182538  76.5849876
 110.3051376  29.5414782  75.4648829 121.7551708  16.1475515  89.7333336
 121.0469818  16.7249000  90.0185871 121.3178349  15.3278947  89.5028305
  72.0386219   2.7541229  82.1290302  72.1760750   3.7001520  82.1776867
  72.3670435   2.5085542  81.2641239 110.3196812  18.1565285  77.7566624
 109.9290752  19.0303075  77.7696037 111.1497688  18.2583284  78.2223082
  89.5157146  22.2905803  50.0324678  89.1212368  22.2118497  49.1638947
  90.3770256  22.6754141  49.8703575  66.1849880  65.1688814  85.9855652
  65.3273249  65.5328321  86.2050915  66.2381983  65.2392530  85.0324440
  89.9252701 144.3601556  91.8199444  90.0728703 145.1141913  92.3908043
  89.1077709 143.9761589  92.1369362  54.2307472   1.3832752  83.1932545
  54.6891022   1.1992019  82.3733330  54.8971701   1.2697186  83.8709068
  85.5888653  23.7166929 100.9181786  85.3268337  24.3675017 100.2670097
  84.7639275  23.4032750 101.2889671 105.7116032  58.4376097  84.1570187
 105.4610252  57.6955986  84.7073460 105.1178455  58.3913136  83.4076595
 109.9934483  16.8400741  91.0874271 109.9807549  17.7322912  91.4338589
 109.7048855  16.9315994  90.1793575  96.4731598  31.0353899  60.5373383
  96.9416904  30.6112719  61.2562466  97.0578003  30.9460568  59.7847080
 105.7784271  17.9236686  60.6004143 104.9199009  18.3451152  60.5610657
 105.6199646  17.0288253  60.2997828  71.0828829  31.9970632  93.7894249
  70.6907558  31.4554811  93.1044769  70.8453989  31.5588284  94.6065998
 104.5325756  32.5782704  71.9970703 104.0637970  32.0062327  71.3894129
 103.9100552  32.7349710  72.7070951  78.9632225   4.6076176  73.0227661
  78.8963509   4.6842322  72.0709801  79.2627335   3.7105495  73.1703854
  97.5067711 112.2006364  61.9835758  97.8029060 113.0943198  62.1564007
  97.6115417 111.7475886  62.8202343  10.9251147  12.3441350  61.5396929
  11.5823870  11.6612494  61.6734505  10.7201033  12.6552474  62.4214029
 112.9783344   0.4647629  39.2559671 113.7000084   0.2410848  38.6682749
 112.7834320  -0.3510102  39.7172260 116.7921638  28.1207633  55.1974392
 117.6296806  28.4397554  55.5336571 116.2141514  28.1154633  55.9603977
 101.4315796  27.4159741  90.4728699 102.2675800  27.8774714  90.4068470
 100.7848072  28.1094646  90.6032181  84.9282455  56.0148144  87.1179771
  84.2621613  55.4524040  87.5132751  84.5353222  56.3106346  86.2968063
  99.6923637  18.9976740  93.4315777  99.1004848  19.6876240  93.7313747
  99.5845413  18.9861345  92.4805450 120.6082344  16.6760063  83.0018806
 120.8415127  17.2458899  83.7347221 120.9905434  15.8278191  83.2269287
 116.8121433  41.3041735  31.1444736 116.9442940  41.7572689  30.3117228
 117.0843983  41.9381571  31.8079305 106.9243050  30.8327985  70.8029270
 107.2715187  31.7206883  70.7173061 106.1500931  30.9307981  71.3571930
  88.6792183   1.7215064  62.9711390  88.4725666   0.7896073  63.0424929
  87.9402637   2.0945862  62.4905157 124.8559284   9.4848174  76.5739155
 123.9161396   9.6334529  76.6784763 125.2380753  10.3624105  76.5684938
 119.3144703   2.5954226  81.0976505 118.9978027   2.5848696  80.1944160
 118.6925411   2.0470688  81.5759182 108.3723068  24.5757723  54.6976185
 109.2761707  24.7060966  54.9844551 107.8414822  24.8628473  55.4406166
 104.4973850 128.1629104  50.3683996 105.2595329 128.0013926  50.9245205
 104.3422222 127.3281879  49.9263620 121.2769604  49.5295525  96.3376522
 120.8919334  48.8501358  96.8911648 121.7002583  50.1283312  96.9528866
  77.1111107  48.5867262  64.7353697  76.3401031  49.1105890  64.5177746
  77.2642422  48.7602568  65.6641674 124.0196800  10.2379358  51.4588261
 124.0628147   9.5537257  50.7908249 124.9346352  10.4314864  51.6628599
  85.1974583 131.8447358  75.1684904  86.0175037 131.5126068  75.5337906
  84.5664692 131.7636985  75.8836937  52.8961563 132.0798309  37.8460169
  52.1919489 132.7061231  37.6784444  52.8238249 131.8822856  38.7798119
 106.7261219  28.0937648  33.2342052 106.2378597  27.2753525  33.1445861
 107.4399567  28.0173469  32.6010942  84.8551464  53.9928770  78.0015659
  84.7838974  53.8282633  78.9418125  85.7969093  54.0013075  77.8305769
 116.8527412  52.0281172  64.4164467 116.8722630  52.8035736  64.9772644
 117.0497322  51.3007021  65.0066090  82.0897388  36.8958259  50.2163601
  82.8229141  37.4974036  50.0867319  81.3533592  37.4619937  50.4475117
 109.1763115   6.5754503  97.9726219 108.6246967   6.1271787  98.6137199
 109.0859985   7.5040442  98.1866074  82.7318668  34.7262716  58.9721107
  82.5913906  34.3386245  59.8359585  82.4760246  34.0391517  58.3567715
  86.4722824  42.1698856  52.0259047  86.5925026  42.4010515  52.9469585
  86.9038391  42.8751755  51.5436554  79.6168995  39.6444893  90.7402897
  79.4349289  38.9434862  91.3661575  80.4576778  39.4051552  90.3503609
 124.6469307  25.3255868  83.2676601 124.6830559  24.6821856  83.9754486
 124.7596455  26.1694789  83.7051296  80.9500217  21.6294837  65.2629995
  81.8066311  21.2062359  65.2054310  81.1480331  22.5643229  65.3186750
 118.1718445   8.3481395  41.2434006 118.7949371   7.6217818  41.2631750
 117.5429153   8.1430852  41.9352293 106.7822742  15.7237542  33.7059379
 106.9426250  16.5108097  34.2265749 107.6557732  15.4017723  33.4833121
  80.2760792  36.0473680  55.0153303  79.9041700  36.5017843  55.7712603
  80.9260845  35.4525638  55.3893995  99.7361183  27.9786253 101.5479088
  99.5159626  27.5423622 102.3709679 100.5946255  28.3709478 101.7069435
  93.0572796  37.9991078  71.3869286  92.6971722  38.3359361  72.2073603
  92.3580933  37.4555278  71.0237694 116.1351776  19.3724620  74.9960899
 116.7959881  19.6338022  75.6373882 116.0145473  18.4346545  75.1450729
 106.3004684  13.8954437  86.4078808 106.5379429  14.8213243  86.3570213
 105.7798672  13.8253081  87.2080612 105.6379795  27.2985649  30.1659107
 105.5817032  26.4801955  30.6592035 106.4684200  27.2370601  29.6938682
 101.4433098  26.2606359  56.6537905 100.5662060  26.0016036  56.9362974
 102.0310879  25.6722760  57.1276951  48.4538746  46.3233089  91.7332935
  48.5387278  47.2767305  91.7287636  47.5304604  46.1641026  91.5378571
  57.0609283 126.7196602  61.1724663  57.2377396 127.2029538  61.9795561
  57.6410866 127.1172959  60.5232048  83.8328457 123.4889550  80.1536083
  84.2353725 123.8092346  80.9608459  82.9546356 123.8696856  80.1564598
  72.6583815  33.6215925  90.0530529  71.9734478  33.0542803  89.6991348
  73.0859756  33.0904031  90.7247925 120.6853676 144.5350482  61.2985563
 120.5959320 143.8350476  61.9452620 119.9830151 144.3709128  60.6692696
 121.8626213 124.3069405  42.4873257 121.2454891 124.3895025  41.7603016
 122.4240589 125.0786943  42.4137354  18.1839018  26.7917275  74.0618849
  17.3035555  27.1076298  73.8583660  18.6431819  27.5617957  74.3969822
 101.8172359  24.7516990  76.6592884 101.3610172  25.4713869  76.2232351
 101.9765949  24.1130733  75.9643126  93.7898159  16.6236234  76.1408806
  94.2670631  15.7984269  76.0542107  93.0758858  16.5551281  75.5069733
  91.8843269  40.8277798  84.1880512  91.9326401  41.6936874  83.7829590
  90.9466648  40.6542730  84.2712688  92.0820808  40.5629063  77.6997375
  91.5031338  41.0698366  77.1304655  92.8402233  41.1308432  77.8371763
  62.2708845  55.9922552 103.9459515  62.4638224  55.0566483 103.8855553
  61.9335938  56.2236023 103.0805302  77.5983477  32.6457524  70.9153318
  76.8030739  32.1308088  70.7789230  77.8988647  32.3954248  71.7889738
 106.5258503  34.8017526  78.6656141 105.8420753  34.6114659  79.3078613
 106.3190746  34.2367744  77.9211140  90.9074974 119.4576330  64.6429253
  90.5093288 120.2330060  65.0385094  90.8505440 119.6136446  63.7002468
  26.7524462   0.6222784  52.9159260  27.6638346   0.6374893  53.2081366
  26.2795477   1.1236107  53.5802031  97.1562862  22.6121974  48.1792593
  96.9617558  21.8036366  48.6531973  97.7941608  23.0654216  48.7305689
 121.6632843  43.8897228  58.5514021 121.8911648  43.8223934  59.4786406
 120.8621025  43.3733797  58.4635592 121.1590290  14.2130685  44.4717216
 120.9318733  13.3547807  44.8294497 121.0100174  14.1271579  43.5301018
  66.4717340 128.6283941  74.7907829  65.9931850 129.2462892  74.2381287
  67.3053169 129.0633733  74.9701357  94.4739723  19.9457455  32.6423764
  95.0333405  20.7223034  32.6252055  94.6732330  19.4889200  31.8251610
  98.3934593   3.1296563  65.2981710  98.7987328   2.9871160  64.4427919
  97.4614239   3.2346866  65.1070976 117.4020100  45.1921701  64.0896845
 117.2598648  44.5288944  64.7650290 117.5379276  46.0047913  64.5769215
 115.9722614  40.8849812  72.1365309 116.0576820  40.0847721  72.6548004
 116.7131710  40.8584452  71.5310717 109.9240303  39.5766902  66.1123371
 110.6342506  39.0203810  65.7924318 109.9804783  40.3684711  65.5774212
 107.7500629  16.4926493  69.6870279 108.0452824  16.0190582  70.4647112
 107.1520901  17.1592295  70.0251627  98.5131073  39.6481013  34.0828967
  98.9514732  39.9668550  34.8718572  99.0834999  39.9220777  33.3646917
 104.5119667  36.1388707  61.1583853 104.4962692  36.8773103  61.7672348
 104.5937061  36.5425563  60.2943325   9.6837264  16.5295506  26.7761183
   9.6566611  17.2006845  27.4580836   8.8661509  16.0439038  26.8854189
  56.8258286  43.9451218  53.0708170  57.3137045  43.8351154  53.8869715
  56.6829252  44.8891306  53.0025768 113.1892681  25.6634164  69.3069553
 113.0557537  25.4687357  68.3793211 112.3303795  25.5260801  69.7065496
 103.2804871  42.1092606  69.4169664 104.2372894  42.0846319  69.4045734
 103.0489445  41.9614315  70.3338957 106.6414738  19.3720973  75.7312632
 106.9976711  19.7761321  76.5225363 105.9658718  19.9817264  75.4343653
  22.3086100  42.2370958  54.4392824  21.7633944  42.6329899  53.7593985
  22.0021086  41.3320255  54.4952583 109.9229908  35.6459522  99.2849922
 110.5554581  34.9668169  99.5194912 109.1390419  35.1630831  99.0232754
 102.5687313  36.3722849  84.0692425 103.0851650  37.1095729  83.7437630
 102.1450710  36.7070055  84.8596287 109.6410751  98.5287094  39.2689419
 109.1265678  99.1386795  38.7403202 110.5507374  98.7753773  39.1018987
  87.4382305  60.5262566  68.6723661  87.0088673  60.4506397  69.5245123
  87.0307159  59.8449898  68.1375408  80.4529667  55.3745937 105.2441120
  79.6219397  54.9033356 105.3036404  80.7116318  55.2890396 104.3265057
 108.5522175  40.4766464  54.0212965 107.9690361  41.2327003  54.0884876
 108.0589962  39.7578359  54.4166183   0.3962641  46.2085485  78.7595797
   0.3935652  45.4894543  78.1278181   1.3178187  46.3178396  78.9941454
 121.9671059   3.4841922  85.2280235 121.0430336   3.2576305  85.1231766
 121.9831181   4.0866292  85.9716988  31.9896060  22.3358369  91.2068462
  31.3452559  22.5297737  91.8876076  31.8380671  23.0023623  90.5367661
 107.4330425  38.9074826  64.9065065 107.9654312  38.2449317  64.4662571
 108.0667400  39.4536257  65.3716755  14.2582446   2.8549054  51.7140245
  14.8359233   3.0878305  52.4408436  13.9752513   1.9616935  51.9097710
  16.1212718  12.6148808  34.0694833  16.7163968  11.8753994  33.9460945
  16.4834619  13.0917966  34.8162103  63.8660908  17.2231758  49.5643997
  63.8157082  16.2837338  49.7408676  64.7955132  17.4340940  49.6534348
 108.4413338  32.8299165  60.6565380 108.7380123  33.1902170  61.4922380
 107.7262783  33.4065580  60.3874445  64.4448328  23.8808918  78.9963961
  65.3001642  24.3105006  78.9875031  63.8365269  24.5641851  79.2780066
 110.7538033  16.7094338  41.1345339 110.6622601  15.7689083  41.2870550
 110.1469135  17.1128988  41.7551184 100.8738136  12.7124369  69.0558958
 101.7089081  13.0724454  69.3546391 100.5695534  12.1747053  69.7869921
  87.2825527 143.4938950  82.1971607  86.7308331 143.6652938  81.4339733
  86.8277454 142.7967561  82.6697826  96.6953182  28.6702824  82.4932289
  96.2382793  28.4424496  83.3028126  96.9496346  27.8278661  82.1165466
  94.8098946  16.2652695 103.0051804  94.3484306  15.4343867 102.8915119
  94.7018337  16.7157948 102.1675682  65.1224470  87.6840687 104.5512962
  64.7244549  88.2656956 105.1990128  64.4361162  87.5475883 103.8981819
 113.5029697  12.3243427  50.9401131 113.0477619  12.6377285  50.1585674
 114.3483353  12.7729118  50.9209442 107.8146839 140.8671600  12.1200410
 108.0134010 140.4841716  11.2656061 108.6390400 141.2632049  12.4025575
  87.5589466  10.8237803  75.3597021  87.8896999  10.1997840  76.0058165
  87.3086166  11.5911829  75.8741522 116.9602013  15.6748950   8.3342878
 116.1980152  16.1762750   8.6239663 117.2318363  16.1004269   7.5210420
 107.6053619  40.7966900   9.9190465 107.2313309  40.7819366   9.0380803
 108.5519218  40.7798338   9.7776834 115.8620262  50.5599880  49.6001244
 114.9919796  50.6047297  49.2035866 115.9012794  49.6883774  49.9938107
  63.0971289  53.0186033  78.7121677  63.4103394  52.2441435  79.1794395
  63.8929176  53.4428883  78.3913231   3.1251269   5.5870771 106.3168812
   2.9611521   5.5639672 105.3741169   2.5566130   6.2852496 106.6418266
 110.8236599  18.9643800  74.2258501 109.9886799  18.4996617  74.1704607
 110.5929947  19.8328638  74.5556402 101.6627312 128.9229340  51.5956831
 102.5493622 129.2618127  51.4720678 101.6870117 128.0444736  51.2162781
 101.9128418 140.5739523  51.4242125 101.7318630 141.1778528  50.7039452
 102.1738529 141.1394496  52.1510649  91.7638111  54.3946457  26.8154263
  92.4401951  53.8396120  26.4272690  91.1094379  54.4938612  26.1239100
 104.2662144   4.7011513  67.8871965 104.3990993   5.3107733  67.1612978
 103.6536598   4.0503952  67.5443745 103.0132294  16.2393451  86.6683960
 103.5855389  15.7125211  87.2262096 102.3675442  15.6175840  86.3326454
  58.8136578  31.9130254  63.3356285  58.9562511  32.6295996  62.7172232
  57.9953051  31.5080357  63.0483770 102.1581364  42.4557114  35.5294871
 102.0717144  43.3235550  35.9239626 101.7288399  42.5359583  34.6777248
  87.2866440  24.2935967  78.6413431  87.3091030  24.5489311  77.7191019
  88.0970287  23.8016129  78.7734556  90.4936981 141.1301989  65.2501011
  91.4039612 140.8423073  65.1809502  90.0284958 140.3711779  65.6018162
  93.8901711  30.6814122  61.3170528  94.8402596  30.7790208  61.2535715
  93.6438560  30.2119040  60.5201054  84.0779591  59.6148586  66.4490271
  84.1966724  58.6973476  66.2034416  84.3114567  60.1058149  65.6612062
  90.0942993  27.1395493  76.8099642  90.8038425  26.6755819  76.3655424
  90.4364491  28.0224037  76.9504166 122.8408623  49.7697496  72.7895164
 123.5633469  49.5787001  73.3876276 122.1090126  49.9973440  73.3629513
  95.7017708 144.9017926  57.9292536  96.2003422 144.6343299  58.7013435
  94.8284912 144.5358088  58.0694532  12.0931941  16.8614256  73.0937433
  11.1617976  16.8143415  72.8780794  12.1149474  17.1992362  73.9890909
  91.0788345  42.7572584  70.8694172  91.1209393  43.5767555  70.3765869
  91.9571018  42.3849106  70.7905006  60.9387684  30.8290553  95.1100159
  61.1217976  30.5102205  95.9938049  61.3424015  30.1806211  94.5330906
 108.0136681   2.8209081  32.3332191 107.2462845   3.1047353  32.8299999
 107.8954029   1.8768428  32.2284102  72.2588253  24.0784693  43.1447506
  73.0140543  23.7550426  42.6535797  72.6156950  24.7651649  43.7080669
 111.7119503  37.5475597  82.1408749 110.8999348  37.9035258  82.5016499
 111.7118073  36.6292977  82.4111080 120.8195972  39.0613770  44.8819637
 120.9767437  39.5984054  45.6585836 121.5365219  38.4271431  44.8802662
 101.1415386  36.6375852  75.7058859 100.3111172  36.5015101  75.2496958
 101.2686348  37.5862360  75.6941080 110.0171471  39.8146081  57.9379463
 110.7131386  39.2130661  58.2024908 109.7230434  40.2152157  58.7560177
   3.3357554  46.2055826  78.1178665   2.8875285  45.6268787  77.5010824
   4.1426116  45.7406759  78.3394146  89.3929100  17.8959882  59.0778494
  89.0620899  17.0450234  58.7903690  89.0560436  18.5151458  58.4302425
 101.8441868  46.4406490  63.5570717 102.4454021  45.8639812  64.0284729
 101.9406128  47.2903252  63.9871597  19.9916773  83.1775284  86.5446377
  20.5401259  82.4822807  86.1812210  20.1674872  83.1542778  87.4852657
  14.7589713  14.8655546  66.2662935  15.6403952  14.5370579  66.4435530
  14.4074374  15.0857306  67.1289492  76.3513708  23.3954954  53.3652782
  75.4843187  23.1336236  53.0556440  76.3866711  24.3391514  53.2087564
  93.0872536 130.8204968   6.0212652  93.4469795 130.7021386   5.1421586
  93.4184361 130.0724823   6.5182821 118.9028931  12.5588894  96.4521980
 119.6394730  11.9504046  96.3937187 118.1492329  12.0040309  96.6530895
 103.9630222  51.0183668  81.2918186 104.3153000  51.4136696  82.0892334
 103.0187225  50.9758139  81.4425755 120.5376244  25.2093244  63.6955833
 120.9869003  25.3734422  64.5247078 120.4505634  24.2569661  63.6547565
  17.1821147   8.5938847  69.4779539  18.0890208   8.5637575  69.7826624
  16.7241412   7.9562569  70.0256062  83.2107830  45.1519012  36.9018507
  83.6114025  45.8875275  37.3650885  82.6065636  45.5598831  36.2816095
  91.8283463  24.1602850  55.6401443  91.9960690  23.4619570  56.2729502
  91.2899017  23.7474370  54.9649715 115.3182220  30.1284361  41.2591791
 115.1819706  30.9773183  40.8383894 116.0516071  29.7397470  40.7824183
 119.4802856 143.1770913  91.0058117 120.4284000 143.1475867  91.1339951
 119.3495560 142.8616072  90.1115990   1.5216284  66.2601614  49.7071123
   1.2296134  66.7872286  50.4508591   2.1588545  66.8142605  49.2563868
  67.5936508   3.1961533   5.6229484  67.7978182   3.0533022   4.6987501
  67.0683336   3.9962801   5.6312919  93.7990379  19.8683941  67.3225451
  92.9229736  19.6020746  67.0435715  93.7841511  20.8244586  67.2783899
 110.3971863  11.7736089  63.0094433 110.5227566  12.6551211  62.6581573
 111.1920547  11.6014540  63.5141993   6.0910063  12.9776001  50.2160645
   6.0340624  13.6318731  49.5197058   6.1070662  12.1385598  49.7556448
  97.5029087  30.6609440  63.0431223  97.8519344  29.7974610  63.2640505
  97.2077465  31.0211134  63.8794231 110.9183884  60.0577021  66.8809795
 111.0908890  59.7317600  67.7642870 111.5937805  60.7198429  66.7338657
  69.3171835   0.3171617  56.3462639  68.4662199  -0.0829051  56.1672640
  69.9028587  -0.0624418  55.6911945   3.9090758  36.7970014  60.7866812
   2.9537993  36.8576622  60.7884693   4.1307955  36.5356326  59.8929501
  74.0014648  47.8379250  71.6674757  74.1755342  47.9476976  70.7326603
  73.0550003  47.9545164  71.7501783 124.4641399  27.5726485  44.8673534
 124.6971989  26.6684937  44.6565866 123.5161686  27.6114225  44.7405386
  63.9336443   9.5971549  33.1453681  64.1151428  10.3120017  33.7555194
  64.0980244   9.9729139  32.2804904 109.3719482  34.2618823  80.2237225
 108.8870525  34.6588612  79.5001793 108.8882637  34.5223022  81.0076046
 114.6179867  37.5599194  77.8245592 114.3181610  37.4519181  78.7271500
 114.3764400  36.7407489  77.3922968  89.1132641  12.3045719  40.1950645
  88.3266544  11.8981338  39.8313665  89.6605396  12.4919069  39.4324207
  62.6278257  17.9699397 100.5081654  62.8351212  17.0421195 100.3967571
  62.0320082  17.9940116 101.2569332 121.0864639  14.2140210  57.9720116
 121.2813663  13.3896410  57.5263166 120.7551003  13.9497733  58.8302660
  80.6369781  32.6565552  44.6969128  80.4773426  33.5893559  44.5532846
  79.8889399  32.2200036  44.2893696 109.2312527  23.2975078  71.1061239
 109.4500446  24.2254639  71.0209322 108.4724617  23.2829070  71.6894388
  68.4040594 145.5693358  69.3649006  67.8409719 144.8158974  69.1874409
  69.1947174 145.4036497  68.8514423 119.0581799  99.5817566  41.6377115
 119.6053028 100.1325035  41.0777426 119.2886162  99.8430443  42.5292635
  15.7750064  24.0776467 100.9961510  16.5841609  24.5837021 101.0697269
  16.0400992  23.1750441 101.1729717 106.0966396   1.9838744  55.4447651
 106.2240887   1.0508282  55.2732611 105.1678753   2.1349744  55.2692795
  99.9463749  30.0700641  54.0889597 100.6337643  30.7290292  54.1863680
  99.7156620  29.8301530  54.9864244  91.9002438  29.9058175  77.3595524
  92.5944042  29.6689296  77.9745674  91.2288094  30.3178048  77.9033089
  93.8460827  29.5966768  37.5612926  93.9076328  29.0750170  38.3614898
  93.4283543  29.0140152  36.9270706  84.3489838  43.8865852   0.7222787
  84.8580742  44.6434498   0.4320661  83.8612938  43.6137247  -0.0548609
  85.0478268  13.0077469  85.0868320  84.6538734  13.6913610  84.5448875
  85.8304882  12.7410972  84.6045876 120.0918102 118.1824798  74.3159294
 120.6752300 117.5053377  73.9733982 120.6397724 118.6906094  74.9140692
 101.4275455  22.7214146  26.5770078 101.9546890  23.1679916  27.2395205
 100.5328274  23.0185628  26.7425680 110.5544186  38.0370235  43.6526394
 110.9964275  38.7986016  43.2773352 111.2406731  37.5749135  44.1340256
  93.9441776  18.8966227  70.0368500  94.6811581  19.2013466  70.5662298
  93.9593029  19.4563639  69.2605162  65.8557844   5.6053704  25.0984621
  66.6943359   5.5758160  24.6378160  65.8010817   6.4981592  25.4392958
 117.2212410  28.7209606  40.0188589 118.0874157  28.3234668  39.9295807
 116.6418743  27.9882669  40.2279711  97.1209240  33.2537913  46.1330414
  96.6231251  33.9894485  45.7763386  97.4417686  32.7855396  45.3623056
  63.3099508  13.4665847  37.7548766  63.6837196  12.8904295  38.4216428
  63.2347822  14.3169022  38.1879377  81.2705231  20.4137135  36.3976574
  81.6351700  20.8340049  37.1765137  81.3204479  19.4764900  36.5856719
 105.9629726  30.0980902  41.1575747 105.0306892  30.1016665  41.3745308
 106.1412907  30.9876561  40.8524370   7.8936320  37.8108931  63.2713938
   7.1356516  37.7465796  63.8524008   8.6464148  37.8387856  63.8619661
 101.8077946  67.6943111  44.0951347 102.1314716  67.0501518  43.4654331
 101.3792610  67.1720219  44.7732258  97.1051788  25.0816560  61.6794205
  97.5602245  25.7092595  62.2409105  97.7520370  24.8405862  61.0163307
 105.3863907  64.5530367  90.8672333 105.7246971  63.6746216  91.0409069
 105.0306320  64.5016241  89.9800873 109.4609070  27.0523190  40.0812340
 109.8421383  27.8336310  39.6806812 109.0815449  27.3650432  40.9025288
  43.7807322 139.3331254  86.5341663  44.7212267 139.2720688  86.3669300
  43.6460447 140.2374757  86.8174362   8.5504180  50.6684065  57.1226835
   8.5012084  50.7783079  58.0722809   7.7008753  50.3002405  56.8798447
  90.3278160  40.8435345  21.8535924  90.4680538  41.7130995  22.2283220
  91.2094688  40.5027342  21.7026925 122.7343464  30.5609012  28.2182693
 123.1410694  30.2662063  27.4034357 121.8083858  30.3404307  28.1171656
 109.1432381 141.7869134  37.1242571 109.0512848 141.8843193  38.0720377
 109.1645622 142.6844166  36.7921948  16.1565619  44.1929770  26.6677713
  16.5690547  43.9927959  25.8275294  15.8128958  45.0799036  26.5606022
  44.7674561  25.1202393  55.5343294  43.9133930  24.8570704  55.1914740
  45.2187443  24.2950606  55.7122326  63.7210989  41.0649824  81.9780540
  63.7840176  40.7365036  81.0811806  62.8482294  40.8011198  82.2690868
  78.4179544  16.9658816  32.9319334  78.4353113  17.5595713  33.6825752
  78.1480551  16.1239243  33.2986665 105.2782345  44.1142178  42.0661926
 105.9851933  43.4800243  42.1855211 105.5618572  44.8845243  42.5585508
 100.5362701  68.8586521  12.3479283  99.6988010  69.2674160  12.1293437
 100.5496883  68.8369513  13.3047891  75.9302521   9.7521663  49.2593431
  75.3548622   9.4534802  48.5551071  76.8001509   9.4445813  49.0045929
 121.8399525  51.8259001  42.8640699 120.9167290  51.8352842  42.6114845
 121.9742012  50.9597826  43.2488489  71.0308123  40.9315872  40.6366825
  70.2754354  40.3758144  40.8283997  71.5923738  40.8466339  41.4071798
 105.7415390  22.6774788  40.0413132 105.4672623  23.3500791  40.6647015
 106.1361980  23.1666589  39.3193865 105.1041317  52.8378534  49.6057034
 104.7657394  53.5907698  50.0903034 104.4301128  52.1656895  49.7062778
  78.7356520  10.6887710  19.1796088  78.9847136  10.9771788  18.3015311
  77.9454470  11.1899495  19.3811774  90.6100273   4.5374152  40.7349014
  90.3942871   5.0890410  41.4868307  90.4408550   5.0929034  39.9739528
 112.4650574  19.7636318  37.0107532 112.0368576  20.5316544  37.3889208
 112.3176193  19.0676153  37.6511097  79.5482349  31.9969702   6.4058489
  79.7790194  31.9481254   5.4781723  78.6204338  32.2323418   6.4097714
  71.4721203  17.2775698  27.7878237  71.7517662  17.8394961  27.0651436
  70.5326176  17.4417365  27.8691578  91.3649654  34.8877406  73.2809544
  91.9057846  34.2920232  72.7624273  90.8299446  34.3116426  73.8269377
  87.3309040  18.2940888   9.6874815  86.8523502  19.1150248   9.5722175
  87.2856331  18.1204486  10.6277108 118.9255047  71.0950375  53.8921976
 119.6709633  71.6934061  53.9420080 118.2551956  71.5012312  54.4416666
 106.3663864  41.8756247  25.6322145 106.2860584  42.6036072  26.2485147
 107.0455742  41.3163996  26.0093117 102.7190018  14.7745180  74.0156698
 103.6457157  14.8690951  73.7954473 102.7111721  14.1873455  74.7715759
  15.9071189  62.3852158  46.0106659  16.2293177  62.9236412  45.2878094
  15.2152472  61.8505669  45.6211948 103.2855701  46.0275221  19.6216583
 102.9152107  45.5804300  18.8606274 103.7972450  45.3539181  20.0696278
  98.8081074  46.1712408  41.6865158  98.4687328  45.3538990  41.3218069
  99.5591164  46.3866663  41.1335182 118.4749603  15.4944742  33.7935090
 118.7607574  14.7336948  33.2877731 119.2855453  15.9522831  34.0162206
  98.6541557 130.4286964  67.3056364  98.2426548 129.5699782  67.2081470
  98.3168697 130.9407491  66.5706015 112.1681595   8.6190367  45.0427914
 111.3927460   9.0850818  45.3554630 112.5740147   9.2209488  44.4189215
 123.2152081  15.6786597  61.4319515 122.8221607  15.3207076  60.6359529
 123.8617897  16.3101625  61.1167240 100.1277351  42.3088074  70.3741741
 100.6515789  42.5881481  69.6233177 100.7439995  41.8360043  70.9335566
   6.1298400  37.8566241  39.9694824   6.7251616  37.1811008  40.2942705
   6.4464980  38.0509353  39.0873241 102.9181957 123.5168357  78.0650187
 103.3712673 124.3548221  77.9715395 103.5683155 122.8630609  77.8078222
 105.1593494   6.0654479   2.4328363 104.2558956   6.3664573   2.3359387
 105.0831318   5.1229656   2.5816661  59.7656536  41.5101004  47.6810551
  60.6728506  41.2530565  47.8458500  59.7640228  41.8144321  46.7735243
 108.3756351 135.0421602  39.1740942 108.9323044 134.3710441  39.5690060
 108.4382439 135.7873172  39.7716331  96.4901924  93.8217926  35.8253264
  95.7994080  93.3313656  36.2708902  96.1178017  94.0368462  34.9701595
  84.2271805  19.8560405  53.6343193  84.8868179  20.1280761  54.2723656
  83.6379337  19.2852902  54.1275358 100.7637024  65.3610325  13.9307237
 100.6689167  64.9936247  14.8095059 100.2627945  64.7699165  13.3686709
  68.7188196  27.1447420  54.1031694  69.0340233  26.2428379  54.1618729
  69.3541861  27.6537609  54.6065903 112.1845436  21.3786244  52.4809504
 111.9365597  21.5103865  53.3960295 113.1034184  21.6438031  52.4412394
  90.6982422  26.8507171  64.4038630  90.4096699  26.0190225  64.7796869
  89.9027061  27.2368050  64.0374041 110.3315926  20.0265265  13.0820394
 109.9715233  19.1559923  13.2516074 111.1567974  20.0429821  13.5667920
  77.0027208  57.3671675  32.6670194  76.4060402  56.6388798  32.8396440
  76.5033054  58.1478739  32.9064298  74.9871540  60.8551884  66.5793610
  75.5188227  61.6350555  66.7386293  74.1047716  61.1071634  66.8516541
  91.8598652  49.4933796  60.8185720  91.8806744  48.6271334  60.4118586
  90.9398079  49.6297884  61.0446548  97.9996967   0.5373522  38.4923196
  98.7055302   1.0369091  38.0818653  98.1050587   0.6997649  39.4297361
  78.7527895 142.7961616  34.1734481  79.5512867 143.1515170  34.5637727
  78.9781380 141.8939919  33.9464259  67.7409172   4.0781268  66.6387033
  68.5154676   4.6024728  66.4353228  67.3367548   3.9078993  65.7878780
 109.0947247  48.5441589  57.0832920 108.6308289  49.0414810  56.4097166
 109.8916626  48.2391357  56.6495943 107.3049355  39.3493438  42.1062279
 107.7121162  38.7329507  41.4975452 106.4214993  39.4784975  41.7611122
 118.4870243  21.1153650  14.9855244 117.7629089  20.7244682  15.4744875
 118.4723282  22.0396852  15.2338207  94.6333218  22.7452636  46.2605238
  94.0143871  22.0335054  46.4234781  95.3740883  22.5549960  46.8361092
   4.9664908 129.2975039  63.3842707   5.8501273 129.2040903  63.7402153
   4.5017939 128.5182388  63.6892843 121.0223103   4.9052247  81.1081505
 120.6358910   5.7037318  81.4677238 120.2951431   4.2840230  81.0685921
  92.3547077  47.0697975  86.5449619  91.5269661  47.4433327  86.2423897
  92.7687168  46.7306471  85.7513523  85.0726604   8.1443381  51.4750433
  85.7935047   8.7738067  51.4554071  84.6861839   8.2498306  52.3443747
 122.2944450 128.8185460  30.4321241 121.9254494 128.0471975  30.0018954
 123.2226944 128.8016958  30.1990938  80.4756451  47.0192623  78.0994177
  81.2688255  47.2223139  78.5952616  80.6122971  46.1257982  77.7843380
  77.9163313 141.6778258  40.7653522  76.9949436 141.9144962  40.8714771
  78.3813667 142.5143892  40.7769346 113.3819103 137.6305152  63.4589911
 113.7992096 137.2705407  64.2416191 113.7693501 137.1401853  62.7339411
  89.7678375  42.3527670  54.3753958  90.6872654  42.1257877  54.2362165
  89.2808819  41.6935062  53.8809443  99.4442654   8.6752969  46.5850735
 100.2221870   8.8228172  47.1229315  98.8595295   9.4003057  46.8057013
  98.3645439  41.1625862  36.4638376  98.9136791  41.8036604  36.9151807
  97.7379608  41.6902781  35.9687018  73.1287336   3.7451279  64.4830751
  74.0187645   3.3930397  64.4934368  72.9405832   3.8933915  63.5563374
  97.5951195  47.2437191  73.8683414  97.4317169  47.0160627  72.9530811
  98.3601856  47.8182316  73.8393402  63.1903887 138.6471082  66.4341593
  63.7678099 139.3496324  66.7329502  62.3653364 139.0865190  66.2281418
 122.3478413  44.7979832  45.0640631 122.9485607  45.5047226  44.8276567
 121.5730572  45.2457905  45.4037809  66.3853502   6.2359196  32.4131322
  65.6206036   5.7707012  32.0740700  66.1235905   7.1566272  32.4164081
 103.7484741   2.0394206  54.5097303 103.1447220   1.5719472  55.0869465
 103.3962917   2.9283005  54.4640493  90.0016022  45.1755047  32.3484492
  89.1830158  45.5273390  31.9986391  90.6586742  45.8368349  32.1313691
  88.5145569 137.0227528  99.8817921  89.4412804 137.2623659  99.8837948
  88.4840488 136.1801297 100.3348732  75.1921988  37.1330237  36.5667677
  75.7852077  36.6825676  35.9653854  74.5449686  36.4698195  36.8065333
 106.4812469 145.5838546  96.2381705 105.9184265 145.3278772  96.9688889
 107.1867752 146.0874058  96.6442367 110.8201218 139.3460078  38.5114336
 111.5030861 138.6846764  38.3999300 110.7015610 139.7176082  37.6373148
   5.3202372  25.3823113  59.6109867   5.5839663  24.6077251  59.1143036
   5.9686595  26.0473657  59.3797064  87.0075703  42.8896761  68.5226345
  86.1269474  42.7623415  68.1697559  87.4752140  43.3629942  67.8345108
  76.0033607  30.0071883  35.6673932  75.7472897  29.0858150  35.6257606
  76.3013792  30.1324773  36.5683484 109.9640846  19.5315313  67.8014612
 109.0396023  19.6064615  67.5649166 110.2478790  20.4339719  67.9473972
 101.4096642  64.8245192  54.7266626 101.2245274  64.2938662  55.5014944
 100.5875683  64.8274708  54.2363691 101.8896008  41.4898729  29.7850728
 101.9765663  42.0321941  29.0011358 102.7903748  41.2843895  30.0353003
 114.8741913  24.1501141  56.8909454 114.9861431  23.5706568  57.6445580
 115.1980209  24.9992418  57.1915197 105.7198811 139.8614604  29.7829342
 105.7164860 140.8178277  29.7431731 106.2565517 139.5926447  29.0373158
 113.9764309   8.4126282  80.1064777 113.6719322   8.2753432  81.0035038
 114.5550537   7.6699519  79.9336481  31.4316588  17.9999113   0.1427758
  31.9559699  17.2243190  -0.0566830  32.0540743  18.6175525   0.5266380
  93.1980419   0.3085102  48.9515734  94.1052055   0.5039299  48.7168360
  93.1004238  -0.6266952  48.7724257  96.3139725  29.4998550  44.3726969
  96.8293095  29.2681837  45.1453543  96.3546467  30.4554629  44.3353844
  78.5547590  44.2635870  65.3359461  78.3814716  44.0095520  64.4294834
  79.3909740  44.7279167  65.2988720 101.4439869  48.2356644  80.9053040
 102.3414612  48.5684586  80.9001923 101.5025711  47.3957729  81.3606930
  75.2199936  47.2910166  84.8428440  74.3213367  47.0578384  85.0758171
  75.1544476  48.1810379  84.4967365 118.9747047  18.3107364  31.4426589
 119.2199612  18.2834733  30.5178118 119.1461277  17.4248528  31.7621207
  74.3450212 143.7136839  64.9857855  75.2464771 143.8610680  65.2719402
  73.9546347 143.1889317  65.6846857 108.6662197   6.5620947  28.9808726
 108.7641430   5.6114775  28.9263678 109.1415119   6.8958485  28.2199955
 104.4032001 143.5262103  25.1188111 103.9273262 142.9667527  24.5049787
 104.9009895 144.1242501  24.5613313  99.6473217  56.1189985  36.3479471
  99.3046379  56.0588741  35.4562140  99.4657040  57.0203495  36.6140604
  87.2590256  41.9933128  65.1528263  87.3933411  41.3347340  65.8343410
  87.7727222  42.7469063  65.4434204 110.9590149   2.7448419  45.9959459
 110.4710293   2.2754307  46.6725206 111.3600826   2.0547616  45.4675865
  84.5693588  56.9036627  65.6651306  85.2431488  56.3756657  65.2368116
  83.7437248  56.5655851  65.3183365  97.7623081 140.6012160  51.1453772
  98.0758953 140.1450206  50.3644943  98.5581970 140.9110577  51.5775728
  95.8749199  30.3910995  30.1566172  96.6472340  29.8288488  30.2168941
  95.8339787  30.8335066  31.0044575  79.4507122  16.6410244  62.9970789
  79.7239208  17.3132348  62.3728037  78.7108231  16.2065947  62.5727320
 122.1496201  38.4422731  54.3984222 122.0384502  37.6423168  54.9121809
 122.6488686  38.1659245  53.6299133  83.0929184   0.4297358  47.4783373
  83.5230160   0.2181962  48.3068943  83.3241081  -0.2944922  46.8967247
  84.3821144  45.4454565  32.1872735  83.8358498  44.6845770  31.9900751
  83.8383484  46.1977339  31.9535637  90.3054237 144.4474445  41.0770178
  91.0932922 144.2710180  40.5628490  90.0914860 143.6075539  41.4832783
 100.2461147  25.3195429  94.8506069 100.8149338  25.4580069  94.0933037
  99.5356846  24.7702336  94.5192909  91.0907936  13.7262630   4.1015092
  91.0559559  14.2319703   4.9134771  91.1707211  12.8167737   4.3890420
 115.3357792  40.2564240  36.1205959 116.1193371  40.3101444  35.5734372
 115.2520847  41.1288691  36.5053964  73.5151625  11.1938906   7.9369104
  72.7024555  10.6881917   7.9378885  73.9899492  10.8857107   8.7088156
 108.3096695  25.1975703  57.4513912 107.9939556  25.9248209  57.9877377
 108.0462360  24.4131303  57.9325247 107.0347023   8.7710851  94.1712996
 107.0246792   8.1705785  94.9166342 107.0020866   9.6427208  94.5655330
  11.4572745   1.7500298  60.9137058  11.0797816   2.5244924  61.3307667
  11.3345175   1.8990465  59.9761772  83.5241413  49.6848679  66.9921875
  83.6994076  50.2438211  67.7492142  84.3677616  49.6154308  66.5452957
 112.0973206  34.3799567  51.0709763 112.7597046  33.9742517  51.6303301
 112.5437832  35.1285577  50.6753731  74.6548080 109.7999925  57.7578115
  74.9440193 109.8520131  58.6687899  74.4286060 108.8786478  57.6305723
  90.9722710  24.4642615   9.1167647  91.6309738  24.5349813   9.8076642
  90.3815937  25.2011704   9.2726552  73.3233643  30.0817347  31.0124755
  73.3670759  30.9365058  31.4410663  72.4878740  30.0904226  30.5454445
  76.1381960  28.0878210  72.6977301  75.5374384  27.8151226  73.3912420
  75.8947182  27.5495553  71.9445896 113.1416130  27.3210168   2.4720989
 112.2957325  27.0820642   2.8510827 113.1831741  26.8309236   1.6509339
  82.6359177  27.0163822  55.4345179  82.8601456  27.3143768  54.5529556
  82.2210121  27.7748275  55.8454275 106.5711880  36.4921498  35.2752209
 105.9907913  36.6916847  34.5406699 106.5088177  35.5426025  35.3786755
  94.3928909  18.8416946  64.7204208  94.5126534  19.6053374  64.1558504
  94.4006443  19.1972673  65.6090927 107.4314976  29.2295647  66.5761185
 106.8895054  29.6125412  67.2659063 107.3771667  29.8551989  65.8537149
  87.1217346  15.0822806  63.3621550  87.5774002  14.2792094  63.1097984
  87.0214939  15.0125527  64.3115330  98.8627052  46.2740135  38.3318567
  99.6348190  46.4732170  38.8613772  98.7483215  47.0446730  37.7757716
  83.0420399  24.4009233  52.4943924  82.1440315  24.7140288  52.3858929
  82.9678535  23.6675000  53.1049776  89.1666317  32.5166202  59.1675043
  89.9341106  32.4655771  59.7372389  88.4215164  32.5112748  59.7683525
  83.1577873  30.4237652  81.9339752  83.3513546  29.8988342  81.1573029
  82.4216461  30.9766650  81.6720009 107.7188587  23.8612914  81.2323189
 106.9205856  23.9482570  81.7533112 108.0050755  24.7619867  81.0804653
  87.7523994  30.6444287  44.6616554  88.5528564  30.1398182  44.8061419
  87.2952938  30.1740432  43.9645004 104.1148472  46.9677019  56.0462809
 104.7694111  46.9057703  56.7419434 103.2812023  46.8014908  56.4863253
  92.4885273  30.2972484  21.8783212  92.1620369  29.8137641  21.1194563
  91.9219875  30.0224471  22.5992584  93.7478733  42.9214907  84.3605995
  94.0929222  42.0625639  84.1168594  93.4043884  43.2823610  83.5432816
   3.8631278  39.9092913  99.7352409   2.9965239  39.8033524 100.1276875
   4.3370371  39.1154814  99.9832630 114.8990726  38.1975031  56.4274883
 115.6677055  38.7678337  56.4148188 114.3603039  38.5054302  55.6987000
  95.7827663   5.6139547  76.1004639  95.8381367   4.6763128  76.2848377
  95.1896858   5.9550732  76.7698860  87.8483772 122.1042843  15.4595518
  87.3865414 122.7043409  14.8739982  87.1888447 121.8408603  16.1013114
 107.4459076  19.2515397   8.8343513 107.2873020  18.3435249   9.0923947
 108.2702827  19.4818079   9.2628485 112.0479298 146.1212749  71.9876289
 111.7653561 146.1814713  71.0750723 112.1257305 147.0310675  72.2747803
 109.3444061  37.9780436  29.3421888 108.6781025  37.4284506  28.9296055
 109.7639370  37.4048829  29.9838376 104.0708828  16.8049169  15.0750351
 103.7652683  17.5718296  14.5905983 104.8111725  17.1261549  15.5898273
  71.0763979  63.8955975  84.3555927  70.7157707  63.1329107  84.8077965
  71.9643307  63.9820290  84.7024918  58.7496662   7.4593717  19.3336940
  58.3362770   8.3045548  19.1576159  59.0407038   7.1516383  18.4753060
 121.3950634  23.1441188  41.3420153 122.1801949  23.2000494  40.7973385
 120.7381916  23.6545134  40.8684731 112.1865749  62.6791525  54.8665953
 112.9876709  62.2141504  54.6252441 111.8628216  63.0422783  54.0422440
 113.3140850  11.9076228  37.0440340 112.5625801  12.3424876  37.4469876
 113.0984306  10.9756756  37.0786428 109.3810272  50.8061028  77.9507685
 109.0785027  50.8860111  78.8553810 108.6950302  50.3026581  77.5123835
  85.0045490  21.0611796  97.3589897  84.4062614  20.7473564  98.0370712
  85.8420849  21.1689043  97.8097248 102.7096367 126.2543459  71.6016531
 102.7316570 127.0330150  71.0453987 102.6461601 126.5982372  72.4926853
   3.3259230  49.7924662  23.6418986   2.9559451  48.9324141  23.8410306
   3.2323104  50.2877140  24.4556546 103.0342197 140.9681762 103.9521220
 102.8575802 141.3353718 104.8182603 102.3683071 141.3585795 103.3861073
  82.2865391   5.6646645  36.7993307  81.9823360   5.3355086  37.6451159
  83.2346916   5.7472330  36.9014215  67.5246572  39.8750877  70.2433062
  67.4970388  39.6066999  71.1616945  66.9431067  40.6340170  70.1979733
  60.5142879  49.3467093  49.1320562  61.0167122  48.5320330  49.1424036
  61.1663103  50.0320911  49.2781591 103.4867287  34.7954917  32.2647858
 103.2549095  35.6487417  32.6314712 104.4221497  34.7032142  32.4456501
 106.3642311  39.3278193  47.3847818 105.9686375  38.4772825  47.1941710
 106.5281963  39.7139215  46.5243912  81.1849213  19.3128991  59.1953754
  81.0090542  19.9708736  59.8679638  81.7731762  18.6881566  59.6194983
  83.9566994  18.6783767  38.9048147  84.8659039  18.8101125  38.6360741
  84.0083885  18.4949028  39.8428440 122.2824001  56.0168266  83.0169964
 122.6269245  56.3089180  83.8609219 121.9624996  56.8164110  82.5991917
  67.7998066  49.4330549  13.6210847  67.2508287  49.0435028  12.9405689
  68.6932373  49.1947317  13.3736598   0.3051692  42.0162678  58.2927275
   0.0585585  42.7958632  58.7903643   1.2333422  41.8900681  58.4896994
  58.2720423  41.5618706  30.8468294  57.6236534  42.0722532  31.3319468
  58.2445383  40.6942749  31.2502575 121.5611172  18.9202166  50.4333305
 122.0057964  19.3345177  49.6938419 121.6435432  17.9812169  50.2668428
  89.7125721  24.7591257  22.5964284  89.8130798  24.2394447  23.3939624
  89.0686512  25.4289317  22.8265738  12.4715167  23.3319259  32.6950932
  12.9439192  23.4644032  31.8731928  11.6103011  23.0112338  32.4273443
  88.3835316  23.5014510  27.7042127  87.7353859  24.1710043  27.4854827
  88.0658436  23.1186771  28.5220098   3.8199168 126.3103933  45.1558256
   3.6906272 126.8797702  44.3973255   4.5609122 125.7545728  44.9145412
  77.5290775  57.0609999  61.0607290  77.8133631  56.5840292  61.8404198
  76.6071224  56.8248653  60.9583902   4.5268088  24.5481324 109.0919209
   4.7638255  23.7362337 108.6437321   3.9168578  24.2743134 109.7769165
  55.4208660  27.4476266  71.1607885  55.0997543  26.9297433  70.4226065
  55.6102085  26.8021894  71.8418121   3.6993247 136.3242740  34.6341348
   3.1325083 136.9862826  35.0299883   3.3578711 135.4912276  34.9592113
 107.4599266   1.9693826  57.9358006 108.3985233   1.9290616  57.7523756
 107.0558929   2.1296600  57.0829821 112.2104168  50.6902409  35.8987045
 112.5992966  49.8856258  36.2416339 112.3349762  50.6316471  34.9514532
 111.7564487  33.0813742  59.2724657 111.2050819  33.8021588  58.9680147
 111.5615177  32.3610020  58.6730576 106.3747406  73.1115246  69.8314238
 106.1079121  74.0276384  69.7554588 106.3167381  72.7703714  68.9389658
  87.1818829 141.5008215  51.5297699  87.3601913 140.5657537  51.6302109
  86.7375660 141.7483796  52.3406506   6.9087821 144.9619115  51.5107441
   6.1239462 144.4371227  51.6684437   6.7570906 145.7719479  51.9976330
  91.8676281  41.7034531  49.3158913  91.2390900  41.0866785  48.9407206
  91.3390923  42.4608707  49.5672846  94.4653225  34.3269539  38.6240840
  94.3041611  34.9869084  37.9497552  94.6754742  34.8328924  39.4090009
  66.9072819  39.3978405  37.5146270  66.8016577  39.3282294  36.5658212
  66.9588852  38.4911346  37.8170371  78.5615540  22.2916102 107.1461054
  79.4455242  22.6293802 107.0020866  78.2369995  22.0882082 106.2688800
 124.8378086  11.0887778  23.4575152 124.7437286  10.6927776  22.5911641
 124.5130157  10.4217279  24.0623164  98.6373138   4.6599963  46.6181898
  98.3038807   5.0434238  47.4293852  97.8799438   4.6411911  46.0331488
  96.3929176  39.9789572  30.0291610  96.4391136  39.7705245  30.9622478
  95.9113312  39.2469692  29.6437955  73.4722614  32.2790575  62.8310347
  73.0458021  32.5872421  62.0314217  74.2989016  31.9009519  62.5311470
  69.5286608  74.2539358  77.3125124  69.7113037  73.3380795  77.1025515
  70.2064896  74.4946575  77.9440403  88.6192703 144.9817982  73.8813162
  88.8751125 144.3121306  73.2470274  87.7811813 144.6756790  74.2279100
  97.5675392   3.9576957  59.0089273  96.6160202   3.8581818  59.0394640
  97.9051971   3.0703759  59.1309261   6.0875350 145.3533856  47.6493979
   5.6195765 144.7805130  47.0418882   5.4012423 145.8810246  48.0578566
  94.0325737  33.3483672  62.7394056  94.1023350  32.4001050  62.6291084
  94.5681477  33.5399890  63.5092640 114.2911148  34.7983885  71.0397291
 113.6748123  34.7686386  71.7715216 115.0406265  34.2823672  71.3366890
 122.3448181 143.5513691  91.1334705 122.7511978 143.0078612  90.4584217
 123.0758953 143.8438023  91.6777515   0.9663039  25.7969666  80.6792355
   1.8251162  25.9621239  81.0683441   0.3898268  25.6430769  81.4277172
  90.9481430  48.4850407  49.3273735  91.3664722  47.6975346  48.9794254
  91.6363811  49.1500282  49.3086576  52.5677395   6.9955510  57.2617006
  51.9152308   7.2897440  56.6261625  52.0530272   6.6681552  57.9993439
  88.6304379  42.3314142   2.2600690  88.8550854  41.8013906   3.0248165
  89.4661808  42.6935339   1.9657487  99.6082973  48.1178522  65.1861668
 100.5632973  48.0590820  65.1585531  99.3306637  47.3070002  65.6123877
 108.7463760   3.7904486  64.1490126 108.0754089   4.2424196  63.6373854
 108.2610321   3.3581460  64.8517132 115.9851646  27.8517842  52.4082565
 116.1741352  27.4212623  53.2420254 116.6467667  27.5099921  51.8068504
  85.6870747   1.3405389  40.9910822  86.2481117   0.9099811  41.6361380
  86.2832355   1.8939656  40.4865599 105.0526142  20.5046082  54.2636728
 105.7607269  19.9069750  54.0235853 104.6585751  20.1090050  55.0411463
  10.9940749  44.1868210  79.8235369  10.2591258  44.5533085  80.3152275
  11.6380816  43.9549923  80.4926777 111.5221119 139.6153761  33.3469296
 110.6600285 139.4277466  33.7181997 112.0267963 138.8160551  33.4973240
  80.3777504  20.4099298  41.3836956  80.4990005  21.3328862  41.1608124
  80.7674408  20.3203583  42.2533798  83.5503483  19.2930520  61.9840050
  83.2101440  20.1240754  61.6524982  82.8665447  18.6554193  61.7788935
 108.4139538  18.6037838  59.6531057 108.0803967  18.8219416  58.7828302
 107.6831627  18.1624615  60.0860119 109.1364002  37.6925349  79.8490572
 109.6412468  38.5027528  79.9190903 109.6508598  37.0471072  80.3338051
  95.9750557  42.7438545  45.2071095  96.3928413  42.6872635  44.3477583
  96.7028522  42.7295065  45.8286715  18.6679583  44.4718885  51.3808870
  18.1363993  44.4319057  52.1759224  19.4448310  43.9515829  51.5857744
  78.2366610  22.8582525  57.9430437  79.0439701  22.3692536  57.7837563
  78.2957649  23.1259203  58.8601542  78.9153147  19.7066426  48.2900286
  78.5262728  20.0648332  47.4921703  79.7050381  20.2298546  48.4271860
  98.4328938   9.8816478  29.4302559  97.9865837  10.7230735  29.3351984
  99.2791939  10.1020455  29.8193932  80.5745220  43.8323259  62.3554087
  81.0715389  44.6299124  62.5372505  79.6941566  44.0191650  62.6814032
  89.6532536  15.4287887  41.2261677  90.5678558  15.2500832  41.0075331
  89.5951462  16.3839006  41.2510061  79.1349792   5.1260358  49.7947311
  79.3794584   4.7928396  48.9313412  79.9027109   5.6165457  50.0883627
 105.8867264  48.2846737  22.8403044 106.5111160  48.2173252  23.5626888
 106.3311863  48.8278341  22.1894097  77.6740074   7.1462560  59.7815084
  76.8836212   7.6460212  59.5771790  77.6218176   6.3744706  59.2177248
  93.5844517  37.0673537  22.0787811  93.0758953  36.2574697  22.0375991
  94.4966698  36.7773986  22.0831227 102.5123501  23.9250350  34.4078279
 101.7412376  23.5089755  34.7932053 102.6544762  24.7068977  34.9414229
  95.0857925  15.5448854  34.4926810  95.8548737  15.9167767  34.0608978
  95.2575588  14.6035874  34.5188594  76.0271502  43.7741566  41.6482496
  76.7071247  43.3064175  42.1331072  76.4621782  44.0664387  40.8472776
 114.6783066  37.4469161   8.5331768 114.3454456  36.8273687   7.8838712
 114.7187042  38.2826018   8.0681700   0.9840613  33.3513427  62.2959232
   0.5862170  32.6722169  62.8406620   0.4316741  34.1212320  62.4314499
 101.2167931  54.5986223  27.5675154 102.0267773  54.0886164  27.5747156
 100.5612469  54.0019226  27.2063494  63.9971685   3.0112657  25.9065557
  64.5177746   3.8124251  25.8487058  63.6697388   2.8736901  25.0176835
  71.5167236   8.0768555  33.6198115  70.8079195   7.6947170  33.1023169
  71.2458849   8.9834976  33.7642980 107.7804184  61.2232065  17.6219237
 108.1923008  61.0151577  18.4605539 107.2523022  62.0012093  17.8009343
 104.0926743  40.8428764  85.5532455 103.7725258  41.1521244  84.7058392
 105.0185013  41.0857725  85.5626488  82.6298237  53.8801622  39.5329094
  82.9258728  54.1051292  40.4149389  83.3671761  53.4081984  39.1458774
  96.3689327  44.2980003  32.2203946  95.9015751  44.8681211  32.8309464
  97.1784496  44.7696066  32.0241833  96.6914177 136.9944371  25.0616336
  97.1954155 136.4934636  24.4203544  95.7910347 136.9597412  24.7386074
 112.6463509  39.1365814   3.8237906 113.2788754  39.8088765   4.0771079
 113.1260777  38.3125496   3.9078686 109.4516087  41.2736940  33.5519409
 109.9054623  40.4734850  33.8163471 109.5301628  41.2895823  32.5981021
  69.6863890  24.5497513  53.6737919  68.7608433  24.4482327  53.8958216
  70.1436615  23.9688206  54.2817831 102.2883415  46.3181734 109.7010707
 103.0077648  46.2048483 109.0799348 102.2636795  45.4965305 110.1915087
  90.6645775  41.9616127  26.2916589  90.2166653  41.1408472  26.0868263
  90.2595139  42.2586346  27.1064806 115.5100441  53.0714655  23.2329631
 115.6444645  53.9638996  22.9140234 115.7522583  53.1087732  24.1582584
 122.6545715  32.8623772  60.7235289 123.4843349  33.3176994  60.8663607
 122.2616959  33.3099127  59.9741316  94.7340775  25.5613589  23.6323738
  94.9674320  24.6394277  23.5236454  94.6231842  25.8872986  22.7392340
  96.8312836  28.4387898  38.9340591  96.7821789  28.3643389  37.9810214
  95.9570980  28.1953955  39.2386723 119.4342709  18.1591558  28.8225222
 119.2198372  18.4575975  27.9386759 120.1889610  17.5824118  28.7040663
  62.0102978  24.0424180  69.2612314  61.6747904  23.1461811  69.2405796
  62.6309729  24.0490818  69.9898958  76.6182137  32.8716946  41.6812563
  76.0166788  33.5350752  42.0193577  77.0543575  33.2976770  40.9433222
 115.7951450  43.8264751 108.5175035 116.0766983  44.4168425 109.2163790
 115.2265644  44.3630838 107.9652327  85.4015160  48.8175058  30.7717228
  86.2891674  49.1745377  30.8005476  85.0813580  49.0418959  29.8980069
  91.8216991 129.6901805  29.4827080  91.6049194 128.8010473  29.2022109
  92.3523140 130.0438614  28.7688518 109.6055222  47.4890089  59.7030497
 110.4626751  47.0638800  59.7310591 109.4540215  47.6615953  58.7738085
 101.9161320  24.6926641  31.4945650 101.9975090  24.5402145  32.4360371
 101.0144234  24.9916935  31.3774133  78.6758232 144.9372222  17.0504844
  79.3987131 144.4758826  16.6252506  78.6897659 145.8126363  16.6635895
   1.3373976  46.5727663  39.1547084   0.6255465  47.2010517  39.0332127
   1.9738417  46.7977190  38.4760547  90.5778694  55.2871037  18.0691266
  91.1816597  55.3866816  18.8051665  90.9358501  55.8553696  17.3871052
  73.0139589  20.7127643  41.2617016  72.7308893  20.6060338  40.3535652
  73.5851192  21.4807200  41.2458658  91.7506409  32.3465180  15.2593350
  92.2765350  33.1037116  15.5168688  91.1759758  32.1881342  16.0082746
  87.8575039  19.1846752  26.0141063  87.0597744  19.1657865  25.4854155
  88.5214901  18.7736726  25.4605508  87.7066135  17.8148115  12.4241078
  88.3668041  17.2115791  12.7654278  87.6776886  18.5255933  13.0645645
  68.6302185  38.4755874 108.9391698  68.3233261  37.9727864 108.1846901
  68.6976194  39.3743086 108.6166929  66.4691210  41.7510653  23.1952214
  66.6170216  42.4822426  22.5954461  67.1937752  41.1498070  23.0231786
  95.9955883   5.9463125  12.7227747  96.6355896   5.7626569  12.0350933
  96.3987255   6.6387844  13.2464087  86.6964531   4.2693397  96.0126718
  86.3063526   3.3981463  95.9413978  87.3340702   4.3053252  95.2996620
  94.8393059  16.9176662  11.8034315  94.4742203  16.8282938  12.6837492
  94.2909908  17.5800049  11.3828504 109.9973202  20.2936864  34.9530005
 110.6562901  20.4849219  34.2856073 110.3047657  19.4884896  35.3693676
  71.7630291  30.4927111  26.3250828  71.3126087  31.0774231  25.7156062
  72.3136950  31.0728550  26.8508554  75.9668159  49.3545723  37.4660444
  76.0608053  48.6435318  38.0999374  76.5685606  50.0318813  37.7748919
  87.8098488  13.6603570  54.1296816  86.9515610  13.9394903  54.4485283
  87.8383255  12.7207088  54.3099117  92.3678493  64.8763418  53.2351351
  92.8238964  65.6259918  52.8526831  92.4013329  64.2033195  52.5553179
  90.2701855  14.0799403  34.5399070  89.5505714  14.0679002  35.1709676
  90.8411503  14.7866750  34.8411775  68.4676504  43.6288309  35.5551529
  68.7024641  43.0318117  36.2655520  69.2718077  43.7211657  35.0442290
 109.3709755  46.2104225  49.0703821 109.3560505  47.1578598  48.9348507
 110.2724552  46.0197306  49.3296099 121.1940861  34.0596128  21.3502884
 122.1064472  34.2589808  21.1403394 121.0369587  33.2052851  20.9482050
 114.7236252  26.8665886  39.5369148 114.7763348  25.9786463  39.1833425
 114.4220448  27.3997617  38.8013816  79.6656418  31.6185117   3.7178403
  79.5832920  32.5620508   3.5793349  80.5528259  31.4100003   3.4251675
  79.8737288  68.1599522  27.7450728  79.4340277  67.7830172  28.5071850
  80.6968880  68.5056973  28.0901766 116.5966129  24.1194820  72.7352333
 116.8330002  23.2135320  72.5362110 116.1865425  24.4418621  71.9326448
 108.3093166 141.1355389  32.7211237 107.8135586 140.4434700  32.2835183
 109.0117455 140.6740011  33.1791639  57.4495745 130.7133491  60.6116772
  58.0559111 130.4230733  61.2930965  57.5977373 131.6566760  60.5452394
  82.4949074  58.1480455  33.9735603  83.4299850  58.0106544  33.8219786
  82.1118450  57.2726965  33.9164066 102.3409653  35.7324767  50.9339333
 101.8542862  34.9154973  50.8247614 101.6869164  36.4197087  50.8067799
  73.8684225  17.2123051  15.7207179  73.3765125  17.9776073  15.4231107
  74.0065527  16.6933835  14.9283338  90.5485344  36.8952370   4.5349947
  90.6644058  36.0042500   4.8650670  91.4344311  37.2564554   4.5044795
 105.8248138   8.4672803  29.5546746 106.0379982   8.9095616  30.3763628
 106.2937069   8.9659715  28.8855839 113.0448246  15.2719665  87.4171194
 113.3612061  15.5171216  86.5476164 112.1115875  15.0993550  87.2925528
 114.1329002  20.9229136  30.4796672 114.7758770  20.2632523  30.7397771
 114.5070457  21.7523265  30.7768631  98.6983681  28.3853936  24.2024994
  99.3780708  28.7415504  24.7746778  98.0496216  29.0860963  24.1363168
  96.0199833  17.0126796  28.7925148  96.6401386  16.5144408  28.2601619
  95.3775215  17.3437285  28.1649137  87.8137398  18.1508648   1.2504829
  88.2380009  17.8598297   2.0576608  88.5158920  18.5605276   0.7451116
 100.8091927  44.0046930  31.2521911 101.6781902  44.0092421  31.6534996
 100.7096863  43.1176853  30.9064364  26.6092425  50.4711103  38.0079198
  26.5442210  49.5630217  37.7123213  27.4029761  50.4927397  38.5424781
  96.6208649  28.5171580  15.3705549  97.5768185  28.4859467  15.4082692
  96.4084625  28.2696080  14.4706464  92.3953438  12.9688728  55.6422758
  92.2794914  13.5345674  54.8788643  93.2005501  13.2833016  56.0533810
  90.7183456  16.3563049 106.6681542  90.9184647  17.1980667 107.0775741
  90.7305241  15.7293165 107.3913198 120.7255459  47.9499435   6.2282467
 121.6318703  47.9367208   5.9206128 120.6610870  47.1971607   6.8159491
 105.8320713 136.7135996  26.3374805 105.9512711 135.7817681  26.5210938
 105.0385761 136.7529256  25.8035707  50.8339834  31.2226367   7.9566908
  50.8872843  30.8411980   8.8329870  51.6648960  31.6846776   7.8456450
  81.0781574 129.0295036  33.2819843  80.5961323 128.4486992  32.6932955
  81.9500637 129.0953619  32.8925276  75.9823418  49.1731977  44.3730831
  76.1954927  48.2703638  44.1370964  76.8178082  49.5534563  44.6444321
  78.8070011   8.2441753  40.3621054  78.5249376   7.7236784  39.6099401
  79.5114231   8.7954146  40.0212908 115.5060291  10.1335907 109.4030576
 114.8876476   9.5561504 109.8507172 115.5807209  10.8957863 109.9772628
  88.9342976  56.6474819  36.8273020  89.3006134  56.4938354  35.9564161
  88.0162525  56.3877201  36.7502356   7.3863345  13.8613880   3.7385622
   7.0630580  14.4056785   4.4565254   7.1432715  12.9692733   3.9861110
 113.1944561  41.3120556  58.6315823 113.0769539  40.7314873  59.3834925
 114.0649891  41.0970116  58.2966805 112.7806473  17.6772034  11.6549897
 112.8804016  17.5733304  12.6012933 111.9560432  17.2359204  11.4512038
 123.8720894  45.4063797  23.0530071 123.9346313  45.6630611  23.9730263
 123.2704544  46.0430384  22.6670837   1.3503390  43.3143806 109.7619843
   1.8296652  42.6427794 110.2471922   1.9593173  43.5976553 109.0799775
  90.4345322  36.9346690  55.0868082  90.9233284  37.5607300  54.5526266
  89.7167206  36.6473937  54.5224810  84.1050053  29.5403337  56.6198397
  83.4086990  28.9962101  56.9877005  84.9130058  29.0773559  56.8412304
  59.2562866  21.4258623  36.3846684  59.2000771  22.1621966  36.9936752
  60.0346184  20.9434128  36.6633773  77.1624517  60.3535700   1.4566441
  77.3977804  59.4311953   1.3562499  77.9919720  60.7935190   1.6425882
 100.0604439  23.1485963  49.5422316 100.5666256  23.1694412  48.7300873
 100.1998138  22.2672796  49.8887634 113.0005264  74.6671295  13.0749655
 113.0550385  74.2649984  13.9418864 113.0631065  73.9317274  12.4654543
  76.8689013  12.6199591  19.1227937  77.1439123  13.3759582  19.6415079
  76.9569159  12.9080725  18.2142377 111.0446167  58.2866001  20.9296918
 111.0654926  57.4451017  21.3854098 110.5583954  58.1107426  20.1241541
 115.3876591   7.9036850 107.5030189 114.6778488   7.3585302 107.1635925
 114.9487972   8.5547733 108.0504833 114.7583294  42.4711990  37.5123811
 115.1438999  43.3122969  37.2671771 114.9956608  42.3581505  38.4327745
   2.8784876  33.1508684  49.6607637   2.3724776  32.6375508  50.2905941
   3.7910300  33.0012393  49.9079657  97.2536469   1.6452605  45.4149055
  97.2916412   2.5961816  45.3122520  96.5421581   1.4999090  46.0385132
 108.8625050 142.8016315  72.6683140 108.3998013 143.4802804  73.1598139
 108.7104416 143.0251510  71.7500830  85.5844212  33.2050729  89.6765169
  85.7754326  33.2992053  90.6097313  85.2490044  34.0619969  89.4130644
  99.9696827  53.3096075  54.0735674  99.2833328  53.8493681  53.6813784
 100.7040977  53.3752537  53.4631968  71.3487768  42.5042677  -0.2028704
  71.0262537  43.3923626  -0.0495758  71.7240238  42.2375345   0.6363416
 106.2450504  35.2097034  32.3478508 107.0426655  34.6921730  32.4582767
 106.5550518  36.0703325  32.0659900  19.2289858  32.6447558  62.1457100
  18.2736331  32.6777172  62.1951771  19.4153910  32.4789453  61.2215900
 115.7342720  28.6988711  16.4284194 115.9331989  28.7854457  15.4961300
 114.8506355  28.3316231  16.4516759  76.0205460  43.8223219  38.2765079
  75.6351662  42.9508734  38.3675861  75.3951120  44.4067621  38.7048697
 112.8723621  30.7783031  82.3536142 112.6574516  29.8457122  82.3357972
 112.0606613  31.2160850  82.0972499 104.7349739  23.4949040   9.1800117
 104.4667053  23.3809638   8.2682663 105.5509853  23.9926624   9.1291547
  96.3663864   9.8916972  23.0135989  95.4552364   9.6391451  23.1627584
  96.3787460  10.2249849  22.1163821   9.9613123  25.5901313  17.8330314
  10.6611662  24.9390030  17.8827846  10.2999526  26.3432074  18.3172107
 112.4631023   9.3873221  30.2472162 111.9203949   8.6022830  30.3208160
 112.5586033   9.5249814  29.3047929 103.4386539  15.1666617  22.8171682
 103.9806843  14.4050956  22.6111364 104.0171528  15.9167159  22.6793766
  88.5037136  30.6171250  26.7618418  88.8134384  31.2434888  26.1076522
  89.2996979  30.3126955  27.1976805   5.3956442   9.3649906   5.4959935
   5.3051215   9.0048808   4.6137479   5.2371626  10.3029275   5.3892744
  79.3881369  45.8144999  36.3278413  78.6635971  45.8167791  35.7023263
  80.1613808  45.6206465  35.7979894  84.1180038  41.0161543  22.7047920
  84.3288040  41.0643053  21.7723346  83.9688873  41.9254732  22.9639053
  78.0087185  31.9774961  43.8121986  77.4966526  32.1122622  44.6096039
  77.4104118  32.2080827  43.1015062 100.6027794  39.7121000  28.2029319
 101.1737347  39.0381694  28.5717845 100.6157398  40.4173899  28.8499498
 105.2369690  11.4480591  13.2964933 105.6536674  12.2820520  13.5134089
 105.0623798  11.5047371  12.3570585  82.8125572 134.3014819  99.7844537
  82.7471924 133.5896928 100.4210981  83.4837437 134.0100093  99.1673788
 117.9179859  47.2638941  65.8752346 117.3790836  47.0097780  66.6243982
 118.7401676  46.7898464  65.9998417  95.8482361  50.2422333  72.1472692
  95.5861568  49.8274803  72.9691696  96.5782452  49.7092867  71.8321705
  82.0419884  21.9142771  26.9587469  81.9373131  20.9681582  26.8580842
  82.9497623  22.0261312  27.2409964  78.1664515  67.8871441  35.5743313
  78.7824345  67.6966095  36.2817860  77.3040915  67.7294922  35.9586668
  93.6467361 141.1744798  18.7307787  93.5212421 142.0530794  19.0893137
  93.3004570 141.2275929  17.8399897  93.8384914  22.0899320  59.7701883
  93.7882805  21.3051939  60.3159857  94.5322514  21.8987083  59.1390228
 117.1315098   9.9943322   2.4538629 116.2415600   9.9013382   2.7938229
 117.1699238  10.8927405   2.1258102 107.2813225  43.3054686  34.1368079
 107.7829361  44.1201448  34.1669369 107.9397488  42.6235628  34.0037489
  82.9020405 133.6195953  38.6835051  82.1138000 134.1625268  38.6950397
  83.3458710 133.8242120  39.5065331  94.6263695  26.4290285  36.0980606
  94.8942280  26.0066628  35.2819157  94.6899319  25.7380557  36.7574143
  76.7978477  45.4346848  25.8987355  77.7252388  45.2891588  26.0858154
  76.7804193  45.7278442  24.9877000 109.5601940   3.2581508  20.4874492
 110.2864170   3.2438070  21.1108518 108.9508057   2.5963363  20.8143640
  73.8985300  31.2514377  15.5033910  73.0179071  30.9660816  15.2598631
  74.4066429  30.4419398  15.5559433  89.0608406  24.9358630   5.3567570
  88.3752537  25.3142047   4.8062506  89.6996498  24.5847726   4.7363612
  97.6851940  33.5358787  31.2052369  98.1965446  33.0515265  31.8534303
  98.3122158  34.1409183  30.8089995  89.0828323  19.1330791  61.3154030
  89.1422176  18.6189139  62.1205997  89.3858910  18.5388732  60.6288862
  92.9275799  63.1269407 108.5240037  92.7452850  62.4283648 107.8955218
  92.0686626  63.3656597 108.8725794 101.6428089  54.7373676  16.0585034
 101.2798882  54.2127275  16.7721379 102.3272800  55.2633953  16.4720511
 106.7110825  22.9355025  23.4848261 107.2136784  23.2026839  24.2543936
 106.3565826  23.7527943  23.1346893 102.3420429  39.5789766  18.2216704
 102.3167706  39.0869474  17.4009991 101.4304733  39.6068788  18.5123634
  90.9662819  13.9375412  31.9590998  90.1042271  14.2088699  31.6437078
  90.8282089  13.7274957  32.8827071 119.0916061  30.1770258  22.2825813
 118.3144379  29.6602201  22.0700717 118.7606239  30.8982515  22.8178549
 103.9298439  34.9041629  80.2250767 103.5898209  35.5237556  79.5795345
 104.3407345  35.4543829  80.8918953  58.5013771  44.2414427  49.1745329
  58.5418558  43.3055830  49.3714142  59.2516088  44.3982363  48.6011219
  94.3693924   2.3529203  43.8600016  94.3890572   2.8637445  44.6692610
  93.5765266   1.8214193  43.9314651  97.2027397  22.3009825  20.7094765
  97.9908371  22.0299053  20.2386737  96.9986153  23.1668639  20.3561878
  75.4831886  23.0643010  44.4132948  76.3037062  22.5713944  44.4184446
  74.8270941  22.4405003  44.7241640  82.3914337  31.3533878 107.6985245
  82.2327995  32.0468664 108.3389563  81.7087460  30.7055163 107.8729849
 114.5666409  64.2981768  15.1385784 114.7925091  63.5439873  14.5941424
 114.0626907  63.9280415  15.8633363 121.3363361 141.0893364  30.3865504
 121.9831181 140.4147751  30.1794934 121.6106796 141.8496365  29.8738027
  54.4281054  47.7039957  35.9403467  55.2961111  47.7851629  36.3355803
  54.5963955  47.3697901  35.0593162  92.6012230  48.4495115   2.1821629
  92.0625782  49.0960884   2.6382625  92.7818775  47.7799988   2.8419739
 118.2891273 135.6891269   7.6905161 118.9017010 134.9604089   7.7903003
 118.0105591 135.8918483   8.5835630 118.9390755  41.7580318   3.7459886
 119.8958969  41.7324924   3.7373614 118.6736012  40.9055901   3.4008750
  80.9688854 126.5926296  45.4428625  80.8007431 127.3624999  45.9862375
  80.3423691 125.9389085  45.7532740  98.6177731  30.0059319   3.4815890
  98.8768005  30.2580953   4.3679002  98.8558578  29.0811062   3.4164575
  75.6446791  17.8248358  68.2839108  76.1655807  17.2291315  68.8224506
  75.9276485  17.6463628  67.3870754  88.2477760  25.0308967  53.8881207
  87.7024937  25.7976007  54.0643549  88.4517097  25.0914335  52.9548597
 110.5207920  58.7000084  55.7469702 110.8988953  58.0198717  55.1895809
 110.4982281  59.4794750  55.1918507  94.4846916  22.8440499  27.5005937
  93.8037586  23.2090878  26.9355154  94.0636444  22.1017814  27.9341745
 107.6582050  26.1599183  11.4646423 107.6360416  27.0643187  11.1519086
 108.3114052  26.1643720  12.1643150  22.6377421   8.1107479  24.6806502
  21.9062548   8.3069342  24.0952682  22.6582270   8.8460612  25.2931261
  96.2440109  22.2072935  32.0894599  97.0685291  22.1011949  31.6149569
  95.9239483  23.0693674  31.8237090 123.6788654  35.7057071  16.3233805
 122.8207970  35.5619645  15.9242547 123.7570667  36.6575933  16.3868546
 111.3508797  16.9772708   8.0955487 111.5675068  17.6669586   7.4681455
 110.6435394  16.4864683   7.6772040 109.2556572 133.5331781  84.3941649
 109.7895813 133.1461019  85.0879439 108.4075356 133.6956973  84.8070916
  77.3484516  43.2247162  46.7561531  76.4530373  42.9120302  46.8853235
  77.8803015  42.4289989  46.7418718  24.3003207  40.0417948  29.0185165
  23.3537798  39.9004602  29.0006542  24.3999034  40.9933758  29.0468264
  70.0439596  53.1654406  71.4698124  70.2544928  53.2638311  72.3983717
  70.8928823  53.1871605  71.0281324  74.8722601  30.0564575  42.8357172
  74.0658331  29.5462537  42.7608967  74.9450874  30.2537560  43.7695265
  77.1347809   2.8567967  36.4371061  76.2433720   3.0583853  36.7216849
  77.4395561   3.6608538  36.0165858  22.7793818  16.4525580  19.2420042
  22.6865511  16.0612297  20.1106095  21.8821269  16.5330863  18.9184535
  16.7025881  49.8678207 102.1398153  15.8223181  50.1632261 101.9072231
  17.0825415  50.6028461 102.6210656 112.0850563  27.8208375  56.7103481
 112.4825287  28.2856464  55.9740067 112.6133156  28.0747390  57.4671268
 104.2194653  18.0370855  10.5966103 104.9924183  18.0691898  10.0329304
 104.4951248  18.4676003  11.4058673  68.2042980  24.0489435 108.9849417
  67.5118256  24.1737318 108.3359880  68.4517241  24.9363351 109.2448426
  86.0548687  25.1474190  87.1951231  86.2587357  25.6425500  87.9885420
  86.7929363  25.3180909  86.6100105 101.2011051  37.6021886  32.5912142
 100.8676147  38.4985924  32.6295900 101.7531490  37.5852823  31.8094206
 117.1032429  14.5275438  38.2969809 116.9927883  15.0903130  37.5306106
 116.8082809  13.6649346  38.0052042  85.1908016  27.2447085  16.6048920
  85.4556274  26.9810700  15.7236457  85.6144619  26.6096544  17.1823466
 110.0581551  46.6321516   2.2261725 110.4932404  46.7406464   3.0718446
 109.6201324  45.7833958   2.2893193  88.0092812  37.5629926  19.1094828
  88.2730770  38.4361553  19.3997180  87.1329021  37.4435472  19.4754386
  99.6790886  57.7024984  16.8799281 100.4337120  57.3588610  16.4017117
  99.6262550  58.6210489  16.6159093   2.6895075  51.6291523  55.5987120
   3.3127719  52.0249319  54.9895096   3.0687266  50.7756948  55.8085537
 120.7476330  46.3956404  58.2497835 120.7506466  46.6274977  59.1784716
 121.1680698  45.5363750  58.2160807  86.9894791  43.6026287  93.9083382
  86.8838310  42.7013111  94.2127951  86.6826153  44.1397095  94.6388289
  81.0671711  21.0398364  13.2423902  80.4919338  21.7295003  13.5735822
  81.5286636  21.4449477  12.5081301  85.4594421  64.7874641 105.5955615
  86.3784313  64.9388981 105.8163449  85.4646873  63.9716816 105.0948592
  66.8060493  20.3977942  23.7910652  66.9805861  19.6611726  23.2052684
  66.5787220  21.1204505  23.2059813  86.5806484  17.2025537  31.1371469
  86.3195229  17.2048509  30.2162552  86.2703133  18.0421782  31.4761949
  67.7272892  33.9355874  45.4039097  66.9916439  33.4697938  45.0062943
  68.4510946  33.8081551  44.7906446 116.0098171  30.2523470  29.1521478
 116.2777805  29.6474791  28.4603643 116.0754395  29.7392941  29.9575663
 117.2225285  30.7938766  65.5676794 117.1416950  30.1121521  66.2347269
 117.4276161  30.3182387  64.7627306 103.6942673  29.3231392   8.6011142
 104.2947483  29.7021508   7.9592323 102.8582668  29.7579479   8.4329534
 104.4960117  27.0627904  20.4210687 104.0473557  27.8059697  20.8243346
 105.1958084  27.4586320  19.9016249  88.9491463  23.7250972  44.1780186
  88.0646420  24.0757561  44.2825222  89.4505310  24.4482398  43.8012981
  76.1473989  15.4679513  29.2825508  75.4724264  16.1429346  29.3535423
  76.4172840  15.4947233  28.3645773 100.8865929   3.1111106 101.7266109
 100.0212574   2.7045509 101.6803702 101.3173389   2.6746053 102.4615606
 104.3516636  40.6855869  30.6798315 104.7364044  41.1331558  31.4334154
 104.9887943  40.0083685  30.4525304  93.5023880  56.5239620  24.4804096
  92.6839066  56.9333172  24.7610354  93.2873249  55.5955839  24.3904495
 108.4515762  10.2208412 104.1546127 108.1978130   9.5964026 103.4749695
 107.7198696  10.2136993 104.7716960  86.5946102  42.4065876  34.3947291
  86.0026646  43.1561565  34.4578171  86.0380268  41.6860533  34.0993071
 108.9426804  13.9554787  12.5857043 109.5760918  14.2921138  13.2195032
 108.4337330  14.7230673  12.3249245 116.7629337  21.6821218  21.4718294
 115.9586525  21.6470671  20.9540033 117.3779964  21.1230493  20.9971046
 101.6585159  26.0047531   5.6143224 102.2339535  26.2504554   6.3387024
 101.2830353  25.1655531   5.8807606  64.4464493  29.7450829  22.3419237
  64.3571186  30.6904316  22.4626040  63.7283278  29.3696642  22.8514266
  84.4550800  22.0355511  28.1968284  85.2012157  22.0914483  28.7938142
  84.8434544  21.8287516  27.3467541  93.6260033  34.9225831  56.0686684
  94.3956566  34.8293257  56.6300678  92.9216099  34.4938898  56.5547609
  13.1962710  43.4129429  41.8773270  13.4528189  43.0838728  41.0158587
  12.3748808  43.8788605  41.7208719  54.3356371  26.8521118  28.2659340
  54.2613363  26.2817907  29.0310788  54.5606756  27.7094722  28.6272120
 104.6977901  31.5332818  12.9296184 104.9986172  31.2174559  12.0775676
 105.4980087  31.6271806  13.4464061  92.7920437  11.3870823  17.8741920
  92.9086685  10.4388428  17.8152692  92.6706314  11.5558660  18.8085389
  87.0218277  13.8014543  19.4407952  86.0848236  13.6814344  19.5952618
  87.2599125  13.0891395  18.8473713 120.7402611  59.5181227  36.5417337
 121.2819099  60.1334095  37.0359707 121.0184097  59.6307707  35.6327939
  86.6917610  22.2513986  12.4899471  87.5407124  22.6568151  12.3134518
  86.1010742  22.9890680  12.6421428  73.0703449  32.3769116 106.2862950
  73.4926224  32.9585195 105.6541201  73.5845566  32.4797750 107.0870673
 121.0319233  53.9386892  30.3666449 121.5581131  53.9202261  31.1660290
 121.3600922  53.2049417  29.8468876   2.2715884  29.9540424  18.6092579
   1.3945704  29.6301174  18.8145745   2.6094657  29.3361187  17.9610026
  72.4614668  27.9680228 104.2756011  72.1257210  28.8531542 104.4171961
  72.6452208  27.9288554 103.3370217  99.7331429   1.4456144  11.9840837
 100.5515862   0.9826834  12.1631765  99.0477848   0.8203186  12.2197104
  75.2302837 141.1773361  73.3245739  76.0759401 141.2774623  72.8874525
  75.3646278 140.4607595  73.9448174  86.0694790  68.0722857  33.7530899
  85.4569530  68.2094288  33.0304313  86.4253998  68.9422941  33.9337683
  64.2575979  19.8772252   5.0872594  63.6378717  19.4270837   4.5131975
  64.5237398  19.2114282   5.7213837 117.1946621  25.8569431  19.0179157
 116.4163876  25.9513211  19.5671165 117.8398323  26.4426231  19.4140971
 103.0367088   4.2882583  20.9689689 102.7569675   3.4232426  21.2685108
 102.2703266   4.6458834  20.5206347 111.2669373  39.6249175 108.2549147
 112.1138096  39.1947317 108.1366859 111.2401104  39.8494124 109.1850294
  27.8787451  52.8286076  42.0329380  28.5549479  52.1575356  42.1258640
  27.7798110  53.1923914  42.9127741  94.2580700  27.7833080  29.1775465
  93.5542107  27.1619248  29.3638349  95.0290775  27.2351599  29.0315890
  86.9614697  36.1191607  96.9435617  87.8968525  35.9423780  97.0437595
  86.5367985  35.5131555  97.5507232  85.2882004  30.6138468  31.1914682
  85.9416199  31.0166693  31.7633057  85.4652023  30.9847713  30.3269935
  89.5728683 134.4294316  21.6177988  88.8973236 134.1516049  20.9991860
  89.2652225 134.1121418  22.4668646 109.4627190  26.6163588  18.8968110
 108.8016510  26.8908834  19.5323038 110.2821350  26.9814348  19.2307436
  69.4755602   8.0563176 108.0978861  68.5931063   8.4239560 108.0494713
  69.9715233   8.5358018 107.4342983 119.3410873  21.7606926  28.8972902
 120.0115395  22.3923135  29.1576314 119.8126411  20.9319997  28.8127971
 102.3401451  67.0660782   9.0355170 101.8784523  66.7460299   9.8105276
 102.3620510  66.3149691   8.4425735  99.2923450  18.0064201  29.2433262
  99.3614960  18.2471967  30.1671648  99.5775604  17.0932448  29.2118120
 112.6673603  36.9279361  23.8412309 112.8993130  37.5273490  24.5505548
 111.8273544  36.5546250  24.1081667 119.6502304  23.5410500  20.2987313
 119.2078876  22.7489257  19.9935973 119.7477818  24.0787315  19.5128477
  98.4500694  36.4736605  32.0746326  98.8739109  36.1802578  31.2680936
  99.1213417  36.9860983  32.5252271  66.7994118   9.9879926  93.8392922
  66.1744213  10.6749105  94.0711626  67.6189661  10.2606463  94.2518660
  73.0610371  10.9413218  17.7061760  73.8442802  10.7911098  18.2355130
  73.1061745  11.8676066  17.4691296 110.4895115   6.8247896  26.8892002
 111.4372540   6.7695493  26.7668700 110.2462578   7.6645565  26.4995193
  98.6816978  29.9698591  87.6392540  98.6125374  30.7407737  87.0760997
  97.8322315  29.5363688  87.5572618  17.2874671  14.7808838   8.9327717
  17.6738196  15.3830755   8.2968980  16.4398127  14.5455980   8.5554749
  63.0086946  32.6153255   6.4169085  62.3580742  32.9814196   7.0159894
  63.0098200  33.2136893   5.6697857  84.1562843  54.1345119  42.1345425
  84.0554142  54.4113207  43.0452776  85.0240326  54.4505739  41.8828583
 119.0377522  38.1655860   9.4983917 118.6233902  37.4479079   9.9774241
 118.3519840  38.8287854   9.4201970  88.8854599  37.0081663   2.6428804
  89.5755482  36.7697573   3.2618922  89.0266800  36.4306951   1.8926698
  75.1627731  25.0128412  14.3784404  75.0946951  25.1463175  13.4330404
  74.3401051  24.5873523  14.6201110 116.2684822 144.5363555   6.6141504
 115.8901310 143.6674941   6.7489004 115.9895802 144.7849993   5.7328898
  93.7731934  15.9423470 107.8578555  94.0047359  15.3697586 108.5891311
  93.5468102  15.3429675 107.1467110  90.5978775   8.2740897  34.1697383
  89.7613049   8.7218654  34.0437484  90.3714657   7.3442298  34.1879725
 112.0401287   8.9798552  37.4158430 112.1523380   8.1967050  37.9546547
 111.9822884   8.6479044  36.5199113  96.0602379  46.2712717  14.3830335
  96.7739391  45.6863880  14.1285408  95.9669971  46.1389780  15.3264511
  80.3207016  31.5554523  26.8486977  80.0189114  32.1473837  27.5377345
  79.9796724  30.6980348  27.1031833  56.8209505 139.1104502  33.9676785
  57.6838541 139.0496761  33.5578799  56.5810680 138.2032479  34.1565466
   2.1368533  34.3821836  87.4876722   2.0327597  34.0752459  86.5870150
   1.6543131  35.2083540  87.5164422  93.9147854  19.0948856  16.0264981
  93.2909775  19.6270299  15.5326271  93.8647079  19.4345868  16.9199896
 105.7099724  18.6710191   1.2393755 105.3073120  17.9172647   0.8081584
 105.0301647  19.3447912   1.2280951  74.8965693  12.8530645  10.5100632
  74.6410608  13.7754917  10.5014944  74.0676165  12.3751414  10.5356705
 109.1197872  54.8477364  26.8824434 108.3121490  54.3664980  26.7025733
 109.0054989  55.1836777  27.7714396  92.9658985  14.6481514  22.8089857
  92.6661015  14.5799077  23.7154603  93.6898232  15.2734840  22.8425694
  60.7956696  54.1146803  21.2936282  61.0135651  53.1924200  21.4285040
  60.9505606  54.5243359  22.1447563 108.1887436  21.9337058  35.9474802
 107.5648022  21.8408012  35.2275491 108.9770126  21.4857554  35.6405640
  69.5366812  38.0597377  24.2417812  70.0904846  37.2793722  24.2655659
  68.7064219  37.7759767  24.6243787 108.4864044  37.5862336   5.2452892
 108.5556889  37.9526854   6.1268473 108.2952499  36.6588879   5.3857332
  80.9453011  12.8966713  58.6077213  81.2030029  12.7857959  59.5228910
  80.7491970  12.0100260  58.3050108 101.9092655  30.9320831  12.0690620
 101.7210293  30.0344276  12.3429441 102.8602314  30.9555769  11.9625890
  99.2971706  25.2746677  35.0703049  98.4469128  25.6651926  34.8683429
  99.0882397  24.3944955  35.3831506   3.7238150  25.9482908  81.9186290
   3.6808997  25.8595300  82.8707370   4.0220671  25.0921798  81.6114672
  10.5950003 133.6330528   8.4848773  10.2607565 134.0840072   9.2602175
  11.5420371 133.5960502   8.6189729 106.5514469  11.0755122  40.6345510
 106.4760494  10.9747779  39.6856570 106.9241428  11.9490731  40.7538080
  12.2668391  20.6437492  28.7891483  13.0379229  20.0779939  28.7495470
  11.6419154  20.2393818  28.1873202 115.2075672  46.5798998  86.7064913
 115.0725365  45.6785870  86.4138611 116.1508465  46.7198610  86.6235765
  78.9043236  18.0289769   4.5804027  79.2711258  17.9947531   3.6969322
  78.0087805  17.7060688   4.4806004  96.3804531  40.2019405   8.2705885
  96.9668102  39.7012973   8.8378400  96.9604969  40.6129932   7.6296341
  14.5730525  31.1532903  32.2678304  14.6983367  30.9280086  31.3459921
  14.4297247  32.0996976  32.2657633  83.6638165  50.8654213  23.5497260
  84.2259502  50.4038000  22.9275227  82.9058266  50.2912569  23.6593628
 106.5723705  26.0480881   3.3469617 106.4335918  26.9497395   3.6367846
 106.1897087  26.0167623   2.4701414  95.9707355  45.9875011 105.1636066
  96.8982029  46.1145306 104.9638649  95.9676838  45.5035686 105.9894609
  79.7881508  60.1692963  18.8602781  79.5848894  59.2449284  19.0033269
  79.3972683  60.6191826  19.6093094 110.6245232  42.1186733  90.2461013
 110.6726742  41.1673355  90.1519056 111.4438725  42.3582554  90.6791207
   6.6788703  17.0148635 101.1951491   6.7524748  16.0604978 101.1950453
   7.4475890  17.3144221 100.7097849 116.3001060  41.4154387 105.5473559
 116.9496346  40.8478308 105.1324266 115.6666374  40.8113289 105.9346639
 113.8841724  23.3063674 101.1116984 113.2712078  23.8610005 101.5942904
 113.3655357  22.5443506 100.8536669  73.6728096  16.4036763   5.7963377
  73.2396126  15.6786287   6.2467551  73.8542318  17.0407403   6.4873272
  88.3740616  12.3054516  27.3437166  88.3569908  12.6368141  28.2415700
  88.5951614  11.3785863  27.4346471  90.3569889  50.8559322  64.9348124
  90.9337044  50.5096769  65.6157931  89.9321556  50.0822115  64.5645245
 103.5571194  47.9398823  32.2194672 103.1295013  47.1944904  31.7978525
 103.0140972  48.1256723  32.9855251  35.8189559  15.9511602  14.1943049
  36.1591268  16.8378067  14.0744150  35.1926422  15.8362448  13.4796309
  81.2185478  14.7165978  12.2974718  81.5396500  14.1349828  12.9865623
  81.9662762  15.2766955  12.0890820  95.4644012  38.4205365  42.2983027
  95.1810551  38.8808775  43.0882597  96.4195347  38.4054875  42.3594379
  97.1560097  17.2544897 104.0577581  97.8158474  16.6793227 103.6704185
  96.3387489  17.0066428 103.6254593  97.7825928  11.4519298  17.6759195
  98.4761333  11.2596333  18.3069944  97.9709911  12.3414004  17.3766220
 102.9092312   4.9921682  96.9408318 102.5136662   4.2128187  97.3311897
 103.6603260   5.1860118  97.5016400 123.0663586  31.3859987  87.1460565
 123.7131119  31.2568021  87.8397831 123.1476593  32.3105717  86.9119843
  89.7201633  31.8537211  47.8464890  89.7184658  32.3311329  47.0168495
  89.3349171  32.4643111  48.4749794  83.2974243  49.5084620   3.1280887
  83.6095524  48.8603401   3.7595478  84.0768433  50.0149441   2.8995952
  97.5708103  60.8281231  33.0211544  97.6315117  60.1518536  32.3464608
  96.9569778  61.4693499  32.6630092  12.7947836  60.6087065 101.0890051
  12.4735575  60.4095316 101.9684246  12.3231154  60.0017834 100.5185654
 112.2629261  41.5324354 100.1016685 111.9129944  40.9071827 100.7363691
 112.3099995  42.3595238 100.5811884   8.5491019   7.2599560  21.4580488
   9.3602877   7.2698659  21.9660902   8.5867053   6.4417559  20.9627056
   2.9144793  63.5488844  43.5967159   2.7518397  63.9146423  44.4661999
   3.1851130  64.2994642  43.0679274  71.3597059  23.2856584 105.8895385
  71.0506153  22.5320554 106.3923099  70.5701351  23.6421013 105.4824057
 109.9029160  37.2973824  54.1989183 109.2955589  36.9819403  53.5297060
 109.3455982  37.5076556  54.9481964  11.2780028  37.1707273 108.0808125
  11.2820368  36.2138128 108.1037710  11.6373473  37.3912048 107.2214537
 115.4612160  38.2470918   0.8098321 116.0089493  37.4641681   0.8669315
 114.7535229  38.0013609   0.2140047  16.4476710  67.6836443  89.3041285
  15.5399066  67.8293419  89.0377387  16.9429999  68.3649445  88.8494762
  90.3494263 140.2864135 105.2816283  90.7907200 140.2010168 104.4365224
  90.5867767 141.1615015 105.5884173  65.6397057   7.9683816   7.0003539
  64.9532509   7.3570722   6.7333138  66.4033604   7.4147296   7.1632403
  92.7341938  60.2412176  10.5798030  92.2469807  60.4029560  11.3877010
  92.6522923  61.0556507  10.0835943 111.4739990   6.9130546  29.6407437
 110.7550144   6.8219650  29.0154433 112.0602608   6.1836398  29.4395471
  73.1053305  40.9020090   5.0387853  73.6804438  41.3540506   5.6561464
  72.5320244  40.3702545   5.5908626  84.8314762 145.0395086  34.8937559
  84.4616604 144.2565637  34.4857574  85.7621861 145.0081099  34.6723175
  63.6894655  33.5459805  11.1116910  62.8899145  33.1155252  11.4144421
  63.3981562  34.4053411  10.8069479  74.1095448   2.1233796  33.9135456
  73.8921070   1.9899906  34.8361301  75.0478315   2.3127228  33.9135623
 109.5440578  47.5241327  97.4146219 110.2554703  47.6259232  96.7823478
 108.7527180  47.7411604  96.9217690 102.7972698  35.2396941 102.8575983
 102.4740410  34.6683550 102.1609434 103.0367184  36.0512280 102.4100377
 118.4916496   7.2926193  23.7329912 119.1803360   6.9799000  24.3196368
 117.7493095   7.4729019  24.3097591  74.9259520   3.2345265  88.4589943
  75.1414013   4.1205221  88.1677469  74.3306398   2.9000288  87.7882131
  93.4454441  45.6634378  10.3889000  93.2209873  46.5812302  10.5422246
  94.1844940  45.4966593  10.9738958  60.3251839  32.5073409  97.5842735
  59.5587158  31.9540524  97.7347048  60.1360893  32.9602146  96.7624589
 119.6437359  41.1524725  18.4950674 119.7272968  40.6201506  17.7039433
 119.6409035  40.5178118  19.2116058  62.7127218  41.0754967 106.1256411
  63.3011675  41.1770773 106.8737324  62.7206659  41.9311905 105.6967371
  85.1736736  21.7542839  25.6173849  85.9017277  22.2078228  25.1925564
  85.2221107  20.8584523  25.2836633  90.2016068  35.8793187  96.5817257
  90.2110004  35.8837104  95.6245812  90.9800720  35.3790593  96.8265971
 118.6881065  23.8731027  15.0573599 117.7830601  24.1829371  15.0236440
 119.0250778  24.2079020  15.8883774  78.3684731  32.4973607  13.0252814
  78.2974052  33.3374953  12.5721216  78.5645103  31.8671250  12.3320258
 123.7986374  13.1873894 101.3626333 123.0088902  12.6913989 101.5783104
 124.2770290  13.2474577 102.1895339 107.2589684  23.8637781  38.1421614
 107.4341583  24.7828102  37.9398704 107.5805569  23.3848834  37.3783040
  82.0832443  64.6938848  74.2043289  82.0793343  63.9463902  73.6064418
  82.9752541  65.0372171  74.1527017 106.3205338   3.3919033  11.6653430
 106.1161709   2.4590784  11.7309654 107.2026920   3.4183440  11.2947607
 119.1582203  38.7361264   3.5702768 119.1277885  38.7412930   4.5269787
 118.2678223  38.9618778   3.3010992  71.6337109  44.2697573  20.8091664
  72.2915745  44.1655922  20.1217103  70.8990145  44.7023296  20.3740406
  81.2222576  31.8535304  15.9429872  81.4181232  31.8139744  16.8790984
  80.8700848  32.7334380  15.8089483 104.6450043  93.2546806  40.0173807
 104.9142647  92.3442745  39.8953176 105.4488850  93.7108994  40.2661371
 100.9229469  22.3261046  46.6503429 101.6855049  21.8208814  46.3684034
 100.2996540  21.6677499  46.9574404  95.9907341  39.3499517  91.1361357
  96.5843487  39.1344333  91.8554398  95.6223011  40.2001619  91.3762065
  67.5719833  39.6992970  94.6335992  67.8160429  40.4884338  95.1172634
  66.6199684  39.7541070  94.5505615 102.1218777  34.6793795  40.7553530
 101.6384220  35.0502467  40.0171471 101.5680122  33.9647532  41.0696316
  95.0679874  13.1938553  42.6179790  95.8550835  12.6618350  42.7348375
  95.2508831  13.7251699  41.8430710 106.8542862  55.2427626  41.4511299
 107.7580357  54.9351120  41.3817120 106.9115067  56.0357761  41.9841242
  71.3250446  74.9501181   7.6537466  70.6312799  75.6028986   7.5599372
  72.0527458  75.2982569   7.1384996 102.2889614  16.4228284 108.4179819
 101.8842697  16.7244971 107.6046842 102.5275612  15.5124199 108.2434590
  66.7597723 145.3359009   4.7444901  67.3646307 145.8059684   4.1705438
  67.2375107 145.2393223   5.5683053  44.5370722  57.3197412  12.7719426
  44.0974760  58.0688477  12.3696673  44.9752760  56.8796921  12.0435429
 107.5333500  33.5739422 105.0304707 107.2728634  33.6052990 104.1099300
 108.2022762  32.8902459 105.0669449  74.7372580  31.4514565  12.7996767
  74.4819546  31.6027689  13.7097073  75.4511499  30.8161044  12.8536701
   2.4703436  36.5105176  10.2498639   1.6339713  36.8886971  10.5213094
   2.2645312  36.0205245   9.4537622 114.1589069  30.6247449  64.3650866
 115.0019264  30.5787683  64.8161268 113.9465523  31.5579510  64.3488312
  94.2598248  24.0509844  37.8346109  93.3352089  23.8065338  37.7948952
  94.4934464  23.9551759  38.7579060 112.0427227  45.4563284 107.6806436
 112.7779198  45.4120398 107.0692875 112.4455833  45.6561232 108.5256394
 106.6672993  19.0239954  12.6924360 107.2598839  19.5348918  12.1410131
 107.1370602  18.9240670  13.5204303  12.2886687  12.6181221  22.4383736
  12.6173430  11.7231083  22.3537850  12.7667075  12.9792714  23.1848860
  81.9093513  44.4005823  17.8270912  82.5994205  44.3392563  18.4876084
  82.0568657  45.2466536  17.4044359  59.8984814  42.9683876  13.6549079
  60.4703856  43.0450058  12.8911781  60.4738188  43.1315565  14.4022977
  97.2867680  35.8960462 100.9139171  96.8503284  35.0632572 101.0934069
  96.5724373  36.5277052 100.8304241 117.3686028  44.2916203  12.6749575
 117.1925449  44.0143967  11.7758560 118.1898117  43.8561344  12.9034185
  84.9998665   8.9109898  30.9927773  84.3920231   9.0644628  30.2694535
  85.0744152   7.9581219  31.0449100  69.8650932  22.3344922  75.9791621
  69.8172092  23.1736302  75.5211362  69.3761349  22.4758649  76.7898210
 116.0222721  53.3154249  13.1848907 115.9080887  53.6074781  14.0892696
 115.2850819  53.7030268  12.7131474  78.0137587  16.5165973 101.5253636
  78.7902403  16.1983502 101.0649016  77.3070526  15.9439015 101.2273445
 102.4862385  18.3560085  36.0257697 101.5835571  18.6424577  35.8867121
 103.0109406  19.1459215  35.8955407 114.4897270  37.1022964   3.6539143
 114.8486137  37.5533295   2.8897122 115.2378559  36.6409039   4.0329331
 114.0339088  34.8705435  30.8152103 113.9951897  35.5309272  30.1233816
 113.1394863  34.8248792  31.1530685   1.4130717  45.4831886   1.7890932
   1.9571620  46.0620642   1.2551399   1.1973601  44.7538328   1.2079370
  87.0207977  62.8344631  28.7428617  87.1189213  61.8829918  28.7068200
  86.0787201  62.9814529  28.6585069  88.7516594  47.4406338 103.5559668
  88.4744167  47.2904778 102.6521864  88.4155560  46.6852045 104.0382477
  20.5109530  33.3770704  26.6906905  19.8850470  33.2919693  25.9715009
  20.2218180  34.1540551  27.1691561  86.0475636  15.0322592   2.2529390
  86.4292049  14.2905807   2.7225146  86.4301586  15.8033252   2.6716438
 103.5849953  63.8899040  22.5083661 104.3323421  64.4879770  22.5117850
 103.9662743  63.0311728  22.3254919  64.2375755  33.0865860 103.9131197
  64.5337963  32.5741696 104.6653935  63.9370441  32.4330902 103.2815691
  95.3709793   1.5194862  47.3858738  95.8693123   1.9436403  48.0844355
  94.8728275   2.2299176  46.9816875  43.3006907  22.9916286  24.8957253
  44.1781664  23.3740664  24.8932815  43.4362078  22.0795727  24.6387815
 104.2708397  13.6413372  19.4560432 103.6180210  13.1790590  19.9817443
 104.7286034  14.2025638  20.0819087 113.7613869  51.7214203  21.7224288
 114.4930840  52.2375536  22.0607519 113.0553913  52.3566008  21.6026330
   6.5106421   5.1716387  98.6798772   6.4051085   4.4818068  98.0247232
   5.7781058   5.7669413  98.5209914  73.0308914  21.1816883  11.5619636
  73.8339663  20.9495783  11.0956669  72.4045181  20.5019736  11.3132107
  82.9132938  44.0331078  84.8162278  82.1513081  43.7223530  85.3051480
  83.5993576  44.1281176  85.4769310  82.1818161 138.7218166  11.6048145
  81.7284584 139.3147583  11.0055447  82.0240116 139.0921963  12.4732304
 111.5141582  60.0996542  29.3335676 112.4249363  59.8597336  29.1628218
 111.5599060  60.6983900  30.0789905  87.1037102  58.1302404  18.4256554
  87.9702950  57.8420591  18.7123847  87.2538567  58.5206795  17.5646985
 122.6940250  18.8585675  32.9145956 122.2108841  19.6801972  33.0025268
 122.7315426  18.7025881  31.9709349 107.3400307  46.0170031  39.2367649
 106.8998528  45.1670647  39.2454052 108.1505108  45.8719587  39.7249460
  82.5162792  44.9978113   6.6792542  83.2144833  45.3692150   6.1399925
  81.8226051  45.6571198   6.6603446  82.4888515  60.1558256  36.1262822
  82.6232052  59.6069002  35.3537154  82.5435638  59.5484734  36.8640876
  97.8827000  23.0993676  36.1213636  96.9585514  22.8949094  35.9785891
  97.9592800  23.2129693  37.0687079 100.8332539  50.7359838  20.3811669
 101.5329933  50.1753139  20.0461221 101.0006905  50.7916594  21.3219619
 110.0965977  16.9337869   1.5710132 110.7495785  17.6318204   1.5200220
 110.4603100  16.2262321   1.0387418  88.2668495  29.5242643   3.2515129
  88.0835438  30.4610443   3.1802660  87.4667740  29.1511178   3.6214823
 118.7947941  63.6144972 102.7598991 117.9201412  63.3320856 102.4925938
 119.0339851  63.0158091 103.4674230  81.4387608  22.3745346  20.3001952
  82.2819519  22.7195406  20.5938482  81.0362530  23.1000376  19.8228407
  78.3092546  41.7429352  32.9212189  78.0362272  41.0473442  32.3230219
  77.9421043  41.4885759  33.7678194  93.1451321  48.1476688  28.3930039
  93.7396145  47.3974991  28.4012699  93.4912491  48.7200212  27.7082801
 118.3864975  56.9968462  17.1492648 118.0107307  57.0863485  16.2734675
 117.7563763  57.4293089  17.7255917 102.4264622  54.2439318 102.5745531
 102.9246044  55.0296688 102.7997305 101.5268898  54.4495726 102.8289308
  84.1504002  10.2080119   4.8645952  83.5578156   9.6729225   5.3925687
  84.3587303   9.6595091   4.1083074 110.8453083  26.6099977  36.3902926
 111.3889313  25.8228445  36.3571334 110.7039928  26.7643094  37.3243427
 105.6105804  17.8868639 102.8683957 106.0474682  18.0077314 102.0253369
 104.8169422  17.3946130 102.6584830  68.3323479  44.2442894  80.1405677
  69.0901899  44.2403984  80.7252773  68.0485582  43.3306265  80.1102146
  89.6085548  24.4404745  88.2760104  89.6714115  25.0827050  87.5690302
  89.1226578  23.7098885  87.8934153 123.9530659 140.7504720  32.3047328
 124.1050911 141.5630765  31.8222451 123.6960030 140.1180483  31.6337705
  88.1797504   8.8001710   3.1540966  88.0982304   8.4903294   4.0560856
  87.9813004   9.7352839   3.2032087 116.1323929   6.1256725  38.9056969
 116.6903400   6.7006260  38.3819056 116.3685894   6.3233614  39.8119879
  80.5633259  43.0199862  86.5783986  79.7736359  42.7793789  86.0939082
  80.2372646  43.4346294  87.3771366  86.9114494  32.5354385  76.5981897
  87.1517658  31.7898107  77.1482094  87.6666069  32.6626849  76.0239252
  78.3142614  22.5540400 103.8339724  78.3094454  22.4007082 102.8891452
  77.5319290  23.0815458 103.9950015 107.3312664  53.9108610  37.8027630
 107.6585388  53.9677143  36.9050455 106.6956425  54.6232319  37.8715420
  19.6999102  28.7378287   1.7998570  19.8129588  28.5667419   0.8648799
  18.8204794  28.4157968   1.9976605 112.9214001   0.4508022  33.2355642
 112.3215389  -0.0498730  32.6826453 112.4430370   0.5768817  34.0550160
 107.1070862  37.3135495  87.8163131 107.3740959  36.3958645  87.8691539
 106.7413616  37.5066662  88.6795529 106.1941433  47.9413176   3.8846862
 106.2292576  47.8165054   2.9363081 105.3749752  47.5238800   4.1510338
  77.2957945  30.9642863  95.7901629  78.0986881  31.4608765  95.9482428
  76.7508888  31.1393952  96.5573963  95.9496021  49.2592669  23.9294720
  95.7289314  48.5002995  23.3895636  96.1323643  49.9563599  23.2994795
  98.0138493  12.8366268  88.7020206  97.1630764  12.9172993  89.1331959
  97.9914093  11.9741893  88.2873821  81.8540955   0.9939785  84.7012997
  82.5193119   1.4601576  85.2076435  82.3506641   0.3750023  84.1660213
  86.5191364 144.3126118  84.8533154  85.7627583 144.7299870  85.2655220
  86.1461163 143.7840829  84.1478062 117.8110027  33.3265138  95.2511120
 116.9837856  33.2187986  94.7817135 118.2923317  32.5176859  95.0768948
  84.9774551  57.8008699  82.8847313  84.0476131  57.9654503  82.7280807
  85.2113056  58.4021425  83.5918427 105.7910347   1.6819474   2.1003763
 105.2326965   1.9686629   2.8230611 105.9940529   2.4853516   1.6212503
 115.6023121   7.8700310  62.6132774 114.8971939   7.3109353  62.2869968
 116.3329220   7.7067524  62.0168066  83.1123924  38.2233548  98.9267445
  82.6740265  39.0309119  99.1949177  83.2205486  38.3125997  97.9798698
  55.7347965 119.8273081  94.7792912  54.9050045 119.6765179  94.3265915
  55.7267189 119.2060656  95.5074596 116.6872883 144.3375727  93.2345963
 117.0160866 143.4493498  93.0960846 116.0444355 144.2480106  93.9381218
  84.9594307  28.6388421  70.4540300  85.8541679  28.8684964  70.2031660
  85.0629520  28.0728793  71.2190151  77.6963997  13.2343805  79.4585848
  77.6114464  14.1576016  79.6966505  76.9506407  12.8084385  79.8812532
  94.2863464  38.2713294  14.5577947  95.1763439  38.4660625  14.2641774
  93.9721107  37.6064110  13.9451162 113.0905247 128.8277180  69.0320635
 113.7479782 128.5375721  68.3997679 112.7731228 128.0197425  69.4353819
  99.8648930   6.5746629 104.6022224 100.1113224   7.4792826 104.7950268
 100.0291348   6.1025149 105.4185200   8.8648730 137.6235534 108.6481190
   9.7101908 137.3192192 108.9783478   9.0264636 137.8257353 107.7265739
  93.9353848   1.8826973 105.8581448  94.3128872   1.3242316 106.5377331
  93.0266190   1.5909043 105.7857990  54.9125242 145.4570654  28.4996549
  55.6133604 146.0225442  28.8241426  54.2626476 146.0621680  28.1422368
  99.5781136   5.7270557   6.8682042  98.7114811   5.4642570   7.1782152
 100.1851845   5.3455693   7.5023691  82.1742439  51.3287830 101.3334274
  82.4053192  52.2243023 101.0866928  82.1978188  51.3303375 102.2903347
  96.2813091  19.6704209  14.5943395  95.5210781  19.2927325  15.0366346
  96.4481831  20.4889035  15.0617448 112.7731991  17.4139202  29.8473970
 112.9692268  17.3845279  28.9109460 113.3440018  16.7490482  30.2325670
  69.6938038  16.7123294  73.5453224  69.5224619  17.4654520  74.1107273
  70.3426123  16.1962843  74.0238333 111.8182564  49.1429853  22.0850984
 112.6292133  49.5830250  21.8302671 111.2628078  49.1952038  21.3072816
  10.4598837  24.1759634  84.6884632   9.5034533  24.2093658  84.7076988
  10.7322913  25.0929713  84.7219563  77.0506954 129.2298419  74.7693348
  77.4047422 129.8914296  75.3636265  76.3452148 128.8149542  75.2657175
  94.6007252  26.2949395  16.4185087  93.7997913  26.5839124  15.9812108
  95.1784229  26.0233855  15.7052366  97.2208595 126.3673253  86.7445755
  96.5241432 127.0002670  86.9183540  96.8821907 125.5390234  87.0843506
  95.7422447  16.2709486 100.1566505  96.2957764  15.5147588 100.3516293
  94.9007988  15.8924770  99.9018002 103.1802368 128.0996794   3.4916345
 102.5217724 128.0819435   2.7971307 103.6854839 127.2968943   3.3632127
  92.5627232  13.1632781  85.1922512  91.6119957  13.2529974  85.2577972
  92.6954937  12.5305450  84.4863796 113.1126404  58.3422327  71.0496902
 113.0298042  57.5326252  71.5535831 112.8587914  59.0326071  71.6622066
  62.3738003   2.2941567  68.5164738  63.0897093   2.6331910  67.9791069
  61.8450928   3.0644375  68.7247229 100.9064293   1.2606521  34.9454538
 100.6796265   1.8918350  34.2625181 100.6583023   0.4118644  34.5790902
  59.6800852  40.3338242  13.7728635  59.2116594  40.1190138  14.5795003
  59.8509026  41.2733984  13.8380472  88.8095760   6.7627323   1.3489000
  88.1500721   6.0851318   1.4977208  88.7548923   7.3241389   2.1222535
  96.4976883  48.4398413  94.4018555  95.6905556  47.9274988  94.3542004
  97.0065784  48.1562805  93.6423492  76.8872452  43.6828184 102.5385761
  77.4969101  42.9542398 102.6556683  76.1108971  43.2845974 102.1449566
  89.7690678  40.6384420 103.1978130  89.0987110  40.5422974 102.5213432
  90.5670261  40.8544445 102.7152824 104.5583439   1.2207413  28.4045163
 105.1668072   1.9581741  28.4513894 104.7169399   0.7278174  29.2095701
  81.2951565 131.3838548  47.4669782  82.1262741 131.8578524  47.4386922
  80.6274605 132.0682938  47.4227468  73.1046724 130.5996091  80.4234123
  73.3835125 131.4982493  80.2475452  72.3961687 130.4421980  79.7993279
  69.7068357   0.7523090   0.6919614  69.7909355   1.5583397   0.1825754
  70.4394770   0.2085242   0.4025308  96.9362926  32.2464967   3.7202779
  97.6601505  31.9429779   3.1724302  96.7028332  31.4855051   4.2519037
  88.8361359  33.3741856  74.9377203  89.5189095  32.7610230  74.6655321
  88.4777832  33.7131810  74.1174173  70.3905344   0.3336145  94.9367046
  70.3884125   1.2019372  94.5339108  71.1861515   0.3182971  95.4686737
  98.4401894 102.0933313  73.7729168  99.1200733 101.4514179  73.9776993
  98.6971760 102.4516315  72.9233265  15.6245070   0.7404881   2.6631490
  15.8851939  -0.0776350   2.2401277  15.1937705   0.4650484   3.4723703
  99.9992943  40.1146460  90.9077549  99.4718170  40.1569939  90.1101303
 100.4388523  39.2657137  90.8594322  26.6304999 142.0104555  13.6237661
  26.5905886 142.3081196  14.5326368  27.3669844 142.4914581  13.2463208
  10.2705889  17.0940363  15.2846280   9.7731810  17.8879774  15.0884572
  10.5329733  16.7579138  14.4276563 106.1837578  45.2475405 109.5737743
 106.0523224  44.6330786 110.2958488 107.0164299  44.9830294 109.1827393
  97.4159145  26.2523222  51.0290718  97.2699738  26.7706394  51.8204498
  97.7521992  25.4153919  51.3495398   3.7692195  11.1452127   8.8490239
   3.1850081  10.8891392   8.1353418   3.2192259  11.1136675   9.6317998
  88.4876060  51.3042974  89.8819923  89.1368008  51.2373543  90.5822086
  88.9147758  51.8345070  89.2092133  60.1091528  28.4932351  15.4149381
  60.4684210  28.4366894  14.5295183  59.5585394  29.2760801  15.4004518
 116.0459614  16.1344481  97.5393200 116.9887829  16.0448539  97.6781654
 115.7208443  15.2344775  97.5150490 100.8373070 139.0884967  93.4799957
 100.9171581 140.0421894  93.4619904 101.6360092 138.7894327  93.9145851
   0.6304675 145.4356282  71.0430193   1.1336165 145.2569256  70.2485752
   1.2876826 145.6910144  71.6903877 105.2574730 142.7359999  57.2099400
 105.4722214 142.2110630  57.9810143 105.8960247 143.4490106  57.2201777
  78.0148172  16.7025542 106.8484116  78.2464838  16.6996610 105.9196663
  77.3335600  17.3707783 106.9232464 102.6553822 146.0472803   0.9663335
 101.9200993 146.3358973   1.5069715 102.6565456 145.0939921   1.0527746
  89.2267132 105.2126379  99.7031879  89.7782993 105.9862060  99.8197079
  89.7208214 104.6543808  99.1028309 102.1024418  51.4002466   4.5144407
 102.8141689  50.7755661   4.6538774 101.4141464  50.8882475   4.0897790
  77.6364231  30.5961013  79.7710419  78.0395746  31.4360237  79.9906635
  78.1173801  29.9553370  80.2948093  91.5764618  41.8702126  11.5094510
  91.1303139  41.1262321  11.9140283  91.6738605  41.6202831  10.5906049
  95.7045937 126.7561192  64.5477581  95.4073811 126.0574741  63.9648438
  94.9036503 127.0834393  64.9571276  81.5422916 141.9094200  82.6704502
  81.3331890 142.2717286  81.8094921  81.3294792 140.9790779  82.5969124
   1.9982176   8.2027048  98.7182522   1.6767150   7.3054671  98.8067436
   1.8272620   8.4293282  97.8041172  54.8801708  27.8790355  42.0554487
  54.4747591  28.2703090  41.2816373  54.2821264  27.1762228  42.3096792
 120.0943565  16.3487411  92.8553009 119.9898529  16.9417441  92.1112156
 120.1375484  16.9261467  93.6175156  82.0239162  32.5596046  18.6955205
  82.4894524  31.9062448  19.2176572  81.2160397  32.7236414  19.1819898
  51.7882872  22.6162815  92.3980045  51.5693665  22.1698570  91.5800667
  51.1485577  22.2869301  93.0292797  76.4926434 145.5611714  74.4935465
  76.9693041 145.8501610  75.2716923  76.6847944 146.2274977  73.8337564
  76.6045284   6.3168687 109.8241615  76.6352940   6.1052698 108.8911533
  77.5160599   6.2651378 110.1116753 112.8957748  59.8632336  73.4913492
 113.6975574  59.7510672  74.0020323 112.1892929  59.7594833  74.1288137
  88.2408047 136.2585134  58.1772566  87.8953362 137.0620752  57.7884436
  88.1000233 136.3677401  59.1177225 102.9794121 143.8716618 102.5547504
 102.9555798 144.0275908 103.4988689 102.1664333 143.4017614 102.3690128
  69.6007586 142.1124233  95.4463387  69.4299650 143.0428786  95.3003407
  68.7407398 141.7381469  95.6374359 116.7798138  15.3045654  94.4490051
 117.3294258  15.8402419  95.0210190 116.2403011  15.9369433  93.9743900
  76.0555220 139.8130996  76.9726706  76.2165165 139.4649596  77.8496599
  76.8508148 140.3010155  76.7589426  91.7805386   5.3337049  30.8274213
  91.8009853   4.8759982  29.9869958  92.5780106   5.8630908  30.8313028
  84.0665722  15.3487563  98.2994461  84.8735523  15.2448452  98.8036537
  84.2102528  16.1381352  97.7774620  81.8818951   9.7970372 106.5010548
  82.5769520  10.1964271 105.9779739  81.8000507   8.9092320 106.1527252
 102.3686981 138.5600329 102.9140377 101.4824867 138.6888600 102.5759983
 102.6211357 139.4172365 103.2571220 105.5835247 143.3538751  99.2120934
 105.5660534 142.5229646  99.6869755 106.4421082 143.7264294  99.4127655
  82.4855995 146.0495246  72.9107237  82.4094105 146.6143764  73.6797333
  83.4146214 145.8223307  72.8715229   5.5571395  21.6381001  38.4350053
   5.6916743  22.5577664  38.2062093   5.3118258  21.6548443  39.3600789
  83.7913322  24.2947412 106.3654613  83.8371944  24.8336720 107.1551991
  84.0653133  24.8803520 105.6596184  79.1352940  19.0146792  65.2383232
  78.9119577  19.8658943  65.6148720  78.3816862  18.7888145  64.6930838
  88.3717442  43.4856510  99.8480129  88.6808014  44.1616011  99.2448521
  88.6650562  43.7813950 100.7098389  17.8794032  16.6730285  91.7851830
  18.3208113  15.8261991  91.7198658  17.7579718  16.9504905  90.8771610
   5.3739386  23.0273271  65.1004124   6.1077242  22.9310989  64.4933367
   4.7546130  23.5934067  64.6397400  82.6276875  18.0532408  92.8183746
  82.1487141  17.7777302  93.5999775  82.2439861  17.5384390  92.1084499
 107.4829769   8.0313879  17.1149293 108.3774376   7.7807665  16.8839303
 107.5890923   8.7434042  17.7458040  84.2626476  21.0349298   7.5263921
  83.5552597  20.9745765   8.1684057  84.8377132  20.2983356   7.7336732
  85.1102352  30.3774714  65.8725452  84.6649361  30.9177756  65.2198458
  84.5765591  29.5850706  65.9319353  92.4461746  14.0183067  43.0428648
  92.0362282  13.2847703  42.5844955  93.3844471  13.8341808  42.9985380
 108.7809944  45.6061649 101.3843155 109.2972279  45.5086470 102.1844578
 108.9528942  46.5026236 101.0961437 106.9305134  22.0569587  26.6937963
 107.2246456  22.5744128  27.4434415 106.2354279  22.5826168  26.2978498
  43.8981342   8.5008997 108.1842232  44.1486168   8.8653558 107.3353004
  44.6231318   7.9219460 108.4196472  65.2701044  40.5871964 103.6804390
  66.0369492  40.8769608 103.1862545  64.5299911  41.0071325 103.2421303
 101.8763256  25.7630014  82.9116154 101.0038948  26.1558056  82.8834724
 102.4753571  26.5024185  82.8083801  93.3801460  22.8371978  12.6140348
  94.3069077  22.9669499  12.4127523  93.0602074  22.2687888  11.9134752
  75.1383924  34.5926285  85.9699059  74.4503260  35.1334119  86.3576603
  74.8076153  34.3721557  85.0991535 111.9792366 132.3718459  91.2477398
 111.9106102 132.3928327  92.2022438 112.6133537 133.0575366  91.0380745
  66.4964199 140.2316577  31.2772027  65.6718540 140.4074396  31.7304365
  66.2679863 139.5900250  30.6046239 105.4032612   8.4785002  97.7896118
 106.3091755   8.7854749  97.7534008 104.9884796   9.0336102  98.4499454
  87.2023487  14.9077058  82.3122406  87.6772594  14.3943787  81.6586494
  87.5135517  14.5719254  83.1528568  98.8046265  26.5744925 106.5470695
  98.8354015  27.5309849 106.5672684  97.8845596  26.3611221 106.7026043
 106.6030979 145.0332409  23.5861913 106.7269993 145.2157162  22.6547471
 107.3895931 144.5516747  23.8425962  65.6810665 144.1463108  78.1119967
  65.5921078 144.6350295  77.2937822  65.3105354 144.7251666  78.7782288
 109.3768024 144.6501965  91.8806458 109.4793606 144.0612201  92.6281929
 108.5012913 144.4596166  91.5439224  81.5504456  20.3859496  48.8107816
  82.1164513  21.1522341  48.7176076  81.9026566  19.9187231  49.5683233
  77.5291204  12.4025214  11.4913026  76.6334772  12.3823249  11.1541883
  77.7399015  13.3340120  11.5555707 123.9743614 123.9448065  13.4784547
 124.3703079 123.1973214  13.9264814 123.4687710 123.5559244  12.7647439
  80.4412460  11.7733181  54.1989851  81.3244534  12.0345020  53.9383078
  80.0532818  12.5695992  54.5618248  87.2502613 110.8155794 108.4590530
  86.8743324 111.3143129 109.1844273  88.0460930 110.4272217 108.8224506
  91.4794540  41.6638374 109.5055103  91.4129162  40.7269001 109.6897793
  91.9758415  41.7125988 108.6885262 102.7999783  42.4772120  95.1869488
 103.1409836  43.2327223  94.7082615 101.8487167  42.5638485  95.1249695
  76.2491608  22.1681142  99.3453789  77.0140409  22.0524240  98.7816334
  76.6018105  22.1464276 100.2349854 117.5154495   0.6694696  81.7953396
 117.4233818  -0.2810513  81.8606472 117.3245716   0.9897289  82.6769447
 112.2354984   7.1558416  22.3093644 112.7206993   7.7712220  22.8590242
 111.4326954   6.9784534  22.7995435  92.1907425  47.7285767  94.5652485
  92.9936218  47.2990751  94.2700291  92.4831772  48.3520269  95.2300930
 119.3927288   6.5195006  97.6150990 119.7480869   6.9926852  98.3674622
 118.4818172   6.8081838  97.5590611 118.3809662  30.3631902 100.8399677
 118.4378147  29.4257021 101.0246563 117.5066853  30.6135535 101.1385822
  61.3247585   5.9942269  75.4395676  60.7441950   6.5287906  74.8978853
  61.9830465   5.6618887  74.8292923  97.2369480  28.6328936  99.9336338
  97.9432106  28.1639147 100.3780365  97.2529697  29.5096064 100.3174973
   0.7031851  33.7828636  27.3655263   0.7895976  34.3381715  26.5906755
   1.0529261  34.3139195  28.0809919 105.0504398  16.5516114 109.5184803
 104.2848587  16.3450420 108.9823437 105.7982349  16.3260198 108.9651775
  61.8508768  40.6764412 102.8621197  61.2123394  41.3701248 103.0273724
  61.9570446  40.2420616 103.7084484 100.1566124 122.2697229  86.1560154
 100.6632042 121.9262643  86.8919659  99.5989990 122.9445214  86.5432453
  19.4071608   8.8768339   5.2403394  19.2842799   8.0970848   4.6989290
  20.0447970   9.4043505   4.7593252 112.5099373  23.7910008  11.2453691
 111.8448067  23.1339645  11.0401002 112.9221916  23.4718108  12.0481149
  89.0065765 139.7616298 101.8350220  88.8882732 138.9007504 102.2364235
  88.1196022 140.1124746 101.7549133  99.2420292  44.7360706  90.5894089
  99.6530151  44.0433407  91.1065674  98.4097481  44.3596506  90.3032970
  76.4739418 128.7577147  21.8363515  75.7951307 128.9906854  22.4697343
  77.2437763 129.2521948  22.1175615  88.8423157  22.6917648   6.7705671
  89.0326023  23.6115074   6.5859166  88.2503986  22.4238396   6.0676519
 107.2335911  28.3597541   1.0195962 107.6279354  28.2642365   1.8865434
 106.5439987  29.0124607   1.1407415 104.7430038  29.5079255  11.0725824
 105.6585884  29.7772408  10.9989969 104.5136929  29.1969824  10.1968137
  98.4203625 117.8015322  73.0811071  99.2506123 118.2704301  73.1650734
  98.3759785 117.2511716  73.8630009 104.7852325  39.7209072  13.6170141
 104.3670654  38.9753270  14.0476934 104.1393375  40.0213146  12.9776326
  67.5358486   5.0575304  98.9628887  67.7938986   4.8881871  98.0568123
  66.8466568   5.7184273  98.8961124   3.3384352  17.3836935   3.2281438
   2.8667288  16.6664112   2.8047887   4.2159968  17.3509991   2.8472749
  73.4910631 141.3935954  80.5707836  73.8002110 142.1067421  80.0121403
  73.0104542 140.8159686  79.9778318  96.6763210 144.8572452  99.8641968
  96.9219875 144.7865484 100.7866287  96.1188412 145.6342926  99.8236847
  80.9899521  35.5547857  97.7939606  81.7485905  35.4598713  97.2180271
  80.9009552  36.4995885  97.9190826  92.1208668  20.1489305   0.3661672
  91.3563442  20.6974435   0.5418721  92.3543167  20.3468633  -0.5407771
  95.4335213 145.9966082  93.4236145  95.6508350 146.0747836  92.4946976
  96.1582279 145.4956017  93.7978077  82.7773952  20.6365442 107.8859615
  83.5787201  20.4305267 107.4046421  83.0501747  20.6680298 108.8029289
  68.0134630   9.3858731 102.7170277  67.9224157   8.8050240 101.9616795
  67.5312471   8.9458168 103.4170628 109.6588326  28.4760451  90.0613403
 109.4782448  28.3512521  90.9930325 108.9880371  27.9584694  89.6159267
 101.7101479   6.3163501  16.6839353 101.5628242   7.2620600  16.6712705
 100.9094620   5.9442449  16.3142625   9.1375189  13.1939220  16.6420976
   9.8598414  13.7343395  16.9621316   8.6842280  13.7505436  16.0089055
  90.1771164  20.7502770  80.1902008  90.2796078  21.5445805  80.7144260
  89.6342468  20.1755476  80.7298470 115.8202648  93.1775303 107.4195290
 115.0885868  93.6346264 107.0048618 115.9823990  92.4224729 106.8539906
  81.1138248  53.3428574  93.2526302  81.3780212  53.6615992  94.1156673
  81.7917919  52.7111626  93.0127430   7.1437197  33.6491108  26.6917650
   7.7417594  33.6087751  27.4380628   6.9996672  32.7340746  26.4505426
  93.3797073 111.1604852  78.4123707  93.4127522 111.4210863  77.4919224
  94.0267372 111.7192716  78.8428831  89.7891331 146.7962591 101.8348408
  89.8745728 146.0416065 101.2522316  90.1822472 146.5084686 102.6587772
 108.0957603 145.6855547   4.6146909 108.9938545 145.4377654   4.8343602
 108.1906891 146.3488583   3.9311353  96.2254143  41.2996578  79.4553280
  95.8548832  40.4494143  79.6920347  95.6533527  41.9374371  79.8821878
 110.3605461  24.6716595 104.3047428 110.5468845  24.6968460 105.2432919
 109.4085979  24.5867229 104.2517567 122.4751282  10.7570148  26.5728799
 121.7734718  11.3945830  26.4409009 123.2798767  11.2730134  26.5242997
  88.3093834  21.0546041  75.6817961  88.0589104  21.5429592  74.8975754
  87.4819469  20.7273173  76.0346031  74.7774935   3.5759294   4.3520109
  74.6190071   4.5199081   4.3476716  74.3349361   3.2551515   3.5662118
  94.7591209   2.2119248   2.4724046  95.2093601   2.4766056   1.6702501
  94.4917679   3.0357242   2.8799669  63.2542372 137.0733882  89.3567371
  62.8677225 137.8537829  89.7539997  62.9908323 136.3558442  89.9329090
  79.4278193  14.5498240   1.8328992  79.8169994  15.3385437   2.2106401
  78.7765360  14.8775518   1.2126867  89.9598408  41.1007357  73.2866859
  89.6308994  41.6148424  72.5493097  89.3761921  40.3432894  73.3298588
 118.4915066  21.1970758  19.2201463 117.6441669  20.9542918  18.8469259
 118.9759731  20.3730702  19.2705385  91.8401623 143.3251304  80.2630234
  92.6492596 142.9564274  79.9085379  92.1102810 143.7643100  81.0694885
  94.1317558  41.5653467  70.7453918  95.0866699  41.5865135  70.6828403
  93.9408493  40.7580900  71.2230206 103.9885426   4.5082149 102.0906639
 103.1643009   4.7529414 101.6699982 103.7743473   4.4505394 103.0218029
  98.4155178  40.0755453  88.5841179  97.8528976  40.8171558  88.3611774
  97.8317261  39.3172669  88.5633183  98.6780643  22.7854967  92.9808712
  98.3005905  22.2532463  92.2805500  98.2281017  23.6274385  92.9108810
 106.4870453 141.2029327  18.5123197 106.1609745 141.9447423  19.0218583
 107.0164776 141.6011638  17.8214208  17.0596057 135.9908313  92.7744007
  16.6489249 136.8317432  92.5733185  16.7550879 135.7805676  93.6571789
 104.7725964  15.4824221  95.1426220 103.9376259  15.8942020  95.3650856
 104.6432495  15.1415181  94.2575836  76.2569427  31.1052179  17.7038709
  76.6708088  31.1888814  16.8448297  76.9691038  30.8461213  18.2886163
 104.6707439   4.0025586   5.7394735 104.1806507   4.5671359   6.3372175
 104.1418076   3.9816844   4.9419633  94.3668270  57.4575329  39.6316282
  93.6741734  57.7519846  40.2230398  94.9017143  58.2371616  39.4822637
 121.8888950  39.2403913  97.6366425 122.5680161  39.8207450  97.9804707
 121.8802452  39.4132328  96.6952133  99.5746708  12.2507226   0.7853452
  98.7220860  12.6002812   1.0444681 100.1520252  13.0140567   0.7704774
  62.0923853  10.5870104  21.8046418  62.0324469  10.7680011  22.7426664
  62.2303581  11.4450717  21.4034883 107.1610832   8.9309484  91.5874481
 106.2890530   8.6959606  91.2703133 107.1148777   8.7998837  92.5345039
  99.8547077  47.8489208  23.8810102  99.2175961  47.7597666  24.5897905
 100.6682968  48.0969620  24.3200818  83.8150311 143.5465852  12.4425737
  84.3980789 144.0834735  11.9058744  84.1922474 143.5883505  13.3213178
  95.8127117 144.8719230  80.7095242  95.4683781 143.9913229  80.8585358
  96.2667370 145.0923633  81.5228558  41.9975233  17.4472094  33.1698076
  41.1785030  17.0456934  32.8795949  42.4795437  17.6195633  32.3609964
 108.9420319  20.1118565  19.3744890 108.3842087  20.1841688  20.1489774
 108.9677429  20.9983015  19.0142289 105.3292656  11.8962061  62.6346588
 104.5619392  12.3113501  63.0284977 105.2107334  12.0184720  61.6927290
  99.4601345  12.7025533  75.9452677 100.1178646  12.4489248  75.2977324
  99.2794418  13.6231291  75.7552052  65.1939058   0.4341157 101.3197803
  65.3845930   0.9320565 100.5248451  65.7897949   0.7941844 101.9766617
  88.3547974  54.3375921   1.8152181  87.9571056  54.5702410   2.6542322
  88.7816715  55.1422977   1.5211812  89.5748997   2.9832667  89.5399189
  89.6830273   2.9249299  88.5906410  90.0334358   2.2153239  89.8808575
  92.2974682  17.0364416  93.9600849  91.5030956  17.2154856  93.4569550
  92.1517658  16.1687255  94.3370056   1.8169623  14.3508387  66.6474676
   2.2717410  14.9308085  67.2582388   1.7035418  14.8776162  65.8563471
 104.1309166  32.1919107  60.6054354 103.4658051  32.3356652  59.9322367
 103.6308670  32.0207548  61.4034843  85.7242012 114.8055405 106.1032009
  86.6676331 114.6454281 106.0801125  85.5589294 115.3722305 105.3496838
  88.4535694  37.1372604  80.0813484  88.0597496  36.4749050  79.5135212
  89.3843746  37.1208048  79.8587227  86.8124676   0.8035760 102.5153065
  86.4388180   1.3548450 101.8277550  87.7503586   0.7858589 102.3248577
  86.9172001  38.7195683  77.8973961  86.0562229  38.3186221  78.0165100
  87.4264336  38.0585384  77.4284077  91.2015057  33.5084605 109.4169712
  91.6532326  34.3514919 109.3786335  90.4978466  33.6424351 110.0519085
   5.4159384   1.1353459  83.5540485   5.7028800   2.0359604  83.4030819
   5.8965045   0.6191876  82.9068470  99.2997742  12.9252982 103.3016777
  99.4625568  12.8659463 104.2430687  98.7968636  12.1374047 103.0954361
 122.7263165 135.3667791  88.9708614 121.9588661 134.8481197  88.7295437
 122.5204563 135.7086117  89.8409176 105.6430531 143.0161328   0.7600633
 105.7535648 143.9669091   0.7534925 105.7355404 142.7579145  -0.1569995
 118.6380863   5.0419962 103.9038849 119.5443153   5.1064557 104.2052650
 118.3718777   5.9484261 103.7497711   1.4486628 133.9329083  83.8468456
   1.9523078 134.3822415  83.1681156   0.9810763 133.2407314  83.3794308
 105.4206085 124.0107817  84.9907875 104.7820091 124.5479817  85.4596519
 105.4497910 124.3866105  84.1109371  91.4321613   6.7787039  56.0758591
  91.6163826   6.5666115  56.9909048  90.7172108   7.4138558  56.1164665
 107.3230457   5.9819251  95.9825325 107.8917217   6.2112588  96.7175484
 107.8008366   6.2791663  95.2082062  75.3163290 132.9749961 101.0751915
  75.9083033 133.1717987 101.8011856  75.7537079 133.3371133 100.3046036
   1.7627650 140.4704411  87.3123932   1.1058837 139.7742767  87.3026276
   2.3926097 140.2149094  86.6384220  79.0491533  35.2403331  89.6380138
  78.4969044  35.4836869  88.8950253  79.9271774  35.1558614  89.2662907
 119.5712662  26.7625427  85.0259304 120.1809025  27.3332834  85.4937267
 118.7636662  26.8037009  85.5381012  75.5035877  10.2754021  19.0356294
  75.8323669  11.1725962  18.9792863  75.7304955   9.9923515  19.9214212
 110.6085014 120.7115550 101.0639668 110.5307484 121.5979833 100.7112217
 109.9940014 120.1925344 100.5450821  84.8902893   7.5433463  76.6403961
  84.1913509   8.1040740  76.3038015  84.7717190   6.7114818  76.1819506
  77.8899527  28.8233495  83.5976887  77.9292965  28.2055068  84.3277168
  77.5414753  28.3105373  82.8684235  97.1520424 144.2028529   2.6056329
  96.7791080 145.0831906   2.5592080  98.0795479 144.3453068   2.7945176
  83.6315536  22.2523212  90.5481434  82.7848434  22.5860333  90.2515602
  84.1648293  22.2128177  89.7542381 100.2288532  45.4114580  72.0585442
 100.9161472  44.8355865  71.7235327  99.4339180  44.8791790  72.0269918
  90.2772808  38.5031176 101.3850498  89.5978165  39.1770625 101.3660812
  90.2732754  38.1340432 100.5018806  90.6668282  46.5223265  97.2408295
  90.1605320  46.5535927  96.4290905  91.3899040  45.9250879  97.0492554
  83.8680935  23.3829546  96.4409828  84.5743275  23.8795567  96.0276318
  84.2062092  22.4893928  96.4997673  74.2687750  21.7444086  84.4551468
  74.4287491  21.0133147  83.8583660  74.8907042  22.4182272  84.1805458
  58.5405779  27.4094343  17.5018827  59.1203165  27.8181839  16.8591920
  58.0122328  26.7956448  16.9916478 124.1944599  19.9581289  90.4827309
 124.5153046  19.8566735  89.5866299 123.5103607  20.6245136  90.4181862
  92.5495052   5.7961589  48.0290127  91.7296791   5.9210169  47.5509787
  93.1723881   6.3769579  47.5920630  96.3187218  13.3257484  69.3913794
  95.8587074  14.1186631  69.1158676  95.7524300  12.9404032  70.0600052
  55.0693369 138.8359887  84.7628021  54.7104979 139.4883413  85.3643799
  54.9898291 139.2383737  83.8979340   3.1236868  33.3356476  64.5876122
   2.9773455  34.2654872  64.7614384   2.2546416  32.9905963  64.3828487
  23.4683924 141.0720331  69.2003155  22.7295428 141.6791911  69.1593218
  24.2135554 141.5795163  68.8787079 114.2454338 125.8576030 101.1792183
 113.4771919 126.0450048 101.7185879 114.0290260 125.0406642 100.7297611
  98.8229942 135.8800370  85.9366512  98.1396770 135.6455929  86.5646076
  98.5477448 135.4674000  85.1179886 121.9671917 134.6911831  69.4112301
 121.9839573 134.3524892  70.3063488 122.6065540 134.1563089  68.9407444
 111.3865948  22.9400826  42.5148582 110.7633877  22.2570825  42.2671700
 111.4073849  23.5300374  41.7613649 103.2816219   9.9214876  83.0612946
 104.0289974  10.1210380  83.6250687 103.1055069  10.7404971  82.5982189
  98.9246845  21.9131064  74.9953461  98.6261654  22.7064729  74.5507240
  98.5925198  21.1962819  74.4549227  87.5988007   4.2790303  98.6880493
  86.8280220   4.4639355  99.2246532  87.3554993   4.5727587  97.8101158
  86.5991497  23.5760546   8.6045018  86.0095882  22.9867911   9.0750448
  87.4767208  23.2707167   8.8344423  97.5995064   8.0145842  72.5602531
  97.7396870   7.1506441  72.9477978  98.4804630   8.3393991  72.3741198
  65.8985758  31.1219406  87.4091148  66.5304327  30.4035234  87.3797703
  65.9856462  31.5523839  86.5585995  53.1917238   3.4497288  13.4397832
  52.2647047   3.6823806  13.3874933  53.5938120   4.1741782  13.9190809
  91.8573666  48.8521528 103.9729977  90.9335327  48.7561655 104.2044067
  92.2934532  48.1286573 104.4231129  79.7567272  15.8406639  82.8578758
  80.4748917  15.2344000  83.0392933  79.8988914  16.1162376  81.9522953
  76.8843651   2.4098364  76.0563183  76.0767269   1.9028601  76.1395597
  77.0703506   2.7117482  76.9454145  72.4539328  17.2918010   3.4482137
  72.8651667  16.7906761   4.1524831  71.8370628  16.6795135   3.0472032
  98.6926079   8.4468740  78.4558487  98.4751034   8.7544435  77.5758934
  98.2518482   9.0631926  79.0407515 104.5158482  38.0312991  10.5827085
 105.2612877  38.0880189  11.1804715 104.3892002  38.9277840  10.2720491
  91.9358730  36.0974646  90.6977654  92.4079704  35.2933002  90.9138298
  92.5635433  36.7983532  90.8738708  97.9389954  13.1020987  72.6064968
  97.8043938  13.1791949  71.6619492  98.8411427  13.3908653  72.7442360
  93.0127621   1.6621774  91.4981174  93.8300800   1.1943667  91.3267136
  93.2520866   2.3380026  92.1323204 119.7307968 131.1420328  50.8364630
 120.5251598 130.6107242  50.8905792 119.0272808 130.5484552  51.0990810
 101.9649315 125.6316037  99.9386597 102.6657772 126.2269063 100.2044868
 101.3963127 125.5730648 100.7064438  82.2941303  44.3696976  82.1275330
  82.5767899  43.4812260  81.9108391  82.3757648  44.4214535  83.0798340
  88.5154247   4.5411062  93.9422131  89.0604305   3.7982720  93.6825943
  88.5415745   5.1319599  93.1895924  65.6760120 141.2903518  71.2693548
  65.6966925 140.6813670  72.0075560  64.9462414 140.9872366  70.7291794
  77.0547628 141.7841000  53.5653400  77.2868109 140.8696074  53.4038210
  77.7008295 142.0859606  54.2038584  72.6771069  23.7055469  15.1238862
  71.8601608  24.0170741  14.7342912  72.6794338  24.0782928  16.0055200
  58.8879585   5.1688159  88.4196568  58.4350729   4.3257254  88.4377003
  58.4757757   5.6771058  89.1182137  84.5636559  15.7210827  71.0626364
  83.9820671  15.1816928  70.5268812  83.9831257  16.3574386  71.4800882
  98.8090229   7.0472920  92.8240776  98.7480450   6.1314368  92.5525570
  98.4644127   7.5411421  92.0800495 106.4999771 146.7490846  72.7870369
 105.7749653 146.3276184  72.3255634 107.2838020 146.3189148  72.4452686
 106.1664486 137.6668234  88.3219051 105.3022957 137.5187952  88.7060165
 106.4490604 136.8010730  88.0272198  98.3205986   8.2800376   9.3427411
  98.5394859   8.4403086   8.4247915  98.4492970   9.1263866   9.7709504
  69.4432354  12.3526478  87.2733021  70.2884007  12.0238411  87.5795841
  68.7999487  11.9178081  87.8330612 111.4312458 121.0833068  52.8694773
 110.7638168 120.8971877  53.5298777 111.3970089 120.3328986  52.2762299
  81.6281891 140.0858701 100.9660625  82.1836090 140.4137922 100.2588177
  81.1586761 139.3470109 100.5789280 113.3964062   3.7294266  13.8491765
 113.7824059   2.8911787  13.5950700 112.5678349   3.7662375  13.3713189
  89.2503548 134.0766246  49.1606665  88.9070606 134.5565028  48.4069443
  88.9515305 134.5773489  49.9197483 102.2109795  18.1644237  82.7452087
 102.9652405  18.1976151  83.3336067 101.5037346  17.8072679  83.2823086
  63.2598305 141.2054706  14.5721284  62.5687504 140.5434138  14.5900003
  63.9892006 140.8031500  15.0437108  84.0670395 131.6948969   3.4078924
  84.0748024 131.3297088   4.2926542  83.8303375 132.6142533   3.5303155
  11.7126208   4.2531109   6.6854516  11.5911704   3.7009737   5.9130422
  12.0716601   3.6627123   7.3478357  73.8777256 135.2355761  82.0623112
  73.6897326 135.9881336  81.5014744  73.2305479 135.2931113  82.7652264
 113.5396099   0.9999899  85.3355789 113.1217861   0.9296212  86.1938858
 114.4660187   0.8292923  85.5054569  55.6343842  25.2345061  63.4149313
  54.9556112  24.7070742  63.8360167  55.5161524  25.0739145  62.4787378
  91.3694763 130.7284958  81.6643906  90.6902313 130.3487725  82.2217560
  91.9703484 131.1546034  82.2756386  97.2133446 141.0284139  79.9837208
  97.5193501 141.5411101  80.7318783  96.5981960 140.3990490  80.3601837
  93.4634495 144.9258568   0.8814279  93.9066315 145.4756650   1.5275995
  93.6639977 144.0297336   1.1515657 103.2774258   4.0394568  93.3541107
 104.0657425   4.5053089  93.6329746 102.6135159   4.2851231  93.9983940
 103.7497234  10.8112586  95.4630184 104.1112423  10.9858465  96.3319588
 103.1864738  11.5638077  95.2823162  76.4523363  16.6043985  96.9111729
  76.6391611  16.1487079  97.7319527  75.5724621  16.9618714  97.0305920
 112.7280617  14.8950028  35.4626060 111.9157982  14.7756600  35.9547567
 112.9635239  14.0139854  35.1717472  97.2321320   3.5583523  73.0884457
  97.7478218   4.3370125  73.2981825  97.6762581   3.1732744  72.3329973
  97.2276878  18.6769783  40.9145021  96.6072655  18.7212205  41.6420698
  97.1515942  17.7800262  40.5890512  74.0200186   4.5693630  84.1823101
  74.8837900   4.9579251  84.3207073  73.9004230   3.9799747  84.9269962
   0.6255560 130.0795121  62.7045870   0.0283557 130.3263206  63.4107542
   0.3341895 130.5958194  61.9530773  16.4163142  19.9404776  62.3650122
  17.2534018  19.8403394  62.8183270  16.0531741  19.0553701  62.3343229
   5.0021487  34.7458053  84.2306805   5.3211146  35.2084732  85.0055504
   4.1930419  34.3239117  84.5197868  90.9268951   4.1944039  80.3470802
  91.1758232   3.3763868  79.9168301  91.0631752   4.8670715  79.6798611
  10.5890399  19.7820020  98.0417442  11.2125331  19.1333842  97.7149582
  10.6102973  20.4837132  97.3910618 101.2987900 142.5917930  59.2038631
 101.6740799 143.1697191  58.5394859 100.4719257 143.0093331  59.4450808
  68.2725286  15.6995380   5.3379766  67.3874378  15.6118047   5.6917230
  68.4995270  14.8188686   5.0394384 101.8715000 122.9835434  28.7139074
 102.2968388 122.2008867  29.0642968 101.0124588 122.9985304  29.1358701
   6.1280470  34.2540503  80.9457397   6.3480120  33.7864709  80.1399994
   6.8896800  34.1276264  81.5115643  87.8190041  27.4089670  34.1039491
  86.8698502  27.2859788  34.0892315  87.9466343  28.3198071  33.8387823
  11.9873076 142.1070392  70.3929710  11.1370116 141.6680683  70.4162693
  12.3275977 141.9236893  69.5172930   2.9398852  37.3760343  79.5480728
   3.8873988  37.2988629  79.6598911   2.8116637  37.3984456  78.5997629
   9.7067862   2.1242200  88.7232876   8.8671141   2.0047969  88.2795334
  10.3395300   2.2330667  88.0133533  66.4293623  50.3982258  84.9018860
  65.8362532  50.7172680  84.2216873  66.7738152  49.5761251  84.5529747
  57.1371460  27.7475786  83.6890316  58.0856848  27.8570104  83.7563038
  56.8072224  27.9784393  84.5574188  85.2381611  33.2853484  57.8894281
  85.9115696  33.8392472  58.2843304  84.5169926  33.8848639  57.6977634
  93.9155960  37.0358920   9.2759744  94.6897125  36.6335177   9.6697465
  93.4709930  36.3145661   8.8307229  72.8601742  18.3398175  73.6760139
  72.5052071  17.5181103  74.0151691  72.2696495  19.0132678  74.0136194
 119.1663647 145.5530773  93.7586784 118.3060360 145.1334701  93.7558556
 119.3823910 145.6627668  92.8326511  74.9406433  44.5723391  93.2871723
  74.5925951  44.5279455  92.3965931  75.8685255  44.3570709  93.1927013
 105.4777241 133.5463268  75.7106400 104.7229099 134.0207214  75.3621483
 106.1843300 134.1919989  75.7169771  90.5776119  12.7801108 107.2216320
  90.5967903  13.5476005 107.7933216  90.6705952  12.0359778 107.8164864
  96.9270229  17.8483105  85.6791210  97.0835972  16.9501662  85.9707642
  97.7802086  18.2760465  85.7522488 110.3322029 134.2807049  46.8697071
 110.2459240 135.1791758  47.1883583 110.1151562 133.7362916  47.6265049
  93.1477356  11.6456389   2.8707925  93.6688232  11.9483685   3.6144677
  92.8434372  10.7758367   3.1297914  30.4374152 118.7949080   0.4499761
  29.5254355 118.5276646   0.5644838  30.8993941 117.9844255   0.2356759
   4.3651515 139.1749067  67.9232073   4.6630412 138.5298724  67.2817802
   3.6842375 139.6694333  67.4670935 108.0333138  24.1098857  61.3277054
 107.5213718  23.3469605  61.5961981 108.9115238  23.7646031  61.1672068
  94.4664478   5.0061297  79.9756432  94.2935944   4.6129844  79.1201925
  95.1832008   5.6202871  79.8165655  63.9978552  16.9726312  96.9563389
  63.9270878  17.7382970  97.5264072  64.8796701  17.0287585  96.5882587
 103.1005955  16.2811589  78.6214972 103.3591652  16.9140410  77.9515457
 102.5163555  15.6751847  78.1657696 112.4878788   0.1545867  97.6604366
 112.1617413   1.0523488  97.7228069 111.7640018  -0.3857494  97.9770851
  67.9680300  33.2920933 107.4457073  67.8197050  33.2289791 106.5021801
  68.9198351  33.2580876 107.5413418 106.4449120 129.7214050   2.6911870
 106.2484550 129.6659751   1.7560045 105.7470322 130.2692325   3.0504648
  87.4559879  36.1377549  82.4877644  87.8573227  36.4573383  81.6796684
  87.7136898  36.7768025  83.1521797 103.8742352  23.3547020  65.4053259
 103.7153244  23.5768557  64.4879246 104.1924572  24.1680360  65.7970572
  60.9337616 136.0567827  17.5579301  60.2148867 135.6540889  17.0708124
  60.8489084 136.9933761  17.3795358  94.3478775  14.8330200   0.7893030
  94.3129539  15.7550025   1.0441724  93.4720707  14.4980299   0.9816018
 117.6286221  19.1935968  34.2895746 116.7294312  18.9332068  34.4893146
 118.0766487  18.3721411  34.0877962  85.3717804  10.5690050  77.1491241
  85.5330849  10.1731789  76.2926579  84.9505329   9.8760921  77.6577091
 122.3312283  41.8289328   6.8688623 122.9818821  42.0793724   6.2129918
 122.7850819  41.1982250   7.4278299  92.9055500 140.5187906  94.2665100
  93.0972767 139.5914734  94.1266727  93.5260773 140.7924647  94.9419880
  87.0809460 140.8712829   1.6188756  86.4972782 140.1349784   1.4360658
  86.5079689 141.5467677   1.9817010  83.2763767 141.3216884  99.1619492
  83.7051773 140.4683782  99.2269421  83.0320072 141.3973094  98.2395649
 118.7202072 137.8323019  89.8218155 119.2886162 138.5717297  89.6064186
 118.9712048 137.1484286  89.2008877 118.8342571  16.0319901 101.4180851
 119.0152931  16.2857139 102.3231125 119.6949100  15.8371699 101.0472202
   6.0003405 129.3854363 102.0518875   5.2229720 129.9274583 101.9172001
   6.2781935 129.5832164 102.9462624  60.3586340 144.9057251  56.2352562
  59.6732521 145.2675627  55.6735134  61.0304976 144.5992554  55.6262302
  57.8858852  17.7988422  86.4253235  57.2982073  17.2049046  85.9583092
  57.5745773  18.6741519  86.1947727   0.8780032  34.3190265  77.8303957
   0.3909236  34.4396091  78.6455297   0.3719359  33.6690569  77.3428869
 100.5994797  26.8881822  22.4971620 100.7639980  26.1340261  23.0632154
 100.0378609  27.4613404  23.0190030  86.2997818   0.7792082  91.7738438
  86.6615677   1.6210845  91.4970970  86.7401886   0.1352978  91.2191772
  98.5077477 141.8504287  96.0320473  99.4298935 141.9010107  96.2836742
  98.0286121 142.0403389  96.8386364  77.6776409 139.3968565  87.1515846
  77.8800249 140.1936186  86.6612339  78.3753443 138.7859494  86.9144440
 100.8769417 142.7334050  85.8482933 101.5431499 143.3231873  86.2012100
 101.1844063 141.8575607  86.0819435 120.4266167 127.4472017  79.3716860
 121.0463905 127.7520270  78.7089634 120.1687527 126.5744252  79.0750313
  99.9845695  18.2010615  96.5491199  99.1894436  18.5819006  96.1763382
  99.9046803  18.3538985  97.4906540 113.4621525  44.5252609  65.5315351
 113.4422874  44.7377443  66.4646435 113.5864162  45.3687429  65.0964117
 119.7188950 143.7068627  84.2112637 120.5019474 144.2557008  84.2540169
 120.0559425 142.8135503  84.1432762  75.9403801   6.7417639 104.7372913
  75.5732727   7.6203454 104.6395111  75.2160788   6.1542076 104.5218849
  64.8130178  11.3935852  87.2585011  64.3515587  11.4266419  86.4205360
  65.0415039  12.3047793  87.4422169  88.6343002  42.3049593  62.5219440
  88.4330750  42.0860767  63.4317970  89.0176010  41.5049887  62.1622896
  70.5586004 135.3208167  91.7227745  70.9747887 136.1084003  91.3724422
  70.7632494 134.6376033  91.0843563  84.3015003  18.3207154  88.5113716
  84.0701103  17.7417660  87.7850723  83.5562992  18.9163494  88.5896397
  72.5646687  18.7579179  25.5548707  71.9579840  18.7510478  24.8145238
  73.2430363  19.3844342  25.3028241  74.9684143  50.5998945  86.4821911
  74.5991325  51.3493872  86.9492245  75.3440809  50.9753275  85.6858540
  97.1314240  19.9253738 104.1320038  96.6071033  20.1918054 103.3767986
  97.2228622  18.9772403 104.0375900  98.0906105 130.0785095  61.9422388
  97.2605324 130.4907353  62.1815681  98.7272263 130.7930536  61.9615698
   0.4466944   5.6428385 108.8853645   0.7298499   6.5512025 108.7808132
  -0.4907102   5.6604582 108.6925220 109.2340374  28.3059430  63.4538269
 110.0199604  28.4415174  63.9831400 109.0612793  29.1603494  63.0583811
 117.4781132  20.9737682  68.0222321 117.8504562  20.1124310  67.8333187
 117.0520020  20.8691525  68.8729477  92.2880173   4.6544099  68.9300966
  91.9324112   5.5305272  69.0790606  92.2266579   4.2229211  69.7823191
  85.4294872  13.9022577  45.5949068  84.8002434  13.9126968  44.8736763
  85.9252930  13.0932927  45.4685020  80.6943226   7.7595037  76.8987846
  80.6118679   7.3889720  76.0200691  79.7975397   7.9793519  77.1511364
  62.6065540   9.0763950  73.4108162  62.7167416   8.1436080  73.2264280
  62.9382849   9.5161074  72.6279736 114.3367958  11.0661447  15.9223596
 114.8800945  11.8529904  15.9663049 113.4577751  11.3924766  15.7298700
  90.8249760   1.1942784  69.0523577  91.1772346   1.2935233  68.1678820
  90.9562588   2.0503697  69.4599104  94.2541695   8.9210612 104.9481869
  94.0960026   8.5899311 105.8322525  94.9813843   9.5352435 105.0490093
  84.5649242 143.5419662 100.5199623  84.1833973 142.7616812 100.1176929
  85.4166794 143.6388660 100.0941086  78.7668753 129.4884283  67.9913092
  79.5157814 129.5391352  67.3973370  78.0071735 129.6564634  67.4337721
  39.9398738  32.2076797  78.0229521  40.6030017  32.1180940  78.7073994
  39.5685130  31.3300586  77.9329157  98.3168793   5.7640374  95.6570148
  98.0237579   5.2578133  94.8993587  99.2262554   5.9873843  95.4585552
 115.8093548 144.2345774  44.4879675 115.6176853 143.2971010  44.4628096
 115.7670212 144.4628628  45.4165840  65.3900814  32.5812268  56.1098480
  65.3492832  32.9971313  56.9710064  65.9462404  33.1613016  55.5898190
 120.2054691 128.4063763  55.5718708 121.0941792 128.2755596  55.9025002
 119.6586514 128.4288807  56.3571787  79.0394497   1.0121565  36.1515371
  79.1394711   0.2196309  36.6789190  78.2183647   1.3995914  36.4547674
 105.5955029 140.6366683  93.2206535 105.4877853 140.8023048  92.2840691
 105.6028652 141.5072186  93.6185455   8.2594710  21.0887527  46.9314623
   7.4142867  20.6863999  47.1314812   8.2860308  21.8743300  47.4777174
  94.0320492  17.0983732  51.5047550  93.9811134  17.9949045  51.8362236
  94.8730755  17.0587778  51.0494137  86.5780830  25.7121396   3.8894693
  85.6741142  25.6947517   4.2037526  86.7556190  26.6376734   3.7218515
  96.3267231  25.8866715  28.6475778  97.2216988  25.5534053  28.7122822
  96.1925697  26.0325098  27.7111125 102.8460693 134.5006509  75.9394979
 102.1073341 134.1588647  75.4358339 102.6830578 135.4422445  75.9948158
  92.4243450  23.1669545  16.6248647  93.1098843  23.3914018  17.2540704
  92.2521400  23.9838982  16.1567060 116.6104698  14.8984838  63.0275202
 116.6256523  14.9078631  62.0704842 117.4153805  14.4436014  63.2753849
  68.1260920  26.0125303  94.5792866  68.0693007  25.0604296  94.4985867
  67.3719311  26.2526822  95.1176167   8.6976271 138.6947037  32.5292444
   8.1642085 138.8435061  33.3099842   9.5955782 138.8574398  32.8180814
  90.9637356  17.4483287   0.2152387  91.3242340  17.2756457   1.0849801
  91.5043259  18.1580865  -0.1315173  83.2859612  31.1338973  72.5361347
  83.8623619  31.7305517  73.0136251  83.8764000  30.6205678  71.9846821
  94.5302105  27.5343490  83.4944057  94.9308109  26.8547034  82.9523468
  93.6703587  27.6796532  83.0997181 100.3966618   4.3187350   2.2366754
 100.4524040   3.4268090   2.5795881 100.5544376   4.8780581   2.9972593
  86.7033577 138.6861069  94.2927647  86.9724560 139.0995646  95.1130581
  86.8649769 137.7527864  94.4306850  88.2360744  26.4080834  38.0233979
  87.9862118  25.9685159  38.8361597  89.1256714  26.1009526  37.8486967
  87.6268482  16.4160216  89.9626541  87.6539516  17.3670030  89.8571396
  87.8314400  16.2716103  90.8865166 116.0988998 120.2875108  75.4717064
 115.5251789 119.7824020  74.8955584 115.5414677 120.9879846  75.8105946
  82.1435547 131.8981750  97.7198792  81.6507339 131.8305285  98.5376740
  82.7324104 132.6404745  97.8557968  89.8147011   6.6862518  95.8016205
  89.2299080   6.2058985  95.2155209  89.3865299   7.5332981  95.9257698
  97.6285648  27.2922087  43.2877779  97.0308590  27.9909730  43.5536814
  97.9368782  27.5575542  42.4213076  76.6593885 143.8414732  66.5706301
  76.9361877 144.7557435  66.6316509  76.4567184 143.5918982  67.4722195
  73.0989552   7.6555717  61.0049725  72.4807024   7.1558088  61.5381098
  73.5880327   8.1829995  61.6365147  89.1749191  26.6375542 104.4404507
  88.4009457  27.1754718 104.2735767  88.9052773  26.0396600 105.1376247
  88.7921715  28.2871509  91.3088036  89.1053867  29.1029644  90.9181976
  89.4236565  27.6269341  91.0232067 111.0673523  33.0564451  45.3992224
 110.7286549  33.0941534  44.5047426 112.0157242  32.9816628  45.2932692
  91.5944576  26.4583945  50.8869648  91.6901398  27.2603106  51.4007807
  91.4767361  26.7630553  49.9872112 114.7531223  15.3434777   2.6953355
 114.3974781  16.0713601   3.2051793 115.2769089  14.8450708   3.3226053
  93.5668087  37.4269533   1.7427388  93.7643623  38.2969260   1.3958207
  93.4998322  37.5559092   2.6888410  83.0614090 137.0355035 100.6067944
  82.1221352 137.1705074 100.7323837  83.1293583 136.1562187 100.2346706
  61.7573547 145.0577655  77.3429728  62.0903254 144.7867646  76.4874458
  62.5167322 145.4352205  77.7869368  79.2324018  22.4753213  68.7062120
  79.7096443  23.0132890  68.0744982  79.1647720  23.0254984  69.4865751
 110.0672913   3.3728385  56.9824505 109.4897270   4.1331494  57.0501518
 110.9507370   3.7380859  57.0309114 109.2752838 145.9403600  72.3194265
 110.0535774 145.4250822  72.1073532 109.5309639 146.4569610  73.0836105
  87.2658920  19.1313362  40.3161192  87.9801559  18.5960579  40.6618643
  86.9369793  18.6361551  39.5658898  92.9673386 129.2071087  51.3925266
  93.3434582 129.6473343  52.1547413  93.7142563 128.7876327  50.9654522
 112.9669189   3.2096478  75.0099134 112.5484276   2.6356837  74.3683004
 113.3753681   2.6116079  75.6358099  94.1868305 138.0233557  49.8548365
  95.0751019 137.7474237  49.6288347  94.3058300 138.8397516  50.3401899
  94.5844269  14.5553577  46.5665388  94.1869640  15.3491175  46.9245863
  93.8431740  14.0354645  46.2559223  84.4851494 138.6872966  43.5314941
  83.6992359 138.8561709  43.0118227  85.1943970 139.0909261  43.0312061
 107.1453857   4.6625853  55.7109118 107.6708698   4.9489522  54.9638557
 106.9774818   3.7350956  55.5441666   0.1986533  16.3146961  71.6451550
   0.9860640  16.4544606  71.1191559  -0.0174207  17.1818852  71.9879818
 117.9642010 118.9792509  38.3289862 118.7733269 119.3392963  37.9657888
 117.4160194 118.8030715  37.5643325 103.3313847  20.3300977  99.5468140
 102.4564552  20.6858063  99.7023869 103.5156250  20.5392480  98.6310959
 111.3031864   1.3929427  42.9517555 110.4296207   1.6863859  42.6929140
 111.8956852   1.8469539  42.3525476  68.8424158 139.2591316  81.8264580
  68.1003904 138.6571074  81.7699432  69.6119499 138.6900700  81.8412209
  77.3075151  63.6837101  69.2424393  76.7272520  64.2650080  68.7508917
  78.0155373  64.2522049  69.5453358  75.3538132  27.3130155  48.9041138
  76.1763191  27.7498770  49.1251755  75.6075716  26.6174197  48.2974958
  80.1515961 131.7402584  58.5348558  80.0804996 132.6701886  58.7502813
  80.0078201 131.2899191  59.3671751  99.5910931  33.6839962  68.0814075
  99.8775959  33.9471340  67.2068214 100.3830910  33.7304235  68.6169624
  76.2049532 143.1381814  96.0470867  77.0478821 143.2391689  95.6049347
  76.4215899 143.1419072  96.9794464  94.5070171  10.5999470  77.1449566
  94.0558815  10.7782447  76.3197756  95.0346088   9.8215467  76.9661617
  70.5280161 144.5927667 101.0126114  69.7137308 144.1961653 100.7029629
  71.1795807 144.3453170 100.3565121  81.3819218   4.6230277  23.0635881
  82.1139050   4.1010335  23.3921528  80.6023788   4.1293302  23.3181596
  96.9001579 118.0483694  39.6157622  97.8520298 118.1480546  39.6008396
  96.6792202 117.7272935  38.7415028  76.8579626   3.3981755   1.8294183
  77.3904228   3.7069106   1.0963479  75.9711885   3.6930296   1.6222421
  71.8009377   6.6823655  54.7255898  71.8755436   6.4636493  53.7967062
  71.2425852   5.9952301  55.0893497 112.7643108  33.1755042  92.7451611
 113.0369568  32.2583580  92.7179050 113.0395985  33.4816289  93.6093044
  97.1848011 144.1335259  87.1449184  97.6763916 144.3270198  86.3467121
  97.0272446 144.9897958  87.5426769 117.9067516 137.4440707  43.3721304
 118.5351372 137.9995061  42.9107618 117.0533657 137.7169062  43.0352020
  23.8719779 141.6914705  91.9696426  23.3865767 142.4928732  91.7737675
  24.2806273 141.4497633  91.1384964  83.8204002 139.0618146  74.5889187
  84.2055893 139.1666568  73.7189341  82.8822231 139.1944278  74.4530439
 108.9469624 114.3565006 104.2204189 108.5702038 113.8485450 104.9389362
 109.8627472 114.4810123 104.4695663 117.2637272 136.5238053  64.0883636
 117.4862576 136.0937304  64.9140406 118.0514526 137.0145065  63.8539886
  93.6452961   1.3901788  71.3647795  92.9209805   0.8873531  71.7372894
  93.2207489   2.0707980  70.8425331 117.7485180  15.7932854  71.5294409
 117.2937870  16.5153575  71.0957718 118.3694744  16.2209833  72.1191216
 114.4352722  16.3805997  44.9345160 115.3327179  16.2726295  44.6196175
 113.8943386  15.9634697  44.2639685  96.9024849  25.2933049  92.8334904
  96.5035820  25.5104041  91.9908810  96.6851425  26.0341167  93.3993435
  83.4891510 132.3863287  83.2564354  83.4450436 132.6696534  84.1696835
  82.7352619 132.8035648  82.8395462  88.0816269  22.3976231  87.2018242
  88.1173515  21.6055560  87.7380943  87.9531288  22.0768929  86.3091564
  89.8296928   8.9076883  56.3813877  90.0801373   9.4215828  55.6136465
  89.0287876   8.4555721  56.1161089  78.6200619  15.2137816  11.4121667
  79.4288826  14.8467886  11.7690317  78.8574457  16.1017096  11.1448423
 100.5398369  20.5842328  50.6651163  99.8732758  20.5117774  51.3482523
 101.3697720  20.6053042  51.1415529 121.0303211  19.2430985  35.6297064
 121.5509224  19.1709602  34.8297024 120.7992744  18.3400619  35.8473563
  85.9799862   9.7203165  41.6273117  86.1239719  10.6505370  41.4535618
  86.8516445   9.3286532  41.5722609  76.1080360  18.9434886  92.2580624
  76.3045406  19.8377788  92.5370979  75.3431654  18.6934566  92.7764130
 104.6422195 122.7199573  62.4056578 103.7805557 122.6017470  62.8053904
 104.5011234 123.3743519  61.7214870 113.7631989   8.2113600  82.8367043
 113.1143761   8.6123121  83.4150696 114.3341160   7.7161330  83.4241009
 109.4652081   1.7188263  89.0176868 109.9245834   1.2773275  89.7320271
 108.8630104   2.3202629  89.4557190   4.7361308   6.6245914  69.5032597
   4.5287257   5.7010996  69.3605042   5.5361300   6.6119564  70.0286770
 104.6690178  11.7100763  44.8765707 103.7591839  11.8468952  44.6125412
 104.6779060  10.8329666  45.2597523  93.6477947   7.8775096  35.7065916
  93.0294514   7.7172720  34.9936986  94.2843246   8.4902549  35.3383517
 117.5176907  21.8477535  35.3584790 118.2434654  21.6158533  35.9378839
 117.0526409  21.0234451  35.2154112  91.5690327  34.4703650 100.9842014
  91.7391300  33.9691162 100.1866817  90.6405735  34.6970296 100.9311867
  84.0446091  11.7670763  64.9390602  83.2270908  11.3091016  65.1343775
  83.7687492  12.6371193  64.6506834  84.7474575 135.2461059  71.7404413
  84.9253559 136.1324007  71.4256907  85.4451180 135.0717432  72.3721743
   3.0399924 141.4628763  76.6285467   2.3975688 141.0654367  77.2163916
   2.7741175 142.3804373  76.5683413   0.7886630   3.8992214  87.4234486
   0.8786707   3.0027437  87.1002483   1.5254527   4.0124425  88.0239201
 111.3789845  22.5177526  67.4959850 111.3316727  22.2502995  66.5781307
 110.6898403  23.1754351  67.5896454 122.0895672  17.4830008  25.6691217
 122.1949673  18.3183336  25.2137756 121.9315052  16.8477893  24.9707270
 100.3885174 127.2870285  59.9645948  99.8738670 128.0086465  59.6031570
 101.2518978 127.6667709  60.1277018  89.1067696 137.4810118  47.5612402
  88.9578819 138.4229542  47.4787331  89.5410633 137.3804648  48.4083033
  77.5660801 129.5751865  63.1355143  76.8938351 129.1407556  62.6105499
  77.0853233 129.9635942  63.8664341  96.1373901  11.2552071  56.4422941
  96.6801262  11.4791489  55.6863022  95.4845428  11.9539845  56.4838552
  74.9370193  11.5180886  53.5431910  74.4592810  11.5183699  52.7137327
  75.5683994  10.8039892  53.4556961  88.0243397  17.2697377  34.3179774
  88.4763622  17.2729325  35.1617146  88.2985783  18.0840945  33.8962531
  96.3695240 134.6617753  33.4396935  96.7408752 135.3798551  32.9271626
  95.6700420 134.3108327  32.8885102 109.1657257  52.5358200  39.3879247
 108.9407063  52.8799438  40.2523184 108.5118103  52.9157925  38.8011980
  74.0234900   8.0732471  51.6910839  73.6068106   8.6330539  51.0359287
  73.7990332   8.4775048  52.5291967  17.3215132  25.6098032  57.4710560
  17.8223448  25.4444385  56.6722679  17.5659495  26.4991093  57.7272177
 105.5296421 123.0892129  71.5494299 105.7959175 123.7095399  72.2280502
 106.2232304 123.1413145  70.8918190  96.3958740   7.9769456  89.9611664
  96.1777020   8.6542469  89.3209362  97.2358704   7.6276416  89.6634674
  92.2529221  17.9265070  96.6447449  91.3729477  18.0955422  96.9813442
  92.1202087  17.7229750  95.7188988  63.3616734   6.5951353  69.9457932
  64.2838764   6.4846539  69.7143412  62.9276800   5.8274603  69.5735645
 110.8627796  31.8539715  87.5714874 111.5662479  31.7203045  86.9362736
 110.9869003  32.7511811  87.8810692  33.0794120  14.4589424  78.7056398
  32.4587870  14.0681064  79.3207026  33.9374065  14.3060362  79.1014862
 117.9463863   1.0435797  52.7282238 117.4854755   1.4265011  51.9817877
 118.0333900   1.7647392  53.3515978 112.9325485   4.0994805  56.5147400
 113.7120914   4.1551813  55.9620619 113.2646751   4.1937751  57.4075079
  69.1246510  24.8862696  37.1873903  69.0186262  23.9509034  37.3608279
  69.8669529  24.9355483  36.5850735 124.5754719   1.8309495  65.2593708
 125.2143669   1.8494509  65.9719086 123.9132023   2.4731264  65.5147696
  97.0282650  17.5185418  61.3673306  97.8957844  17.8626239  61.5800571
  97.1048546  17.2192442  60.4613590 110.6617641 124.1992063  54.8724794
 109.8483753 123.7161488  54.7265720 111.1453724 123.6683316  55.5053473
  82.6761055  34.1439986  66.0656595  83.4658718  33.9036679  66.5501595
  81.9794369  34.1316938  66.7219639 110.1832294 136.0847993  43.4789181
 110.8185291 136.2635965  44.1722155 110.6529045 136.2789638  42.6677847
  93.4816837   2.3767708  81.1754322  93.8853359   3.2025719  80.9083080
  93.3294296   1.9081268  80.3548050  28.8723307  52.7531815 100.9931946
  28.3769446  53.5368967 101.2311363  29.3237811  52.9918146 100.1835823
  83.8259792  14.4574630  64.2253017  84.1381645  14.8355865  65.0473690
  83.9290428  15.1604807  63.5839176 108.8047981 135.7656867  56.1228228
 109.6512604 135.5384476  55.7380104 108.3940506 134.9222965  56.3131237
  77.9502296   6.7179793  93.1932259  78.7119150   6.5486956  93.7476730
  77.2841883   6.1068714  93.5081387  90.9738731  14.4103229  50.2612019
  91.3325405  15.1610708  49.7879553  90.1308918  14.7177804  50.5945015
  57.4599600  11.8051267  71.1240864  57.4621916  12.4846566  70.4499483
  58.3684301  11.7605948  71.4222908   3.6259966   5.3629786  81.8931389
   3.1621199   6.1307961  81.5592098   3.0521041   5.0143468  82.5752926
  92.3505211  11.0978639  15.0234675  92.6224804  11.2264776  15.9321642
  93.0837250  10.6357598  14.6171391  95.6262875 144.2797534 108.6113358
  96.2487125 143.5632879 108.4868336  94.7681522 143.8776452 108.4766483
  99.2387390  38.0860686  59.8150206  98.3965206  38.5407829  59.8268557
  99.1922665  37.4766326  60.5516768  98.8761520  18.0125666  80.3352642
  99.7954559  17.7459157  80.3325844  98.4066486  17.2502971  80.6740189
 121.3555241 131.5211625  78.2892370 122.0756340 131.5883393  77.6622105
 120.6298065 131.1569304  77.7823925 104.3216801 145.9389234   8.0854360
 103.5921955 145.5559496   8.5726873 104.2020416 146.8840321   8.1786386
 101.2969971  35.7525110  81.7236900 101.4034462  36.1305904  82.5965977
 101.7157841  36.3824320  81.1371422 110.1768398 125.1821751  84.3314934
 109.6250916 125.8140320  84.7925377 109.8030472 125.1349945  83.4515572
  78.3651018 141.3376171  68.7143278  79.1287041 141.9077472  68.6243629
  78.2367229 140.9694923  67.8401232 118.4051704   0.5666968  89.2248726
 117.8279495   0.3722928  89.9632835 119.2690468   0.2706124  89.5117378
  82.1356010  27.8018713  58.4048080  81.7180061  28.0631185  59.2255402
  81.5053844  28.0462122  57.7270412  84.9682522  17.0867610  20.7016110
  84.4952011  17.9033399  20.5414295  84.6581841  16.7945230  21.5587521
  83.1033039 138.8157208  84.0961170  82.2904301 139.2468221  83.8322544
  83.5330868 138.5894746  83.2712936  99.5059967 143.9250381 103.9134312
  99.4177914 144.7978813 103.5305500  99.2036438 144.0276582 104.8158073
  86.4743328  13.0751443   9.1519204  85.6959438  13.4353781   8.7269822
  86.6670513  13.6900675   9.8597089 101.4609528  55.4164267  79.7854328
 101.4055920  56.3718987  79.7697973 100.6702614  55.1232624  79.3325663
 106.7339993  38.6107421  24.6592180 106.2435913  39.3818808  24.3744794
 106.6535950  37.9937315  23.9318506 115.5629158 114.8283763 107.5892735
 115.3367710 115.5076093 106.9538784 115.6314945 114.0274949 107.0695496
 116.7365456 142.9156081  57.6202202 117.0689774 142.8419451  56.7256260
 115.8280277 142.6196639  57.5632477 124.6991825   6.5168524  45.4440928
 124.2680359   5.8692813  46.0017681 124.1863918   6.5162390  44.6358395
  65.7834053  19.3362021 107.1300602  65.8723211  19.2128372 108.0751038
  65.0820541  19.9810255 107.0376301 120.6041908 135.4425532  43.5623693
 120.3831673 135.2199168  44.4667053 120.1308727 136.2572760  43.3937550
  94.9007130   8.0330658   1.9857160  95.4009628   7.2170097   1.9917909
  94.0303612   7.7827758   2.2956697 118.6537457  45.8813667  73.0086040
 119.3418694  46.0919762  72.3774481 119.0022755  45.1406288  73.5046530
  96.7328453  21.0446262 108.6387539  97.3467922  21.0266852 107.9045963
  96.8244553  20.1845026 109.0486622 107.5742817 142.3054180  83.5653973
 108.1619263 141.7057661  84.0250874 107.1564007 141.7645235  82.8952885
  96.2507248   3.1576046  35.9439373  95.7531452   3.9188504  36.2425232
  95.9517002   3.0131096  35.0461960  68.8062906   5.3429401  22.8058553
  68.1933689   5.8410716  22.2650957  69.0181828   4.5720336  22.2795129
  67.6244259  24.1544056  58.4481287  68.5153008  24.0037203  58.1321096
  67.0633507  23.8795328  57.7229595  79.2819071  10.9519780  46.9340229
  80.1093864  10.6585252  46.5527153  79.5402622  11.5454650  47.6391888
  23.0084830 117.4214859  36.7771649  23.6786872 116.9993705  37.3146343
  22.2282534 117.4317236  37.3315716 123.1542397  11.3190794  53.8223743
 123.3494186  10.9072673  52.9806185 122.4627495  10.7756805  54.2002439
  98.6656284   0.5904870  27.7750182  99.2763519   0.3981388  28.4865308
  99.0108395   1.3870478  27.3718357   5.8601695  12.8233349   8.6140291
   5.5552416  13.1270337   7.7590314   5.2601557  12.1139395   8.8441793
 108.8311958  15.6230164  79.6838331 108.0831146  15.0260592  79.6995163
 108.4971523  16.4145911  79.2618656  16.0717898  20.8083272  94.4243240
  16.9223433  20.6686044  94.8406029  15.9956866  20.0956535  93.7898731
  92.3271561  21.2523055  46.7514133  91.5455532  21.6444159  46.3620806
  92.0250988  20.8944273  47.5862265  79.7604132 138.1663627  36.5022683
  80.2254868 137.7608503  37.2340441  80.4213047 138.7054057  36.0676575
  59.9386024  16.5503013  47.0080566  59.6432781  16.2044823  47.8503323
  60.8853006  16.4089358  47.0097589 107.0011520 133.9197035  54.3051672
 106.2436199 134.2674095  53.8345528 106.6660118 133.7100989  55.1769304
 113.4246254  20.9926629  57.6635075 113.8554668  21.2911558  58.4644461
 112.7754688  21.6700912  57.4740028 102.7893162  27.0864034  86.2415028
 102.4182892  26.7781210  87.0682621 102.0372105  27.4157739  85.7494926
  96.3785839  20.5907965  11.9218075  96.2664413  20.1075149  12.7403998
  96.3265514  21.5115499  12.1782076  89.4841385   9.4001621  50.9039116
  89.9367237   8.7383103  51.4267397  90.0433922  10.1748240  50.9619474
  99.0067768  38.2481527  47.1417809  98.4100437  37.9046559  46.4768410
  99.1760921  39.1498494  46.8688154  95.1737118 140.2659918  75.6539488
  95.9281635 140.5396975  76.1755896  94.4814682 140.8827055  75.8920574
 114.3708420 122.2551698  49.1845655 115.3202152 122.1863479  49.0836334
 114.2061138 121.9878597  50.0888014 103.7387371 116.7083139  87.2880745
 104.5976830 117.1212644  87.1991253 103.9314079 115.8108349  87.5594521
 110.2628040 112.8213639  71.1833906 110.1419067 113.6751599  71.5989017
 110.4093838 112.2187633  71.9125128  94.3291283   9.5481676  57.7655935
  93.6884785  10.0907779  58.2253504  94.9209309  10.1758277  57.3508215
 111.4347076 128.0394430  24.2527628 111.6945839 128.4332378  23.4199214
 112.1092510 128.3200640  24.8712063  79.7404766 131.5250868  71.7765665
  80.3379822 132.1417041  71.3534737  80.1190186 130.6641752  71.5983200
  78.7961483  13.8301837  55.1924944  78.1161547  14.1564691  54.6031046
  78.9118338  14.5298815  55.8353567 107.1522999  19.4309652  83.6239624
 107.1140385  18.4863675  83.7739754 107.3704147  19.8007071  84.4795036
 123.8325500 100.1443977  85.3273392 122.9694843  99.9235601  85.6774521
 124.1887856 100.7778902  85.9502411 105.6525326 134.9260683 109.6835232
 104.7577000 135.2516384 109.5860100 106.1651802 135.7003970 109.9155521
  35.7785821  14.1641474  23.7990403  35.1406336  13.8182569  23.1748486
  36.6262364  13.8784814  23.4582925 109.4672203  17.4371004  13.0181229
 108.8881302  17.1320260  12.3196876 108.8845253  17.5932002  13.7613153
  80.3170776  29.4504523  89.6095943  81.1190128  28.9319015  89.6746731
  79.6430731  28.9003134  90.0087070 111.5205288  14.3247795  30.8351684
 111.5916157  13.7189817  31.5728593 111.3780880  13.7608135  30.0749803
  87.1495533  19.3674767  72.8416586  86.4349461  19.1916573  72.2295666
  87.6961613  18.5826206  72.8035069  65.1992178  26.4899969  64.6250772
  64.5642233  25.7953024  64.4506693  65.0731611  27.1145701  63.9107561
  76.6458321   8.9031667  54.9087191  76.7153215   8.7493348  53.9665222
  77.5490999   9.0336889  55.1973534 115.9415722   9.9400258  76.7291403
 116.3603783  10.6900513  77.1513891 116.4853668   9.1918862  76.9757128
 110.1134682  42.1415234  71.3780642 109.4012547  41.9109869  71.9745970
 110.8926392  41.7498016  71.7726183  97.2191525  16.8474090  58.4877300
  97.4069977  16.0889125  57.9348946  96.4272499  17.2293842  58.1092787
   1.7378550 142.4530510  50.9740686   1.5348940 141.7177630  51.5523291
   2.4285918 142.1225033  50.3997374 101.5943336  18.6965394  89.7828865
 101.3541508  18.2626581  88.9641762 100.8018112  19.1632283  90.0480938
  55.0464916 122.1961207  87.8734112  55.8957529 121.7558927  87.8390598
  54.4810152 121.6701431  87.3078823 111.5575123  28.4333253  61.5251684
 111.3353157  28.0799413  62.3865509 112.1692085  29.1461873  61.7092514
 106.9481373 141.8423716  68.3450937 107.6204967 141.2940908  67.9406738
 106.5914345 142.3570631  67.6211548  79.0526438   4.4174063  70.2640438
  79.7433329   3.7803024  70.0816011  79.1863346   5.1080668  69.6149302
  89.6611404 144.9070058  22.4662852  88.8931084 145.4757787  22.4127984
  90.2836895 145.2862266  21.8459105 104.0221691 138.5216410  77.2621393
 103.7676334 138.2885081  76.3693380 103.2688999 138.9997716  77.6088333
  66.2593126   1.6340704  61.2235546  66.5511227   2.5172061  60.9973955
  65.6847763   1.7577973  61.9790888 108.4861851 143.9148284  32.7590123
 108.4563923 142.9657252  32.8796235 108.8981438 144.0347157  31.9033567
 104.0529251 143.8825265  37.7693701 104.7591496 143.2364536  37.7771187
 103.5175228 143.6612661  38.5313582  89.8888683 122.9624982  57.3566341
  89.4500637 123.5000629  56.6973066  90.1319408 123.5802359  58.0462313
 114.9472046 121.1560244  26.6874218 115.1836205 120.3457970  27.1389461
 114.2524147 120.8985562  26.0814500  89.8256969  23.7447429  78.8182592
  90.1207447  22.8913474  78.5006142  90.5809498  24.1000843  79.2868376
 110.8603287 141.1225534  92.8149986 110.7215786 140.5783803  92.0398521
 111.7768192 141.3926072  92.7571201 105.0018597   2.7703521  45.8603048
 105.9056854   3.0849150  45.8407164 104.4777870   3.5319000  45.6120777
 123.5022354   2.2302164  50.9733963 122.6456451   2.0220545  51.3464451
 124.1294003   1.9285506  51.6305828  63.3076572  15.7810736  29.8058200
  63.5105276  15.0868285  30.4327965  64.0373707  15.7652700  29.1865468
  70.6771231   2.9622439  79.2156649  71.6108847   2.8857306  79.4117880
  70.3526640   3.6079463  79.8433781 107.6511860  28.4348583  49.8995876
 107.7589607  28.7916660  49.0179396 107.6161861  27.4868870  49.7716951
  79.3585968 123.7772889  81.4624310  79.4593859 122.9943652  80.9210396
  78.9632368 123.4582395  82.2736740  82.2252560  28.6876774  32.0338988
  82.0525265  29.6262383  32.1080494  81.7194748  28.2941508  32.7449250
 112.5599766  19.2503202  82.8849125 111.9338608  18.8691211  83.5004711
 112.8737068  18.5063243  82.3708344  85.7655239  33.8804388   4.4382849
  85.1128578  33.5583591   5.0600010  86.1559677  34.6389651   4.8723608
 112.7384949  12.8416729  78.5450935 112.4854851  12.4417722  77.7130508
 112.0814800  13.5217643  78.6935520 107.0310307  16.3884950   8.7725401
 106.3267612  15.7695496   8.5798377 107.7808285  16.0602498   8.2762575
 113.1060982 141.6585273  88.3624268 112.1827221 141.8904174  88.2631969
 113.5797882 142.4583439  88.1340790  77.7747774  25.8221984 106.8837452
  77.7060413  26.5965438 107.4422264  78.5462904  25.9858227 106.3413239
  94.3836212  13.8270104  82.8812695  94.6972847  14.4033408  82.1843529
  93.7279987  14.3474388  83.3455276 119.1710186  22.9140353  80.1785469
 119.3773460  22.7717829  79.2547369 119.3166447  22.0623231  80.5903912
 122.7020741 141.9682533  72.4717712 122.5123787 141.0685403  72.2057581
 123.3011055 141.8776605  73.2128429  91.3386440  18.9647973  66.6642237
  90.5704689  19.1180325  66.1140728  91.3079262  18.0290067  66.8631840
 110.4096317  35.7844615  93.6304283 110.4436398  35.1270127  92.9355621
 110.9049702  36.5261316  93.2828712  95.0670433  35.6280327  88.1460285
  94.8659420  34.8635769  88.6858368  95.6107712  35.2843499  87.4371719
  97.4895382  18.6809385  72.4677181  96.6646099  18.6264312  72.9501629
  98.1452465  18.8796139  73.1361580 101.8894482 137.7858848  68.1856346
 102.2117233 138.6407597  68.4712219 102.2007561 137.1766938  68.8551188
  67.9620981   9.8678541  76.5043640  67.5210667   9.1252738  76.9170380
  67.9707432  10.5465388  77.1793079  53.9660025   6.5897578  41.4951372
  53.2115507   6.0163921  41.3599157  53.7543392   7.3838586  41.0043859
  93.2129955  11.4787447 100.3761768  94.1280746  11.2801361 100.1776123
  92.7534962  10.6497836 100.2423286  99.5412064  14.9127054  62.2418737
  99.9213696  14.0360653  62.2985172  98.9170933  14.9504054  62.9666376
  71.1494923   8.8132125  48.1961393  71.9836283   9.1405672  48.5327291
  70.5793476   9.5819211  48.1803322  24.2054396  10.8815753  73.7113380
  24.0859633  11.4068079  74.5025921  24.1264277  11.5092635  72.9930067
  43.4167414 136.0509641  35.2515650  43.5953646 135.7487638  36.1420727
  44.1207057 135.6728382  34.7245979  61.8655968  28.8356233  86.8085957
  61.3605738  29.6204448  86.5958977  62.1318960  28.4845734  85.9588432
 110.6405449  12.0405972  88.1434345 110.2501774  11.7290521  87.3268604
 111.0022354  11.2538707  88.5514450 111.4393330 143.6287931  36.7064381
 110.6716442 144.1759069  36.8724275 111.5029430 143.0650959  37.4774337
 103.5662270   3.6659563  42.4459457 104.3420029   3.9183670  41.9452572
 103.6979866   2.7379709  42.6401520  58.0431175   9.0897828  85.2041626
  57.1106291   8.9098388  85.0844955  58.3751965   8.3275497  85.6784630
  72.1257877  18.2543242  76.8672514  71.1951971  18.1012619  77.0309639
  72.1466780  18.7488317  76.0479450  74.9965715 135.3250510  28.7357497
  75.9097528 135.5409951  28.5467958  74.5962524 135.2029855  27.8748918
 121.6188717  16.7256641  28.0645204 121.8737793  17.0627069  27.2056508
 121.6827106  15.7745981  27.9771781 109.4782925 143.5037033  60.4626989
 109.6949673 143.3720226  59.5396900 108.9019775 144.2679525  60.4667664
 101.3555813  35.3511310  14.3972468 101.0943508  34.5347571  13.9711893
 101.2045383  36.0257864  13.7352383  96.5668011 126.3934583  47.9905844
  96.0635185 126.8714792  47.3314667  96.0129547 126.4070339  48.7711620
  50.6952286  12.4984431  24.2763948  50.8599710  13.3058953  24.7633362
  51.5588236  12.0974052  24.1784120  51.3771582  32.1405578  50.2896023
  52.0684671  32.3478651  49.6608400  50.7672167  32.8755069  50.2259302
  90.2406788   0.4466323  42.4379730  89.2988682   0.6064506  42.4986076
  90.3120518  -0.4000799  41.9972706 108.6757183  49.4737244  67.8037310
 109.2500782  50.2267981  67.9423809 107.8281021  49.8572254  67.5785398
 100.8170891  31.4111161  40.1255322  99.9498367  31.0207129  40.0173998
 101.4006424  30.8405638  39.6253729  64.9039125 141.1306996  17.2639418
  64.9597883 142.0575608  17.0314801  65.2925873 141.0789193  18.1371427
  69.6582031 143.3070899  52.4229574  69.8129988 142.5733999  51.8280029
  69.7072363 144.0828622  51.8643808  86.5031719  30.0620747  63.0021763
  86.3890743  30.6962848  62.2943687  85.8813286  30.3395176  63.6749077
  86.8996048 128.1068666  75.3366613  87.5354481 127.4729283  75.0049114
  86.1626053 128.0474109  74.7287750   0.2986270  30.9355283  58.3104992
   1.0018569  31.5514898  58.1048679   0.5541258  30.5516386  59.1492939
 114.0753651  27.2665572  63.5837698 114.1940308  28.1977963  63.7706995
 113.8119507  26.8857694  64.4215298  79.8439503 144.2064636   9.6725595
  79.0712547 143.6647958   9.5120239  79.4927311 145.0313590  10.0078559
  84.9421215   6.0878807  31.2118959  85.1371574   5.1791263  30.9830761
  84.1325474   6.0384214  31.7202115  97.9844666 140.0715072  66.0458708
  97.7329254 140.6710423  66.7483759  98.0188179 139.2118604  66.4654636
  95.9376812  10.7866561  36.3862538  96.1579227  10.4358864  37.2492051
  96.0345745  10.0417054  35.7930493  66.2811995 136.5656770  23.2857060
  66.4661407 136.0550303  24.0739131  66.0534048 137.4361486  23.6122346
  92.2324944  18.6359775  73.7543583  91.4844608  18.6195755  74.3513536
  91.9458389  18.1254315  72.9971218  67.4671841  49.8873281  53.7911320
  67.1760559  50.4421186  54.5147943  67.3174334  48.9935493  54.0992928
   2.0227461  37.1890330  28.1535316   2.9108077  37.3156667  27.8195381
   2.1040564  36.4745045  28.7852478 116.6049194  19.3475330  49.5606327
 117.3434258  18.7964845  49.8198414 116.7095852  20.1467156  50.0769520
 109.6129513  11.7976654   8.9494652 109.2349052  12.5585008   9.3904161
 108.9593697  11.5507889   8.2951623  99.8137188  33.3345342  42.4887896
 100.0586891  32.5236344  42.0430756  99.3794250  33.8567758  41.8143368
  85.6871128  19.6141100  24.1533828  84.7971058  19.3556476  24.3927884
  85.6128788  19.9191809  23.2491422 107.9602528  19.7291565  57.1854973
 108.8237286  19.5282948  56.8245268 107.5077057  20.1921320  56.4804554
  71.9934464  35.0992131  37.0149922  72.0521212  35.1447701  37.9693055
  71.0622978  34.9649906  36.8384147 122.2540283  20.3974271  44.2146206
 121.3770103  20.7786536  44.1727924 122.6416397  20.5941939  43.3618212
  64.9397373  10.3934920  37.7819848  65.5778313  10.6199336  37.1053791
  65.4436588  10.3926921  38.5957980  77.9875278  28.9886141  61.3144064
  77.7208233  29.1695547  62.2157192  78.5844088  28.2437563  61.3861990
 105.4231071  30.5848551  33.4136510 105.8806229  31.1733246  32.8131413
 105.9132481  29.7641349  33.3645988  68.8229990  14.1195846  64.6668768
  68.0116796  13.7070179  64.3705893  69.4375420  13.9848471  63.9454794
 100.8343124 139.9323762  29.4810843 100.9857273 139.5648456  28.6103225
 101.3832951 139.4057960  30.0620914   8.1048136 140.7003868  60.8839226
   7.5144129 141.0047902  60.1947165   7.6769476 140.9627623  61.6989803
  75.5763626 139.1125084  21.9618225  75.3102446 138.5766543  21.2146449
  76.2397194 138.5871048  22.4091983  91.7153645  19.6994054  32.9412198
  92.6339912  19.9249077  32.7945518  91.5535545  18.9604461  32.3547149
  92.6177979 136.1540253 100.4801437  91.7938900 135.9982974 100.9418234
  92.3526382 136.4843912  99.6217855  95.2507496  13.7913489  20.3819442
  95.8618641  13.1423056  20.7305336  94.3915558  13.4989929  20.6861734
  76.9501305  29.9330258  54.5879889  77.3107529  30.7272744  54.1938448
  77.6070547  29.2592120  54.4128942 111.0800743  19.5684910  57.0042610
 111.1212635  18.6269164  57.1715164 111.5586281  19.9624717  57.7336454
 105.8036804 142.5253005  12.7620935 105.1599598 142.2299797  12.1181667
 106.5685844 141.9709311  12.6077211 102.7022266  26.8070388  29.2859793
 102.3919964  26.0695720  29.8114634 103.5628796  27.0150089  29.6496630
   1.6670638  34.5461631   8.2679796   1.1092311  35.1296735   7.7536136
   2.4728709  34.4728065   7.7565801  99.5542908  45.6720638  17.8573167
  99.7297668  44.7310925  17.8613412  99.2885017  45.8699799  18.7553227
 116.9144058 111.5338893   2.9038349 116.8333626 111.3485188   3.8394102
 116.0456848 111.8408580   2.6443529 109.0797043 137.6546002  40.0836992
 109.2869377 138.2532818  39.3661547 108.3999920 138.1063587  40.5838299
  92.7865219  20.6395173  18.0472004  91.9011688  20.3677654  18.2891369
  92.6985931  21.5643692  17.8166628  98.8842487  16.4990306  94.1145039
  98.0017757  16.7179239  94.4137669  99.3720722  17.3194110  94.1868591
  86.7961121 145.0264663  31.1632347  87.5028801 144.7942565  30.5609131
  86.0745907 144.4459843  30.9210110  78.9565086  34.8465085  34.1338515
  79.3151045  35.3420949  33.3976197  79.6766567  34.2828941  34.4166160
  72.7071095   6.2741607  12.5885081  73.2002878   5.5093855  12.8853714
  73.2434988   7.0219934  12.8516936 117.0572472 131.8824835  60.1099777
 117.3885536 132.1347911  60.9718418 116.1254597 131.7149753  60.2511978
  75.9371376 127.5545997  42.3509598  75.1209450 127.6059634  42.8483820
  76.3344240 128.4195037  42.4526358  94.2060280   0.5700665  24.2016459
  94.4663048   1.3465807  24.6971369  94.4161129  -0.1639729  24.7789526
   7.2746401 143.8876186  39.5601010   6.6284972 144.4266317  39.1038179
   6.7608100 143.3736519  40.1830339  71.0057592   1.0626963  52.2938204
  71.5794611   1.4512746  52.9542017  71.5300131   0.3640448  51.9023132
 119.9105453 143.5947890  69.2931175 120.0269318 143.4636776  70.2341270
 118.9630795 143.6649127  69.1764355  80.1296711 138.1929196  17.2094560
  79.7116184 137.7802629  16.4536965  80.5251884 137.4662174  17.6908171
  89.0618706  22.1648550  37.4804902  89.5612812  22.1261787  36.6648173
  88.2823372  22.6747417  37.2600961  17.3242026   8.4381258  36.0088229
  17.8545981   8.7413496  36.7456818  17.8674536   7.7780056  35.5782986
 109.1953468   9.6257222  41.8302441 108.5436249   9.0273958  42.1956158
 108.6934948  10.3999805  41.5755033  72.7665281  22.6484275  50.4790592
  72.8438282  22.7818489  49.5343590  71.8298197  22.5179458  50.6266642
  73.5482359  15.4739392  32.1863008  73.3492184  14.6838236  31.6839671
  74.4330168  15.7154405  31.9123006  74.0300369 143.4078533   0.7464527
  73.7515259 142.5016553   0.8786158  74.9673319 143.4010805   0.9405350
   6.8782836  18.2365847  52.6753664   6.5848284  18.6045563  51.8418741
   7.5474482  18.8472676  52.9844379  61.8165398  28.9847016  56.6291618
  60.9159756  28.7430549  56.8455601  62.3079491  28.1664205  56.7010355
  66.8315029   9.4951570   3.7615705  66.5769911  10.3358090   4.1420442
  66.0933399   8.9148211   3.9474678  86.6623402  24.7640991  45.8487272
  87.3751259  24.6619797  46.4793921  85.8979225  24.3925285  46.2889957
  72.8414297  13.2312584  40.2963591  72.7535009  13.8141394  39.5422053
  73.4784698  13.6667800  40.8626938  98.1569195 130.5271799  47.7261400
  97.6692486 130.0861139  47.0305300  97.4921417 130.7595296  48.3744526
  93.8710690   3.5305667  46.5285063  93.7275314   4.4504869  46.7507172
  92.9990768   3.1958878  46.3190699  77.7043009  43.0250406  19.7826385
  78.0111742  42.5730562  20.5686212  77.9321337  42.4360704  19.0633059
 110.9882736   0.1267760  35.1803994 110.6143570  -0.6372189  35.6194043
 110.6184006   0.8761204  35.6472087 103.3647728  13.4103239  51.7284822
 102.5665665  13.8805056  51.9693708 103.8168716  13.2644856  52.5594854
  86.1651325  28.3320045  91.9961739  85.3114414  28.7466931  91.8717098
  86.7376137  29.0436482  92.2826290  91.2023830 146.0540564  20.4455113
  91.1944580 146.4430305  19.5709443  91.3142967 146.7978935  21.0374689
 102.2376060  28.4011436  39.5823169 102.4010468  29.2134666  39.1031003
 103.1015682  28.1261039  39.8891616  57.6185560   4.2078525  51.8438673
  57.1008253   4.5044339  52.5923538  58.4544039   3.9364755  52.2232580
  95.9546947 134.1538150  69.4047689  96.6862679 133.6042089  69.6857834
  95.4350853 133.5875578  68.8341665  99.1606808   3.5630149  42.3337460
  99.4741249   3.8058728  43.2049561  98.8803959   4.3897018  41.9409895
  95.0755024  19.9907792  82.4689102  94.2152691  20.0885606  82.0606613
  94.8855972  19.7013760  83.3613300  88.9545727   8.4038913  16.2874734
  89.2778206   7.6427776  15.8053470  89.1573048   9.1492802  15.7222080
 120.8600330 146.7909046  69.2326593 121.7733860 146.5120581  69.2978621
 120.3769016 145.9864444  69.0438080  77.9835272   5.7068074  43.9173651
  78.0771494   5.9952933  44.8252439  78.6345768   5.0121278  43.8184452
  82.1637344 144.0023149  47.2950363  81.7870522 143.1344379  47.4403858
  82.8468704 144.0814819  47.9608393  84.5609379 117.6770587  39.0794897
  85.0828648 117.3288293  38.3566046  83.7655640 117.1445126  39.0789080
  99.1981220 101.5764303  82.8262138  98.5328007 101.7474098  82.1596241
  99.8912811 101.1103363  82.3587513 118.4490967  44.5916605  49.1263819
 119.2153168  45.0604677  49.4570732 117.7615738  45.2562952  49.0838814
 106.6982174  35.8585405  56.2393808 107.0433903  34.9826241  56.0665751
 106.8023586  36.3249397  55.4100084  28.9918643 142.4786801  33.8071227
  28.4769278 143.0099816  33.1998420  28.5446387 141.6325412  33.8235855
  95.6787968 119.9975176  53.6661911  96.3305378 120.2256555  53.0033016
  96.1648464 120.0001115  54.4908047 106.7927551 114.5498914  68.5007286
 105.9701061 114.0988750  68.6906385 107.1646023 114.0687198  67.7615118
 116.5447235  25.5155444 106.3162496 116.6942406  24.9759936 105.5398726
 116.6960049  24.9229050 107.0525401  91.4968395  18.9050674  52.0082760
  91.4234257  17.9620636  51.8613625  91.3718033  19.0109932  52.9513454
 114.3675518  42.9049158  27.0977330 114.0088081  43.6921310  26.6880751
 114.5073509  43.1529617  28.0116034  82.1261501   4.3474025 108.5266008
  82.3942471   4.4158340 109.4429379  82.9485607   4.3291295 108.0371600
 106.9735527   1.7101303  38.6400437 107.3145676   1.5479337  39.5196056
 106.2707996   1.0690024  38.5336256 110.8654308  29.2704821  24.1564608
 111.3537884  29.8507500  24.7404385 110.7405663  29.7837973  23.3582449
  65.0294399  17.0040631  62.7581644  65.9856319  16.9971728  62.8015232
  64.8221016  17.7193546  62.1568298 107.2455883  12.4319828  81.6066265
 108.1965256  12.4966860  81.6948032 106.9438839  12.1472692  82.4692631
  40.8495569   7.7752942  38.7415528  40.0761414   8.3060306  38.5508275
  41.4361858   7.9323012  38.0016565 122.3572826  10.2596521  42.3295069
 121.7479897  10.2760756  41.5914583 122.2164059   9.4052643  42.7374315
  80.2492619 128.8118655  14.5816314  81.1996365 128.6979646  14.5742452
  80.0403786 129.1385622  13.7064910 117.5716877  26.6843414  44.9915028
 116.8143654  26.7989039  45.5655766 118.3196545  26.9521332  45.5254269
  82.8332520 145.0635710  24.2573643  83.0256367 145.3204312  23.3555651
  83.3644676 144.2805285  24.4018817  82.8554535  21.7564154  32.0638633
  82.3359203  20.9637594  31.9296527  83.0870914  21.7366028  32.9924011
  85.2738476 135.0888915  59.2091036  85.1089191 134.2813916  59.6959066
  86.2132549 135.2420659  59.3104982  59.0454626  21.7804480  24.6639228
  58.6412859  21.7699480  23.7963057  58.3230114  21.6049981  25.2668428
   5.9183245  40.8297539  19.6538556   6.4242678  41.2345934  20.3583884
   6.5089446  40.1757431  19.2801237  89.5975208  48.0539751  24.9881363
  89.1589737  48.6119699  24.3458390  90.3783226  47.7354479  24.5352340
  97.4249172  11.7178559  44.6923923  98.1433582  11.9253445  44.0948820
  96.8296909  11.1775601  44.1727686  82.4539471   4.7177145  73.0543089
  82.5941944   4.2336074  72.2405481  82.6509380   5.6269461  72.8290844
  80.3751755   1.4234498  46.9503975  81.2770653   1.4916997  47.2637129
  80.4577732   1.1145561  46.0481834  73.7273788  15.4306424  10.4318833
  72.8847408  15.7597804  10.7447100  74.0270472  16.0930443   9.8092628
   6.7559271 130.4990108  66.2785721   6.1943274 129.7870166  66.5850115
   6.3389807 131.2934441  66.6121435 103.6897850  48.1376696  41.9857931
 103.4084988  48.6620378  41.2360287 103.8817692  47.2756338  41.6166544
  63.8333321   5.5639154  40.0722980  63.2516813   6.1849016  40.5108070
  63.2472181   4.8930621  39.7220659  85.2231407 142.6832510   1.5589263
  84.5062351 143.1802393   1.1648741  85.0789165 142.7616064   2.5019485
 102.6298714 140.4034753  72.9968452 102.6895714 141.2769015  73.3838749
 103.5392189 140.1463027  72.8445959  69.8536730  23.0323792  22.8284693
  69.1895056  23.1410527  22.1478057  69.5044279  22.3455787  23.3964157
  72.0287514 144.4148647  28.7381864  71.6452551 144.8433120  29.5034289
  71.2867212 144.2591538  28.1539106  94.8189831   6.8569833  25.8679652
  95.1548195   6.2977111  25.1674914  95.6020737   7.2288561  26.2737989
 104.9860191  50.7989502  42.2054768 105.5092430  50.0419903  41.9418859
 105.1974392  50.9258842  43.1303692 111.3974285 142.5501851  56.5425491
 111.4284420 143.4795315  56.3154268 111.4408875 142.0963533  55.7008982
 118.8368130  35.9664202  69.5559025 119.1386318  35.5490208  70.3626919
 118.7715149  35.2493620  68.9251900  70.6886196  36.9832778  46.1932230
  71.4253998  37.4952579  45.8596611  70.0223446  37.0485926  45.5090904
  75.0459003 138.8659120   8.8051522  74.7312641 138.5337044   7.9643947
  75.2515793 138.0800087   9.3113977  96.8013859  46.5781021  23.4671187
  97.0775986  46.6501808  22.5534773  96.7268562  45.6363297  23.6212182
 115.3403664  -0.0565433  31.8850398 115.9026718   0.6119969  32.2763252
 114.4858170   0.0798386  32.2941494  99.6791458 128.9612920  39.9942636
  99.4479275 128.0438442  40.1393843  99.9260426 129.0028197  39.0703869
 112.6391220   7.8788173 106.8567371 112.3112583   8.1261462 105.9921169
 111.8728447   7.5311953 107.3130322  76.6668653  37.6496625  55.7278156
  76.8610239  36.7190742  55.8397961  76.1309576  37.8756905  56.4880466
  89.9175072  28.4375644  56.3243771  90.5981731  27.8107810  56.5694761
  90.3475571  29.0287066  55.7064390 108.8901711  43.7218189  65.4552937
 108.1411457  43.4309340  65.9754658 109.1903305  44.5187330  65.8924055
 103.1310749  50.7445765  47.6561022 103.8343239  50.2343178  47.2544765
 102.3855114  50.1448870  47.6833439  88.6164951  13.6642802  43.2131433
  89.0004730  14.1720808  42.4983501  88.8869953  12.7628064  43.0387688
  81.3575840 142.6411582  37.4021578  82.2804451 142.8952182  37.4025321
  81.0075569 143.0114252  36.5918398 120.0079060  16.9058836  17.7512503
 120.1146889  17.1483505  18.6710525 120.8424950  17.1378517  17.3439574
   3.2119399  54.7990990  56.0178089   3.6736041  54.0637350  56.4207172
   3.5734587  55.5737638  56.4484167  91.8989468 143.9535738  71.3972521
  92.4880981 144.4713276  71.9459391  91.2574577 144.5852614  71.0721445
 109.7043228 132.2741897  54.4107723 109.3644714 131.3908655  54.2676926
 109.1576195 132.6306529  55.1109695   1.7256861  10.6979609  32.8468275
   1.4862090  11.1346793  33.6642385   2.0854025   9.8547632  33.1222391
  97.5339222  16.3906038  70.6631708  97.8111076  17.0770395  71.2699699
  98.1650639  15.6835032  70.7969427  71.9812775   5.5493408  35.7993507
  72.2858715   4.9715820  35.0995994  71.6670513   6.3309556  35.3448486
  10.4178267 137.6068355  30.5663800   9.7503882 138.1446398  30.9924364
  10.3964263 136.7767555  31.0425544  88.6482525  11.0886800  36.5736079
  88.3401680  10.9612727  37.4708724  87.8775597  11.3976157  36.0973454
  89.9453163  19.7777736  43.6057472  90.3346252  19.0927565  44.1492701
  90.6687546  20.3765154  43.4203625  87.7628136  28.3619809  20.8052778
  87.2485447  28.8219404  20.1418066  88.2877731  27.7342248  20.3087187
  79.3064070  18.5219324  34.9709702  79.6494532  19.4026458  35.1222777
  78.9978600  18.2341897  35.8301759 108.9033604   1.6062872  36.5618110
 108.8918686   2.4306005  36.0753894 108.1471348   1.6623162  37.1459484
  93.1387424  29.8710990  30.6599140  93.0588818  29.0647197  30.1503992
  94.0822220  30.0111246  30.7403755  76.1341667  10.3326154  69.7235441
  75.7108498  11.1497247  69.9869156  75.5499935   9.6458143  70.0449133
  97.4105072  15.6408238  43.4803057  97.5909519  15.6938410  42.5417662
  96.5034580  15.9340942  43.5667562 112.1487427  47.7827454  25.9295392
 113.0513954  47.8642035  25.6216407 112.1906853  48.0123186  26.8578553
  64.6557426  33.4227109  49.8401690  64.7680855  34.1025996  50.5045223
  65.3196001  33.6211419  49.1797495 105.7125473  32.8784776  46.7418003
 104.7609329  32.9634285  46.8005943 105.8909130  32.8277040  45.8027411
  82.6075935   8.6517388   0.6359380  82.1716881   9.4035953   0.2347849
  82.0841026   7.8980392   0.3636837   7.8013163  36.2317467  58.2517481
   8.0133753  36.9289827  58.8723326   6.8685656  36.0654330  58.3879042
   4.7926074 125.3808255  47.5202417   4.5318347 125.7279200  48.3733273
   4.0483504 125.5675502  46.9480133  88.2001019 137.2189713   3.7683409
  88.6338043 136.8320228   3.0078113  88.8649178 137.7846534   4.1610968
 106.0949421   5.8456653  30.1319361 106.0001469   6.7404610  29.8054624
 106.3961887   5.9506404  31.0344100 119.7628975 145.7049175  35.5856252
 119.5361233 144.9707662  36.1564374 119.1353035 145.6507000  34.8649216
   1.2683898 139.8792095   6.2541866   1.8578845 140.5079175   6.6706729
   0.4368144 139.9887432   6.7153859 102.3109150  56.4342976  25.8419347
 101.6847706  55.8336782  26.2461972 102.9654312  56.5916872  26.5224242
  81.6548347  24.1159248  34.4137859  81.7271805  24.2555118  35.3579855
  80.8131886  24.5060253  34.1777921 112.3286915  39.8732877  60.7800293
 112.1359062  39.0044975  60.4275084 111.5327454  40.1234150  61.2492180
  80.6435871   3.0050978  58.5918427  79.7566128   3.2740822  58.3527756
  80.7744598   2.1757653  58.1321573   3.6046153   3.8975063  39.0674186
   2.8134852   3.3608598  39.0189838   4.3011027   3.3273315  38.7417793
  52.6151228  40.7926369  30.5380678  53.5502195  40.8718538  30.3495193
  52.1980238  41.4221764  29.9499035 108.0906010  15.3719127  54.5771790
 108.8998890  15.8647919  54.4416714 107.5642300  15.5572450  53.7994862
   5.4309588   3.5813349  23.3340526   6.2531787   3.0944988  23.3903503
   5.6502467   4.4588357  23.6473227  92.8398609  29.5035124  59.0878010
  93.0085564  28.6196852  58.7612677  91.9760990  29.7262955  58.7406588
  80.6054211   0.7727581  44.2371988  80.1321983   0.1777941  43.6555529
  81.4898968   0.8104779  43.8731766  10.1873427   8.7906253  51.8779612
   9.9512511   9.5030439  52.4720621   9.5399886   8.8407910  51.1746550
  91.9238472 139.5292700   6.5808767  92.2594261 138.7214298   6.9694787
  92.6943588 140.0901181   6.4914471  90.8600998  11.8583703  50.7028532
  91.7954826  11.7312491  50.8613682  90.7886219  12.7655017  50.4058075
   3.8406973  23.6326194  50.5850220   3.9609461  24.4380736  51.0880280
   2.9119998  23.4237552  50.6856966  89.6637726 136.1165232  17.9577315
  89.8149300 137.0133311  17.6592052  89.8141479 136.1500091  18.9024508
  92.3537636  34.6958041  21.5594769  92.5691223  34.1256332  22.2975516
  91.4121723  34.5787907  21.4332128  81.9131947   7.4099761  72.2410250
  82.7289009   7.5500900  71.7601728  81.2941170   8.0243188  71.8466234
  88.8595009  34.8533130  23.0094743  88.1822968  35.5172420  23.1391644
  88.9582348  34.7943330  22.0592093 107.0237827 139.4349063  49.9742699
 107.1301079 139.3660499  49.0254879 107.3746777 140.2983011  50.1925707
  98.5029602  26.6984797  63.4357738  98.6735344  27.5891089  63.7422323
  99.1998100  26.5254140  62.8027773 101.4955521  18.4554029  38.7218857
 100.5609322  18.6242282  38.6026812 101.7768478  18.0691016  37.8925037
  95.3332615  19.0236437  30.3550029  96.0921001  19.5520437  30.1076365
  95.5366230  18.1461322  30.0311971 103.6347294  17.0741844  49.1027784
 103.0496311  16.3580441  49.3498421 104.4394302  16.9060230  49.5930958
 122.2042179  28.7578917  82.6638985 122.1621132  29.4096231  81.9641113
 122.0910835  29.2632079  83.4689426  55.5956221   1.3215233  17.2831142
  55.1623678   1.4006254  16.4332521  55.6184435   0.3799050  17.4536002
  96.2853527  62.2769880  31.1324024  96.6112232  61.6721439  30.4659176
  95.3324699  62.2092438  31.0719633  60.3676605  33.4134603  94.9350071
  61.0131359  33.8838673  94.4074535  60.6593657  32.5020385  94.9137878
  82.8310394 109.8339004 105.9701520  83.4457874 109.4416232 106.5901818
  83.0415630 110.7675857 105.9823930 102.5640678 138.0473656  34.1363120
 101.8126202 137.9800446  34.7253990 102.3334599 138.7544609  33.5337615
 120.3130913 135.1715262  38.5422897 120.4918385 134.6629710  39.3332720
 120.9278774 134.8291642  37.8933954 116.9936371  35.2687049  33.1750560
 117.4960136  35.9593868  32.7428389 117.5267506  35.0219297  33.9307857
  66.3712454   5.6400335  10.3463912  66.0992146   5.2739000  11.1879241
  65.8148670   6.4100498  10.2291250 115.1357174 140.8480270  48.5345602
 115.0629330 140.3234000  49.3318701 115.8607483 141.4483602  48.7082243
  70.3304672  23.4285784  89.6599674  71.0651398  23.9628625  89.9616814
  70.6482840  22.5277734  89.7213936  90.0245857  13.5392320  46.8314981
  89.6059418  14.3422616  46.5214872  89.3135071  12.8999603  46.8753719
  84.2298794 145.7919646  82.1012688  83.3785915 145.3608406  82.0259571
  84.6735764 145.3240510  82.8086758 111.3289738  32.8744578  62.6022959
 112.2041893  32.9458451  62.9832745 111.4820480  32.5829864  61.7034912
 122.7278805  29.2422414  32.8525496 122.8325367  28.3029747  32.7007031
 123.2510567  29.4181943  33.6345696  72.1879292 140.5234278   9.8911923
  71.3190937 140.9071715   9.7724533  72.0234251 139.5865107   9.9977577
  75.2111292  10.6393743  24.5705748  74.9351501  11.4395797  24.1236544
  74.4904613  10.4376423  25.1673770  90.9232426  25.1101065  98.2711315
  90.4085064  24.3154716  98.1302929  91.4579487  25.1922154  97.4814606
 111.9473076  46.2740231  59.4674206 112.6876545  46.6060257  58.9595938
 112.0751286  45.3255606  59.4851494   6.3967352  26.4964724  14.0057755
   7.0486861  26.6432405  13.3204639   6.8710452  26.6462183  14.8236001
 120.2195549  51.4002371  11.9722843 121.1344814  51.3500929  12.2491026
 119.9968910  50.5047512  11.7178011 115.4422760 138.8081790  18.8859284
 115.7247353 137.8938753  18.9082479 114.4895172 138.7626357  18.8057911
   3.8115721   1.2987348   9.3738741   4.3253832   1.0935462  10.1549768
   2.9247885   1.4465365   9.7025228  72.1299171  46.9934702  39.7467852
  71.2510443  47.1507168  40.0918818  72.0707321  47.2339201  38.8221693
  55.9069252 138.4937013   9.6556509  55.9235573 139.3502755   9.2287594
  55.1094055 138.0781353   9.3277758  98.1290913  22.9631138  38.9399481
  98.8771534  23.5168982  39.1634607  98.0487823  22.3595262  39.6785045
  88.7632370  18.4664130 105.1781916  89.1772175  19.0581954 104.5499816
  88.9585400  17.5900853 104.8463210  26.2823420  15.9399199  24.4900608
  25.8405142  15.7130265  23.6718059  25.7066660  15.6003046  25.1752567
   3.9127379 127.2767265   8.5619599   3.0877715 127.2101803   9.0428329
   3.6500483 127.3457713   7.6441032 112.7855778 123.2836241  31.6981387
 112.1781731 123.2840199  30.9583449 113.4327888 123.9532942  31.4770079
 121.6732311 144.6043176  25.0855708 122.1979904 145.2629657  24.6305490
 120.7894516 144.9715994  25.1018310  24.0622550 129.7666533  44.8766470
  23.3561545 130.1619751  45.3879023  23.6139136 129.2844231  44.1819000
 103.6556339 119.4122834  31.6144371 104.5533276 119.1037411  31.4912248
 103.5334206 119.4206233  32.5637674 115.1738262 144.8967668  27.9893351
 116.0947609 144.7810038  28.2232285 114.6908760 144.5012192  28.7149572
 120.3520489  11.4846456  35.3599072 119.5875835  11.5392113  34.7864652
 120.0073147  11.1488807  36.1873412  88.4476376 145.1288993 107.4593923
  88.8630104 145.9165997 107.8104254  88.9010906 144.4057081 107.8925305
 100.3654861   4.2656553  44.6298075 101.1052322   3.8068584  45.0279427
  99.8259163   4.5391262  45.3716326 103.3539581  43.7770414  24.9411082
 102.8738594  43.3066893  24.2595625 103.5709667  44.6199894  24.5428872
 101.4590454 133.4754510  94.0748020 101.5245819 133.1460912  94.9711605
 102.3143578 133.8684172  93.9008852  80.9349060  33.0732751  40.9765959
  80.3242588  33.7564492  41.2533998  80.3744698  32.3669720  40.6552267
  81.7488194  35.1209402  10.3112125  81.9579506  35.6809783   9.5636451
  81.0484600  34.5504403   9.9945790  69.9754333   0.6682277  11.3722408
  69.6649551   0.2082756  12.1521628  70.0542450   1.5813932  11.6481924
 101.8021774  63.9037466  41.4763784 101.9080257  64.8520803  41.5518093
 102.2306156  63.5520983  42.2567749 104.0080261 104.3713970  24.5394468
 104.5873547 104.2912645  23.7816906 103.1457996 104.1184826  24.2095518
  71.1699104  34.6580338  72.5528344  70.6895733  34.6316504  71.7253026
  70.8340263  35.4348207  73.0000719  96.7630196 129.6443588  24.4239068
  96.3840866 129.7611077  23.5526967  97.6135826 129.2360861  24.2623878
 107.2674751  22.4789143 105.1110291 107.5917625  21.6230321 104.8307883
 107.0271492  22.3550677 106.0292535 100.0710106 122.1409006  20.7781863
 100.5658436 121.4718289  21.2511730 100.3820610 122.0753283  19.8753107
   2.6237422  18.1299448   5.7176101   2.8760081  17.9858422   4.8055643
   2.4512988  19.0698659   5.7727754   4.9542742  10.8252120  91.3314136
   5.3403025  10.5143654  92.1503111   5.7040339  11.0902131  90.7986137
  83.2911873  20.4620433   0.6887879  83.0291653  21.1048198   1.3478890
  83.6050797  19.7133446   1.1958909  95.9692669  26.5191245  26.0651088
  96.4912987  27.0938706  25.5053020  95.4485798  25.9979248  25.4539847
  81.2353992   6.5651906  50.5134964  81.4201736   6.3593811  51.4298677
  80.9184170   7.4682295  50.5300426  26.6681033  27.1229243   9.5573151
  27.4586516  27.6179099   9.7723830  26.8297415  26.7841935   8.6767662
  98.9605904  17.0921767  13.6622274  99.8026180  16.6394687  13.6145711
  98.7656593  17.1374917  14.5982730  52.1569633  13.6874080  63.8611364
  52.1291590  12.8247988  63.4471750  51.2414169  13.9639556  63.9001846
 115.0392342 134.8296470  35.7501602 115.8421612 134.7901637  35.2305770
 115.1270771 135.6309933  36.2662601  96.1297512 138.9761377  52.7154589
  97.0507908 139.0986700  52.4854517  95.6652260 139.6399058  52.2056913
 107.6139832   3.7114838 108.1811202 108.1692505   4.1663423 108.8143814
 108.1692696   3.6048898 107.4087652  81.8276501  17.4031484  41.5910292
  82.6461601  17.6744306  42.0065832  81.5697861  18.1543815  41.0568142
  89.2613316  15.7616711  22.5767159  88.6369705  16.1990130  21.9978070
  89.4607067  16.4126837  23.2495189  22.1980219 144.8758253  34.3619275
  22.9625064 145.4388648  34.2403531  21.5096694 145.4684683  34.6638989
 107.4070644  16.1230445  43.0966997 108.2727242  15.7812238  42.8730297
 106.8047714  15.4123247  42.8768158 121.2692070  35.9023404  32.0067000
 120.7519150  36.6380143  31.6789365 121.8099403  35.6391454  31.2620091
  85.4771423  20.7418346  31.6377330  85.4110050  20.0327849  32.2773480
  84.5781708  21.0528183  31.5310884 114.3837261   0.2423390  19.5158052
 115.2555943   0.6103110  19.6595442 114.4884014  -0.6942257  19.6835005
   2.3970156 130.5467302  77.1000513   2.5524264 131.4408416  77.4044260
   1.4695864 130.5320007  76.8636354 113.4851170   5.2109349  36.1001897
 113.7799931   5.1161963  37.0058942 114.1888618   4.8262578  35.5776978
   2.8575163  29.7580433  15.4140866   3.4466105  29.5152712  14.6997559
   3.3504038  30.4019833  15.9226501 123.4124947  23.5524368  39.3985510
 123.6350536  23.3710361  38.4854293 124.2366982  23.4416103  39.8725224
 110.2695942 142.3551331  17.2698820 109.8895550 143.2251252  17.3919964
 110.5109501 142.0731963  18.1522059 105.9431362   1.2793739   5.0600499
 106.6162300   0.6810074   4.7358197 106.3833427   2.1275163   5.1157641
 112.5794506 125.4213686  27.6277113 111.9894791 125.2410311  26.8958354
 113.0381107 124.5942325  27.7750468  85.3015137  33.3383679  18.7671387
  85.0201893  34.2450643  18.6446977  84.9901867  32.8832579  17.9847169
   3.3207350  19.7035503  62.9732132   2.5236731  19.2344832  63.2199860
   3.1112032  20.1045990  62.1297169 106.8021870  13.0229151  36.8286252
 106.2047672  13.3752382  36.1689281 106.4432240  13.3254564  37.6627994
  98.9224720  26.0160804 103.4873154  98.1047535  26.2979007 103.8973548
  99.2342281  25.3006768 104.0416076 104.7656250  67.5560904   0.6444405
 104.9781227  68.1399441   1.3725813 103.8870621  67.2332811   0.8448309
 100.7723904   0.5078938  29.5818233 101.3372707   1.2469016  29.3559742
 101.2475872  -0.2614757  29.2679954   5.4515868 141.5727861  26.8708348
   5.7205897 141.1471088  27.6848769   4.4951563 141.5381474  26.8871498
  55.7214785  27.8719687  19.9753690  55.6731701  26.9589138  19.6921217
  56.6381884  27.9986835  20.2199531  78.5058260  27.8128052  54.0094614
  77.8934574  27.3562884  53.4325504  79.3286610  27.8289390  53.5206795
  80.2840996 143.1699381   6.0378373  80.0461006 143.1936843   5.1110017
  81.1896992 142.8599779   6.0447085 100.2103138   5.4339635  35.9629631
  99.5441151   4.7480169  35.9194398 100.4852200   5.5588275  35.0546336
  31.9967985  11.0034084   2.5204286  31.2009597  11.3768256   2.8991532
  31.7731190  10.8424461   1.6037548  75.3902960 122.1370239  57.0453310
  75.5815172 123.0138774  56.7124701  75.9792280 122.0307250  57.7923918
  86.2758350  27.0546269 100.6030812  86.6266060  26.5616584 101.3448157
  87.0371056  27.2283816 100.0494584  91.6026402  24.9241948  35.5873156
  90.7505989  24.7499728  35.1874375  92.2179508  24.9136591  34.8541594
  91.0236645  26.2643647  84.8345956  91.4544773  26.5567851  84.0314015
  90.9995651  25.3103948  84.7597941  56.4358521  16.7824090  30.7458138
  57.1647167  16.9801116  31.3339472  55.7120371  16.5550435  31.3294458
 102.3439121 143.6030547  51.9582939 103.1626415 143.7044273  52.4437189
 101.6757965 143.4957297  52.6352930 103.4132290 135.3098888 100.1849576
 103.7793636 135.2394337 101.0665550 104.1749954 135.2798111  99.6061345
 107.2446060   5.3697872  43.3701420 107.0467854   5.1919347  44.2896366
 107.8772545   6.0876477  43.3957624 115.1471138   2.7306923  25.9238648
 114.7250748   2.2097719  26.6070628 116.0743523   2.7311984  26.1614728
 117.0539856  20.0903225  10.9542203 116.5099049  20.7926869  11.3104451
 117.8640366  20.1337075  11.4623189  89.3448162 144.5211236   5.3795028
  90.2805042 144.3860027   5.2296150  89.1362953 145.3168330   4.8900172
   6.8661242 144.3997926  43.9006138   6.8952971 143.4469972  43.9875746
   5.9438258 144.6235467  44.0252018  93.7173939 118.6969537  84.5641121
  93.5837078 119.5975179  84.2685660  94.2483521 118.7811060  85.3560909
  97.2811699   7.0809340  17.5751173  96.6370678   6.3733953  17.6025808
  97.8768158   6.8352425  16.8672514 114.1092682   2.9692766  47.4506998
 113.1811714   2.8873175  47.2312880 114.1967678   2.5221193  48.2924986
  79.9441195  35.8595276  31.7350698  79.4476223  36.1932635  30.9878469
  80.8597851  36.0121369  31.5016246 122.8686428 136.1293943  40.8112955
 123.5160637 136.4843483  41.4204597 123.3876419 135.7805366  40.0866127
 122.0031357 129.8479981  99.5897671 122.1698093 130.1111800 100.4948559
 121.5953827 128.9850468  99.6624812  86.0138702   8.7419540  26.6683841
  85.5545425   8.0636406  27.1635032  85.5149269   9.5411593  26.8373823
  93.8430023  13.2497013  11.3027143  93.9957047  12.3613310  10.9806669
  94.3151569  13.2873893  12.1345091 108.0449200   8.1677175 107.7865812
 108.9321804   8.4667361 107.9855435 107.8245163   7.5762153 108.5061496
  79.9110556 138.2711858   9.0374267  79.7536469 137.9856903   8.1374562
  79.8316383 139.2244876   9.0036458  75.9209538  12.8939533  42.9476261
  75.5041599  12.0338750  43.0003214  76.4428902  12.9565907  43.7475586
  61.1546993 139.5276464  14.9164486  61.4700174 138.6373241  15.0717938
  60.2230024 139.4929922  15.1331794  92.6475620   7.7724880  15.4018831
  93.1056976   8.5778773  15.1616895  92.6610470   7.2424817  14.6049249
  74.1653061   9.4645989  30.9631038  73.6841869   9.3200237  30.1483297
  75.0201988   9.7905928  30.6818318  80.5242920  10.3765011  93.0724009
  80.2909756   9.7415078  93.7495860  80.9652042  11.0813797  93.5467204
   1.4188414 138.3841045  22.9517937   1.3307505 137.8825111  22.1413136
   0.6691199 138.1150914  23.4826326  93.1563187 120.0312466  52.7357388
  94.0653706 119.8249764  52.9532242  93.1872463 120.3160424  51.8224096
  84.4816303   1.9848590 108.9993712  84.7428989   1.1118682 109.2923787
  83.7320042   1.8302019 108.4245891  89.7641850  22.3407102  46.4081049
  88.9807415  21.7994905  46.5057135  89.7576237  22.6080418  45.4890156
  79.3487406  57.4371338  24.4035721  78.5763454  57.7256298  23.9173555
  79.0582466  56.6547632  24.8723435  87.8879261  21.3597941  20.2131844
  88.0006123  20.4845166  19.8424757  87.9115677  21.9453216  19.4563270
 108.2805824   0.7696243  40.8564854 109.0504837   0.8832821  40.2991962
 108.6160183   0.3409121  41.6438389  61.6292810  16.6270077  22.1801782
  61.2163496  17.4880886  22.2454524  62.3480034  16.6575563  22.8116322
 100.1818466  29.1262460  31.4055753 100.9294128  28.5775590  31.6428876
  99.5479202  28.9844656  32.1086264 100.9846878 138.4098102  42.4054050
 101.2259293 137.6154018  42.8817940 101.4330578 138.3296944  41.5635109
  92.1436214 142.7501095  52.3102093  92.2641182 142.5412358  51.3838816
  91.9826794 141.9038660  52.7275848 122.5463867  31.2935090  30.6879020
 122.8421783  30.9187126  29.8582840 122.6573467  30.5862832  31.3233137
 109.4821262 144.1209892  51.3072681 109.2909813 143.5159109  52.0239115
 110.2122021 143.7153757  50.8396149  94.8299408 140.4923494  37.6572895
  94.3453598 141.2420655  38.0027461  94.5080662 139.7457362  38.1624627
 114.2978191 138.3342875   0.1224269 114.8378086 138.8659639   0.7072042
 114.4092846 137.4387897   0.4416309  87.7712917  20.0607228  13.8805008
  87.1744251  20.8057594  13.8105261  88.1623077  20.1479077  14.7498322
 118.2616997 131.6938526  96.8939372 117.8327942 131.8783087  97.7295526
 118.9541245 131.0701961  97.1126457  80.9606171  45.5782175  32.6189947
  80.3237057  45.1085329  32.0805025  81.3677788  46.2026358  32.0185304
 103.4228897  42.8132582  45.5376863 103.2350063  42.7507687  44.6011877
 103.8747883  41.9956636  45.7463884   5.7205992 146.6629213  28.5981011
   5.9428530 146.1445534  29.3714929   6.4854174 146.5827243  28.0281329
  14.5915061  23.8216233  58.2629919  14.0324145  23.1281424  57.9126692
  14.0001422  24.5628142  58.3939791  82.6253223   1.7176630   6.5116960
  82.7410889   1.6033664   7.4549705  82.1068478   0.9601275   6.2404901
 113.2955265   2.1423718   0.5376545 114.0146351   2.2255501  -0.0885928
 112.5120926   2.3615518   0.0332448 104.5792675   2.7762550  25.8351755
 104.5389843   2.2192797  26.6125989 105.4777908   2.6816458  25.5190492
  89.7037983 136.1282391  25.2082944  90.6260014 135.9860320  24.9948382
  89.2552567 135.3591103  24.8568940  91.6466713 137.6197655  43.5171652
  91.0186005 137.1485473  44.0646315  92.1930313 136.9333357  43.1343699
 105.6232357  11.3554752   8.6000586 105.5817032  11.6669023   9.5042270
 104.7439766  11.5076745   8.2536888  67.9670382 144.3451544   6.9243288
  67.7251625 143.6653698   7.5533128  68.1792784 143.8658411   6.1234266
  98.1452084  43.5429430  43.2714224  97.9500103  43.9705276  42.4375772
  98.9835072  43.1045914  43.1253433  24.7075682  27.7443957  42.2917795
  23.8911086  28.2369280  42.3757172  24.8879176  27.4270797  43.1766605
  86.9152927 142.1214546  57.8309155  86.6341305 142.6084993  57.0563412
  87.7489471 142.5226031  58.0765295  57.3382282  27.6378942  34.6273518
  57.1348572  28.3782840  35.1989245  58.2687998  27.7385259  34.4269943
 113.0930996  21.8493247  20.5719233 112.1516609  21.9116044  20.7332993
 113.2996559  22.6284218  20.0556183 102.3079681   1.8504718  73.4984159
 102.2657204   1.1700596  74.1703463 101.8537140   1.4721683  72.7455759
 101.9502926  14.5876956   9.3640530 102.0659924  15.5211186   9.5417207
 101.0019875  14.4578445   9.3734336  22.5415736  44.2941999  39.7283983
  22.0001631  45.0814819  39.6709251  21.9647627  43.5855150  39.4432855
  78.3359194   7.1345621  18.1380379  79.2908478   7.1333140  18.0721629
  78.0902433   6.2116194  18.0743885  34.2385130   9.3239117 102.4234422
  34.7223883   8.7116003 102.9776671  34.2139845   8.9017081 101.5647372
  93.8252926  25.8730340  56.1106968  94.1496944  26.3867164  55.3710175
  93.1113529  25.3508282  55.7448721  83.7187099  47.0349312   9.4540340
  82.8720856  46.6005611   9.5578861  83.5195637  47.9683352   9.5270908
 112.0955944 122.4085827  56.8387413 112.5798321 122.4658627  57.6624298
 111.3026428 121.9204373  57.0605135  97.1417809 134.6422667  55.5333519
  97.0169163 134.9286635  54.6285772  96.2868881 134.3018372  55.7969618
 105.0012589 118.8889284   1.1956145 105.7527065 119.0622921   1.7626216
 105.3227997 119.0648384   0.3113626 107.5456047  18.3555067  49.7570324
 108.2143402  19.0377057  49.6967649 107.3515034  18.1293619  48.8474083
  77.4578142  10.1653731   9.8398209  77.6178694  10.9152532  10.4127920
  76.5224838   9.9859738   9.9357587 103.2804871  24.1750193  18.9932096
 103.0348682  23.6522627  19.7565114 103.9755821  24.7512078  19.3111360
  91.7405891 132.0500071  39.1810918  92.2581768 131.5189368  38.5758638
  92.1289062 131.8817122  40.0396490  69.0871334 136.2585075  20.7408071
  69.4298410 137.0561541  21.1439753  69.8215294 135.9115560  20.2343273
  84.6467876  31.8249846  16.6597712  85.1527500  31.4017415  15.9661591
  83.8564968  31.2908721  16.7397368  93.4566212  10.4938459  29.4716167
  92.7301407   9.8709726  29.4938064  93.3001232  11.0710645  30.2189851
   8.8973647  10.7507789  92.7791485   9.5792513  11.1608100  93.3112546
   8.0763655  11.0560584  93.1651505 114.0128422  38.3825326  71.5264368
 113.1048775  38.2135844  71.2748384 113.9987278  38.3901095  72.4835014
  88.7980843 134.6296520  13.5495973  89.5759010 135.1872093  13.5686862
  88.7869167 134.2643256  12.6649261  85.6200504  16.3243532  26.2633276
  84.8198032  15.8819151  26.5463138  85.7210350  16.0727203  25.3453326
  70.5357218 139.2387528  31.8323255  69.6932173 139.4028808  32.2559834
  70.3420258 138.5871739  31.1584139  81.7957878   1.4018996  32.0383573
  82.6037312   1.1181010  31.6106629  82.0775604   2.0697242  32.6635361
  99.5510292  33.2809663  34.2923975 100.1031494  32.6476026  33.8338709
  98.7600136  32.7909088  34.5168376  72.1574211 141.2760640  32.7177191
  71.5689325 140.8839966  32.0725870  71.7204857 142.0866332  32.9790545
  99.6345425  32.4575496  21.3540244  98.9733219  31.7953873  21.1526132
  99.1340065  33.2617831  21.4915085 105.1640701 132.7587886  95.3772005
 105.9517956 133.2907087  95.2641269 105.3967667 132.1280260  96.0585400
  92.3678684  15.8046830  35.2274418  92.1965313  15.6825864  36.1612344
  93.3221340  15.7870066  35.1547098 117.1864319  41.1077309  33.9199972
 117.0882797  40.8917379  32.9926658 117.4751854  40.2908707  34.3269253
  85.5584049 144.8727735  26.5013862  86.2938595 144.6446138  25.9327984
  85.1572990 144.0323978  26.7229986  80.0397491  26.1689091 105.1987734
  80.5301476  26.7876291 104.6575489  80.1501274  25.3260136 104.7588011
 107.3991776  65.3649616  33.3222365 107.3658466  66.2669611  33.6408472
 107.9638290  64.9107552  33.9476156  86.5881729  49.7644424  66.5044308
  86.6547680  49.9275446  65.5635834  86.6072750  50.6356525  66.9004869
  97.9950523  10.4788435  41.3408184  98.4382725  11.1795461  41.8191528
  98.6938190  10.0421798  40.8537102 119.5233345  25.0213838  17.5894630
 118.6558151  25.0885534  17.9883778 119.7509003  25.9218717  17.3580182
 109.3155289  16.9153178   4.3149224 109.6613312  16.8700039   3.4235170
 108.3908939  17.1357226   4.2022213  99.9987507  38.0103803   3.9219862
 100.2105045  38.8907766   4.2323032 100.8494663  37.6009822   3.7641880
  80.3831005  15.9261322   5.7352650  80.1355457  16.8485785   5.6716865
  79.7932577  15.4775441   5.1293850  87.9379368 133.6958797  19.4472301
  88.2244682 133.7620742  18.5363245  86.9871330 133.7988729  19.4073164
  82.6801968   7.3924941 105.1455694  82.2288418   6.6434669 104.7563800
  83.4552765   7.0152819 105.5617275 108.8483143  25.6193924  45.2391529
 109.1051769  25.9569526  44.3810654 108.5860157  24.7141886  45.0717115
  66.7326021 117.4198122  38.6863518  67.1631193 116.6071410  38.9517808
  67.2155666 117.7043528  37.9104567 114.4462776   7.3381168 104.0875103
 113.8149834   6.6826028 103.7908550 114.6245861   7.1039385 104.9983325
 108.1220436 104.2336816   1.2514134 108.5497093 103.9842291   2.0706251
 107.1864605 104.1437502   1.4325884 106.5858650 140.1459230 107.4696433
 106.8828201 141.0526300 107.3926138 107.3802090 139.6234919 107.3586277
  94.5879745   7.4502873  47.4023867  94.4507980   8.2274783  47.9440403
  94.9528980   7.7893656  46.5850210 107.5704575   9.9179238  21.8656325
 107.2939301   9.2685360  22.5122070 106.7780399  10.1086366  21.3636994
  94.6770573 129.3740887 107.9058775  94.3932438 128.5522432 107.5055643
  94.0145397 130.0115604 107.6395606  92.0067501   5.6873047  17.5353372
  92.1982574   6.5001500  17.0675349  91.0717678   5.7396197  17.7335632
 117.7165985   7.8076863  37.5469804 117.2104454   8.5775691  37.2875190
 117.8072548   7.2981334  36.7417669  95.3487110   4.6929488  42.4825573
  95.5833149   4.4679758  41.5822363  94.9729538   3.8885465  42.8402901
 115.2063656  28.9525628   1.8166721 114.5927525  28.3086562   2.1703520
 116.0170269  28.4618545   1.6815229  81.1034775   3.5002449  10.0334263
  81.2942028   2.6216283   9.7049636  81.1721802   4.0641117   9.2629951
 121.3327789 129.1072971  15.7306409 121.7263603 128.3752424  15.2558577
 121.4611626 129.8620886  15.1561499 106.0351753  20.2299643  16.7494559
 105.2941895  19.7299480  17.0917392 105.7432652  21.1410952  16.7787194
  21.0603552  17.2542548  13.8202024  20.3087264  17.4330616  14.3852878
  21.5511160  18.0759728  13.8072419  93.4314632  27.5119734  43.2542229
  92.5005531  27.2936559  43.2987547  93.5809040  28.0791688  44.0106535
  79.6729994 145.4163924  13.0298007  79.1149378 145.0038842  12.3705316
  79.0774632 145.6297534  13.7481630  67.9111528  27.4171305   9.2293036
  68.0713463  27.3093152  10.1668251  68.4262943  26.7236876   8.8169974
 113.3354664 134.0376134  30.4492021 113.6575317 134.7299976  31.0263538
 113.4764004 134.3775232  29.5655560  86.4462757  36.9424725 108.2501931
  87.3556519  36.6774130 108.1123471  86.5078354  37.7755976 108.7174707
  93.6319065   9.7999394  54.4999743  93.7183571   8.8574576  54.6431065
  94.0234089   9.9483764  53.6392021  81.2923336  11.4013350  98.1596299
  80.4195786  11.0638833  97.9580196  81.5459442  11.8919146  97.3778065
 115.8257771  13.8488436  50.7448196 115.9305573  14.7597432  50.4700232
 116.3310242  13.7835073  51.5551853  76.5249634   2.0000821 108.2596133
  76.0306692   2.6926702 107.8211799  77.3641634   2.4057889 108.4772875
   0.3052455  25.1061678  28.1793213  -0.2111406  25.4673886  27.4588394
   1.1406737  25.5709481  28.1317711  95.7782936  35.5526090  45.0722265
  95.0292778  36.1421728  44.9849319  96.5288544  36.0755682  44.7904253
 101.8585682  31.9684076  54.1478395 102.2204494  32.8488445  54.0473318
 102.4813271  31.5171051  54.7177029  90.2267933  43.6923075  42.3127651
  90.7443810  43.0424166  42.7881336  89.3304157  43.3586407  42.3503017
 102.9625511 145.5658145  14.6770060 103.2433224 144.9326763  15.3377128
 102.2573280 146.0560875  15.0995219 100.8209801   7.3823327   0.0404744
 100.6011772   8.3015591  -0.1109934 101.5038967   7.4066669   0.7107437
 103.9196491  11.1486125  15.5304658 104.5287228  11.2267387  14.7961903
 104.0688992  11.9382465  16.0505021  81.9858360  22.8618503   1.3805993
  81.5078449  23.1563592   2.1558559  81.3506031  22.3383164   0.8921041
 122.0597649  22.4870777  15.6128728 122.0826530  23.2918501  16.1306071
 121.6915894  22.7544451  14.7707379   7.0934897  38.4947109   8.1036502
   6.5270644  39.1217303   7.6539481   7.6113825  39.0288591   8.7059051
  70.3463411   2.7325511  32.9447436  70.1344585   1.8412639  33.2221341
  69.5115805   3.0964172  32.6497722  82.7427673  39.8367500  53.8202572
  82.1303082  39.1038513  53.8834572  82.2950459  40.4759073  53.2659483
   9.7024565   3.6882156  29.6757174  10.3320342   4.3512955  29.3925500
   9.4770270   3.9390641  30.5715322  76.4742374  18.3994389  25.6660819
  76.1233711  18.7892461  24.8653483  75.9668064  18.8021278  26.3707757
  93.0479145  14.1453552  53.0349636  92.2714138  14.3066859  52.4990034
  93.6275578  13.6351311  52.4693537  10.1149111  32.1232653  12.1851587
  11.0686236  32.1880984  12.1354842   9.8969489  32.4594474  13.0544722
  15.4568701 140.3465278  29.8722100  16.2936717 139.9256624  30.0693393
  14.9607401 139.6813471  29.3951082 118.8189411  29.6584082  15.2238715
 118.0226612  30.1853013  15.1564944 119.5269585  30.2659106  15.0096583
 119.6112442  12.7358806   2.8288874 119.1798878  13.3886659   2.2774895
 119.0271282  12.6333570   3.5802385 117.1235657  15.1290631  85.4903301
 117.5608444  15.5943191  84.7771939 116.2500000  14.9358225  85.1500901
 110.2803993  30.8991456  40.6994390 110.0739861  29.9698901  40.5988979
 110.8684063  30.9336090  41.4539576 123.3915138  35.3606343  23.6839223
 122.6677132  35.2917361  24.3064952 123.5708046  36.2992287  23.6279798
  86.7031479 137.8911568  13.3980238  86.6285038 137.4161626  14.2256963
  87.5274658 138.3721466  13.4714031 118.4487057  -0.0911924  77.7803405
 119.0264225   0.2534752  77.0994004 119.0007305  -0.1396943  78.5608181
 102.1766949  22.0970416   4.0111184 102.4429798  22.8443551   3.4755394
 101.6654682  21.5470171   3.4175298  86.9539642 135.0083310  80.6284746
  87.1374798 134.7173769  79.7352227  87.0040607 134.2106814  81.1552366
 115.4077721  22.0897365  12.3062348 116.2498093  22.5066018  12.4890935
 114.8004055  22.4951410  12.9250920  86.4098740  11.0040832   3.5334626
  86.7975521  11.7885792   3.9214140  85.6167030  10.8500123   4.0466675
  64.4430733 116.1819024  15.4874873  65.1501751 115.5369849  15.5052805
  64.1223621 116.1608810  14.5858586  17.6503687  22.3474336  11.2392163
  17.7229624  22.1950150  12.1814108  16.7986994  21.9804358  11.0021389
 124.8943615  42.3101377  12.5233197 124.6777439  42.4220324  11.5976894
 124.5596886  43.1016016  12.9449940 114.8763943  19.7858942  35.5244303
 114.0696716  19.4149017  35.8819199 114.6135426  20.6363893  35.1725793
 107.7585793   8.4037572  26.2715936 107.3927784   7.5192595  26.2808681
 107.0840073   8.9462209  26.6801524 108.2244492   4.6524349  18.4755003
 108.6293602   4.0943909  19.1394818 108.8156414   5.4013628  18.3991396
 110.5258465  16.2467325 108.3254116 110.2250290  15.6638217 109.0225183
 110.1551819  15.8744204 107.5252690 115.1898670 136.7021281 107.3163109
 115.2090836 137.6522995 107.2021287 114.6358299 136.5643747 108.0846151
 117.9388237   7.8037405  16.2907684 117.1574306   8.2356799  15.9456730
 117.9119682   7.9763037  17.2319019 103.4398365 129.8660643  91.5891417
 103.5412788 130.1352067  92.5021049 102.4945736 129.8796255  91.4390608
  85.2765942 140.8269150 103.6500194  86.0092640 141.2896288 104.0566161
  84.5342064 141.4236695 103.7447944   3.8603526 128.2940609 104.0308257
   4.5395976 128.8769633 104.3700751   3.0949717 128.8578541 103.9187511
   4.2973357  38.7570691  92.3316320   4.9562674  39.2887640  91.8851598
   3.7167674  39.3945003  92.7473875 110.8113384 137.2703046  15.3927290
 111.3131618 136.7911542  14.7333241 111.0045528 136.8197394  16.2148535
  89.7301865   6.1141628  14.6919096  90.3716469   5.4814589  14.3687284
  88.8837337   5.7523870  14.4294882 107.0856953  30.8125567  25.3099871
 107.0835114  30.3998280  26.1736321 107.5283146  31.6503024  25.4460001
 113.2578087  22.1850491   4.2343861 113.6150455  23.0295992   3.9598927
 113.2375526  22.2328043   5.1901793  21.7350321  29.9865961  21.9869089
  21.3715010  29.7896981  22.8502202  20.9810095  29.9603271  21.3978457
 115.7964230 131.2367422  94.9975570 116.3047695 131.3533909  95.8001825
 116.3907528 130.7806117  94.4017848  81.3635349  28.2888961  11.7329073
  81.8604279  27.4903941  11.9110298  81.1089993  28.6105442  12.5977695
 100.0046825  13.6866832  14.5014465  99.5683193  13.6163485  15.3504884
 100.8781242  14.0194368  14.7078896 104.9459362  30.0919533   1.9437730
 104.7349072  30.8190703   2.5294346 104.4176483  30.2530289   1.1619812
  15.9588557  34.4784117   6.5040463  15.6158286  34.1985941   5.6553614
  16.6233283  35.1332211   6.2897176  67.5785255  38.0833387 103.8335487
  67.7316999  37.2658563 103.3597430  67.7819729  38.7699986 103.1984600
  91.3827801 137.8857631  10.6798875  91.6520309 136.9743306  10.7940340
  90.4871464 137.8309865  10.3466225  98.7628937  36.0435510  98.3045252
  98.9289665  35.1542211  98.6171659  98.3150578  36.4737821  99.0329310
 112.1538734  43.0230236   6.9340634 112.8586960  43.6277056   6.7020816
 112.0796299  43.0954742   7.8856260 100.9916782  18.1550455  19.7124875
 101.0641003  17.2515392  20.0201607 100.0737572  18.2484555  19.4576979
  69.4910288  20.7753730  98.5270604  69.7515678  20.8373880  99.4460293
  70.2951431  20.9494877  98.0378588  59.7680616  19.7542989   2.6036265
  60.5963278  19.4739640   2.9930153  59.7701836  19.3642271   1.7295149
  83.9895725 124.6380992 105.1150125  83.1844139 124.2926402 105.5005088
  84.2752266 123.9567895 104.5063659  73.0450153  21.3016295  34.4681621
  73.8403368  20.9697294  34.0515780  72.6000357  21.7928743  33.7775803
 105.3260231  22.9367828  29.3920469 105.6588459  23.3880639  30.1678109
 105.4824924  22.0091844  29.5689940 100.5887413  25.0486970   2.7582249
 101.4731216  24.7681570   2.5228274 100.5900860  25.0671077   3.7152469
  66.0824823 133.2548482  23.9238596  66.6784954 132.5644500  24.2142844
  66.4526701 133.5577125  23.0947232 112.4590778  14.8660755  20.2947021
 113.0451679  14.3196166  19.7711480 111.5966129  14.4656062  20.1851010
 103.4800243   5.7271069   7.2650170 103.2700920   6.5825194   6.8902737
 103.2284260   5.8006561   8.1856263  79.7041368  26.8436027   8.3739221
  78.9169264  26.9101095   7.8334534  80.3618240  26.4610934   7.7930927
  74.0591764  38.1025028  17.9082096  74.4398117  38.9273334  18.2098794
  73.4262896  38.3615661  17.2384548  78.6502504   3.5693273 109.1130486
  79.3769598   3.6583072 109.7296565  79.0530872   3.6751044 108.2512090
  97.3170376  30.3820610  11.2589395  97.8949833  30.2520537  10.5070674
  97.9111481  30.5017757  11.9998384 105.7410526  36.3661838   4.9871016
 106.2726498  37.0155215   4.5266744 104.8886871  36.7879748   5.0957596
 106.6691494  52.5516319  47.3050785 106.3184738  52.2754240  46.4583349
 105.9307098  52.4692345  47.9085302  61.0799742  27.2724676   7.8594840
  61.8225098  27.6197553   7.3652577  61.0934925  26.3318300   7.6827025
 111.5196419 123.1788821 102.5207331 111.3446903 123.3588857 101.5970316
 111.8299484 124.0131683 102.8727391  79.5247459   0.5708753  30.5225277
  79.4419336  -0.3565376  30.7445168  80.3116798   0.8585897  30.9853339
 114.0949249   4.5855224  98.8901468 114.5100784   4.8676163  98.0750998
 114.8060322   4.1958106  99.3987592 110.3833199 128.4868307  32.9771638
 110.4931259 127.5366671  32.9402232 111.2251377 128.8367433  32.6853824
  64.6759987  12.7917659  17.2463667  64.1866541  12.1149302  17.7139819
  64.1036463  13.0435967  16.5216422  83.9416981 132.5201995   8.8258827
  84.6618080 132.9812641   9.2561090  84.1748142 131.5943951   8.8949841
  75.8492565 136.2391586   5.7906210  75.3916264 135.7452304   5.1102948
  76.7686367 136.2171728   5.5251390 118.5760880  21.8884993   7.6097512
 119.3145370  22.2548199   8.0962980 117.8035164  22.1667552   8.1016219
 105.8464146   3.6811459  33.9997411 105.1556110   4.2627794  33.6823583
 105.4171276   3.1376776  34.6604896  50.6997871   2.1724950  23.0407691
  50.7271528   1.4222383  22.4469686  51.4407873   2.7164266  22.7737594
 123.4940910  15.4341090  14.9331701 123.0292606  16.2412906  14.7126615
 124.3472576  15.5254972  14.5089221 118.6691952 136.5106655  22.7952099
 118.0544186 137.2022791  23.0400586 119.4589138 136.7020638  23.3011127
 119.1267395  -0.2680191  13.0674136 119.0713596   0.1718736  12.2190869
 118.6517143   0.3073491  13.6670280   5.3322917  24.1212249   6.2825346
   4.6958190  24.0982580   5.5679649   5.2935439  23.2450700   6.6660494
  87.9115009  11.9319856  17.0772827  88.4260464  12.3256183  16.3726330
  88.5622501  11.6486061  17.7195144  84.6984673 144.1694830  79.5802506
  85.3419590 144.8714437  79.4833215  83.8568020 144.6220409  79.6352514
 111.7177486  25.6670880  99.4810232 112.4552536  25.2666593  99.0206202
 111.8372345  25.4088712 100.3949591   2.4108916  13.2297993  17.4649692
   2.5264674  13.2571316  16.5151656   1.9841605  14.0596318  17.6782978
 105.4210186  18.3793473   6.1233068 106.0894871  18.3246183   6.8062299
 104.7286892  18.9166164   6.5083379  27.1081000   2.2905450  93.5343310
  27.7990561   2.7117959  93.0230995  26.7213088   3.0012941  94.0456649
  91.5517139 122.4725718  89.8617812  91.7067528 122.7616686  90.7610115
  91.4696503 121.5211196  89.9268647 115.5688095 137.3620904  88.0669197
 115.4866982 137.2662670  89.0157660 115.4463673 138.2982410  87.9092439
 104.3656445 127.6344604  10.1159334 104.1378593 128.5596616  10.0245810
 103.6145306 127.2460217  10.5644608  77.4835634  23.6834669  65.2703913
  76.8068838  23.9006972  65.9116038  78.1524134  23.2210088  65.7753667
  96.1798859 125.5099530  17.2860503  95.4371452 125.8043475  16.7588902
  95.8874321 124.6842189  17.6718760 110.1028633  11.4845014  80.9658393
 109.9114037  11.0985494  80.1110800 110.5226040  12.3204136  80.7625970
  95.6051254   6.2748641 104.1753801  95.3800964   7.2052068 104.1677674
  95.7590103   6.0732108 105.0983574 106.9222736  38.8034773  11.4704299
 107.1588230  39.3844604  10.7474244 107.1659088  39.2898226  12.2580469
 115.8492279 132.5476999  25.7815552 116.1323643 133.4598870  25.7184839
 114.9776745 132.5395376  25.3858757  90.0109291 135.5761046 101.9941165
  89.9251080 136.0006220 102.8477272  90.4957294 134.7707708 102.1747913
 123.7831497  16.1637902 100.7745578 124.3932724  16.3934207 100.0736614
 123.8688946  15.2147734 100.8653721  97.1002579 142.0071925  30.4579878
  96.8997002 141.5795390  31.2905264  96.5465546 142.7879474  30.4502749
 100.3407383  16.5831602  32.8102517 100.8579540  17.3579049  33.0304408
 100.8568478  16.1326814  32.1417260 105.6142426  33.7842202  15.9370041
 105.2797699  32.9935312  16.3602889 106.1399078  33.4602594  15.2055991
  68.9165020  42.8426552  10.8981514  68.1329393  43.2390213  10.5171537
  68.5926771  42.0714569  11.3635755 108.1748676   8.0366302   6.1031568
 107.7836704   7.5348181   5.3880453 107.9254341   7.5598270   6.8947852
 118.5745621  14.6507418   1.1320943 118.8005447  14.0693247   0.4060659
 117.7786827  15.0969708   0.8427951  68.6187792  20.7143307  15.4881251
  69.3053532  20.8369613  14.8325241  67.8728867  20.3752279  14.9932623
   9.2226248 118.7105817 106.2162259   9.7048789 118.6341614 105.3929254
   9.9024802 118.7682933 106.8875646 114.4193363 133.0606348   6.8835008
 113.7951565 132.3936064   7.1693236 113.9589119 133.5400672   6.1947483
 105.8017826   7.9272491  22.8069735 105.4549789   7.4819463  23.5800576
 106.0252857   7.2192138  22.2028518  65.9728956 141.8885256 105.3273853
  65.8551264 141.9012348 106.2772273  66.7450666 141.3400144 105.1890995
 120.4031181  38.2074428  99.9405404 120.8698559  38.3016944  99.1101750
 120.5086327  37.2844553 100.1711788 109.2890453  42.1538353 101.3151714
 109.2677212  43.0053711 100.8785202 108.9552784  41.5405130 100.6604441
 106.5139198 100.0635929   1.3899669 106.5423203 100.6566925   0.6391925
 105.6146908 100.1274271   1.7117390  92.3665333 141.9167913  69.6405038
  91.6245937 142.2594244  69.1421565  92.4460983 142.5083447  70.3888138
 119.3383408  47.0273161  15.2905822 118.7936306  47.2933769  16.0313463
 120.1855373  47.4412298  15.4553974  15.6338530  30.5340290   6.4564741
  15.6970339  29.5801950   6.5058631  14.7657614  30.6978011   6.0879350
  92.3198032  10.0551701  96.1974188  92.0494843   9.8288238  95.3075143
  91.5322876  10.4194319  96.6016051 100.3613663  37.1872258  91.1760350
 101.2639427  37.0595360  91.4680668  99.9755859  36.3115501  91.2004300
  86.3907051 135.5301232  28.6851168  86.1536598 136.4573104  28.6660171
  87.3185730 135.5249221  28.9202023  14.3583136 134.9983580  17.4395823
  14.2509776 135.3456027  18.3250940  14.4349700 134.0519995  17.5610769
 110.8478642 140.5031527  77.0043620 111.5119457 141.0396565  76.5714749
 111.3071442 140.1031537  77.7428015  92.6447678   5.5804187  75.1778825
  93.2761192   5.3493655  74.4965299  93.1797028   5.7436502  75.9546884
  95.0031757 142.5344993  41.5661287  95.1863003 143.0543322  40.7835245
  95.6226254 141.8062089  41.5202713  66.9355583   5.4705906 102.3437109
  67.8319263   5.1365054 102.3099008  66.9304609   6.2052512 101.7301311
  54.8620462  39.1249728  88.5524543  54.1712618  39.1736341  89.2132744
  55.4661751  38.4615874  88.8858899 109.7191048   9.8427558  94.7777947
 109.5532513  10.5342913  94.1370901 109.0219116   9.2044300  94.6271309
  93.2149506  11.4041460  24.0332818  93.4710026  10.4869103  23.9365816
  92.7094460  11.5962434  23.2434773  94.0327358  48.9434719   5.6160611
  94.4285297  49.5238829   4.9659067  94.2820168  49.3225861   6.4588904
  88.3646393  38.0863523  29.8285460  87.8350925  38.6763597  30.3649330
  88.6373043  38.6206484  29.0826154  86.9296646  33.5454988  10.2596676
  86.1107731  33.9590597   9.9864829  86.6611195  32.7060080  10.6329930
  91.8851280  11.4913154   5.9548008  91.0396957  11.2662387   6.3431662
  92.4376106  11.7228782   6.7013741 118.3889484   7.5754791 102.7981898
 117.9439068   8.3139193 103.2139733 119.3064976   7.8441483 102.7517440
  87.6553822 139.9192769  34.5788026  88.5591412 139.6039207  34.5765853
  87.1975231 139.3383999  33.9712000  93.0742931  16.6882908  26.8904757
  93.7042427  17.1527112  27.4415755  93.5007668  16.6307509  26.0354662
  92.3694229  34.5306468  97.3473390  93.0431080  34.8067975  97.9687329
  92.5066376  33.5885215  97.2483190 120.5870342  21.9714355 101.1388751
 120.9634876  21.6118479 101.9421264 120.2445221  21.2088656 100.6726047
 121.0410309 130.9326572 102.1913191 120.9905910 130.6710596 103.1106963
 120.2394676 130.5861063 101.7993655 120.5428696  10.4989290  14.1484046
 119.8709679  10.2172518  13.5275662 121.1712742  10.9868777  13.6162019
  98.5752773  29.9989057  19.9941850  98.9156818  30.0511837  19.1010845
  97.6546764  30.2486825  19.9146259  95.3752613  10.8032298  10.2414596
  96.2147999  10.7579362  10.6990147  95.6074715  10.7893872   9.3129575
  89.2585850   0.1517873   3.4411559  89.9867058   0.4063196   2.8743374
  88.6192226  -0.2419481   2.8475061 111.7102718  40.3318596  42.5376797
 112.5588989  40.2293491  42.1069145 111.1921406  40.8537292  41.9249630
  12.6757937   3.0798995  20.4109859  13.2590991   3.8086775  20.6228089
  12.3902827   2.7465874  21.2616444  79.1435480  27.8339815  24.3818235
  80.0617504  28.0773497  24.4997668  78.8317728  28.4075117  23.6817598
 120.3457165   3.4594727  26.8855524 119.9163628   3.6817366  26.0594225
 120.3877258   4.2874581  27.3639941 118.3593750 134.2364747 102.1861031
 117.6180267 134.4486088 102.7532353 118.5241795 133.3070440 102.3449411
  63.6003923 132.2579820  24.5774579  64.5087957 132.5444157  24.4826102
  63.1163788 132.7809817  23.9383698 100.2634144  16.3897729   7.4965513
 101.1527920  16.7240202   7.6128376  99.8556900  16.4894545   8.3568180
   2.2814208   3.4513226  52.8445768   1.7305499   4.2317897  52.9049397
   3.0546599   3.7408000  52.3602962  79.1956091  38.3799505  11.6696382
  79.8665190  38.7879801  11.1222625  79.2470455  38.8499808  12.5018966
  83.8525105  12.6092505 107.3536753  83.9584255  12.1738935 108.1995348
  83.5668659  13.4957075 107.5746553  97.8232098 135.5491395  28.9405751
  98.3098030 136.3035292  28.6083794  97.3117924 135.8968348  29.6711850
  12.7456790 129.1818936  53.6239100  11.9069605 129.4467933  53.2462740
  13.0307513 128.4462769  53.0818510  90.4037666  43.9186859  16.2597775
  91.1591053  43.8902092  15.6725132  90.0522900  44.8028612  16.1552262
  78.9522457 145.1281779 109.2230785  79.2255878 144.8523110 108.3482003
  79.4698381 145.9138949 109.3990895 119.2102623  25.9635639  21.7023683
 118.9818954  25.0571990  21.4960074 118.7116146  26.1616707  22.4950480
 120.8180809 135.4437370 109.6020605 120.0629520 135.7792098 110.0852453
 121.0917568 136.1746139 109.0478466  95.8279324  30.1850390  20.0143194
  95.6744194  30.3124619  19.0781426  95.2818871  30.8467531  20.4388165
  97.8655052  36.8518567  92.8198644  98.7386703  36.7996860  93.2085689
  97.9051590  36.2677455  92.0625838  89.8069572 136.9101031 107.0295291
  89.1636181 137.5798870 107.2613510  89.3352127 136.0824508 107.1226942
 118.8034534 143.7890533   7.2106707 118.0051327 144.3015165   7.0829868
 119.2367077 144.2026333   7.9573154  10.7832747 116.8445844  36.2145948
  11.3254004 117.6129455  36.3933635  10.4908305 116.5517301  37.0776963
  88.9207363  16.6884708  77.1470007  89.1163826  17.2300696  76.3823947
  89.7625446  16.5886796  77.5915607 116.2600994 138.9286823 104.1968688
 116.3089180 139.1715432 103.2722785 117.0875168 138.4798909 104.3706366
 116.1519146  24.3861914  16.0954320 115.4300499  23.7589955  16.1376166
 115.8204460  25.1634645  16.5451086 101.3419437   7.7918613  91.7497154
 100.4815292   7.6266074  92.1352025 101.6394615   8.6008888  92.1658763
 122.2356606  44.3754244  81.4629754 123.1213284  44.7357178  81.4180406
 121.8446350  44.5948458  80.6172904  86.3819599 127.6871771 104.6709266
  86.9068718 128.4273846 104.9755385  86.5837860 127.6183362 103.7377825
  27.4741965  26.1717796  21.0338044  26.9470816  26.8875194  21.3889003
  28.3164340  26.2494087  21.4819551 122.9190540   8.5206473  96.5736982
 122.2048855   7.9567444  96.2766942 123.1063557   9.0850466  95.8236309
  20.5373221 139.1002423  25.1935506  21.0572653 139.0484763  24.3915462
  21.1852007 139.1290791  25.8975744   8.7384730  21.1005759  35.9415817
   8.0977183  20.5272007  36.3621950   8.4681922  21.1291814  35.0237799
 113.4055710  23.6312914  13.9703643 113.6427498  23.5530806  14.8944092
 113.3418274  24.5742035  13.8184285 123.0074787 140.7557667  37.6517367
 122.1624184 140.7665313  38.1011558 122.7853203 140.6533600  36.7263246
 108.0486679   5.9675384  37.3662138 107.2117424   5.5031037  37.3570967
 108.5179329   5.6305331  36.6030264 102.0000458   0.6174728 103.3605757
 102.8729725   0.7780660 103.7189635 101.7597771  -0.2471863 103.6935451
   5.5197745 135.4405803  97.2681340   5.7023173 135.3015883  96.3388380
   4.5828372 135.2659495  97.3569151 103.4668255   3.8888246   3.2118797
 102.5894928   4.2673069   3.2690635 103.4472084   3.3579314   2.4156386
 101.8534279  31.8563700  17.8448725 101.8564987  32.7079248  17.4077451
 102.5439739  31.3594532  17.4061704   0.6955081  19.6004808  20.4245210
   1.4088278  18.9687014  20.3335810  -0.0778646  19.1362965  20.1041269
 119.6307278 145.2844963  46.0335636 119.3243217 146.0952715  45.6273746
 119.6520519 144.6506185  45.3166437 120.3763390 110.0180645  24.0282631
 121.1242676 110.5822081  23.8318753 120.7562923 109.2660994  24.4825912
 107.3748302   0.7772081 108.2146099 107.2978020   1.7105998 108.4122921
 108.2685471   0.6746132 107.8875431 112.8056717   4.5030230  29.0947247
 112.5153160   3.7734130  29.6420789 113.7515831   4.5459461  29.2348623
 103.3958530   5.0493294  45.0770807 103.4150124   5.9587258  44.7789860
 103.2598972   4.5385075  44.2790794 104.7909546  14.8860419   8.2909131
 104.2693424  15.6755686   8.4351546 104.6189880  14.3416882   9.0592492
  93.5821629 139.1554148  81.0922941  93.2911873 139.2376084  82.0004829
  93.1154823 138.3887137  80.7597216  58.1312990  49.2433167   4.8603106
  58.9373302  48.7944984   5.1154685  57.6444006  48.5923767   4.3548989
  54.9395704  30.7811999  48.0066872  55.2426291  30.7030988  47.1020937
  55.0700903  29.9091506  48.3791447  75.4488277  23.4054852 107.6373186
  75.3561449  23.0538630 108.5227586  76.1414480  22.8768778 107.2409781
  89.2462063 103.9590234  12.4044394  88.9968967 103.8335390  13.3200407
  89.2759514 104.9091787  12.2923672  70.5809689 115.2364320  85.6334027
  70.3257942 115.2299614  86.5559419  70.8048487 116.1494727  85.4532226
  45.2354383  23.8091111  90.4529556  44.4827938  24.3590260  90.2353426
  45.3260565  23.2198882  89.7040662  92.3731518 143.4007789  92.4662360
  91.5547180 143.8341458  92.2241791  92.3512554 142.5675512  91.9956156
  81.1268520   4.7236228 104.4776633  80.3291893   5.0281727 104.0449669
  81.7726994   4.6624428 103.7738433 110.7073975  24.4041324   2.4617276
 109.7938633  24.1295648   2.5411421 110.7364082  25.2639651   2.8813460
  77.0017672 134.8372526 108.4733480  77.5010872 134.0471728 108.2667410
  77.6674414 135.5053837 108.6367852  64.3760061  35.8964539  99.5377382
  63.9991713  36.1340785 100.3849467  65.1838303  35.4320168  99.7567114
  90.4412746   5.5875599  99.8813524  89.5712757   5.9715271  99.9904718
  90.2856159   4.6432996  99.8619744 109.2418671  12.1786129  27.4758768
 108.8690662  12.0163774  26.6093159 108.9974689  13.0820942  27.6764345
 109.3174171  49.0422964  27.0148373 108.5516548  49.5192099  26.6948462
 110.0093460  49.2516041  26.3874173  95.5609035  39.6971869  19.8326755
  94.7000885  39.8220587  20.2322125  95.5606842  38.7846899  19.5435715
  79.0358353  36.2392569   1.1164812  78.7341166  36.8964958   1.7435631
  79.7242880  36.6808891   0.6192596 104.2613411  19.1157329  30.6998706
 103.5410404  19.0870249  30.0701213 105.0290012  19.3436384  30.1754880
  90.1781940  58.7270641  38.6016345  90.1690197  58.1614208  39.3737698
  89.6028519  58.2872772  37.9757047  82.5658417   9.2189007 102.6956177
  83.4736538   9.1305046 102.9859734  82.0543098   8.7699871 103.3686924
  48.3042383 135.9222031  97.2782516  48.6789560 135.8619595  98.1569958
  48.7331867 136.6830254  96.8866062  98.6882496  87.8734016  11.4415780
  98.3501720  87.1982765  12.0299188  98.9988518  88.5658264  12.0249406
  88.5083389   2.6268750  71.4941645  88.3005142   2.3560315  72.3884153
  88.0182266   2.0195465  70.9399414 107.5447464   5.4857331  88.3794785
 107.5070190   4.8157482  87.6968861 108.4759903   5.5647450  88.5863209
  64.1269827 129.5744228  90.5582428  64.1097450 129.8481369  89.6411800
  64.9111986 129.0304279  90.6311321  74.8653173 123.7350750  87.1354294
  74.0766478 123.7150478  86.5933704  74.5964909 124.1916370  87.9326248
  83.9928532 140.3945637  92.2281456  83.1514359 140.2598286  91.7921543
  84.5813179 139.7638702  91.8132210  87.0312500 124.8270702 105.0569630
  86.5111637 125.5942535 105.2960396  86.5428162 124.4201183 104.3413830
  84.9947548 111.1836815  99.7319031  85.1900864 111.2574196 100.6660557
  85.8510113 111.0872746  99.3150520 105.2013493 137.8422737  33.2644597
 104.2687893 137.6519108  33.3661214 105.5131245 137.9956055  34.1563741
  43.0781603 122.6789665 108.5999107  42.6956224 121.8495750 108.8862610
  43.8477468 122.4246407 108.0907154  77.8077793 116.6685963 105.9095383
  77.5040865 116.9706059 106.7655754  77.7413988 115.7147694 105.9546852
  91.3854313   9.0609246  90.9162712  92.2502518   9.0780621  90.5063534
  91.5546799   8.8006478  91.8217278 107.3544788  27.5476055  88.6623955
 106.5964413  27.7322560  88.1078434 107.7386093  26.7553311  88.2869244
  99.9551392 133.0156612 101.3741207  99.6366405 132.6692963 100.5405617
 100.1103115 133.9447212 101.2038231  84.1918182 109.9644756  84.4822598
  83.7955952 109.4436550  83.7837029  83.4533978 110.2335930  85.0286484
  73.9226961 136.7014885  96.5406418  73.5931349 137.5989628  96.4941883
  73.7433767 136.4267349  97.4398518 110.4672146  15.2204495  15.6197206
 111.1931610  15.3131848  15.0027601 110.8683491  14.8554020  16.4084283
 111.0078621   8.4326153  96.7663956 110.6435299   7.5513726  96.8494606
 110.6042671   8.7848645  95.9731388 101.4375973 132.0896053 104.5249462
 102.1950817 132.5702953 104.1912079 100.6918716 132.6614475 104.3429565
  77.5397873 136.5399170 100.9209633  78.0034304 136.5506554 100.0836086
  77.5422382 135.6196594 101.1843109  90.4621983 109.0498543  97.1630573
  90.2640915 109.9826622  97.2459221  89.7354412 108.6952400  96.6508961
 106.3197613  14.9455815 104.9195957 106.7688274  14.6637898 104.1226196
 106.6341400  15.8372288 105.0691414  81.4727783 141.0818672 105.5681419
  80.6972980 141.5240288 105.9136391  81.9931030 140.8703136 106.3432121
 102.7284622  90.0646305  17.0226995 103.0479622  90.7254791  17.6370565
 102.1595955  90.5489922  16.4243547  92.1265316   3.1408291  73.4086466
  92.9853821   3.5630017  73.3892155  91.9320869   3.0362206  74.3400335
 105.5148220 134.4729900  98.4590340 106.0116005 134.7197437  97.6789284
 106.1041641 134.6641254  99.1886711  82.9840088   6.6378575  24.2017404
  83.3547306   6.2609463  24.9996988  82.5112247   5.9134655  23.7919084
  58.1061363 125.1561546  77.9390383  57.5385475 125.1187325  77.1691847
  58.8976240 124.6864033  77.6761341  68.2192802 123.0297565  66.3856888
  67.5457716 122.6253891  66.9326019  68.4176922 123.8577652  66.8230343
  99.6914768   9.7856217  56.5035152  99.8631382   8.9943486  57.0140600
  99.8338795  10.5039578  57.1199083  80.6317329   7.8128605  62.6403522
  79.9656057   7.1601372  62.4248171  80.3799248   8.5872250  62.1371794
 112.2836304 132.7482796  17.4932042 113.1283760 132.9974270  17.8681127
 112.1806049 131.8257809  17.7268831 107.0521736  23.6227017  12.3963968
 107.3421764  23.8350849  13.2835428 107.2289276  24.4157391  11.8903486
  84.8513699 114.2717361   0.6364766  84.3848991 114.6299744   1.3916627
  85.0660610 115.0366879   0.1026288  57.2151041  33.3231526  19.5084611
  57.7284002  32.5372868  19.6960393  56.4234161  33.2240086  20.0372640
  67.8851652 131.9117260  95.0906658  68.6448145 132.1697140  95.6127739
  67.2466040 132.6099014  95.2356434 111.9879913 131.7278671   3.5101644
 111.7075348 130.9789467   4.0361825 112.3334122 131.3399315   2.7061597
  92.7205467 131.4310455  83.8150787  92.9578590 130.5538082  84.1156960
  93.5063171 131.7537594  83.3738899 101.1318302 133.8218689  10.1043168
 101.6022396 133.3139133  10.7653276 100.2224541 133.8198757  10.4031125
  73.3125210  86.8644238  13.7225095  74.1110420  86.4410591  14.0377179
  73.5094833  87.1030235  12.8166906 117.3345089 130.0697803   3.8337079
 117.9191494 130.6348896   3.3286516 116.7701530 130.6763649   4.3130723
 108.8085079   6.0727387  31.9145846 108.6707211   6.1912232  30.9747934
 107.9586983   6.2707215  32.3080921  68.4584951  99.5408535  65.7920027
  68.6824751 100.3796387  65.3888893  68.1111479  99.7740364  66.6529369
  88.9616013   2.0205956   5.4989854  88.5713577   1.3747387   6.0878888
  89.1862774   1.5229493   4.7127858  79.2747784  29.6541958  92.8294086
  78.6841774  28.9031964  92.8878975  78.6955643  30.4161244  92.8441620
 111.7783928 115.4185200  25.9483472 111.5727043 116.1639881  26.5124456
 112.7349567 115.3928566  25.9246484  92.7323151 126.2458324   3.7589780
  93.4872341 126.1510563   3.1781713  92.7680206 125.4753780   4.3258516
 118.1407356 135.1090527  82.3403740 118.3863449 136.0060596  82.1138954
 118.4125233 134.5882416  81.5846539 100.4247379 122.0800877  11.2786619
 100.2562332 122.9625225  10.9482709 101.3769913 121.9892216  11.2441865
  92.7410889   2.2930317  88.8074017  92.9624176   2.2499829  89.7376633
  92.8208256   3.2205944  88.5849094  63.2573891   5.0975972  98.6210632
  63.7389517   4.3511181  98.2645512  62.8614044   5.5146962  97.8559113
  97.7863789  24.7598248  10.1365796  97.6066589  24.2884808   9.3230859
  97.4719715  25.6489544   9.9726812 105.3761005 109.7311497   0.9610788
 105.5600166 110.4502773   0.3567067 104.5592213 109.3503380   0.6386987
  69.1777229   0.6592160  98.3806992  68.3764219   0.4798775  97.8887749
  69.6897697  -0.1460762  98.3062458  57.3491907 107.4309063  99.7275066
  58.0954027 107.0092869  99.3013191  57.6605415 107.6341248 100.6095409
 104.2247391 132.1500015   2.3377363 103.7295723 131.8373680   1.5805665
 104.4267845 133.0626392   2.1315519 109.9950027 124.8525429  42.1977941
 109.9332905 124.1824436  41.5170614 109.9129486 125.6814003  41.7261163
  52.5893879 122.7841663   1.6096917  52.7001572 122.1500874   0.9012357
  52.2928810 122.2614765   2.3547498 122.6843452 126.2597179 108.6289787
 122.3454762 126.4786816 109.4970036 122.5504398 127.0542049 108.1121731
  64.5307684 118.5181522  92.2087383  63.6533737 118.1455326  92.1217537
  64.4251680 119.4384003  91.9674492  75.2398205  15.0446492   1.9092981
  75.9775066  14.6721058   1.4263192  74.6147537  14.3237095   1.9853345
 113.4113121  21.8424206  91.0504341 114.3051434  21.5146427  91.1497021
 113.0797958  21.9090443  91.9459248  61.3729286 133.2504940 105.2978325
  61.0862398 134.0307045 104.8231697  60.9653854 132.5219440 104.8294640
  86.6923809 120.6012249  12.9824010  87.3318195 121.2706470  13.2257596
  85.8837414 121.0885143  12.8246728  68.3039236 117.2529221  26.4133588
  68.4849262 118.0892563  26.8423311  69.1677332 116.8687916  26.2633554
  45.4510784   2.0605259  88.7552357  45.3321886   1.9959622  89.7028255
  45.2135563   2.9636555  88.5450363  72.7592325 130.8990002  76.2812948
  72.1087265 130.5896568  76.9116735  72.3185205 130.8395863  75.4336643
  68.0721426 135.3896427  89.0372276  68.9398384 135.0399399  88.8346195
  68.2161093 136.3269329  89.1675663  78.3647299 135.9773922   4.5539228
  78.5061884 135.0611496   4.7920934  78.7894630 136.4748478   5.2527562
 113.1412315   6.6542130  72.5861740 113.7452888   6.2315922  73.1966972
 113.6369324   6.7269497  71.7705631 106.5794468 105.6868935 100.7191467
 107.2328472 105.7883835 100.0270557 105.8947277 105.1466656 100.3247452
  69.7825480   7.2262936  73.2882881  69.3378973   6.7244034  72.6051903
  70.6792784   6.8914776  73.2861900 112.2896099   1.5291958  87.5233746
 111.4716244   1.6931038  87.9927063 112.9752731   1.7812233  88.1418991
  42.6278400 145.2540779 104.7865391  41.9300604 144.6604443 105.0639057
  42.9333544 144.8924541 103.9546013 105.7500172 109.2837048  90.0110817
 106.2407207 109.9482536  90.4946136 105.6387234 109.6570587  89.1367531
  75.2311802 121.8294144  76.4886475  75.4375076 122.6887703  76.1209917
  75.8121157 121.2253284  76.0262442  73.3078003 112.2715950 109.7906494
  72.9002619 113.0668259 109.4474983  72.7345324 111.5631676 109.4978523
  62.1077633 145.6988049 101.2418270  61.3853216 145.1046753 101.0385513
  61.8025208 146.5567493 100.9468842  67.2311497 133.8625813 106.4335442
  67.9319763 134.4758224 106.2121487  67.5411606 133.0171967 106.1087990
  71.4798737   6.5696984  78.6391020  71.6194582   7.3696881  78.1323957
  72.3148203   6.4178734  79.0818739  73.7730265   4.8937874 104.4965649
  72.9136372   4.8797779 104.9178600  74.1654778   4.0511303 104.7249126
  96.4599895  79.0644979  92.1659660  95.5054855  79.0338326  92.1009636
  96.6298199  79.5713615  92.9599953  50.2247334 133.6228943  83.4983158
  50.1706219 134.3709946  82.9036331  49.6337557 133.8454914  84.2176342
  86.7792225 127.8597450  45.6983709  85.9856510 128.1764603  45.2669001
  87.2365952 127.3603058  45.0219059  88.5236168 131.6591167  61.4482069
  88.4575367 132.3363400  60.7749796  88.5720634 132.1442032  62.2719622
  83.0564785 110.2500916  93.6925888  82.7142048 109.9780464  94.5440960
  82.4138737 109.9260044  93.0615044  90.1132774  94.1502380  90.4185295
  89.7852707  93.2651806  90.2594090  89.4091415  94.7243977  90.1172447
  54.5623064 126.6445637  96.1491776  54.1593122 127.4535179  95.8338642
  54.7344208 126.8083191  97.0764256  81.6604042 120.4708576  86.3653755
  81.1325550 121.1148262  86.8374825  81.7088032 119.7203732  86.9575500
  75.3207302 101.6005611 109.0236759  76.1638355 101.8262386 109.4167137
  74.7823763 101.3122368 109.7607517  70.3499508   2.3197251  76.3274574
  70.1414442   1.9355755  77.1790361  70.9328175   3.0512219  76.5309334
  93.1906128  31.8042355   0.8653108  92.3327827  32.0649510   0.5300657
  93.2779980  30.8855419   0.6111280  79.8848915 123.4286976 100.3273392
  79.1722870 123.7527752  99.7765160  79.8820877 122.4814320 100.1898575
  13.1363707 140.6820202  90.2762699  12.2205954 140.8360291  90.5083561
  13.2879286 141.2419605  89.5148754  75.8405781  14.0761357  91.6748238
  76.6083050  13.5861760  91.3802814  76.1962128  14.8978787  92.0131874
  97.5888443 123.1870651  52.9531860  97.4516106 122.4186611  52.3991489
  96.8472099 123.1815624  53.5583210  73.5750580   0.6412297 103.8207245
  74.2323303   1.1817246 103.3824348  73.9119625   0.5280762 104.7095013
 106.5909100   3.7834244  66.2197876 106.8313313   3.7666207  67.1461487
 106.0661793   4.5780926  66.1229038  36.1166763   5.1828842 107.9590034
  36.7984557   5.0172882 107.3078537  35.3957319   5.5654984 107.4589252
 107.4263954 129.9392128  75.5480862 107.1465778 130.4050350  74.7600842
 107.7225494 129.0864563  75.2297640  86.4843273  15.7604199 104.0184116
  86.4855099  15.0091534 103.4252739  87.1099758  15.5255299 104.7037029
  66.4664221  16.8484288  95.8169460  67.1535015  17.1953373  96.3859844
  66.7504930  17.0767765  94.9318504  78.1725550 142.0839119  79.2993832
  77.6810837 142.5402546  78.6164236  77.5264597 141.9102097  79.9839449
  90.2052498 139.3067646   4.3680707  89.6613789 140.0319576   4.6755258
  90.9128761 139.2491245   5.0100747  83.5592365 115.8964825   8.7734548
  83.6998177 114.9500942   8.7448541  82.7145767 116.0262966   8.3422605
  79.1562366   6.6370087  21.3870088  78.9986753   5.7693844  21.0146848
  79.4065857   7.1773701  20.6376306   5.2649432 136.7143440  79.7652435
   6.1639147 136.6195107  79.4504404   4.8951369 137.4139500  79.2267084
  77.4690199 122.0048523  94.4241238  77.5027609 121.2131882  94.9611092
  78.2378244 122.5085449  94.6914577  13.4039240 129.4570446  15.6000177
  13.5686999 129.7800636  14.7141687  14.2037421 129.6644783  16.0832349
 124.0698051 144.0271664  51.1033106 124.2124844 144.5819950  51.8701458
 124.7754097 143.3814144  51.1402750  89.2530537  22.7297955  98.0667973
  88.4045029  22.3697262  98.3247662  89.2237091  22.7503758  97.1102715
 113.8751030 112.2894287  84.8237705 113.1740093 112.8810024  85.0971508
 114.2681408 111.9889927  85.6432152   6.4446288  16.2055950  94.1859245
   6.2510329  17.1428471  94.2042065   5.7414656  15.8260327  93.6589336
  74.1919804 114.0092468  93.0698872  74.9187326 113.5072899  92.7009583
  73.4318972 113.7473392  92.5503540  76.9087934   4.3375187  85.4477501
  76.8458748   3.4004097  85.2630615  77.6997471   4.6195965  84.9883461
 104.5438480 142.5760269   7.1638624 104.7698021 142.5511837   6.2340490
 105.3548050 142.3391438   7.6138250  94.1177368   1.4037972 102.6644325
  94.2044926   2.2801190 103.0396175  93.3843040   1.4762955 102.0536518
  72.0981503   6.7598801  71.0917759  72.1225595   6.1660748  70.3414202
  72.9899025   6.7435341  71.4392567  78.9108276   6.8443566  87.8937054
  78.6889839   6.7566281  88.8207054  78.3628941   7.5653057  87.5834846
  10.0756102  16.4369755  96.1453056   9.7894221  15.8686428  95.4302502
   9.2628604  16.7518216  96.5409660 116.7903709 144.1100693  15.2482835
 116.2909603 144.0471458  14.4341222 116.2620068 144.6769333  15.8101693
  85.0737095 120.5714417  74.6790791  84.5086956 120.1894760  75.3507090
  85.6816292 121.1280823  75.1657200  69.4996214  13.4975796  38.7881318
  70.2911997  13.7401944  38.3077375  69.2645311  12.6362686  38.4430066
  77.2866011  82.3454380 107.5904465  76.5300512  82.6124954 107.0683861
  77.9074287  83.0683231 107.4996948 100.5370808 144.2803764  72.4688959
 100.5954456 145.2031326  72.2212172  99.6742439 144.1953659  72.8744984
  76.8753958   0.5656319 105.6922054  76.7524672   0.4614334 106.6357422
  77.8206348   0.6707077 105.5839825  79.9543095 144.5559788 102.6302719
  80.1782322 144.3474770 101.7232895  80.7937431 144.5561790 103.0902386
  86.0776901   9.5739823  99.7393990  86.0947418   9.9763565 100.6077480
  85.1761818   9.6899968  99.4393158  76.4658499 135.9018326  92.6740360
  75.6750917 135.6682777  93.1602287  77.1727228 135.8238792  93.3147335
  65.1000881 144.8665237  95.1853943  65.4434586 144.4023705  94.4219208
  65.4985952 145.7354641  95.1366425 113.2964325  16.3284855 108.3768368
 112.3443699  16.3981991 108.3064938 113.6279869  17.0935612 107.9067612
  29.2409730   2.5716858  97.9515076  28.9130974   1.9646530  97.2879982
  28.9617038   2.1903878  98.7838840  74.2602682 141.3322639  95.9249115
  74.6548653 142.1754169  96.1476421  73.7466478 141.5089321  95.1367378
  73.8264084  29.2074185  94.2382145  73.5754728  28.9282589  95.1187420
  74.1007900  30.1182347  94.3447971  79.1703415 135.4071999   8.6245767
  78.9237309 135.6074524   9.5275251  80.0582886 135.7535934   8.5363618
  82.9581833  20.2755146  69.3234444  83.1854534  21.0398655  68.7939644
  82.2684669  19.8360806  68.8260221 104.2391586 131.2726879  86.3096428
 105.1188278 131.5646076  86.0704994 103.8042927 132.0620441  86.6322136
  73.5015821   1.3200646  84.0604305  73.0591965   0.5394535  83.7270164
  73.4302950   1.9575959  83.3500004 104.9910927 140.7969379 100.1134682
 105.8221436 140.3493595  99.9545670 105.0815392 141.1650658 100.9924030
  79.2646790 117.1291637  74.7916889  78.7511206 117.5430584  75.4853582
  80.0195694 117.7061749  74.6757841  97.4955463  97.6334667 107.8122711
  97.9896259  96.9873428 108.3168983  97.4689674  97.2750759 106.9250870
 110.7283783 116.0398960  76.8584204 110.4959869 116.2547970  77.7617693
 110.4875851 115.1185226  76.7618752  92.3622608 114.5855713  19.3391839
  91.8295956 115.3784370  19.2770997  92.8227425 114.6711445  20.1739637
  54.8555231  17.2131901   7.9738084  54.7146416  16.4937382   7.3583547
  54.8846292  17.9963284   7.4241868  37.9061365 140.7508945  63.5837936
  38.3724284 140.7239342  64.4193029  38.5988069 140.7685280  62.9233932
  96.4305019  15.8650952  74.1552782  95.6646633  15.3777104  74.4589186
  96.9306755  15.2301007  73.6425781  91.6851044 130.8213902  91.4601135
  91.4708138 130.2103901  92.1650887  90.9273148 130.7887077  90.8762360
  69.4757318 131.8490887  99.8285389  69.1304159 131.7490768  98.9414120
  69.5333242 130.9549522 100.1653481  75.2302885 120.5101681   2.0951406
  75.2087831 121.2195873   2.7373926  75.3436279 120.9522057   1.2537137
  97.2559834  20.6590252  91.8864632  97.8403950  20.0518971  91.4324951
  96.9282722  20.1611691  92.6354408   4.2178088   7.1357613  12.2594777
   4.4536238   7.7408104  11.5562383   3.5207015   7.5845604  12.7378599
  97.6273251 134.5540524  96.1570740  97.4449635 133.7492180  96.6420555
  97.0628548 134.5020390  95.3857803  53.4610271 128.5245132  81.1989307
  53.9619780 127.8812027  81.7003632  52.9459476 128.9922142  81.8563461
  89.9852562   2.8498059 102.8134060  89.7375965   1.9963818 102.4576569
  90.7953739   3.0741959 102.3556042 118.6753941  18.9468365  59.3859196
 117.8114700  18.5347157  59.3911362 118.8190746  19.1903668  58.4714365
  90.4963589 117.8253269  92.1075249  90.4869843 117.7059364  91.1578465
  90.2103233 118.7294102  92.2381020  86.5351391 112.9172421  10.5884878
  85.7521057 112.3801613  10.4675046  87.2628689 112.3275566  10.3912202
 106.1637688 125.9930038 101.1029625 105.6647873 126.1192799 100.2959251
 105.6578732 125.3494835 101.5991402 103.2159328  14.0929203 101.4187145
 102.4105263  14.3758374 101.8517303 103.7510967  13.7276631 102.1232986
  99.1388798   1.1539917 104.2180347  98.6250782   1.8810444 103.8664150
  99.5771694   0.7789688 103.4541607  92.7282619 128.2514763  85.8736706
  93.3810425 128.6189270  85.2777767  92.0304585 127.9359531  85.2994347
  85.1589394   3.8787060  81.6232872  85.7221699   3.6576920  82.3650074
  85.1669788   4.8353939  81.5931511 109.6118927 135.8709431  83.1537247
 109.4735146 134.9282646  83.2456207 109.1701221 136.2529182  83.9121246
 105.5830097  15.5889302  73.5707903 106.4581013  15.4233914  73.9215612
 105.7291412  15.7857685  72.6455164  81.7882824 140.1947308  79.3429565
  81.9082260 139.4807243  79.9690914  81.9480705 139.7935486  78.4887028
 121.8435955   5.5493431  51.2158680 122.1775436   5.4869442  52.1107531
 122.5713253   5.9160118  50.7136774  75.9417200 135.2486992  66.9559717
  75.1784945 134.6760941  67.0323849  75.8548355 135.6494713  66.0910654
  79.8436975   0.2560597  91.9014740  79.9411869   0.4437714  92.8350067
  79.9734259   1.1017495  91.4722919  96.8462944 109.6678638   4.9181310
  97.3936844 110.3890800   4.6075860  95.9518337 109.9411774   4.7145025
 120.0093079 106.2229443  81.3470554 119.7558212 105.3695393  80.9953880
 119.4872379 106.8519020  80.8489799 102.0276451 106.8994904  64.1729879
 101.2023067 106.4214993  64.2541027 101.8608379 107.5516510  63.4924746
  -0.0178022  22.2746449  81.5429974  -0.5051584  21.5322094  81.1859035
   0.8008986  22.2845059  81.0471535  99.0955353 120.1309395  83.1260300
  99.8651218 119.7478485  83.5469913  99.4165039 120.9428120  82.7334881
  87.3503208 143.2608318  22.3677007  88.2445717 142.9911232  22.5770227
  86.9027328 143.2832623  23.2135145  54.9904823 121.6885757   5.1947824
  55.8117485 122.0024872   5.5732099  54.4020700 122.4421597   5.2408353
 110.3427601  90.7274246   7.8881780 111.2160301  91.1128902   7.9592363
 110.4916859  89.7838974   7.9498807  78.8385296 121.7411995  10.2034036
  79.6313381 121.4225864  10.6348840  78.1211233 121.3893604  10.7304422
 102.0645428 122.9683304 100.8246040 101.1092758 122.9081249 100.8322048
 102.2533035 123.7083817 100.2476025  60.4845667  21.1244755  96.2951183
  59.6141291  21.1912899  96.6876793  61.0859585  21.3402920  97.0078468
  78.1937075 111.6420269  21.2712613  78.5780621 111.0071754  21.8758050
  78.9451647 112.0371819  20.8292333 110.2496815 141.7680264   1.6702596
 109.9929619 142.5842762   2.0992700 111.1867332 141.8696022   1.5033380
  94.9606609 131.5789890  92.9959965  95.7959747 131.2074661  92.7123356
  94.7546864 131.1138630  93.8068390 100.4867077 128.5330677  98.6368465
 101.0906315 128.7179661  99.3560982 100.8588123 127.7652168  98.2030487
  78.9819098   1.8377285  74.3305826  78.2589817   2.0794659  74.9095201
  79.6922064   2.4315911  74.5735645  81.3558960 116.1141682  79.7384071
  81.9976807 115.4044724  79.7642803  80.5996418 115.7369423  79.2889595
  98.6569023 110.3481960   8.2134763  98.4165668 109.4919968   7.8593675
  98.2158947 110.3887939   9.0620652  62.5840569 144.2782307 109.0554237
  62.6103497 144.2429161 110.0116062  63.2316732 144.9434662 108.8224220
 110.7853317 132.6506615  76.1962461 110.5712318 133.5678005  76.0252237
 110.7618999 132.5730705  77.1500111 108.2694244   1.4605885  84.7114944
 108.6898422   1.2843113  83.8698292 108.8481045   1.0558968  85.3577042
  92.0612335  89.1966343 106.6883373  91.3434887  88.7390232 107.1261501
  91.6276836  89.8193073 106.1047745  94.1757584 129.3753433 100.9459496
  93.2811356 129.2590618 101.2658691  94.6184063 129.8593807 101.6430950
  74.0217257 125.6438255  69.1719866  74.1663074 125.1875591  70.0009298
  74.3145990 126.5399551  69.3375826  77.4169064 115.6329727   1.9325963
  76.5725899 115.3911591   2.3132268  77.5521803 116.5400791   2.2066251
 118.6044502 121.0519314  72.3719025 119.2138863 120.4329967  71.9697332
 119.1160679 121.8530846  72.4842691  92.1657848 135.2753162  10.2785817
  91.8983459 134.3987465  10.5548707  92.9597950 135.4534721  10.7825986
  60.2787113 132.0898056  88.2716656  59.8661804 132.8298664  87.8262997
  61.2179613 132.2352600  88.1581306  72.6765299   5.0968056  89.6886730
  73.1035185   5.3960114  90.4914093  72.2219419   4.2940884  89.9440670
  77.1011925 111.7754269  73.1439304  76.1909914 112.0386410  73.0079412
  77.6135254 112.4331379  72.6736498  81.0066414 117.3993587  82.1217442
  80.9042263 117.0499420  81.2365055  81.0923481 116.6242313  82.6767731
  88.2456303  79.6479177 101.4651966  88.2947350  79.3549824 100.5552483
  88.0542183  78.8529110 101.9627476  62.2886181   0.4640656  87.2075844
  63.2024670   0.5074196  86.9261074  62.2301483   1.0907536  87.9287529
  56.4347506 135.3478813  56.1649704  56.1526728 134.4406700  56.0482073
  57.0390177 135.5060577  55.4396629  52.0482779 122.8120136  69.7555447
  52.7441454 122.6587200  69.1164017  52.4722719 123.3057785  70.4574347
  73.5228395  13.3674221  49.3184376  74.1078806  12.9265957  49.9345827
  73.5665417  12.8351860  48.5240555  60.1690245   4.3502789  59.0809345
  60.4664421   3.4642201  58.8743639  60.7282305   4.9198895  58.5526657
  99.5003891 127.4194145  73.6682987  99.2471027 126.7639732  73.0183220
  99.7829914 126.9080830  74.4265270  98.4228039 141.3552570  84.2299175
  99.2064381 141.5934849  84.7252941  98.5482693 140.4314613  84.0128994
  89.0278244  13.4319859  62.2987175  89.6609783  13.1591969  62.9627466
  89.0503502  12.7332192  61.6449213  86.2395763 111.6796970  73.8297749
  85.3077126 111.5868473  74.0278912  86.4092731 112.6182556  73.9106560
  99.5970345 134.8454380  76.2780666 100.3615665 135.3900909  76.0908270
  99.1130733 135.3329945  76.9446278  50.8583498 111.1811733  44.3738604
  51.7042017 110.9134483  44.0145588  50.8249474 110.7716942  45.2384090
  48.5277414 143.3699989  20.4543439  47.8901815 142.9538727  21.0345117
  48.3725405 144.3084145  20.5617086  81.8214417   0.5693131  70.3295374
  81.0424614   0.0977784  70.0344372  81.9694042   0.2532654  71.2208557
  90.2399254   2.2609692  86.8826008  90.9943676   2.1648865  87.4638176
  90.0119305   1.3646393  86.6359329  81.4738941 133.6194515  78.8602114
  80.6585121 133.1317234  78.7440348  81.2829113 134.4912243  78.5141182
  67.6466084  88.4323883  49.6493530  67.7329445  87.8238678  50.3831673
  68.1855154  89.1838264  49.8966503  69.6959305 125.9915066  83.2826519
  70.6083679 126.2633991  83.3814335  69.6791458 125.5038166  82.4591732
  85.5610371 132.5931740  81.5955544  84.8931980 132.5787926  82.2811317
  85.0660706 132.5412655  80.7779026  89.1088009 143.3412838  51.3344908
  88.4585381 142.6503754  51.4610910  89.5658970 143.3966732  52.1736765
 119.6499825   7.2142678  81.6637993 119.9047089   7.8503590  82.3321819
 118.7805176   7.4983864  81.3817692  96.4452648 110.7111073 103.5782909
  96.2460995 110.1161003 104.3011570  97.0493984 110.2188778 103.0224323
  89.3886757   8.5163765  64.8752975  89.6370316   9.3701153  65.2298164
  89.1114521   8.0111199  65.6395674  79.1019917 122.5007725 106.8312073
  79.0466547 122.0251465 106.0023785  79.7726917 122.0347881 107.3304462
 119.5778561 136.2668991  97.3685837 119.9273109 136.9858837  97.8950500
 119.2288971 135.6479836  98.0099869 111.5752506  14.1599636  57.3428440
 112.4402523  13.9217358  57.0092964 111.6818523  15.0538617  57.6681709
 103.5276604   9.9043732 102.3276806 104.0681744   9.5144825 103.0147552
 102.6914406   9.4427567 102.3899078  89.8654747 128.8254929  99.0099621
  90.4136658 129.0969467  98.2737350  90.2192020 127.9753017  99.2712784
  73.2807779   1.1706429   0.7642213  72.9440355   0.3064614   0.5275289
  74.0885544   0.9895592   1.2447778  23.7939167  19.1095333  55.6063271
  23.7883782  19.3239003  54.6734619  22.8824592  19.2105084  55.8807039
  78.1596088 142.7132034 103.2560158  78.8384151 143.3797359 103.1502724
  78.2176208 142.1839714 102.4605370  56.3496351 127.3413277  32.7764654
  57.2594118 127.2033787  32.5128245  56.3793755 128.1095123  33.3467603
  54.6004629   7.7516156   5.5552522  54.2322636   7.0211106   6.0522786
  55.1377344   7.3358422   4.8809282  87.9697227 116.9158268  53.0352211
  87.1109390 116.5436649  52.8346872  88.1099319 117.5747299  52.3551989
  77.8919792  12.3418312  64.3991232  78.4153557  11.8380242  63.7758350
  76.9867468  12.1973591  64.1235971  40.2123690 117.3165798   5.1196615
  40.9910440 116.7765903   5.2549592  40.0825071 117.3162746   4.1713086
  97.5665569 109.7362328  59.1401625  96.9897842 109.9291611  59.8793077
  97.7172565 108.7924957  59.1939163  62.4217081 126.6855907  80.0781918
  63.1814194 127.2678471  80.0713253  62.5154161 126.1602020  79.2835760
  79.3667269 137.8478050  59.5398760  78.5590315 137.9009438  59.0289593
  79.9083376 138.5633087  59.2067957  84.1332722 117.2111130  90.9234619
  84.8031425 117.8557110  90.6954288  84.3613148 116.9321632  91.8102551
  89.9505615 124.0458202  87.4434662  89.6716022 124.8729706  87.8361988
  90.6140614 123.7070560  88.0444908  45.4693460 113.9095592  81.3299274
  45.9035492 113.2511044  80.7875729  44.8573828 114.3437290  80.7355976
 116.0231781  90.9041977 105.8467102 116.2728786  90.0779057 105.4330254
 115.1145840  91.0413074 105.5786037  53.3960724  95.9046173  87.4322033
  53.2184887  96.8129921  87.1881771  53.3566666  95.9014511  88.3885860
  53.5839319   8.6772328  61.8224955  54.1302538   9.3075734  61.3529921
  53.7711859   7.8379994  61.4019585 115.4416561   2.2902088  76.2847567
 116.2117958   2.8285103  76.1021280 115.6128979   1.9119149  77.1471930
  69.6094847 119.4481277   5.1435796  70.4145098 119.9206829   4.9317781
  68.9101934 119.9913311   4.7800390 103.0356312  13.2083493  76.3335848
 103.8986588  13.3032780  76.7365837 102.4410248  13.6615925  76.9312811
  74.7660971 107.0191669  94.4170189  75.4525948 106.7520809  93.8057709
  74.6718597 106.2748623  95.0114632  80.7331181 114.3817997  51.1432314
  81.3436508 113.9269829  51.7234182  81.2464523 115.0979900  50.7693338
  92.5153828   0.4170304  79.0691662  92.0779610  -0.3505916  79.4374704
  91.8008518   0.9793263  78.7700033 102.4875736 128.5031700  69.9235773
 103.3695793 128.3404636  69.5891571 102.1846485 129.2698956  69.4371510
  92.8209782 117.5986099  77.5133324  93.4692097 117.7555943  76.8267536
  93.2711792 117.0363617  78.1437540  93.1695175 144.0751266  83.3097839
  92.7297688 143.6665821  84.0554047  93.4394360 144.9348831  83.6325741
  74.6188021  11.4520436  92.0685387  75.0968885  10.8318310  92.6189899
  75.1388264  12.2548371  92.1049213  98.0780792  77.7417278  89.7041607
  97.6182079  76.9026089  89.7293949  97.6015854  78.2947016  90.3233624
  72.9220104 125.8240223  49.7349691  73.8732386 125.7345390  49.7931767
  72.7360106 125.7983017  48.7963676  94.8452187 143.0279446  62.6974583
  95.3821945 142.3134327  63.0400562  94.8955822 143.7084961  63.3686781
  72.0693827 127.4714279  70.4765081  72.5779581 127.4638844  71.2873888
  72.5931311 127.9951191  69.8701572 100.2473545  34.2128926  60.6295633
  99.8571396  33.8842373  61.4394665  99.7537613  35.0087910  60.4316568
  96.6161537 142.9245853  59.8566818  96.7872810 143.0584717  60.7888937
  96.1386871 142.0958996  59.8174238  90.0063705 141.7523479  77.1674871
  89.9465179 142.7076340  77.1585798  89.4480991 141.4841843  77.8973198
  80.9812355 110.1609612  85.1951408  80.3465652 110.4710197  85.8411217
  81.1340141 109.2456055  85.4296780  80.7282734 142.6055336  80.0561714
  81.0328674 141.7227745  79.8459625  79.8042631 142.6059246  79.8062849
 111.7606640 118.7312698  80.4563046 112.4943161 118.7716579  79.8428297
 111.7020130 117.8072166  80.6990337  39.2106605 118.7072563  98.8683128
  38.5163546 119.2963409  99.1635227  39.6386409 119.1801739  98.1545830
 109.4762897   2.6813202  68.2714462 109.2608738   1.7725544  68.0617619
 110.4205418   2.7430516  68.1272078  79.4753408  22.2429066  98.3714008
  79.1268492  22.7714901  97.6535034  79.1887808  21.3513356  98.1733990
  68.0845690 127.2185040  70.0504446  68.4708166 126.7732620  69.2962503
  67.1409702 127.1787167  69.8946667  76.8018246 127.8947067  84.1927242
  76.6724634 127.6698780  85.1141071  76.1927605 128.6159611  84.0343857
  94.9900532   9.7832566  81.3192463  94.0397644   9.8978596  81.3114643
  95.2050686   9.6282368  82.2390175  75.3359222 143.9810467  53.3397484
  75.9663725 143.4132195  53.7828445  75.6859398 144.0827465  52.4546623
 102.3620510 110.3985023  52.6627350 102.4162006 110.6155777  53.5934210
 102.2603130 111.2437344  52.2251749  94.7659874   3.5014229  59.3878126
  94.1634846   4.0289097  59.9122000  94.2929077   2.6846581  59.2286634
  35.6947160 135.1129723  67.3288727  36.5087175 135.3756618  67.7585554
  35.1788330 135.9178066  67.2805738  63.7327194 120.2311707  97.8673553
  63.0885506 119.8091602  97.2988605  64.5617914 120.1421070  97.3973083
  90.5241299 119.4146442  85.9829044  91.4273357 119.5642471  85.7034779
  90.0729084 120.2350903  85.7841301  87.3890972   4.0854912  73.9139128
  88.3388805   3.9680844  73.9328671  87.0371437   3.2316666  74.1655874
  82.9425430  22.7671223  83.5340405  83.4235191  23.3316212  82.9288769
  83.2120228  23.0633908  84.4034290  75.6844044 125.2220726  58.5632658
  75.4324150 125.2324677  59.4866467  75.1637220 125.9195995  58.1650400
  59.1538715 137.0866203  85.4249287  59.6225262 136.8265533  86.2179947
  58.3365297 137.4690151  85.7442379  58.6551762   1.0817604 104.7575092
  59.0191078   1.9626789 104.6693707  57.7091837   1.2176781 104.8109818
  86.4944458  94.0304947  67.9104376  86.3607979  93.0848217  67.8466225
  86.4942932  94.2094994  68.8507509  95.2100754 104.4951820  72.9253149
  95.8655643 104.7439480  73.5769987  95.3090286 105.1422977  72.2269678
  86.1541939  25.7690602  93.2006359  85.9451485  26.5985470  92.7711105
  87.1016407  25.6786328  93.0986500  44.1292191 143.6305237  89.3176556
  44.6299553 144.4107819  89.0795517  44.3752098 143.4560490  90.2260971
  71.8077230 114.0083408  83.6064243  71.4475012 114.7361755  84.1131210
  72.1839762 113.4223652  84.2631626  68.2642317 142.2594261  72.4430370
  69.1527224 142.0037365  72.1951628  67.7495146 142.1414185  71.6446829
  84.4121361 135.6816006  92.3524952  84.3189049 136.3555336  91.6791821
  83.5153198 135.4040241  92.5393391  70.7640409 137.2847462  82.1880722
  71.1208487 136.6302490  82.7885342  71.5345907 137.7137852  81.8160439
 112.7778339  13.8620739  83.9801979 111.9173431  13.9874440  83.5801029
 112.6128006  13.2881718  84.7282887 100.4335594   0.5625038  72.1750212
  99.9791622   0.5050450  73.0155277 100.0351715   1.3153916  71.7383432
  51.3610888 146.1371422  79.9022722  51.9006634 145.6369781  79.2899609
  51.4974737 145.7083607  80.7471275 115.7602024 120.8786106  45.5743074
 115.9507275 120.1465225  46.1608028 115.9536839 121.6586590  46.0942364
  96.1339092  16.1635952  66.3655996  95.8797932  16.8490582  65.7477140
  97.0867634  16.2341862  66.4230871  92.7238369   3.0713158  94.7187138
  92.1446609   2.3748093  95.0279999  93.5674191   2.6393776  94.5844269
  41.8876123 136.2774563  48.2750654  42.4938345 135.6033516  47.9679680
  41.0707188 135.8071041  48.4414816  58.1796169 132.6182747  85.7606125
  58.4592295 132.9269695  84.8987865  58.2105207 131.6638470  85.6947994
  12.3845225   9.6315174  83.7492847  11.7700415   9.2055588  83.1516171
  13.2445460   9.3118458  83.4764862  88.7342262   3.8230210 106.6274261
  89.0692329   2.9738217 106.3395786  89.1346169   4.4537812 106.0290527
  74.6920300 103.3669090  75.4879808  74.8109579 103.2922077  76.4348221
  73.8115644 103.0264282  75.3295803  94.4486046 132.4288559  64.3803883
  94.0634251 132.4075603  63.5043669  94.7031975 131.5222645  64.5521879
  90.8252621   5.6352311  90.2174568  90.4251766   4.7671776  90.1659775
  91.7590809   5.4771786  90.0787449   8.9007216 143.3882046  68.8516617
   8.7741690 143.6268139  67.9333591   9.3668490 142.5527573  68.8199997
  73.4576941 113.7561035  63.9990997  72.9938650 113.0965328  64.5149136
  73.9771557 113.2499123  63.3744764  66.5366411  16.6873913  82.0273685
  67.1794033  17.3904400  81.9333649  66.5477085  16.2381726  81.1821938
  47.8132772 130.4540920  58.6872673  47.9911947 131.0358047  59.4263124
  47.3967266 129.6873951  59.0808153  51.8528271 129.8511124  82.8815651
  52.0758915 130.3965473  83.6358643  50.9446287 130.0782013  82.6819897
 103.6159611   6.4903527  62.8119373 104.1085148   7.2886257  63.0026674
 104.1969681   5.9792977  62.2484779  79.8660946   7.9104596  85.5008411
  80.6169701   8.4968739  85.4084110  80.1764202   7.2131901  86.0785389
  97.8042603  96.2646389  73.5789490  98.4237671  96.6909695  72.9867649
  98.2887650  96.1603355  74.3978548  99.8537731 133.1532764  59.0665531
 100.2669525 133.4035683  59.8929119  99.9377251 133.9290714  58.5121727
 113.9253807   8.3396225   0.9837858 113.1415367   8.3909016   1.5307752
 114.0897083   7.4015026   0.8880845  65.1985264  12.8461056  70.0526571
  65.8453369  12.3244744  70.5278015  65.4935312  13.7502270  70.1611519
  92.2271252 141.3738441  90.7335281  91.2985897 141.1591530  90.6443024
  92.6100922 140.6077766  91.1609650  71.9631910 143.6602974  56.9554853
  71.5243292 143.4755993  56.1251116  71.2517405 143.8667202  57.5616693
  83.6232281   6.0316925  80.2696323  83.7195873   5.0969200  80.0875664
  84.3884373   6.4355545  79.8602724  95.7082367 129.9112511  95.6891823
  96.2227917 130.4250431  96.3116646  95.0193691 129.5115948  96.2201786
  77.8613710 143.7779713  87.8219318  77.5337315 143.4226608  86.9957161
  77.1074343 143.7487316  88.4109688  90.5670547  22.3802548  60.2082825
  89.8023701  22.5057965  59.6463871  90.6830406  21.4308529  60.2463102
 121.1638451  43.1834202  17.6904718 121.2552643  43.7459736  18.4595052
 120.4621696  42.5745755  17.9211370  39.9038553 104.8178291  45.7099867
  40.2455759 104.5304585  44.8633003  39.4060349 105.6107330  45.5107260
  74.8088360 136.8341255  34.7622625  75.1872492 135.9676170  34.6132699
  74.0092945 136.8400192  34.2360250  46.9553614   4.2294102  64.4755554
  47.7252626   4.7836190  64.6033573  46.2150145   4.8347454  64.5166302
  97.2307777 129.7691822  85.8451939  96.6911983 129.3114185  86.4898205
  97.3650742 130.6396198  86.2200832  67.8388357 130.7314968  -0.2061518
  67.1565533 130.0809669  -0.0402507  68.4504128 130.6284428   0.5229417
  91.1820889   7.2903614  23.1019735  90.3219795   7.3979264  22.6959348
  91.1293507   7.7968293  23.9124894  83.8539028 143.9968204  89.5883083
  84.0155888 143.1824970  89.1119099  82.9477310 143.9232349  89.8877716
  82.0478630   9.3542939  64.6170855  81.9977760   8.9161854  63.7675095
  82.6728821   8.8317185  65.1195765 109.6416473 138.1378555  76.7728233
 109.9602985 139.0402031  76.7511988 108.7086678 138.2084179  76.5708065
  50.6890631 137.8408241   9.3942491  50.3361177 137.0051765   9.6997873
  49.9173975 138.3888626   9.2513887  82.0850277   7.7707653  89.6468067
  82.7545261   8.2884198  90.0940609  81.3623047   8.3827668  89.5077038
  82.8593445 116.5916252  76.4665270  82.7402496 115.7196236  76.8429041
  82.9828072 117.1643829  77.2234535  77.7560568 137.2997570  45.2294922
  76.8034410 137.2786903  45.1383209  78.0622530 136.5510178  44.7177696
  88.1716537  19.4431286   7.3398248  87.9448891  18.8281613   8.0374185
  88.8502693  18.9939862   6.8358365  92.1466637  14.1307812  79.7807455
  92.7022552  13.4108429  79.4819927  91.6844559  13.7771588  80.5407143
 100.5213642   9.5726185 102.6649475 100.3702068   8.6594181 102.4211311
  99.6496868   9.9680977 102.6644039 103.4918213 114.6423149  83.1920624
 103.5246944 115.4097366  82.6208973 103.9084721 113.9469147  82.6830769
  79.5810604 125.8944988 105.6052303  79.1117048 125.6887817 106.4136982
  80.3123093 126.4445782 105.8861446  71.5101242 120.9974957  51.7238855
  71.7792034 120.4806232  50.9644985  71.4132881 120.3562546  52.4279261
  91.3993073   1.4437275  98.4608650  91.8032360   0.9143143  99.1484642
  90.6722450   1.8882351  98.8967896  84.6893120  27.1893483  76.6348171
  84.4408226  27.8800373  76.0204506  85.5720615  27.4272328  76.9183779
  48.9872885  21.8686276  84.7066021  48.9776516  22.7300434  85.1238346
  49.5545959  21.9784336  83.9435005  74.1296339   4.6601467  57.7919292
  73.3985090   5.0758629  58.2489443  74.5492554   5.3741913  57.3120499
  89.8470211   7.0625859 102.6445103  89.0826511   7.0167332 102.0701599
  89.8559666   6.2202244 103.0990124  79.0464497 123.8401890  84.1997623
  78.8537455 123.2341862  84.9151993  80.0018311 123.8971710  84.1849041
   5.8219843 106.9748497  84.7630787   6.0982352 107.6754189  85.3539371
   5.6142169 106.2413502  85.3419018  69.7743940 143.5900402  59.7092581
  69.8278666 144.4974995  60.0090694  68.9758921 143.5585403  59.1823483
  11.6049796 128.3411980  57.0077944  10.9717875 127.8904533  57.5664902
  11.1473780 129.1291237  56.7145205  54.0722466 140.8472919  70.8643818
  54.2818642 141.7463017  71.1175156  54.8637676 140.5301952  70.4294348
  11.6204386 119.9394035  82.3164463  10.7044917 119.6774960  82.2232437
  11.8546134 119.6788025  83.2072258  61.4008141 144.0262508  66.7659092
  61.3214731 144.6182156  66.0178995  61.4900541 144.6063709  67.5220346
  94.6200085 127.8843403  89.8844242  93.7986851 127.4075508  89.7646904
  94.3495655 128.7759686  90.1037121  69.8270750   7.5050335  87.6066685
  69.4764948   7.8145008  86.7714691  70.7707787   7.4392014  87.4606419
 124.7766781 119.8895550  91.2662315 124.3767262 119.9414921  92.1343136
 124.0446377 119.9948692  90.6585598  82.6686764 111.9429016  90.2679539
  82.0387363 111.9214630  89.5475674  83.0334759 112.8274441  90.2408695
  55.9882927  30.2500897  71.2192869  55.8889914  29.3029385  71.1230564
  55.3590870  30.4889660  71.8999243   8.8144332 144.5863342  98.6190510
   8.6890441 144.0384197  99.3938446   9.4323760 145.2610779  98.9003277
   5.4318076 118.7264442  89.7870922   6.3536673 118.7830925  89.5357037
   5.4316359 118.1850147  90.5764484 112.6826954 139.7122574 108.1196690
 112.1472073 138.9438915 107.9219437 113.2245159 139.4422340 108.8611221
  64.5148373 109.4479084 102.1674538  64.5413733 108.5099316 102.3564529
  64.5730829 109.5017719 101.2135410 102.3751926 120.4088306  68.1069231
 101.9079590 119.7143078  67.6426363 101.6910267 120.8838749  68.5786057
  61.8559456 110.1103306  72.5659370  62.7501726 110.4364681  72.4647999
  61.7100525 110.1007557  73.5119009  90.6593895 123.9246273  95.4248524
  91.0004425 124.5557117  96.0586071  89.7524452 124.1951942  95.2817535
 114.3822289 130.2598381  78.4641790 114.0334606 130.4243279  77.5880909
 114.1874790 129.3374825  78.6302233  48.7420702 115.8969688  11.6545049
  49.1898632 116.6529274  11.2747136  47.9453182 115.8033180  11.1323491
  33.7655234 137.3711205  99.9552631  32.9652309 137.6593399 100.3942299
  34.3034387 137.0022678 100.6558514 101.7695236 137.1606159  63.8216209
 102.6451778 136.9239330  64.1273069 101.1980247 136.9782448  64.5675182
  87.9119587 106.4176750  78.6427069  87.6242542 106.3634777  79.5540380
  87.1960163 106.8652248  78.1917429  62.2280884 112.2954559  66.7220163
  62.3889542 111.3560390  66.8106174  61.3119316 112.4065781  66.9760561
  72.9414177   6.4736157  44.5002842  72.4541712   7.0756035  43.9377546
  73.8263464   6.8372326  44.5304585 113.6762619   8.9217263  86.5736771
 114.6114063   9.1258507  86.5649033 113.2817078   9.5816403  86.0035324
  77.2885323 139.2193699  53.0834293  76.4165688 138.9040184  53.3210659
  77.8870010 138.5704231  53.4534836 104.3971920 128.5632610  57.5942087
 105.2793503 128.2688141  57.3676157 103.8195705 128.0361271  57.0421982
 101.6293812  86.1632633  97.3606968 101.5890789  85.2101612  97.2819138
 102.5589657  86.3541412  97.4859047  83.4843445 129.1794777  60.3389549
  83.5876369 129.9063778  59.7248030  83.3581066 128.4113693  59.7819042
 100.3945160 136.8040943  66.0744953 100.7666779 137.3520279  66.7655039
 100.0721836 136.0275841  66.5320539  15.3114825 126.9779205  93.8850403
  15.4794627 127.5641060  93.1472111  15.1471835 127.5638676  94.6238899
  41.3844776 111.6081238  48.3465290  40.9250832 112.1195126  49.0126133
  40.8804703 111.7506123  47.5453329  75.8228731 139.7431183  67.7618980
  76.4544201 140.2301788  67.2326040  75.7092524 140.2754211  68.5492897
  46.7636728   8.4997540  79.4314718  45.9467268   8.7929898  79.8350096
  46.9633389   7.6721268  79.8689651 100.9774113 119.9537849  80.5707359
 100.1985264 120.5032158  80.4830170 101.4477253 120.0714684  79.7453928
  79.4068432 105.8283424 101.1409569  78.8708496 106.5297318 101.5110683
  79.3127918 105.9294224 100.1937675  94.9728107 127.5555229 104.9851990
  94.9459648 128.3068371 104.3927193  94.1296005 127.5770950 105.4377079
  54.3987417 109.6228695 109.0404606  54.4768476 110.4948711 108.6534786
  54.8405361 109.0444851 108.4187508  66.0599232   0.1654129  59.0163755
  66.1488295   0.6539421  59.8347092  65.2337265   0.4721814  58.6428452
  67.0878458 135.4782486  82.8870392  66.1618090 135.5563164  82.6576996
  67.2247028 134.5395088  83.0145550  85.1396656 135.8738422  96.9761086
  85.7426453 136.5499592  97.2851658  84.3120956 136.3351154  96.8397903
 109.9884033 140.6483269  51.9279146 109.1701221 141.0926247  51.7059946
 109.9605656 139.8318672  51.4290524  80.7471371  12.6428395  74.9126387
  80.8065891  11.6884785  74.9561882  80.1026058  12.8734379  75.5816936
  64.4030714 134.0488815  71.5984344  64.4732428 134.0151596  72.5524616
  63.4756136 133.8923454  71.4208126  86.1603165 120.7662392  90.4506874
  85.4952717 120.6251240  89.7768784  86.1889172 119.9413586  90.9354591
 110.7030964 142.6639462  74.7369337 109.8429394 142.6304817  75.1555395
 110.5158615 142.8690434  73.8209057  70.8040190 128.6207390  42.9762840
  70.0017643 128.8312721  42.4984789  70.6599808 127.7342319  43.3073378
  93.6131859   4.5101052  90.5965996  94.5082474   4.7121601  90.3240681
  93.5118103   4.9575978  91.4366627 103.9355183  10.9223729  65.2334309
 103.1385326  11.3747197  64.9569893 104.2135239  11.3875466  66.0224581
  79.7558641 119.7634602  81.0502815  80.1021671 118.8710976  81.0520649
  78.8064528 119.6520329  81.0995960 108.6236000 122.0147133  56.4377022
 109.1222095 121.5201569  57.0881081 108.2668591 122.7580643  56.9239235
  97.5829792 144.1171646  45.9915733  97.1273232 143.8342571  45.1987553
  96.8894958 144.4530010  46.5594816  58.0420065 125.7281876  29.1339493
  58.5663939 126.5106297  28.9635611  57.1767616 126.0655499  29.3658185
  56.7611313  16.8486958  55.4921293  56.3856268  17.3726826  56.1997032
  56.2054300  16.0704785  55.4495049  96.2110901  87.2004414  72.3735380
  96.9047070  86.5874958  72.6172972  96.6478062  88.0510616  72.3292494
  11.2479532 113.5331631 109.6902752  12.0584476 113.0317020 109.7789955
  11.5111446 114.3362045 109.2407417  81.4153099 137.9429150 105.2260208
  82.3267937 137.6526070 105.2599812  81.2497997 138.3143425 106.0925484
   2.0768290  90.4209042  60.9036636   1.5651255  90.5276489  60.1017952
   2.7205401  91.1286640  60.8730221  84.2257595   7.8330403  71.0694790
  84.4410324   8.4283238  71.7874765  84.7716713   8.1290703  70.3410673
  69.0356922 109.8705578  76.8499327  69.0730143 110.8255482  76.7967319
  69.9332619 109.6066952  77.0523691  84.6075249 118.1489086  50.5816460
  84.8290157 118.8284111  51.2183952  85.2164364 118.2919979  49.8570919
  93.9359379 138.4852791  39.3687320  93.6488247 138.8203144  40.2181721
  93.5519695 137.6101685  39.3142104  89.5254135 121.5581703  65.8206034
  88.6905766 121.2701130  65.4514217  89.3606472 121.6262627  66.7610550
  70.4481077 112.1871376  47.6554537  71.3937283 112.0441437  47.6952744
  70.2854776 112.8901196  48.2844257  85.7661438   1.5543156  84.6375275
  86.0379601   0.7601624  84.1774559  86.3975239   2.2188263  84.3618202
 103.8890076  14.8201542  41.3254833 103.7043095  15.7490712  41.1868858
 103.0580521  14.3810444  41.1439991  94.8306370 141.4652824 105.9769249
  94.8553562 140.5279541 106.1693954  94.3248177 141.8441486 106.6958332
  75.3149414 139.6505928  56.8067026  75.3169394 138.9725018  56.1311197
  74.7865820 140.3571129  56.4353466  53.4547520 115.7726574  64.7536945
  54.3742943 115.7209110  65.0144529  53.4777498 115.7905293  63.7969351
  54.1888571 121.6833591  48.6291838  54.6351147 122.5111198  48.4505939
  54.4734812 121.1009884  47.9248667 105.2603817  26.2558918  62.7047539
 105.1892281  27.1010952  62.2611237 106.0871315  26.3060742  63.1845379
  72.2944927 104.3057537  52.3145199  72.1869946 104.1225910  51.3811827
  72.5476122 103.4651279  52.6959753 105.5216980 126.5373802  14.1859257
 105.7003212 125.6013298  14.0957665 104.6067333 126.6331768  13.9215589
  93.3980656  19.3542843  88.2471466  92.5170708  19.1975384  87.9072666
  93.2827091  19.4081097  89.1958427  75.3069687 126.6830635  75.3445530
  74.9678373 127.4702358  75.7706690  74.8379087 126.6408348  74.5112276
  40.9050369   4.2641812  80.5750275  41.1188030   4.3559151  79.6465254
  41.0120249   3.3300286  80.7542896  16.3687831   4.9619656  87.9679489
  17.3219519   4.9731713  88.0549240  16.0752230   5.7353573  88.4495258
  88.3505917  86.9076633  59.1899920  88.2254314  87.1747494  58.2793713
  89.2965412  86.9593239  59.3268824  59.9693727   0.0688248   0.8359186
  60.4937744   0.3717022   0.0946370  59.1850662  -0.3075046   0.4365865
 115.9774494   4.0391331  79.1940165 115.6899071   3.1375771  79.3380308
 116.9332886   3.9881401  79.1912365  83.1769276 125.5162239  84.6997547
  83.9155865 125.5448818  85.3078556  82.4094296 125.4027271  85.2603722
  59.3850327 138.7141609  83.0580235  59.5111036 138.3467197  83.9328575
  59.9499321 139.4866657  83.0390263  47.6177835 137.9270554  76.7055798
  46.8265104 138.3554840  76.3791323  47.2942877 137.2125912  77.2543192
  88.3393478 115.8286953  80.9099960  88.7133408 114.9487495  80.8647442
  89.0490627 116.4054108  80.6272316  67.8692245 145.2420807  65.6724072
  68.4257078 144.4870090  65.8632517  67.0194864 144.8627758  65.4481220
 116.9087982 121.3849831  63.4628296 116.7069817 120.7571220  62.7690697
 117.8647518 121.3891697  63.5114145  46.3300657 123.3427238  63.5093880
  46.4167356 123.4884930  62.5673294  46.5491819 124.1870308  63.9035559
  81.6146564  23.7777691  59.0294933  82.1124363  24.5346623  59.3385935
  81.5270519  23.9175396  58.0866146  76.5963364 117.2843456  55.4859304
  77.3103046 117.7148533  55.9561872  76.8858957 116.3771248  55.3893280
  67.2448778 141.7261505  66.5646267  66.9919252 140.8938026  66.9639206
  68.1637907 141.6071320  66.3244867  46.8163300  16.4885693  77.3998165
  45.9028864  16.2477475  77.5542593  47.3178244  15.7298832  77.6983833
  61.5520191  92.5735378  86.4662933  61.1124420  92.8863430  85.6756210
  61.0094547  92.8965473  87.1856785  85.8675194 135.0042057  88.3730984
  85.7421494 134.4936085  89.1729736  86.5317631 135.6532669  88.6049175
  64.7602987 120.7979870  90.7995605  64.2295647 121.4513302  90.3438282
  65.5496597 121.2714767  91.0621452  61.9607115  15.1194363  81.0145187
  62.5634241  15.0180798  80.2778435  61.3518810  15.8025532  80.7336330
  67.7498055  14.8398381  49.2487431  67.4530458  14.0020924  48.8933039
  68.6738300  14.8900204  49.0040112  90.4151917  16.1763935  52.6972008
  90.7326317  15.3909474  53.1428003  89.6338940  16.4310055  53.1880951
 104.8711967   1.3924675  58.6053610 105.8171272   1.4875679  58.4940147
 104.5186138   2.2608166  58.4107113  68.1932116   3.1686859  83.2475185
  68.5452938   3.5417443  82.4393749  68.8606930   3.3547287  83.9078903
  91.5524292  98.8934517  58.7442923  91.6253376  99.1929150  59.6505117
  91.5177631  97.9391003  58.8094664 109.2663288 139.9091530  59.4177294
 109.0934086 139.2826271  58.7150192 109.1975021 140.7661057  58.9968729
  49.8276424  92.4814892  67.5635910  50.3897285  92.8473568  68.2465553
  49.6367645  91.5920734  67.8614616  87.5789070 141.1675167  64.7008562
  87.7017212 140.2941132  65.0727510  88.2609558 141.2417030  64.0333652
  85.8986473 125.2406406  92.6850796  85.5157375 125.4097176  93.5459137
  85.4497433 124.4547749  92.3734283  78.6795092 110.8476448  77.7824926
  78.0626392 110.9095192  77.0531940  78.3887911 111.5190315  78.3997059
  65.2431679  37.6555424  61.5867758  66.0159016  37.5544339  62.1425581
  65.3887701  37.0482617  60.8613586   8.9795046   3.1266671  24.8349166
   9.2202693   2.6048069  25.6003761   8.1320696   2.7749710  24.5621872
  80.7745647 144.7813320  78.2602501  80.9553242 143.8511753  78.3958054
  80.3240108 145.0566006  79.0586567  72.8116465 140.2712536  85.2556705
  73.7226486 140.5577374  85.3207493  72.5747585 140.4317951  84.3422413
  97.0262241 127.3494530  69.5231247  97.3896313 127.9187679  70.2013969
  97.6963425 126.6793442  69.3885326  97.1935081  22.4809437  28.3717251
  97.1739674  21.5258961  28.4330106  96.2718487  22.7386265  28.3527398
  88.0066967   9.0485173  87.8695774  88.4435081   8.1968766  87.8580189
  88.6950779   9.6674900  88.1129360  55.5430555 137.9345512  63.7908840
  56.0273552 137.2315121  63.3579588  56.1527252 138.6723518  63.8043165
  49.1990519 145.3526497  77.2114897  49.6052074 144.8172855  76.5298319
  48.6980915 144.7300053  77.7383518  70.4781199   4.6665173   2.1027514
  69.6843576   5.1721649   1.9281115  71.0996294   5.3077774   2.4473503
  66.0792160 106.3439369  81.6672802  65.4840231 107.0881939  81.7570686
  66.8093777 106.5493774  82.2511387  89.9709415 126.6353512  61.6768265
  89.2260170 126.0656166  61.8684387  89.7745037 127.4501133  62.1392202
  10.9663420 101.8494034  65.6185150  10.9324294 101.5906620  64.6975756
  11.0416918 101.0236263  66.0966873 100.2870750 119.1622066  52.6101494
 100.2394581 119.0710068  51.6584969 101.2244320 119.1634274  52.8040409
  72.9372883  79.3854809  77.1934700  72.9801083  78.4763098  77.4897766
  72.5278091  79.8551655  77.9200745 107.1125031 113.0685043  88.8517380
 107.3729038 113.8448811  89.3473816 107.6899529 113.0669022  88.0883312
  56.5943575  10.7051640  52.6504230  56.5470791  11.3894444  51.9827700
  57.3091602  10.1377850  52.3616791  75.1644373 128.0784893  99.7145462
  76.0293722 128.4593487  99.5626736  74.8924446 128.4319687 100.5614853
  88.1726933  27.5882511  63.2881594  87.8125477  28.4381085  63.5417032
  88.5796356  27.7451306  62.4360991  88.8047600   0.2721005  58.5717010
  87.8771305   0.2869873  58.3360863  88.8250542  -0.1317520  59.4393015
  86.4040184 105.9697533  93.1595135  86.6570091 106.4747524  92.3867321
  85.5396557 106.3075924  93.3939934  58.8230515   2.0784264  31.2404490
  59.5564461   2.1522408  31.8511152  59.1541481   1.5232640  30.5344796
  84.9152851 120.8269596  28.5807371  84.8365784 120.6229115  27.6488566
  85.8559990 120.9295845  28.7248302  58.8355732 127.9180431  59.6829033
  59.3516493 128.3474159  60.3652096  58.5485363 128.6325932  59.1143417
  77.8500080 117.4548340  69.7949314  78.0180597 116.8949032  70.5528688
  77.8996372 118.3462906  70.1400137  73.6227989   2.7975922  79.5988941
  73.7409019   2.8542977  78.6506987  74.4373083   3.1444626  79.9628735
  84.7780418 133.2737350  98.0615616  85.5927467 132.8089237  97.8706837
  84.8483658 134.0920830  97.5700474  87.0091248   3.8708096  59.2355967
  86.9219494   4.6078949  59.8400354  86.1301994   3.7507038  58.8760185
  77.7855253  27.6703053  66.0505819  77.5143766  27.9749279  65.1846123
  78.5032606  28.2541256  66.2959766  97.0579720 137.7028084  60.4898453
  96.6193295 136.8732262  60.3011322  97.8340912 137.6962280  59.9296474
  47.1296406 129.6706867  99.4723034  47.3902798 128.7602997  99.6119595
  47.6749945 129.9668503  98.7435341  46.6821814 145.5164242  62.6274872
  47.3278427 146.1178493  62.2564983  46.2355566 146.0299110  63.3006096
  64.2157078 136.7343712  60.4122639  64.4524336 137.3108006  59.6856785
  63.2740355 136.8645477  60.5242586 120.9303951 104.2602634  66.2130690
 121.4547157 103.4803009  66.0314512 121.4418602 104.9828053  65.8489704
  76.9220448  18.0371838 109.3872056  76.8179321  18.7692814 109.9950016
  77.6699686  18.2825451 108.8425637  80.5484676 106.8627167 104.1458893
  80.9795761 106.8239307 104.9996281  80.8585930 106.0830021 103.6853313
  95.7260323 140.6186485  90.0856781  96.0992432 139.7703838  90.3252316
  95.3532124 140.9550190  90.9006023  86.1663628 121.6584682  41.5645885
  86.9523716 121.8708134  41.0612583  85.5678654 121.2748241  40.9236145
 104.5296478   7.0493489  43.4634924 104.9254990   7.8253346  43.0668020
 105.2213192   6.3881474  43.4382343  65.3741026  24.3871861  30.3704929
  64.7956324  23.8169461  30.8768868  66.1661673  23.8666897  30.2364659
   9.8255377 134.5359802  55.6615400   9.0307170 135.0384140  55.4824972
  10.1102191 134.8374653  56.5242672  80.6018829 136.9425201  90.7927704
  80.4559898 136.4171982  90.0060177  80.7545662 136.2994957  91.4851952
  98.2987976 131.2672806  40.6234694  98.6620045 130.3962994  40.4631233
  98.1184578 131.2822533  41.5634060  50.8235407 143.2919788  43.3446407
  51.1247492 143.1876278  42.4420786  51.3766193 143.9861965  43.7029696
  55.0335169   1.7317086  53.8354492  55.9806728   1.6410237  53.7310266
  54.6793270   0.8896427  53.5496092  93.6369705 135.6342697  55.2824736
  93.9407349 135.5893326  56.1890793  93.0879307 134.8575783  55.1750565
 101.3820648 123.9739227  67.0441484 101.5240192 124.1478825  66.1136532
 101.2191772 124.8360348  67.4268579  71.2210655 129.7268772  51.3190985
  70.8435631 130.5513573  51.6256237  71.6211176 129.3420601  52.0989084
 107.8924751 141.4900589  63.2315826 108.5953140 142.0283890  63.5955238
 107.4884987 142.0434952  62.5631905  65.2978134 142.3431301  81.1712265
  64.9509621 143.2315922  81.2522125  65.4774046 142.0731068  82.0718098
  68.6890793 140.5314732  38.9409971  68.3932400 140.8590794  38.0916500
  69.6340084 140.6842422  38.9407229 108.4990311  21.0383778  60.6382799
 107.7221870  21.3118344  61.1261177 108.3145428  20.1350956  60.3808641
  96.8466759 127.3058224  21.8416381  96.6658878 127.1779156  20.9104085
  96.3415146 126.6210556  22.2799587  64.7053576  46.4149266  79.7368240
  65.4247522  46.9271450  80.1060581  63.9410400  46.6674214  80.2547836
  94.7537231 106.4266586  61.8676424  94.7649860 106.5054703  60.9137583
  94.4951344 107.2949123  62.1766710  38.5201216  11.4511280  72.4622869
  38.3482528  10.5990391  72.8630877  37.9157901  12.0490151  72.9022264
  90.4860497 111.1866093  23.9217544  90.0161457 111.1675549  23.0880570
  89.9348450 110.6809330  24.5189905 103.5797691   4.7137528  54.1619205
 103.9857674   5.3616600  54.7377682 103.3945465   5.1934986  53.3545971
 103.4051418  28.4404545  53.0481482 102.7012444  27.8513699  53.3196878
 103.7314415  28.0631810  52.2311926  62.0792437 143.4012794  75.0879002
  61.7176342 142.6502991  75.5585527  63.0262899 143.2638836  75.1092100
  65.2310610 135.4278946  34.2069817  65.9828806 135.2431011  34.7698784
  64.6290636 135.9199715  34.7652745  48.1804371   6.7205315  71.4838123
  47.8420115   7.2322445  72.2185564  47.7433300   7.0870762  70.7151699
  90.5998516 123.1686020  51.4777136  90.6629658 122.3778534  50.9420252
  91.5087700 123.4140205  51.6504955  88.0693436 113.5870361  62.8928757
  88.9089775 113.1673145  63.0801868  87.4154568 112.9794598  63.2385635
  80.2203178   4.6049195  77.5716829  80.5648232   5.4853325  77.7214384
  79.2916012   4.6700840  77.7940845   9.3433028 127.5840282  53.0714941
  10.0566130 128.2103539  53.1945133   9.1715746 127.5985050  52.1299362
 108.9793301 109.6340942  82.2610188 108.5643864 110.1854134  81.5976238
 108.3295727 109.5716476  82.9611206  60.8814001 125.2806950  70.6622505
  61.1881781 125.8758736  69.9782228  60.7217503 124.4541645  70.2066422
 103.9068985   6.7912751  52.2712946 103.6818123   6.4506989  51.4055109
 104.1194439   7.7120095  52.1186495  75.9493542 143.2959080  57.7072048
  75.3533840 142.7562809  57.1877289  75.9545803 144.1433620  57.2622108
  69.4808340 114.6107578  78.8203239  68.6121082 115.0035381  78.9055586
  69.6728468 114.2627811  79.6911144  81.3448811 113.3261967  70.7368040
  80.5424786 113.8397884  70.8295441  81.8594265 113.8014889  70.0844526
  74.4404554   0.8807640  89.6497059  75.3393936   0.6806546  89.9106693
  74.4917059   1.7561417  89.2658901  40.1375103  10.8602982  41.5153694
  39.3754554  10.4334526  41.9069242  40.7587624  10.9510498  42.2378874
  95.2747726   9.8352318  51.3836050  95.4583836   8.9772778  51.7662621
  96.0687256  10.3447037  51.5458012  63.5056114  37.6013737  80.1762867
  63.2622242  38.5254460  80.1206398  62.9709673  37.1722393  79.5082903
  65.6223011  26.2649136  81.4920425  66.0267353  25.4855519  81.8731976
  64.7896242  26.3537388  81.9557190  67.4055958  10.9051113  84.9947929
  66.7263079  11.2001400  85.6012249  66.9404650  10.7448464  84.1736984
 106.0121727 141.9628334  48.3311367 105.1627064 141.5291023  48.4118032
 106.2235641 142.2430229  49.2216635 116.5567017 117.9764748  83.1517696
 116.2333107 118.8110542  83.4910870 116.6483784 118.1202507  82.2098827
  52.1595764   6.1299019  78.2882357  52.2735310   5.6634503  77.4601841
  52.8337622   5.7666664  78.8624954  62.1925068 139.6974850  90.9966564
  61.7992401 140.0092888  91.8117332  61.7874670 140.2335548  90.3148937
  98.7820244   0.5092793  63.2889891  98.1568432   0.0343972  62.7413845
  98.7967396   0.0224667  64.1130161  97.4062634 121.4593887  49.5448828
  97.7625847 121.1509323  48.7117434  97.5320721 122.4080276  49.5226431
  86.1322689 105.8696270  27.6330924  86.0359097 105.1729774  26.9837642
  87.0264435 105.7703972  27.9599380  84.8913860 124.1871166  46.5961647
  84.6157360 124.7887421  45.9045792  84.0891075 123.9977741  47.0827198
  72.2608280 135.8078384  68.3164740  71.7601442 136.5258503  68.7037659
  73.1751680 136.0345650  68.4862137  77.5464582 129.4283867  55.0511551
  77.9372740 129.1661072  54.2176628  78.1926918 130.0146294  55.4447556
  51.4831829 138.3331013  74.7038364  51.9898796 139.1410637  74.6220064
  51.3858318 138.2059860  75.6475496  50.6419373 108.6261559  76.1418200
  49.9564934 108.2425117  75.5948114  50.3219557 109.5049858  76.3455248
  97.8086281 144.9073410  56.2190628  98.3794594 144.3905544  56.7876673
  96.9940758 144.9957561  56.7139626 121.2630081   1.9973545  58.9976549
 121.0317612   2.6904564  59.6160126 121.5961170   1.2877064  59.5468998
  31.5048742 120.3682613  78.7073088  32.2084928 120.3508186  78.0585861
  31.5335107 119.5027161  79.1150475  94.4198322 113.5854530  51.0251570
  94.4384193 114.5281792  51.1899853  93.7252808 113.4693146  50.3768158
  86.1833382 144.4418907  74.9171162  85.6187248 143.6875439  74.7485828
  85.5920124 145.1116753  75.2605772  56.4673710 117.7798748  68.2828665
  55.6280422 118.2396317  68.3026743  57.0807743 118.3829784  68.7026739
  90.3635311  15.4629689  66.6769695  89.4295120  15.6362896  66.5594196
  90.6225014  16.0290509  67.4040985  82.8027439  16.9692974  81.2738895
  83.6310863  17.1257763  80.8204556  82.5530434  17.8264408  81.6191101
  80.6348419  20.3441029  67.6103878  80.4581261  20.6734448  66.7291737
  80.3535652  21.0510807  68.1911755  72.9739904 130.8603764  86.1145592
  73.3704853 130.6825352  85.2616787  72.0487499 130.6444359  85.9982586
  70.6425333 127.3759556  39.6400428  71.2559843 127.2539234  40.3646278
  70.7502413 126.5926456  39.1005349  79.6846724 145.1495647  83.3229256
  80.4228401 144.7549438  83.7872791  79.2059708 145.6299591  83.9984131
  90.6440163 126.6363811  32.5127935  91.5763092 126.6728497  32.2989750
  90.5184555 125.7651806  32.8889275  97.9809666  20.6222706  56.0490894
  97.2728539  20.6385975  56.6929388  98.2602215  21.5349942  55.9769869
  49.1770315  23.1876736  54.6118307  50.1160240  23.0698757  54.7554970
  49.0957117  24.0822010  54.2810392 112.8309250  51.2677365  80.5786514
 112.3806095  51.5241413  79.7738552 112.1407509  50.9056645  81.1343384
  86.3465405 135.9980774  50.5399895  85.4018974 136.1366749  50.6083393
  86.4537907 135.4625893  49.7538710  96.5572166 119.3482113  78.9035416
  96.5301228 118.5558605  78.3671951  96.2359142 119.0683460  79.7606754
  52.9320621 138.2421207  64.8562908  53.8504362 138.0265903  64.6939135
  52.6229143 138.6116791  64.0291977  96.9724560 115.9325123  90.5576897
  97.2534084 116.8125534  90.8083248  96.0168648 115.9833908  90.5354691
 100.4189873 127.0713043  62.8129959 101.2198162 126.7211914  62.4227238
  99.9109745 127.3938751  62.0686150 112.5189877 119.1216755  95.4293156
 113.0657578 119.1262341  96.2149811 113.1025887 119.4151497  94.7296619
  38.6118412   2.6775532  45.4892111  38.9511132   2.3647003  46.3278103
  39.3611431   3.1015282  45.0708532  96.0517597  10.9418373 104.2644405
  95.8173656  11.8690853 104.3031120  96.7774010  10.8522587 104.8822212
  71.7972183 129.1230583  64.8479891  71.9787359 128.2880974  65.2794075
  72.2438288 129.0585518  64.0038300  77.9850149 145.0751305  51.6579485
  78.4077215 145.9184456  51.4955616  77.7084208 145.1181793  52.5733042
  54.8322582 119.8815155  71.2962627  54.4810438 119.4879341  70.4975271
  55.7687092 119.6852875  71.2682104  36.2102437  16.8506222  59.9289036
  37.1487737  16.7673855  60.0976181  35.7957673  16.3374501  60.6225157
  95.3120327   1.4402657  83.3452415  94.6988869   2.0692139  82.9648304
  94.7540760   0.7884293  83.7695312   5.8005839 118.0848408  85.8522034
   5.0889330 118.5040188  86.3360214   6.4199954 117.8094578  86.5280151
  78.1586170 127.8804493  77.5896931  77.8130388 128.7722778  77.5516415
  79.0998316 127.9937458  77.7220249  75.4920340 127.8491402  79.0139532
  76.4113188 127.8734684  78.7483263  75.5187845 127.6636982  79.9526358
  42.4984694   2.2686558  60.2671528  42.1354485   1.8882447  61.0669899
  43.3124781   1.7867833  60.1207924  72.8391695 119.1857147  70.3154612
  72.8421640 118.5843658  69.5707464  73.6037207 118.9310551  70.8320284
 120.9545326 126.0287094  51.0315800 120.3699398 126.2899113  50.3200626
 120.6448364 125.1604939  51.2895107  59.5980263   6.0863858  36.3640070
  60.1167870   5.4901772  35.8239508  60.0819921   6.9119339  36.3420224
  90.3186131   0.4275112  56.2961626  89.8677635   0.4939823  57.1379185
  89.7128773  -0.0599594  55.7378674   2.5864821 124.4028854  91.9275475
   2.2953635 124.8624802  91.1399841   3.0280619 123.6199474  91.5985298
  64.6729755 107.3135948  68.0133295  65.4743624 106.9433880  67.6432514
  64.9755239 108.0303288  68.5709858  85.3062153 135.5064583  68.5241556
  86.1397934 135.0448895  68.6154079  84.8749161 135.3916550  69.3709326
 101.2388229 131.4896774  41.6002560 101.0822487 131.6840839  40.6761742
 102.0375633 130.9622002  41.6020536  38.8534832 133.2766819  51.0567379
  39.6912909 133.6824036  51.2796783  38.4650135 133.0495739  51.9015741
 118.0416775 119.3375111  31.8310905 118.7288857 118.8196182  32.2503328
 117.3455715 119.3868637  32.4862456 102.4160671 134.5995903  79.6188831
 103.1963539 134.8407269  79.1196585 102.6999569 134.6221447  80.5327415
  72.9880333 110.5516815  81.9696045  72.1624422 110.6114101  82.4502945
  73.4583044 111.3526821  82.2008324  52.1513319  15.5978375  45.8471632
  51.4367628  15.0337773  46.1428785  52.9408789  15.0728207  45.9782600
  98.9294815   2.5277691  71.0965824  98.5658455   1.9121914  70.4601383
  99.4466209   3.1381398  70.5709791 100.7959461  11.8383580  78.3990145
 100.4277420  12.0387726  77.5384951 101.7307186  11.7123013  78.2361031
  58.6953402 124.7782040  72.4905777  59.6064568 124.9210358  72.2342634
  58.6660528 123.8635349  72.7712154  99.0534592   7.4028187  69.2355156
  99.0383816   6.7627602  69.9470806  98.7868690   6.9067841  68.4614897
  79.7179937 123.5266685  68.0070972  78.8306808 123.8553143  68.1516647
  79.9099064 123.0045509  68.7860680  62.5968933   6.2347393  59.8707962
  61.9914961   6.4114933  60.5908537  62.2578287   6.7521172  59.1403246
  63.9998627  99.7853279  53.2301664  64.0631628 100.3824520  52.4847364
  64.1710997  98.9198208  52.8589487  47.7554560 111.7876434  73.7917995
  48.6951160 111.9112968  73.9258766  47.3474407 112.2218418  74.5409489
  70.6341696 144.2256641  47.6165581  69.7782421 144.0376949  47.2314644
  70.4982519 144.1324902  48.5594654  83.3405876 141.6045284  50.8374977
  83.7793732 140.7538414  50.8436537  82.5299358 141.4594173  51.3253641
  83.4057713  15.8654194  54.1752577  84.2767334  16.2407666  54.0457439
  83.5249615  14.9271756  54.0278578   7.2454100  78.6699200  76.3281488
   6.3785391  78.8299847  75.9551239   7.0693617  78.3122444  77.1983814
  95.3360748  22.4192410  35.7878757  94.8953819  22.8993588  36.4889503
  94.7908974  21.6449337  35.6484437  72.4773264   0.2603131  32.7457023
  71.7888737   0.4254799  33.3898950  73.2153082   0.7931214  33.0418921
  70.9346056 145.7310581  73.3620262  71.7815256 145.3255272  73.5477781
  70.6122446 146.0149860  74.2174196  87.1357059   3.9354306  84.0575314
  87.9958153   3.8321762  84.4647026  86.6288090   4.4404679  84.6933174
  75.6135941   3.9570217  54.3547487  75.4861879   4.7203045  54.9181271
  75.6491756   4.3167858  53.4684420  48.7206268  95.8977127  53.3546448
  48.6930704  95.2774239  54.0831470  49.6515274  96.0859966  53.2354736
  73.2289314 127.9713058  30.2072120  73.4138107 127.2940826  29.5565104
  72.7883577 127.5062180  30.9184194  64.3924809 137.5527859  54.6725559
  63.6550331 138.0881691  54.9654293  64.3467903 136.7651367  55.2145433
  76.0429621   3.4012680  63.4229183  75.6803131   2.7578335  62.8140640
  75.9972858   4.2316990  62.9490662  92.7936459 122.1318817  65.4100657
  92.2795773 122.7755928  65.8975077  92.5327682 122.2581959  64.4978046
  41.8035650 111.1623955  40.5508137  41.3119125 111.9683743  40.7086182
  41.1782265 110.5812645  40.1178408  74.0685320   3.3733445  76.9328403
  74.6497917   3.9340382  76.4190388  73.8920689   2.6249676  76.3627338
 110.8538723  98.8130379  62.6182938 111.3669491  99.6026993  62.4467802
 110.5619621  98.5245514  61.7535448  67.4455786   8.5309582  37.8857088
  68.1839991   7.9294091  37.9811525  66.8235111   8.0604248  37.3308444
  82.3836803  18.8542919  50.8634758  83.3380699  18.9261036  50.8487320
  82.1861649  18.4612637  51.7136192  77.1106482 134.1486454  94.8202133
  77.4719858 133.2636642  94.7704029  76.1629343 134.0235138  94.7711372
  93.8096714  33.6118679  46.2080956  94.1293907  32.7104740  46.1692619
  94.5677567  34.1453724  45.9695196  63.7868166 135.1560974  95.4736710
  63.4270096 135.0019932  96.3471794  64.2535496 135.9882736  95.5502701
  91.4595413  11.7607766  35.8606982  91.0592461  12.4499302  35.3305483
  90.7339954  11.3971024  36.3682103  59.4070053  17.0722370  43.5376024
  60.2392340  17.4758511  43.7839937  58.7478304  17.5649815  44.0263844
  72.3708200  21.7482167  37.0761037  73.0878735  22.1331578  37.5799751
  72.7381611  21.6114216  36.2028456 119.8752308 138.8376331  25.3295016
 119.8918152 139.6624947  24.8441458 120.3726196 138.2285595  24.7837377
  73.6108494 117.9020023   2.3217939  72.6891184 118.0737209   2.5145403
  73.9917469 118.7688828   2.1815504  45.7534409 117.9439735  66.2086868
  46.3508368 117.6022625  66.8739557  46.1712217 118.7488556  65.9023285
  71.2412691 133.6761093 107.2001308  71.5269566 134.5539379 106.9470843
  71.3636684 133.1477451 106.4114087  73.6024189 137.8070259  49.3555069
  73.5872984 138.6862755  49.7335577  72.8271770 137.3774910  49.7170687
  72.0789480 117.3869705  34.3710852  72.3745012 116.7184258  33.7530899
  72.4120808 118.2092762  34.0118122  59.6752882   1.7114334  66.0873795
  60.5846739   2.0098763  66.1006403  59.6535063   1.0399132  65.4056025
  57.1740818 144.4411850  34.4079828  56.7753887 144.9864864  33.7298107
  56.7988443 143.5718536  34.2676258  89.1014767  24.6868115  56.7289352
  89.6048641  25.4400425  56.4199591  88.5490417  24.4465046  55.9850883
  95.6083298 127.5914764  53.1825066  96.1661816 127.2025394  53.8561153
  95.8472919 128.5183620  53.1794405 119.5612526 128.1509781  58.1018448
 119.8102379 127.2870731  57.7733564 119.7664452 128.1201935  59.0362835
  90.1310635 134.3093300  35.5608535  90.8775043 133.8362217  35.9285998
  89.3777657 133.7479591  35.7442522  59.8877239 140.6251335  80.1734447
  60.5038023 140.0291348  80.5994225  60.2524281 141.4966774  80.3272057
  83.1638813  11.5284710  31.4322066  83.1178951  12.0406895  30.6248975
  83.9024258  10.9346657  31.2973595 103.3754253 122.3360825  25.2728176
 103.0769062 123.2251835  25.0814533 102.5998497 121.7900944  25.1439810
 107.6521206 123.2357407  69.1424847 108.4346390 122.7210140  69.3398666
 107.6721954 123.3471775  68.1920052  94.5122910 136.8004513  64.7817802
  94.2955780 136.5397072  65.6769228  95.4601955 136.9329548  64.7937441
  88.0570030   0.0602322  50.1233387  88.7789631   0.4833775  50.5880451
  87.3681927  -0.0295944  50.7819033 103.9621162 142.6183796  85.9347439
 103.6813545 141.8166733  85.4935265 104.2583084 143.1903076  85.2266502
  99.0465546 134.0582180  51.7354774  98.8704586 133.4976578  50.9798336
  98.5061169 134.8345375  51.5889168  96.0283184  21.6060238  58.1998396
  96.0468102  22.5228482  57.9254055  96.3393879  21.6206341  59.1049671
 111.9813824  22.0730191  38.4064198 112.0874882  22.8794651  37.9018354
 112.7402401  22.0537167  38.9895105  70.3813982 113.8371658  40.5124283
  71.1585712 114.3624496  40.7029915  70.0107431 113.6372662  41.3720131
  96.2867451 131.0672569  31.8034673  96.8940926 131.6716766  31.3768148
  95.7892513 130.6795979  31.0834336  59.5338488  29.5076924  37.7017021
  58.7501097  29.1417103  38.1116319  60.2595520  29.0299397  38.1033731
  71.2715435  10.3482228  66.9235516  72.2171164  10.4291230  67.0483780
  70.9051991  11.1141377  67.3655891  62.2802496   7.9029255  52.0837259
  61.4441252   7.4580651  51.9450378  62.9391479   7.2216969  51.9495106
  78.8105917  23.8353520  29.4932413  78.9676857  22.9030972  29.6430588
  79.2405081  24.0195065  28.6580801  68.9044142 146.2071705  59.5587826
  68.0294704 146.2363148  59.1716719  69.3684340 146.9419765  59.1575575
 124.5218468 136.9387341  42.8179836 124.7456551 136.3043880  43.4989691
 124.3357468 137.7471542  43.2955456  87.1721172  24.1262989  64.1327429
  87.1699142  24.7199803  63.3818865  87.4757862  24.6651821  64.8632479
  88.6779404 145.7723522  45.0665808  89.3476486 145.2060509  44.6831369
  88.3621597 145.2874756  45.8290768  50.1572657  30.0397854  84.5261383
  50.1772261  30.9595280  84.2616844  49.7454834  30.0479107  85.3901958
  88.8152981   3.8861161  57.3771715  88.2357407   3.8215332  58.1362343
  88.2657242   3.6364823  56.6342878  95.0354671   6.9454174  57.0918417
  94.7326660   6.4232235  57.8347111  94.9246597   7.8527718  57.3758698
  62.0723581 116.1961365  22.0636535  62.8137064 116.7349052  21.7873216
  62.1924400 115.3674793  21.5998173  65.8817577 145.4108524  75.7502222
  65.5681992 145.8828449  74.9787664  66.7583942 145.7622147  75.9060621
  98.0120754  13.9536648 107.7697491  97.4582100  14.6683865 107.4556997
  97.4549675  13.4686928 108.3785801  51.3800097 131.3380814  88.1080818
  52.0105410 131.7931843  87.5499249  50.9869766 132.0304966  88.6394119
  34.6924138   3.9671402  34.1461563  33.8140702   3.8842469  34.5174694
  35.2594376   4.1150074  34.9030280 119.6571159 111.0410118  43.8715029
 118.8526535 110.7656384  44.3110943 119.5783138 111.9924068  43.8017464
  92.4384880 136.4947510  80.9890175  92.2762775 135.6768799  81.4591312
  91.8291187 137.1207619  81.3801861  87.0633507   1.2192135  54.0206766
  87.2667789   1.8536454  53.3334017  86.1299229   1.0379677  53.9106655
  92.3070717 124.5874596  45.5161762  92.1585655 124.6829033  46.4569569
  91.7641163 125.2676868  45.1177692  74.1618776   9.8850231  47.0066500
  74.4690514  10.7177620  46.6482925  73.2613707   9.8063927  46.6917992
  95.9214973 135.2097607  60.2974463  96.3455677 134.3737602  60.4910517
  95.3460407 135.3655148  61.0463285  93.4707260   0.3061371  51.6356516
  93.3232117   1.1797600  51.9979382  93.4056282   0.4256420  50.6881714
  66.7352724   8.3690243  48.3842993  67.2762346   7.7378922  48.8589239
  67.3526096   8.8413029  47.8256559  81.7418575 130.8705330  54.3952656
  82.4672985 130.3906536  54.7948599  82.1640873 131.5609264  53.8840914
  84.4244576 144.8225880  48.7782192  85.1064396 144.1607475  48.6637354
  84.2038631 144.7807121  49.7087145  39.3721509 133.2553959  45.8006763
  38.6966991 132.6834297  45.4361868  39.0125537 133.5470009  46.6384649
  67.3716402 125.4737282  49.8334837  68.1483412 126.0055256  50.0071335
  66.6411543 126.0891342  49.8958778  67.6109314 121.8910503  44.6206474
  66.9961500 121.1659718  44.7326422  68.0126476 121.7346191  43.7660217
 119.8843384 132.8462124  59.3142748 119.6826077 131.9108295  59.3386221
 119.1300201 133.2426453  58.8782978  85.2113342  17.7245312  28.5652757
  84.2606831  17.6542645  28.6521721  85.3898811  17.4568539  27.6637745
  72.6174164   6.8602925   2.3595288  72.1556711   7.2874623   1.6380340
  72.2806597   7.2887307   3.1464642  57.5666904 125.1357269  63.3590174
  57.0099115 125.5338860  64.0281200  57.4782753 125.7120323  62.5998735
  56.1560774 133.9051723   7.9291493  55.5274343 133.3312130   8.3668888
  56.1675787 133.6001110   7.0219362  68.7332392  42.0856266  48.7299824
  68.6894226  42.6769238  47.9785299  68.9515877  41.2337475  48.3520174
  72.9054356 136.3852215  33.0538201  72.6788998 135.4585743  32.9748225
  72.8495312 136.7225170  32.1597624  70.3223038 117.8980827  75.5073738
  71.1032009 118.3309364  75.8524275  70.3736591 117.0047665  75.8473587
  81.1944294 143.8305283  34.6649313  81.7256546 144.3928146  35.2287221
  81.8238831 143.4280396  34.0665960 106.2323380 130.0455666  53.3185339
 105.7563782 129.3079948  53.7002182 105.5804634 130.5015850  52.7862263
  55.0683069 118.1345844  31.2346101  54.4206762 118.2624054  31.9277692
  54.5781517 117.7257347  30.5212951  54.6484947 119.7882748  25.3767848
  53.7035751 119.6433258  25.3282881  55.0328970 118.9620972  25.0837040
 120.9892273   1.5237027  51.9548607 120.6131744   1.2586003  52.7942276
 120.2638817   1.4526730  51.3343239  89.2109680  19.4327526  64.5976877
  89.0279007  18.6891156  64.0234852  88.5392570  20.0776272  64.3759394
  87.9834557 113.2058716  54.1930628  88.0204678 113.1775665  53.2369995
  87.7397728 112.3165131  54.4497633 123.5467815   2.9112702  62.6270962
 124.0881824   2.2058659  62.9813766 122.6918125   2.7870446  63.0391932
  98.7329483 131.8721008  13.8587070  98.0806255 131.2464714  14.1738057
  99.1472054 131.4326096  13.1161010  70.9256744 142.6734638  41.9880724
  71.1688805 142.8647709  41.0822678  71.6609430 142.9989815  42.5073433
  49.8407030 124.7354507  20.2483201  50.1075745 125.5093956  19.7523105
  49.1862822 125.0609875  20.8663750  76.1589622  -0.0173683  67.3735428
  75.6082058   0.1461487  68.1391525  75.8839798   0.6411820  66.7356300
  51.5097523 116.1389923  40.4709673  51.7721748 115.7139111  39.6544719
  52.2712708 116.6602707  40.7251215 105.1904488 132.7972317  32.3374724
 104.2553616 132.5931072  32.3506594 105.3601551 133.0850220  31.4404726
  79.8015308  47.1004277  23.5837412  79.7395563  48.0534344  23.5191417
  80.0478268  46.9375973  24.4942641  76.5836382  14.4640904  47.7503347
  77.0286322  14.1723805  48.5460234  77.0717525  15.2395611  47.4735165
  74.6107721 132.3421288  37.2085547  75.1125431 131.7218590  36.6796660
  74.0045214 131.7952824  37.7081990  90.2787495  10.3317051  68.6470222
  89.7681046   9.5221215  68.6542225  90.9674072  10.1862793  69.2957401
  86.3141727 130.4950237  27.2402024  86.6640091 129.6213436  27.4149013
  85.9777832 130.4438400  26.3455176  74.5465708 145.1285648  48.8300753
  75.4868174 145.2592850  48.7072659  74.1780710 145.1978683  47.9493761
  51.1596394  11.1913853  80.5337429  51.5072393  11.2374764  81.4244080
  51.7007828  10.5321293  80.0992680 113.4332085 139.3959045  46.9201136
 113.4683800 138.5047150  47.2676420 113.8718414 139.9290276  47.5831461
 107.4450111  29.1046124  81.4045334 107.0908928  29.4525891  80.5861568
 107.7189350  28.2135372  81.1872482  60.9567356  26.9778805  38.5771728
  60.0787783  26.8741207  38.9441204  61.5329409  26.5487271  39.2096591
  84.9741077 142.9094315  92.3208046  84.6148491 142.0753670  92.0183182
  84.8341465 143.5100746  91.5887737  85.9490776 137.9346180  70.6767464
  86.2015533 138.5145855  69.9583244  86.7078400 137.9318428  71.2602758
  73.7980938  21.2593441  14.1862369  73.5436153  22.1430188  14.4518793
  73.4842396  21.1803227  13.2854140  79.1487694  27.7856999  18.6874533
  79.2739105  27.4521046  17.7990341  78.3819962  27.3150616  19.0142238
  78.5772991   6.8147641  46.4793825  79.4884586   6.9196873  46.2054920
  78.5814095   6.0319500  47.0302153  74.7119999   4.2194825  60.5623579
  74.5369148   4.0329151  59.6399879  73.8914490   4.0108185  61.0088825
  45.4051256 119.8264122   5.9694070  44.4864321 119.6390343   5.7767409
  45.3754330 120.4455757   6.6987842  64.7890759 144.1891766  58.4743309
  65.4095030 143.5729980  58.8637114  65.2406883 145.0327301  58.5008526
  75.5428314 129.1224670  39.4025469  74.9195766 128.8261414  40.0658512
  75.1417494 129.9081898  39.0310597  72.3691273  19.8530369  63.4501934
  71.5304089  19.6970539  63.8843012  72.8550386  19.0367298  63.5675573
 120.8502007 133.2226372  30.3789663 120.2341557 133.9315414  30.5638313
 121.2242317 133.4465027  29.5267868  84.4114399 120.7845402  33.5544562
  83.7432766 121.1578560  32.9796219  84.6517372 121.5024471  34.1401982
  19.0136909  10.7144051  38.2552648  18.9131057  11.6636830  38.3257842
  19.9601555  10.5757790  38.2203126  63.5790300  27.9799824  66.3177204
  64.5213461  27.8177243  66.2735891  63.3502436  27.8154164  67.2324896
   9.9238282  21.7942791  41.6105604   9.6876907  20.8704739  41.5265369
   9.2688751  22.1555310  42.2078514  60.7315207   9.4802933  28.0124021
  59.9880743   9.4373207  28.6137938  60.3339911   9.5187455  27.1425033
  92.8107357   6.5054970  66.5414238  92.7458858   5.8030491  67.1884108
  92.0591450   6.3698082  65.9644175  13.2960635   9.5967751  36.7249703
  13.4841185   9.8813134  35.8305955  13.9332133  10.0651722  37.2642946
  66.7815542 125.1305199  74.9948883  65.8903408 125.4481602  75.1400566
  67.3370457 125.7526588  75.4645729  78.5111523  11.6744213  67.1388245
  79.2383003  11.7465763  66.5205383  77.9655600  12.4396687  66.9572830
  64.8853397 137.6835918  29.4101286  64.8178244 137.3542118  30.3063321
  64.2526770 137.1629143  28.9152884  85.5804634 137.6708221  16.1134899
  86.4146614 137.8915977  16.5277398  85.4565430 136.7412090  16.3050508
  57.4372435 124.8094273  56.6761637  57.7594995 124.2855167  55.9427452
  58.1247187 125.4580498  56.8274879  23.6410332 119.5123577  45.3358412
  24.3383932 120.0978565  45.6309891  24.0245414 118.6369801  45.3894711
 109.3944073 125.4797935  47.2855806 108.6252022 125.8778286  47.6931477
 109.2739487 124.5389938  47.4145317  77.7287245 126.0407162  43.6206436
  78.5940123 126.4389133  43.5260630  77.1633148 126.5571976  43.0463696
  62.1947622 145.7659245  71.1476469  61.8700266 144.9859142  71.5974903
  61.5470886 146.4427853  71.3441133  96.0831547 105.6796551  25.8299422
  96.0792065 106.1541271  24.9986219  96.9462776 105.2674294  25.8663440
  84.9954128  10.8120137  54.4173050  84.5335960  10.0007897  54.2054796
  85.8952141  10.5366021  54.5926332  79.5677900 122.4255466  51.0981655
  80.2054787 123.1334305  51.0060549  80.0743294 121.6902637  51.4431524
  47.3618793 142.9198742  67.0806837  46.4207935 142.7554226  67.1402407
  47.6401520 143.0498600  67.9872704  66.6928434   5.6249600   5.0088871
  65.7859135   5.7495385   5.2885133  67.2019815   6.1927109   5.5873901
  84.1367531 145.0032425  66.0894299  83.2578278 145.3821468  66.0766077
  83.9953041 144.0766430  66.2834311 109.5514202 138.2545185  57.1590519
 109.1840267 137.4237251  56.8573332 109.1892719 138.9079571  56.5606356
 107.2634697   4.2255574   5.2485287 107.7830887   4.7495346   5.8581805
 106.3569927   4.3730717   5.5182952  68.5662746   7.4535160  58.9097548
  68.4981585   7.3854523  59.8620987  69.4650364   7.1884041  58.7143660
  63.2601357 144.8045063  39.0573597  63.1591749 144.3754387  39.9070311
  62.4441767 145.2899456  38.9357185  65.6953812 131.4427948  64.2918777
  65.8194494 132.2514057  63.7949038  66.5761375 131.0785770  64.3804598
  69.9108791 130.1266098  39.1884685  69.8093891 130.5348778  40.0482655
  70.2298880 129.2443466  39.3784118 111.0880375  18.9675503  63.5258627
 110.9797478  19.8104649  63.9663363 110.7286263  18.3280735  64.1407728
  62.3257732 100.1928902  25.0263166  63.0516148 100.1182365  24.4067883
  61.5600920  99.8949432  24.5352030  58.5659075  98.5246372  37.0975780
  57.6990509  98.1190586  37.1150565  59.1240454  97.8783321  36.6651320
 116.1042404 144.3752384  80.4036808 116.7218494 144.1130829  81.0863686
 116.3620186 143.8623524  79.6376991 116.9021797   2.5152188  97.4527558
 117.6290035   2.3456841  96.8534156 116.1805058   1.9886380  97.1090480
  98.8113308   6.3569718  63.2256222  98.2127285   6.3830452  62.4791479
  99.6558952   6.1129265  62.8469563  12.4803858 139.2936516  12.1359491
  12.1338015 139.3475914  11.2453282  12.3268347 138.3859634  12.3981512
  65.0324106 132.5400162  50.7688618  65.2498817 133.4293747  51.0481167
  65.8663273 132.1687889  50.4807520  70.2306175  22.7020817  71.7133141
  71.1809969  22.6032811  71.6563034  70.1008606  23.4106045  72.3437119
 100.6101990   0.3890972  48.3702898 100.1784515   0.2757817  47.5235415
  99.9326420   0.7575112  48.9372206  77.1514988  93.9259720  63.1464291
  77.9911327  93.5448265  63.4032869  76.6880655  93.2117558  62.7089739
 122.4240780   9.4813233  56.0486698 123.1384277   9.1344052  56.5830708
 121.9709969   8.7044220  55.7209826  68.1451702   5.5777245  71.4604378
  67.9419804   4.7435837  71.8837023  68.7623644   5.3494912  70.7652998
  70.8189344   2.1477490  29.2736769  71.5900040   2.5058251  28.8338256
  70.5077457   2.8614884  29.8304224  88.8166237   9.0501004  27.2841191
  89.2983341   9.0535050  26.4569712  87.8966427   8.9964753  27.0252919
  71.2379742  38.7581616  82.5245190  72.1355343  39.0905361  82.5126743
  71.3130617  37.8788357  82.8952026  77.7091026 137.8675747  57.3771143
  76.9734049 138.4710026  57.2729397  77.8760529 137.5387001  56.4938211
  92.0943069   4.2628937  28.3811855  91.7254543   4.3716889  27.5046349
  91.8023109   3.3942967  28.6578012  41.7255831 116.2438107  32.5988913
  41.1943722 115.5311489  32.9540777  41.5773058 116.2051296  31.6540360
  58.3836842  24.4086056  61.2423325  58.4675407  24.2993145  62.1895647
  58.8474560  23.6573391  60.8725548  73.6239100  43.5017186  49.9717045
  73.9156342  42.5918560  49.9144268  73.8778210  43.7796955  50.8517551
  55.9634686 132.9201603  40.7371044  55.3040934 133.2775688  40.1423693
  56.7961979 133.0704308  40.2896547  97.2161102   7.1286373  47.9546022
  96.3328362   7.4851303  47.8599072  97.7464104   7.6362782  47.3403406
  67.6843834 130.7066822  58.6919975  67.1330070 131.1623001  59.3281031
  68.5756254 130.8218193  59.0216494  81.9387627   6.8060665  53.7589884
  81.1061954   6.9982891  53.3275747  81.7190170   6.7485028  54.6888399
  91.2270069   9.2185192  44.2564058  91.5178967   9.4566708  43.3761215
  91.8491745   9.6528511  44.8399401  98.5159492  13.4730797  21.2375212
  99.2508698  13.3015519  20.6487107  98.9202881  13.8344937  22.0262694
  84.4471073  16.4840489  67.2366571  85.1172543  16.9530087  66.7394352
  83.6306572  16.9359570  67.0235491 100.4278278 122.5146389  51.8924856
  99.7274303 122.4270248  52.5390196 100.9357166 121.7078972  51.9787598
  84.7547150  20.2641087  17.4574590  84.3455791  20.9874707  16.9824696
  85.0639057  19.6719151  16.7719495  70.9657621   7.8078537   7.0761073
  71.0676861   8.6287289   7.5577760  71.6790771   7.2539120   7.3932356
 102.3068237 141.6494846  61.5971136 101.7106152 141.8913269  60.8883953
 101.8156052 141.0130692  62.1166563  66.5436363 128.4391975  17.5060141
  67.3667669 128.1109619  17.1441472  66.3356733 127.8326416  18.2167006
  51.8290234 115.3732777  37.8848863  51.1514473 114.7868061  37.5484776
  51.8326521 116.1103249  37.2741604  86.8642998  24.9073773  40.7529020
  86.9323730  23.9541989  40.6979561  86.1718178  25.1342182  40.1322317
  86.3843441  10.9413128   7.3744255  85.5888748  10.8890992   6.8445796
  86.2637234  11.7247563   7.9109943 108.3204937 133.2078362  57.4761581
 107.3695946 133.1169605  57.5374937 108.6510086 132.8186321  58.2857895
  14.4326687  91.6018867  25.9331489  15.0187278  92.2627926  26.3018990
  14.9721408  91.1310291  25.2979350  31.6123295 139.1899681  47.6804638
  31.5720558 138.7366295  48.5225439  31.6026330 140.1196194  47.9082346
  86.7682552 130.8093929  36.2309337  87.2687340 130.3827572  36.9264507
  86.1702728 131.3974285  36.6923022 103.3829403   8.2760792   6.2639278
 102.6653194   8.9080506   6.2208468 103.7282753   8.2446175   5.3717452
  94.9529266 144.0319347  30.3369546  95.4901981 144.7089005  29.9255085
  94.1646385 143.9898682  29.7956014  99.0806198 127.3202038   9.2824364
  99.5738792 127.9520893   8.7593281  99.4124794 126.4669704   9.0029633
 114.7398663 127.2721863  67.4842739 115.4015636 126.9845009  66.8552828
 114.1164780 126.5469456  67.5246716 109.1268349 115.7430935  65.8963919
 108.2853317 115.2912998  65.9596062 109.4724464 115.4871655  65.0412416
 100.5210876 138.2764530  50.3894567 100.4554939 137.5166321  50.9679127
 101.0675812 138.8975525  50.8709288  81.2982082 146.1566353  15.4668617
  80.7056808 146.2507820  14.7210205  81.0246658 145.3421211  15.8887362
  92.5561142 104.2771244  31.5358710  92.2174931 104.8575878  30.8542323
  92.4651909 104.7797489  32.3453975  74.7069263  99.4650269  79.5418453
  74.7775841  99.2506790  80.4720592  75.5857468  99.7530842  79.2950106
  55.3907633 123.6102772  65.7513428  56.2646723 123.2634068  65.5718994
  55.4965830 124.5605850  65.7073593  53.6903620 134.4712448  67.5425434
  54.2951918 134.4855499  66.8007803  53.0456829 135.1488876  67.3390102
 107.9721642  25.1644879  33.5613346 107.0664597  24.9259739  33.3637333
 108.0227470  25.1419430  34.5169306 104.9559975 144.2532921  68.1244707
 105.2978134 144.4330883  69.0002918 104.6090031 145.0938225  67.8255796
 110.8378315 133.5081482  49.6178865 110.2361298 133.8476562  50.2804041
 111.3299847 132.8228664  50.0699902 105.7052231  17.9086285  47.3349714
 104.8622227  17.9303723  47.7878571 105.6093788  18.5379391  46.6201210
  34.2861676 142.1517849  54.5210743  34.4599724 142.9178524  55.0680304
  33.5882139 141.6836929  54.9793148  53.6201143  20.9848194  22.3488712
  53.3568907  20.0691395  22.4410534  54.2297888  20.9856396  21.6109514
 103.6378860 137.8477097  41.4066648 103.5933304 136.9827175  41.8141508
 104.3146801 138.3105659  41.9005728  98.6985111  18.7807446  47.9188204
  98.9579201  19.1617565  48.7577248  99.5255280  18.5668545  47.4869347
  69.5583963   3.8117104  62.5079775  69.3679237   2.9093056  62.7641439
  68.7236261   4.1500073  62.1840239  93.7063789 144.2119408  55.3367090
  93.0315495 144.5547199  54.7507620  94.5190811 144.6100712  55.0248909
  33.6115408   3.2879811  50.5044651  34.2788649   2.6117783  50.6213665
  32.7936220   2.8650360  50.7659245  98.9098549 103.6676216  36.5742540
  98.8065434 104.5798016  36.3031721  99.6983433 103.3706093  36.1200452
 118.6804295 143.3620167  39.8114872 118.1892586 142.6375389  40.1989365
 118.1942654 143.5832691  39.0171790  45.1344776  93.9008331  28.2423830
  44.2570877  94.0496826  27.8898621  45.2441835  94.5810223  28.9068675
  71.3903666 139.1094589  18.7050998  71.9486380 138.8709736  17.9650402
  71.2677813 140.0547504  18.6177945  81.6728687 121.7233086  46.2266064
  82.1975517 121.0363770  46.6377974  81.8149757 122.4943161  46.7757654
 106.2103081 127.5351143  71.9364500 107.0417500 127.4239540  71.4753866
 105.6352425 127.9535389  71.2957859  58.7452078   1.0599499  37.2779989
  58.7559700   0.7579308  36.3697577  57.8416586   1.3385182  37.4270844
  68.4519053 137.5426102  30.5783033  67.8641558 137.3517609  29.8473072
  68.1190729 137.0079517  31.2991309  82.1793175 138.0686855  31.0808730
  82.0612431 138.7815380  31.7086697  81.2898350 137.7815914  30.8743906
  63.4047365 113.0209541  16.7182302  63.9223289 112.4732208  16.1280453
  63.9700747 113.1538773  17.4791217 106.6740131 126.3915634  35.5416512
 106.9103241 125.7536125  34.8682976 107.5128937 126.7158413  35.8693027
 104.9277210  80.0685215 109.1291575 104.2076588  79.4422245 109.0551035
 104.5082664  80.8846188 109.4017105  87.2289276 142.2633266  40.7722569
  86.9886017 142.5750256  41.6447878  86.4062786 141.9532204  40.3936911
  86.1179066   3.7946205  70.7059908  86.3439178   3.5252743  69.8157072
  86.9169998   3.6456089  71.2114429  53.9199495 106.9898605  11.7222118
  54.5869160 107.6569080  11.5596235  53.0992460 107.4004078  11.4499295
  49.6619749 124.4467735  11.0928774  48.8363361 124.2999172  11.5543830
  49.4122267 124.5163918  10.1714599  97.2454166   5.9322625  55.9783983
  96.6903973   5.8365040  55.2044392  96.6724491   6.3250904  56.6369009
  76.3367510  11.0281544  29.7205162  76.2068987  11.9432049  29.9696016
  75.8527327  10.9321957  28.9002991  73.6527681 101.8693638  19.4259143
  73.2799864 101.8968678  18.5447168  73.3631706 101.0295391  19.7823834
  84.3537235  16.6855793  18.1348419  84.7296619  17.1221905  18.8992155
  83.5351849  16.3059216  18.4543514  77.4277830 115.5389786   8.0292809
  77.3985243 116.1314774   7.2780669  76.5386677 115.5570793   8.3833712
  71.7981005 120.6596470  14.0430117  72.2659445 121.2752724  14.6072435
  71.2914085 120.1178551  14.6479595  78.5896397   9.3760090  26.9974637
  79.4427443   9.5604019  27.3904657  78.7447119   8.6188774  26.4327192
  75.1427984 112.8965855  31.4821243  74.5515919 112.6245594  30.7801962
  75.4016495 113.7872410  31.2455583  71.9909573   4.9372464  26.4180303
  72.9280567   4.8318749  26.5822649  71.8205643   4.3960362  25.6471252
  65.5919600 141.7709637 108.0159045  65.9765768 141.4752960 108.8410614
  64.6528482 141.6186142 108.1212116  70.9765482  10.1367169  23.8186193
  70.8152771   9.3294602  23.3301950  70.1035213  10.4644184  24.0346432
  37.1996856 108.0261517  56.0841990  37.0260000 107.2560406  56.6254902
  37.6948762 107.6878071  55.3381777  48.3029938  20.2807789  28.2167864
  47.7631760  19.6004467  28.6192703  49.0375376  20.3919964  28.8203645
  59.7055817 129.0646172  39.1699553  59.9063873 129.3565941  38.2807660
  60.5473900 128.7772465  39.5235252  43.3307743 136.6429615  57.8344202
  42.8995705 137.4777889  58.0170250  43.1177521 136.4583969  56.9196558
  81.0594273  30.9641056  21.9678259  81.9710350  30.7551937  22.1716976
  80.5597496  30.2301960  22.3254895  37.2947478   2.9010563  52.8093290
  37.6785779   3.0159932  51.9400215  37.7206373   3.5669785  53.3491468
 124.6940708  10.5527668  10.1507163 125.2497196  10.1606636   9.4771105
 123.9934349   9.9144917  10.2846670 101.3328648  92.5240326 102.0513936
 101.1688709  93.2924461 102.5980862 102.1338081  92.1416092 102.4098190
  87.9115486   7.4846154  29.7037220  88.3096600   7.9088288  28.9436007
  87.9867172   8.1311779  30.4055357  80.9453106 143.5660744  15.9879863
  81.8522739 143.2653427  15.9312260  80.4402447 142.7721119  16.1633849
  68.3398390   8.1611615  42.3180056  68.0893898   7.2378712  42.2857046
  68.3965254   8.3614045  43.2523108  72.6663828 139.0692043  24.7425890
  72.0947742 139.5592690  25.3336287  73.4985352 139.0065384  25.2114534
  92.1327782  15.2227574  37.8494000  92.3153019  15.8096104  38.5832453
  92.1533108  14.3460255  38.2329941  76.7707253 103.5274410  39.6626401
  77.5617790 103.8484001  40.0955868  76.6083860 104.1587448  38.9616919
  91.1436272   4.4221764  22.8075194  91.5748501   4.6444397  21.9823670
  90.7277870   5.2375489  23.0876660  71.1717081   6.8326550 105.0360882
  71.1464882   7.0329457 104.1004177  71.3731670   7.6695042 105.4548162
   6.5554457  10.8154278  12.7496898   7.0963889  11.3941269  12.2123694
   6.1052638  10.2540093  12.1185052 104.9008560 126.7017365  98.6828276
 104.7945023 127.6404285  98.8370045 105.3089523 126.6456509  97.8187998
  70.1495886  10.4258900  33.5602427  69.9301529  10.2930050  32.6380587
  70.8260059  11.1030846  33.5503149  53.7493134 113.1253147  36.6558480
  54.7054768 113.1224823  36.6113758  53.5429478 113.7695694  37.3330379
  78.2419729   8.7492352  48.2439852  78.6387300   9.4007950  47.6658058
  78.2177782   7.9479485  47.7209234  62.2315788  93.7898922  46.4989805
  62.6330614  93.7787247  47.3678446  61.3035107  93.6213398  46.6617918
  53.4645367 119.4482517  33.4906125  53.9176846 119.4814205  34.3331003
  53.7559128 120.2355766  33.0307722  95.8987904 127.1391582   5.2532810
  96.3271523 126.3749695   5.6389505  95.3594780 127.4936199   5.9601980
  59.7896099 135.5497932  32.8275800  59.8066807 134.6168041  32.6143527
  59.7450447 135.9888268  31.9781733  86.2538147   4.1182022  25.9995675
  86.8769264   3.4335690  25.7561827  86.1911488   4.6725445  25.2217460
  74.5127869  18.8184719  27.4453115  73.9978933  18.6039906  26.6674209
  74.0552759  18.3811932  28.1634355  61.1085701  15.5807095  51.4961863
  61.0199499  15.4751377  52.4434090  61.2612295  16.5175801  51.3728571
 105.6610489 134.8438358  67.0587063 105.8571529 133.9654541  67.3846245
 105.7038689 134.7609234  66.1060667  57.1749067 122.0821667 106.0440051
  57.6056385 121.7737865 106.8412509  56.5804005 122.7699184 106.3436642
  99.0733433 132.0761299  24.4457984  99.2397785 131.1335182  24.4465232
  98.4886742 132.2155380  23.7008381  94.3703175 120.8126450  90.2477559
  93.5946083 120.4214478  89.8459049  94.8585606 121.1848927  89.5134052
  69.9917316 132.1361351  21.0480785  69.2619085 131.5455914  21.2347460
  70.5198193 131.6674423  20.4017997  82.0202255 134.3705750  50.6671095
  82.4631691 133.6010551  51.0247135  81.1321354 134.0686703  50.4763794
  63.4309530 131.5451527   8.7170178  64.2991018 131.9089603   8.8907665
  63.2184792 131.8442345   7.8329158  86.0859013  11.4474659  30.2161098
  85.9995079  10.7280236  30.8415532  86.8258381  11.9601517  30.5414987
   0.3364020 145.4604816  16.2069666  -0.1419992 145.4590130  15.3778911
   0.8198481 146.2866116  16.2030625  98.2173634 143.4744263  62.1472406
  97.9267311 143.7580109  63.0140400  99.0820789 143.8714123  62.0427990
  68.2860422  28.3673077  20.4093766  68.8153410  27.5800686  20.5371523
  67.6199818  28.3220463  21.0953426  83.1600666  14.2334538  86.9302424
  83.8517570  13.9051228  86.3557895  83.5455894  14.9992924  87.3557981
  58.2946920 132.9594517 103.5806199  58.6654806 133.3312130 102.7802821
  58.8860130 132.2418118 103.8076767  80.5892372 139.9666595  45.9789562
  80.4773235 140.2310848  46.8920755  81.2255859 140.5884266  45.6258249
  94.4090176   4.9809628  73.1330824  94.6796513   4.9727898  72.2149706
  95.1917744   4.7155743  73.6158848  92.0038605 123.5152721 109.4273156
  91.9776821 123.5131836 110.3841553  91.1615086 123.1447601 109.1638590
  44.8250771 123.6150742  44.4616938  44.2621660 123.8833237  45.1879168
  45.6948376 123.9342213  44.7022867  57.8062105 134.8844433  47.0122480
  57.7043390 134.1181374  46.4477777  57.9420090 134.5210075  47.8872919
  73.1237936  19.5927029  38.4952354  72.6481247  20.2201443  37.9509139
  74.0400410  19.8604565  38.4243870  51.8876791 105.6818485  29.9442625
  52.4806023 106.2521839  30.4335332  51.0474920 106.1401939  29.9595857
  69.7838497 123.5805702   3.6262774  69.1065884 124.0372276   4.1252902
  69.3852663 123.4225750   2.7704743  99.8166656 138.0789280 102.0923241
  98.8948822 138.2125568 101.8716683 100.0699425 137.2979164 101.6002872
   6.0025626   0.6771641  39.5786834   5.4751521   1.3024121  40.0758123
   5.4608946   0.4559021  38.8211417  93.3482647  11.4132767  37.8148508
  92.6216602  11.4936714  37.1969366  94.1330814  11.4555531  37.2685051
   0.7722407   4.8231201   8.6601394   1.6399222   4.4883042   8.8865399
   0.4990321   5.3209095   9.4307196 108.7788963 137.1004391  29.1375232
 109.5422554 136.5783691  28.8906288 108.7767601 137.0838547  30.0945783
  72.8142214 136.7328835  30.0807786  73.3685732 135.9543610  30.1340342
  73.1868553 137.2435379  29.3620300  72.2377968 132.8949642  13.5781515
  71.8796110 133.7296581  13.2761073  72.7322102 132.5615215  12.8294170
  76.3929701 123.9635754  12.1996784  77.3208046 124.0910435  12.0019341
  76.1082125 123.2861614  11.5862870  64.7609997 142.8649139  11.0664093
  64.7134733 143.1207180  11.9875717  63.8726377 142.5813675  10.8504343
 112.1408463 119.6809101 106.4641895 112.0168018 120.3704834 105.8120176
 113.0159664 119.8402596 106.8177538  73.4769011 139.3813515  44.6274710
  72.9767036 138.6791325  44.2116356  74.3359184 139.3450832  44.2067528
  75.6553507 130.2332020  10.6299615  74.8428583 130.6698227  10.8857799
  75.9025955 130.6514263   9.8052245  97.2593117   0.4018574  60.9228611
  96.4728737  -0.1127071  61.1044550  97.1193695   0.7505970  60.0425053
  60.8516550 123.2725334 105.3029006  60.2739382 123.9737225 105.6042498
  61.3501310 123.0219936 106.0807075  70.1053667  16.8499165  40.4205418
  70.9760904  17.0563298  40.0807285  70.1969862  15.9754353  40.7988167
  24.7623253 127.8840923 107.7625082  25.4226494 127.2292614 107.5357810
  25.1344347 128.3502197 108.5111680  79.9762297  39.0942173  14.5184338
  80.7243443  38.5184460  14.6767223  79.4335222  39.0025311  15.3015673
 100.2512169 131.6864872  63.1512594 100.8493996 130.9574032  62.9874229
 100.8016872 132.4669552  63.0872393  98.2133484 132.8407001  49.5813131
  98.7358570 132.7401352  48.7856293  97.3379230 133.0655003  49.2661619
  99.8486519  14.0502720   6.0876644  99.8249340  14.6174221   6.8583882
 100.5480099  14.4135647   5.5443895  64.8284721 126.2874985  18.5229707
  64.4532681 125.5296040  18.9713585  64.1926289 126.9887638  18.6649406
  97.1891499 140.9815693  27.6314473  96.8118191 140.1024246  27.6007462
  96.8235874 141.3715172  28.4255147 106.9219398  38.8019162  59.6256924
 106.7364693  39.4997769  58.9973354 106.8822479  37.9973393  59.1086912
  62.5848579  25.4006558  25.3502321  61.8034935  25.9533673  25.3356576
  62.2458982  24.5086651  25.4257393  52.8815889 142.9524708  11.3177133
  51.9899559 142.8157520  11.6379106  53.2391453 142.0698929  11.2205303
  85.2115345  18.2284909  12.9266024  85.1795101  19.1692715  13.1002390
  86.0669136  18.0889111  12.5202942  74.3539333 129.1561985  23.8264990
  74.9290705 129.5939827  24.4540286  74.0431166 128.3779144  24.2889833
  84.3485069   0.7977562  25.8597136  84.8126125   0.0295430  26.1924052
  83.4559727   0.4892617  25.7033610  77.4316645  44.0699177  62.6452065
  77.6498365  44.6689968  61.9312477  77.1684170  43.2607251  62.2068882
  80.5227184   2.4134903  28.2759094  80.0038242   1.9158154  28.9078140
  81.2630844   2.7463036  28.7831783  65.5808067 118.8857365   4.6322927
  65.1189232 118.7503529   3.8049066  65.8514595 118.0080795   4.9019003
  71.3010168 120.8928108  20.6186628  70.8413935 120.9745121  21.4543080
  70.6151581 120.9879208  19.9577701 105.2589798 145.1711369  13.2486010
 105.1808548 144.2437267  13.0249274 104.3980598 145.4076385  13.5937262
  11.5401774  16.8831234  92.5408276  12.0987254  16.1179142  92.6777002
  10.7984572  16.5508824  92.0351633  41.3743925  87.2716045  27.2617626
  41.0467386  87.6032448  26.4257646  42.3080683  87.4823570  27.2536707
  60.2515459 128.9983368  78.4231758  61.1349344 129.2143917  78.1245470
  60.2129602 128.0426693  78.3853531 108.6451435 138.3116055 107.5011120
 109.4621658 137.8772068 107.2561558 108.8563728 138.7818432 108.3076438
  84.0859699 125.3125763  40.9303904  83.5205078 126.0339928  40.6546259
  84.9389076 125.5167580  40.5469322  80.5840397   3.0596810  40.1129627
  80.7585907   3.9821034  40.2997398  79.7170687   3.0573445  39.7072577
 100.9155083 143.1921101  19.7978580 101.2844181 142.3109436  19.7372401
 100.6237316 143.2676315  20.7063699   0.7439070 112.2184658  61.6448832
   1.0201006 111.3489151  61.3553333   1.4732676 112.7920628  61.4098120
  37.9068875   9.9869137  14.1451252  37.5132132  10.0215988  13.2733166
  37.9135275   9.0560608  14.3680632  98.8102913 115.4197025  26.0900903
  98.7512207 115.3831291  25.1354146  99.7061729 115.1448917  26.2853289
  74.6718979  12.6381092  69.9255705  75.2250671  13.0993252  69.2950821
  74.1672325  13.3302670  70.3527403  73.3412743 124.4391632  63.1817627
  73.3087730 125.1170921  63.8567400  72.5210953 123.9569950  63.2868910
  75.9552908   1.6345673  16.4369476  75.1879454   1.0660725  16.3718617
  75.5933666   2.5132065  16.5519941  80.1027489   9.3220501   4.1838861
  79.7647953   9.3655854   3.2893893  79.7129583  10.0773030   4.6242160
  81.6102123 132.3389339  64.0206766  82.4119568 132.0192242  64.4344759
  81.5640736 131.8653297  63.1901312  91.4369202   8.6089497  29.4500709
  91.3878250   8.4379845  28.5095429  90.5306625   8.5483723  29.7521472
  59.8759174 124.1253471   6.9072586  59.8108864 124.5790482   7.7475911
  60.2902174 124.7607517   6.3234395  53.9603519   1.8188267   7.8521854
  53.2743406   1.2538891   8.2078111  53.5695410   2.2061520   7.0689374
  97.9423618 106.6678905   8.9180338  98.8577175 106.4842796   9.1293281
  97.9841232 107.2671700   8.1728166  94.9039745 128.9207077  12.1263075
  94.9861145 128.0774689  12.5717628  95.6783772 128.9720726  11.5660560
  91.4843178  30.0373059  54.6893024  90.7209301  30.5858975  54.8695946
  92.2252369  30.6429081  54.7121763  66.6646194 127.5398445  10.3400087
  66.7442942 128.0511570   9.5347464  66.1949348 128.1153584  10.9436703
   3.9668971 143.9764977  54.4176483   3.4661799 143.2147217  54.7095728
   4.7542697 143.9684677  54.9618912  93.3169556  39.7780018  21.3669944
  92.7838993  39.6588116  20.5809450  93.6336994  38.8994961  21.5770698
  54.1793537 137.4274254  37.4356365  53.9488983 137.3241901  36.5123463
  55.0458527 137.8339100  37.4222112  56.9057369 134.5757866  87.3539194
  57.5055599 134.9472809  88.0007895  57.4226093 133.9074326  86.9040545
  97.4195766  23.9695721  24.3011045  97.9422760  24.1023426  25.0919271
  97.3123741  24.8473530  23.9347100  60.4461670  97.0474815   0.4627586
  61.3927412  97.1882439   0.4423961  60.1686764  97.4067116   1.3054842
 121.4235306 121.2775517  68.1458473 121.5058708 120.3281116  68.0563021
 120.5412483 121.4097977  68.4927177  72.0198059  17.1489697  19.8311162
  72.8443050  17.6205998  19.7128046  71.7409945  16.9273930  18.9426327
  64.2361212   5.5306034  67.4367666  64.8994732   5.5830365  68.1248379
  64.0419197   6.4427834  67.2212791  76.3018608 114.8214340  39.8817492
  76.3232040 115.1913738  38.9991808  75.8673000 115.4900360  40.4112482
  97.1401024 144.3253803  15.2254391  97.8784943 143.7569904  15.0064898
  96.4682961 144.1044807  14.5803618  78.0951262 135.5500984  76.9043827
  78.3614969 135.0241947  76.1502552  78.4911680 136.4077663  76.7501688
 103.9031506 128.2776642 104.5587554 103.6318016 128.5970879 105.4193231
 103.1640148 128.4786129 103.9847078  78.2387257 140.0642967  50.7900143
  78.0804348 141.0059261  50.7228804  77.8599787 139.8173046  51.6336823
  69.3726587 137.8784752  42.6743364  68.7863302 138.4036064  42.1296453
  69.0664625 138.0278587  43.5688543  72.0406294  38.7726574  39.0801764
  71.6336727  39.5696812  39.4198394  71.3062477  38.1832295  38.9084363
  80.5889511 134.5349693  29.0953970  80.6102085 135.4648113  29.3216276
  81.1639118 134.4605732  28.3337426  59.1698694  25.1321011  34.3411279
  60.1150322  25.1707440  34.4874406  58.9942074  24.2102604  34.1524768
  76.3591623   3.5202580  21.5975475  76.9084263   3.6311512  20.8215070
  76.0886621   4.4089203  21.8285108  59.3578053   6.0516529  17.2893906
  59.7515011   6.3219338  16.4598227  59.6677351   5.1556187  17.4209034
 106.0747528 137.4890900  51.3662815 105.6732178 136.9746304  50.6660414
 106.5331364 138.1957817  50.9116316  86.1062527  12.8633099  41.8411064
  86.7207336  13.1658726  42.5097561  85.2789593  13.2891255  42.0658350
  97.9771996 133.0179787  30.3298306  97.7797222 133.8020325  29.8174858
  97.9372120 132.3015308  29.6963215  77.2702217   8.0272465  33.2406878
  77.1075583   8.7623101  33.8318324  76.4812851   7.4890309  33.3050179
  26.2297416 143.4901047  96.4779862  25.9081030 142.8770065  97.1389636
  26.1102605 143.0306435  95.6468126  83.7774181   5.4464131  26.5311599
  84.6582794   5.0731354  26.5624905  83.6310863   5.7892781  27.4127817
 115.5369186   4.0166931  29.3896842 116.3276577   4.4160729  29.7522593
 115.7482815   3.8596325  28.4694195  70.0640631 124.8187160  21.9710970
  70.0786018 124.5794106  21.0444069  70.8788252 124.4608498  22.3236918
 106.2208080 126.4927006  47.1730566 105.9109974 127.3464680  47.4752522
 105.8650780 126.4081955  46.2884426 101.1846447 108.8670635  49.5317554
 101.0955334 108.8681698  50.4847956 100.4874325 109.4469261  49.2253351
  98.0459499   4.9884587  49.7597218  98.6375046   5.7209282  49.9323273
  97.2369099   5.4003601  49.4563580  88.2721519 144.8618507  19.6082175
  88.9019775 145.4641151  20.0042415  88.7091541 144.0104771  19.6290827
 100.2982807 125.3610134 102.2406372 100.2257824 124.7814274 102.9989603
  99.3941879 125.5019093 101.9595619 106.2279606   8.0919533  14.7539067
 106.6851521   8.9250260  14.6390104 106.2996101   7.9065781  15.6902468
  92.0532322 133.5926437   0.4762378  91.8180084 132.7124119   0.1828153
  91.4081669 133.8001060   1.1523158  62.0169115   7.8404408  31.3187528
  61.4578247   7.9761868  32.0837545  62.5650358   8.6242371  31.2805700
  83.1987953  13.8836460  56.9540453  82.5042629  14.5268994  56.8123007
  82.8460789  13.2930832  57.6196718 116.3587189 122.2823715  54.9682903
 117.0250797 121.7072010  55.3442907 116.0966396 122.8507710  55.6924915
  81.9408512   0.8509903   9.3301082  81.9872093   0.3675824  10.1549757
  81.1167240   0.5689698   8.9332181  81.4087582  23.9632206  47.4904108
  81.4848232  24.9168949  47.4593306  81.3446522  23.7583332  48.4232235
  91.5494251  13.0329876   1.0696983  92.0808411  12.6021176   1.7391627
  90.6486607  12.7946263   1.2888528  99.5403481 128.0928802 109.0539350
  98.7382793 128.2308388 108.5500627 100.1742363 127.7725697 108.4122031
  89.1509342 134.0401268  52.2005606  89.9198818 133.5746956  52.5296879
  89.3901920 134.9654293  52.2534990  92.4009514 144.7319794   6.1631382
  92.8955269 144.4669628   5.3876448  92.8905010 145.4743767   6.5172774
  72.4967289  11.5092926  11.0437775  71.5846395  11.6808396  10.8094895
  72.5306940  11.6463929  11.9904995  83.9715385  28.3932858  99.7355767
  84.1385365  28.5588436  98.8077112  84.7914410  28.0247479 100.0644740
 103.2813263  26.4834957  26.3548088 102.8114033  26.8366986  25.5993891
 103.0478668  27.0673542  27.0765018  51.2462234 141.5260601  45.3954601
  51.0051632 140.7554626  44.8813629  51.1523676 142.2589207  44.7869015
  83.4669876 136.8708229  34.1344929  82.7044678 136.6037560  34.6477842
  83.1142235 137.4671745  33.4740734 104.8467636 124.1320133  18.8646352
 105.0832939 123.3779335  18.3245957 104.0839481 123.8395405  19.3634462
  96.3199234 123.6311245  69.4496822  95.5645180 123.8936901  68.9236975
  96.0171223 122.8658295  69.9384117  99.2226982 135.2524471  42.8220940
  99.1330147 134.3088627  42.9556131  99.9257278 135.5128098  43.4172297
 100.7575130 132.8802299 107.8485084 101.5381145 133.3876324 107.6261778
 100.0969219 133.5387897 108.0633224  94.8668194 115.9737301   0.3759415
  95.6862736 116.0674191  -0.1098075  94.4512653 116.8336964   0.3127614
  80.0259304   9.2853337   8.9097291  80.0133133   9.1729336   9.8602235
  79.3437576   9.9339943   8.7361813  50.1247978 127.8636646  19.0687883
  49.3559885 127.4132919  18.7190425  50.2567530 128.6056995  18.4786987
  76.2074375   9.7045498  21.6720152  75.7353210  10.0127011  22.4455667
  77.1316671   9.8091011  21.8980670  89.4157410 138.6325359  14.0272224
  89.7746849 139.4288540  13.6357260  90.1317787 137.9990101  13.9807034
  50.9970903 145.0527954   2.0781259  51.1752844 144.1672516   2.3947956
  51.8615007 145.4547691   1.9918215  57.8911781 134.6824837  59.1305542
  58.0345154 133.7497139  58.9704847  57.9940081 135.0915337  58.2712889
  84.4482613   5.7023602  47.9657888  83.9091492   4.9550991  47.7065992
  83.8344669   6.4352780  48.0139828  75.3357029  12.8857975  37.5202942
  75.8326101  12.9072838  38.3381295  74.5635605  12.3576527  37.7229905
  65.2542925   5.3694229  16.0990191  65.7842064   4.9070149  16.7483199
  65.8115005   6.0897045  15.8041346  87.3119068  17.4639683 101.8482127
  87.2250271  17.1195393 102.7370628  87.4797630  18.3985882 101.9688489
  90.9914875 112.0682240  31.6420794  90.1125145 112.3986816  31.8276787
  91.2768650 111.6713142  32.4650335  63.9623022 104.2263794 101.8709602
  64.8588514 104.1388893 102.1946486  63.9476013 103.7114334 101.0642096
  78.9570427  34.3800907  99.4466981  79.1578102  33.5569554  99.8920914
  79.7914553  34.6574765  99.0684863  81.8169689 110.7986546  98.2153662
  81.1673355 111.4295483  97.9052349  82.2942924 110.5393410  97.4272343
 103.5425758   9.1266709  32.4251938 103.4099960   8.3231240  31.9222355
 103.8692856   8.8270645  33.2735610  19.5623999   1.0722523  62.8017998
  19.9055796   1.9361191  63.0302572  19.1146021   0.7752591  63.5939550
  80.9926796   0.5193310  62.5978518  80.7806110   1.4403992  62.4465752
  80.4675007   0.2746468  63.3597898  93.1463337  10.4324131  45.8707762
  94.0843296  10.4046898  45.6820393  92.9476070  11.3644104  45.9609270
  71.4337301   0.8945542 107.2281706  70.8250093   1.1321621 106.5287196
  71.7029476   1.7317753 107.6060665  98.1377029 125.0093079  41.6413307
  97.3957062 125.4909420  42.0069885  97.9965591 124.1044426  41.9197750
  47.2172880   9.2289620  48.1798983  47.0606184   8.2848435  48.1980324
  46.3433743   9.6157818  48.1262207  81.9934368 129.2740250  22.6746678
  82.0256233 130.1437187  22.2761393  81.6923523 128.6991310  21.9710493
  88.4226418 144.3993473 104.7276982  89.0215874 145.1404858 104.6371123
  88.0059147 144.5308781 105.5793261  85.2102184 123.9456654  32.1730185
  85.2176857 123.7969208  31.2274742  84.4234276 124.4686222  32.3269987
  75.0335312  11.7335682  50.8986139  75.7660675  12.3282414  51.0598087
  75.3961611  11.0560398  50.3279257  60.1632404   8.4472447  33.1910968
  59.5170116   7.7470379  33.2823300  59.9680901   9.0484314  33.9099360
  72.8246927 144.1280651  42.8547430  73.2529736 144.9620724  43.0477285
  73.1020641 143.5468769  43.5629225  60.0362921  96.2855244 101.2815549
  60.4260159  95.4346371 101.0807207  60.5946493  96.9175625 100.8287837
   1.0956793 134.8420429  25.9340048   0.3765708 134.2307568  26.0935688
   0.7461196 135.4609489  25.2929163  72.0936871 112.3602962  11.2502885
  71.1824417 112.0672989  11.2538421  72.2117949 112.7650166  10.3909385
  91.3279819 103.4389591  53.9884996  91.7223644 103.3682060  53.1191921
  91.3031578 102.5392246  54.3142033  81.5112686  12.5932198  33.3195305
  82.1785164  12.2480946  32.7263165  80.8053970  11.9474774  33.2877231
  66.4013338 141.6101742  14.0551305  66.9073248 141.0666084  14.6590662
  66.2910271 142.4416637  14.5163155  85.4730988 127.5100994  20.5440640
  85.8111191 126.6476154  20.3030586  85.4152107 127.4863243  21.4992166
  71.1428690 126.4130878  24.9405360  70.1930761 126.5258217  24.9028444
  71.3589430 125.9326649  24.1413212  55.1491547   6.8761711  36.3113546
  55.8464050   6.3065415  36.6363072  55.0009251   6.5841275  35.4119301
  96.7447376 111.7374039  13.7652802  96.1344624 112.4730492  13.7141013
  97.1207047 111.6765499  12.8871119  90.9556484  21.4278965  90.1852533
  90.3143406  22.1148472  90.3670868  90.5154610  20.8476239  89.5641740
  74.2737722 143.6554718  21.9613218  74.2409515 142.7369308  22.2286105
  74.7180223 143.6424923  21.1135578  52.9494667 128.6306190 105.0291102
  52.5575972 128.6001682 104.1563322  52.9429817 127.7207947 105.3264403
  65.6398726  12.8808575  31.3646483  66.2992811  12.8561287  32.0580482
  64.8494005  13.2037144  31.7972493  79.5182657 126.4711285  21.6162395
  79.1884756 125.6036091  21.3819766  78.8793087 126.8088150  22.2438836
  65.6189585 144.4949722  85.5867323  65.0994349 143.8187790  85.1518806
  65.3520012 144.4487286  86.5047892 108.6176968 106.6969299 105.3811058
 108.1584740 106.1045361 104.7857799 108.9183044 106.1339760 106.0945096
 104.9670219   8.7379818  10.1831412 104.2388630   8.5572892  10.7775891
 104.6494198   8.4601193   9.3239796  63.8102484   1.2568074   8.6058313
  63.2477283   1.1731701   7.8358901  64.6814346   1.4286499   8.2484376
  64.6846056  17.1795063 105.9768777  65.0131607  17.9999905 106.3444441
  64.4739199  17.3917942 105.0676053  58.5772705 108.9912128  38.8441634
  58.8951015 108.0896854  38.7945914  57.6237249 108.9086533  38.8569021
  99.7562122 100.8197308  96.7499992  99.2820644 100.7280445  95.9235510
  99.4770527 100.0668812  97.2710797  93.5471916 128.0936813   7.1868932
  93.7703705 127.3114300   7.6913768  92.6042271 128.0221844   7.0387346
  72.2535658 131.1171055 101.9743677  71.6327190 131.3391590 102.6682504
  73.0507421 130.8621216 102.4388310 106.0837364  94.5376873  15.1123488
 106.7140388  94.5894432  14.3938339 106.6218185  94.4172382  15.8947742
  75.2594090  18.7979679  35.8151293  75.6973362  19.4055920  35.2191019
  75.3756142  19.1871243  36.6818929  78.9456558 142.9586887  28.8374901
  79.2592764 143.3352375  29.6597362  79.5968580 142.2933769  28.6149645
   4.5470839  92.1622658   5.4624319   4.3734198  93.0699921   5.7116485
   3.7099867  91.7152119   5.5874997  65.1069736 114.6415329 100.9868499
  64.2888451 114.6511650 101.4836433  65.7927465 114.6455574 101.6546323
  76.2248707 142.6795959  98.9829799  77.0470142 142.3822880  99.3727430
  75.5447149 142.2919655  99.5337673  90.4518795   0.8505135  34.9333954
  90.6478214   0.4163819  34.1031146  91.0374832   1.6074543  34.9519348
  74.5766973 124.4346619  90.8518203  74.4231606 125.0615692  90.1449665
  73.8896179 123.7772655  90.7423505 100.8629894  22.2171955  90.2741464
 100.0003719  22.5442295  90.0188574 101.3614559  22.1933346  89.4573244
   1.5569335   8.8042336  19.7309196   0.8465987   9.1071396  20.2965164
   2.1302825   9.5650845  19.6381652 100.2471638   8.9426213  24.4982243
 100.8302212   9.6990948  24.4347215  99.8529243   9.0163880  25.3673410
  95.8099651   2.3892670  76.6497906  95.9607887   1.9318657  75.8225831
  96.4284611   1.9890957  77.2609814  70.4728889 135.7027912 100.3641590
  71.2776804 135.4182053  99.9310746  70.3767586 136.6210270 100.1115146
 116.8907452   7.7448445  95.6817480 116.5788746   8.6342030  95.5143508
 117.3563671   7.4998360  94.8821243  95.7168007  10.8909111   4.7647631
  95.3492165  11.1797600   5.6000364  96.5121078  11.4131050   4.6597138
 101.4244843 141.5716934  12.2890031 101.5692139 140.6704521  12.5771666
 101.5806007 142.1011829  13.0709898  67.2390175 109.7624493  93.0058535
  67.2291374 109.1118622  92.3038133  67.9877663 109.5170116  93.5493323
  72.5173616 126.0321331 107.7344046  73.0795002 126.3651657 107.0348852
  72.5569820 126.7048168 108.4142294  48.9787722 132.6335526  36.3298917
  49.4295883 131.9801140  35.7950854  48.0728197 132.3270798  36.3693595
  48.0419111   0.1795655  20.7813835  48.7594128  -0.2438659  20.3100705
  47.5430059   0.6323986  20.1014853 111.8838692  24.9713879   7.4841881
 111.5343571  24.5738774   6.6866606 111.1523247  24.9533635   8.1012362
  82.9739380 138.9759922  25.0913429  83.1535435 139.1230392  26.0199714
  83.7334919 139.3434620  24.6393681  88.2634449 127.1154118   3.8859776
  87.9287052 127.9407501   3.5352525  89.0993690 127.3483372   4.2899746
  92.9223919 101.6521549 103.4429618  92.5928593 102.4038792 102.9504647
  92.1413040 101.1369514 103.6447217  66.3380098 110.7484913  20.0324583
  67.1357775 110.3684616  20.4003930  65.7081938 110.7272053  20.7529497
  82.5794506 111.7931080  13.8058436  81.6650677 112.0408726  13.9428079
  82.6371956 111.5979576  12.8705287  82.1952724   6.6962033   4.5273426
  81.3677406   7.1739941   4.4712812  82.7745533   7.1476441   3.9134410
  97.1260643   1.9548207  23.4822249  96.8158436   1.1560326  23.9087725
  97.9107571   1.6829186  23.0062461  10.7704747  18.9178067  24.3699098
  11.3797915  19.5444851  23.9797306   9.9657267  19.4182949  24.5045924
  75.0061607   2.6787834 105.5752357  74.4908142   2.3622876 106.3171812
  75.6438923   1.9837170 105.4127067  46.6516876 122.3704243  51.5835524
  45.7774878 122.0094872  51.4361048  47.2451591 121.7251873  51.1992407
  61.7545223   2.3613148  15.8896136  61.7210007   1.5085488  16.3230872
  62.6342869   2.6897793  16.0749555  80.1592827 127.7476883  38.1184936
  80.2582073 128.4437466  37.4689174  79.4337130 128.0374908  38.6714792
  56.8810558 116.2178707  18.5532618  57.1623659 116.6298485  17.7363312
  57.2720051 116.7573261  19.2405629  82.4542236  28.0788212  15.6171465
  83.3421326  27.7416020  15.7359791  82.1837997  28.3551960  16.4927733
  81.9274235 130.2040291  76.5411051  81.8345642 130.4114151  77.4709424
  81.3857555 130.8551979  76.0952195  95.0990772  12.7550679  89.4073733
  94.2207050  12.4672776  89.6561130  95.6113815  12.6842480  90.2128323
  77.0809746 122.1949100  86.6195759  76.4021969 122.8661633  86.5495213
  76.6723204 121.4929867  87.1260770  93.2109928 134.0362930   3.1095365
  93.4407043 133.1408691   2.8612110  92.3387051 134.1712475   2.7392173
  72.6255369 140.8877563   0.9096658  72.5960302 141.0904121   1.8447006
  71.8442869 140.3567791   0.7549085 113.5796642 132.5170135 103.9314123
 112.6971245 132.7951527 104.1763290 113.6101723 132.6264381 102.9809769
  98.0371571 142.4227905  77.2200736  98.7090111 142.5869846  77.8818020
  97.2224617 142.3540306  77.7178415  67.6768303  10.4884224   0.5596778
  66.8613100   9.9872952   0.5543023  67.6604700  10.9636288   1.3904274
  98.9905548   7.4833565  89.4427594  99.4956589   6.7631798  89.0653428
  99.6367359   8.1712513  89.6023687 109.6268845 133.3911419  43.2851410
 109.8937321 134.2107105  43.7014675 108.6947441 133.3119583  43.4878016
  37.1268344 140.7872391  79.2358764  37.3197579 141.7237854  79.1924652
  37.9851723 140.3644085  79.2094287  68.4980392 133.6082077  63.0315503
  68.4838009 132.7394009  63.4330662  68.5377932 134.2136002  63.7719258
  99.3113804  21.6748982   7.8026104  99.4433498  20.9411602   7.2022474
  99.3694973  21.2843495   8.6745757  71.0726595 142.3647499 104.0791162
  71.4073849 143.2382965 103.8763353  70.9780407 142.3596668 105.0316145
  64.9437952 139.2147446   8.6745512  64.3392467 138.5633373   9.0301073
  65.4813719 139.4758987   9.4222438 116.9360638 121.7053604  87.0014414
 115.9856606 121.8179417  86.9839677 117.2754765 122.4594879  86.5194424
  75.3282499 124.3896675  20.6449127  74.7708797 123.6901093  20.3040600
  75.2129745 124.3467236  21.5941739  64.9975014 107.7405357  87.7342256
  64.7980022 106.8110943  87.8463348  65.7903862 107.7523518  87.1981057
  63.7840557 137.2533035  85.4892167  63.3178091 136.4181805  85.4516038
  63.2145977 137.8224373  86.0069402  79.7339010 122.6051617  87.2707757
  78.8046741 122.7550888  87.0967396  79.7768402 122.4342728  88.2116183
  85.9085560 137.5836754  39.0552998  85.5479145 136.8504238  39.5538068
  85.5315208 137.4872303  38.1807852  91.8848515 145.3860283 108.4108085
  91.3221550 144.6161270 108.4936150  92.5758743 145.2484417 109.0587186
  79.2512369  25.6977444 102.2529366  79.1874790  25.4458790 103.1741997
  78.3840847  26.0413723 102.0380183 118.5295868 112.7435970 102.6022520
 117.8045654 112.2344875 102.2397789 118.8378716 112.2255421 103.3457580
  92.4083042 128.8603115   2.1051779  92.8167343 129.1787815   2.9101583
  93.1200314 128.4336758   1.6280486  69.7729301 123.9259815  10.8964384
  69.1863346 124.4765186  11.4151251  69.7333336 124.2975998  10.0152099
  53.4940672  29.8954754  87.7969202  54.3663740  29.9208813  87.4036416
  53.6568022  29.8847370  88.7401255 118.0172825 119.0766430  29.0886855
 117.1267891 118.7676334  28.9220572 118.0298996 119.2775822  30.0244713
 100.3684998 117.6470089  16.5466642 100.5608177 117.8736305  17.4565494
 101.1144161 117.9869080  16.0523856  97.1905422 145.0545597 105.8205067
  98.0337048 144.9807453 106.2675735  97.0543385 145.9966850 105.7201248
  84.7433090  20.8371334  42.9121685  85.6715298  21.0146313  43.0642509
  84.3555355  20.8236103  43.7871981  82.2885323  12.9393368  77.7227696
  82.2315598  12.0091610  77.5042256  83.1705952  13.0482655  78.0781921
  74.6145344 138.1385994  74.1014394  74.8127270 137.4119759  74.6921834
  75.2285719 138.0310535  73.3750638 114.5640087 144.6584225 106.4480358
 115.2794933 145.2360058 106.7139491 113.9183140 144.7381115 107.1501490
 104.2555428 124.1896820  27.6514530 104.4130898 124.0576267  28.5863185
 103.5183525 123.6136341  27.4490905  67.1411276 128.1264973  25.3782225
  67.8738880 127.8334236  25.9198880  67.2215509 127.6181698  24.5711446
  93.9919662   6.7193585  77.6185473  93.6965656   7.6160221  77.4605545
  94.7041988   6.8098526  78.2516082  93.9858150 139.6312332  26.1488438
  94.5134068 139.0102386  26.6510916  93.3207226 139.9349880  26.7665958
  36.6674638 131.3156796   8.6120617  37.4957442 130.8537865   8.4822911
  36.6489506 131.5159035   9.5479035 105.3717422  10.6908207  20.5454588
 105.1581669  11.5707188  20.2349758 105.2058220  10.1241570  19.7920716
  86.0145187 135.0625038  23.6707187  86.4062405 135.8540630  24.0397978
  85.3084373 134.8394775  24.2772913  99.1358948 120.5534172  13.2677102
  98.6633492 119.8931885  12.7607191  99.5304203 121.1244583  12.6085520
  82.5862789 135.8703423 106.2862956  82.3211956 135.0604343 105.8503842
  83.1943417 135.5869102 106.9690561  76.1030436  10.4213314 100.2789339
  76.0712624  10.1229077  99.3699952  76.0950327   9.6157818 100.7959142
  53.2497883 123.9253712  35.4631162  53.6504507 124.4806099  36.1320090
  53.9670038 123.3760834  35.1467109  84.3622017 121.1762333   5.2343994
  83.5516071 121.3223934   5.7220554  84.7442722 120.3946400   5.6336176
 112.2173595 138.4951591   4.5822999 111.6445827 137.8871155   4.1149229
 112.6313591 137.9610920   5.2602506 116.2188816   7.1849518   6.8023425
 116.5658855   6.7752915   6.0098785 115.9551811   8.0616742   6.5229642
  85.3455162 125.3554726  78.2701930  85.5931282 125.2436543  79.1880234
  84.4249725 125.6160641  78.3005007 102.1703339  11.1009484  27.7846193
 101.2800598  11.1396485  27.4351287 102.7101421  11.5152436  27.1114159
  65.1704168  21.5552502  14.8588800  65.1508188  21.8829327  13.9597332
  64.3027639  21.1742192  14.9939024  75.8348131 142.0451927  26.1168385
  76.5163136 141.3730431  26.1158061  75.2571964 141.7995071  26.8394971
  89.1156101  11.2939053   6.5588844  88.2652187  11.2321740   6.9939250
  89.2415237  10.4347401   6.1561090  68.0520821 125.8525467  11.8745196
  67.3904991 126.3740826  11.4200509  68.6132956 126.4985752  12.3033714
  57.1682644 138.9138985  86.5357002  56.5827465 139.0404892  85.7891282
  56.5931225 138.9500523  87.2999867  67.5900269  19.0825825  88.0406865
  67.1605730  18.5646992  87.3598107  67.7066469  18.4718113  88.7684139
  71.0903072  15.9155064  43.5883808  71.6790295  16.5760784  43.2233000
  71.0407925  15.2392178  42.9128122  96.1737347  19.8338299  21.3228464
  96.6397572  20.6410771  21.1051393  95.7926846  19.5460682  20.4932499
  64.2313480   6.3524132 103.5010632  63.6307573   5.6694298 103.7994953
  64.9633217   5.8741932 103.1115045  94.8323059 106.3777447   7.3352289
  94.6212578 105.4574394   7.4924570  95.6966305 106.4959431   7.7291852
  77.1956348  23.9562588   6.8572700  77.2739649  24.8862439   6.6446054
  77.9057217  23.5384922   6.3699555  87.6301765 144.7676468  16.1570930
  87.6650810 144.0257454  16.7609191  88.5207844 145.1184273  16.1569369
 102.8673458 124.8719978  24.3850946 102.5672245 125.7344532  24.6720076
 102.5720596 124.8055077  23.4770107  99.6649361 134.1144180 104.5335671
 100.0401878 134.8267651 105.0512495  99.3373680 134.5406914 103.7415936
 109.1756058 142.3141003  58.2661057 109.8224163 142.3437977  57.5611258
 108.3697033 142.6402760  57.8656530  81.6185284 112.6779652 107.7102720
  81.1924553 112.3259640 106.9287451  82.5403690 112.7576637 107.4651476
  48.2772636  13.8377171  85.8462127  47.4776363  13.8801556  85.3217896
  47.9704857  13.6729222  86.7378195 108.5288525 139.0400696 104.3715497
 109.1092396 139.6606922 103.9308526 108.9113426 138.9312363 105.2422329
  56.1189651 129.8271179  96.8857893  56.7224455 130.4241753  96.4435621
  56.1597967 129.0208912  96.3714334 110.2852821 129.2670918   7.8878790
 109.5855427 129.7641087   8.3116341 110.0527382 128.3507347   8.0376482
  89.3593884   5.1189308  18.0260766  88.4645271   5.4443531  17.9282856
  89.3873882   4.3291169  17.4860394 104.1184330  30.4672604 109.1807248
 104.2166710  29.5687657 108.8656609 104.0190125  30.9904652 108.3853494
  88.2032108 125.2861977  70.7817134  87.6946163 125.9607601  70.3316697
  89.0718460 125.6734753  70.8899578  93.8552761 136.4426422  24.7140551
  93.3872318 137.2765732  24.7555375  93.1937313 135.8103943  24.4332361
  59.0370989   1.4024239  20.9814095  58.9975119   2.3459225  21.1378551
  59.3409252   1.0345917  21.8112397   2.8422480  20.5430012  11.1818111
   2.1013671  19.9369412  11.1858785   2.9763918  20.7634907  12.1035624
 119.6512032  19.4501095 105.2690726 119.1289425  19.9283963 104.6250900
 119.0555191  18.7851315 105.6143009 104.7058105  24.9274235 110.1227401
 105.3237343  25.1481610 109.4258367 103.8545609  24.8938542 109.6862984
  64.6357393 110.5021858  69.7326001  64.3246460 111.3333511  69.3739709
  65.4124975 110.7362843  70.2406176  59.9591684   8.9021950   4.1265771
  59.1859627   8.7582379   4.6721637  59.9796057   8.1487637   3.5365307
 106.6203976   5.8920079  52.2422504 107.2342682   6.4401799  52.7310181
 105.9586430   5.6404476  52.8864717  90.0377655 142.6627350  26.5521955
  89.1892147 142.7957726  26.9746780  90.4298496 141.9303322  27.0276713
  83.5829544 139.5775604   6.7701590  84.5169163 139.3685341   6.7542773
  83.2449818 139.1063786   7.5317276 105.6735229 139.2299652   0.2280959
 105.8557320 139.7957134  -0.5222142 106.1434841 139.6379280   0.9553809
  78.5193777 136.4276505  40.6637144  78.0394888 137.2132111  40.9260845
  79.2308617 136.3578606  41.3002348  65.4395103 117.4927998  49.1969299
  65.4610157 117.8785801  48.3211756  65.6076193 118.2278061  49.7866201
 109.4954395 102.2705078  95.1187059 108.9288521 102.9960442  94.8564049
 109.0750027 101.9081116  95.8985313  48.0902719  30.5534726  13.1368256
  48.8171387  29.9568348  12.9581618  47.5496769  30.5154019  12.3478138
  13.9312869   3.5559826   3.5892379  13.9694243   3.9716988   2.7278683
  14.8408824   3.3344918   3.7887689 100.4735279 142.0876312   0.0353937
 100.4867077 141.2552834   0.5078856 101.3404846 142.4635124   0.1881411
  54.6340036   1.1264305  21.4833498  55.0825500   1.8821984  21.8626189
  54.0662098   1.4986687  20.8086085  92.3190308 124.2690659  77.0260557
  92.4497890 123.7247944  76.2495884  91.4782906 124.7015476  76.8765792
  69.1519880   8.1489258   3.0090138  68.7416029   7.2854214   2.9622632
  68.4358740   8.7425309   3.2349461  74.0760088 141.0881901  22.8868318
  74.5984507 140.4360008  22.4199963  73.7988520 140.6440830  23.6881971
  78.1875801   5.2297955 104.3045940  77.7743053   4.4155960 104.5918515
  77.4587965   5.8382683 104.1826286  83.5254002 118.3824921  11.7725301
  83.8130188 117.7373886  12.4185538  82.5889587 118.2146454  11.6669548
  29.3577218 137.9738903  45.9199858  28.9773679 138.8181973  46.1622810
  30.1221657 137.8834629  46.4889145  79.6270466 111.9053841  92.0765098
  79.2787457 112.3390388  91.2974914  79.2743111 112.4100208  92.8094193
  68.5999775 134.8890686  78.7233933  68.6358595 135.5248070  79.4380840
  67.8205347 135.1334095  78.2243951  71.7775774   3.2348805  21.4009380
  71.8169117   4.1040974  21.0020065  72.6341009   2.8485566  21.2183237
 106.7260838 138.4582710  90.8646675 106.5759182 138.0155754  90.0293776
 106.1942959 139.2525291  90.8137973 108.5436821 146.3569450 101.9552770
 109.2775536 146.6695309 101.4261689 108.9550400 145.9133911 102.6970860
  81.1611557 138.2712650  39.0155745  81.1716938 139.1070843  39.4819713
  80.5687141 137.7194881  39.5262384 104.2523193 139.6878624  96.0896083
 104.1036034 140.5583286  95.7202896 104.0547752 139.0861988  95.3718301
  64.6546984   3.1121903  97.5703868  65.0292110   3.1340008  98.4510096
  64.6932077   2.1900826  97.3165055  93.3585262  84.6180725   1.2322965
  92.5885677  85.1662827   1.3835120  93.3943653  84.0399933   1.9943854
  67.4103355 143.1372356  31.8848038  67.8744841 143.4742641  31.1185074
  67.3113108 142.2009468  31.7122149  81.7183781 123.5863018  12.9807913
  81.0607052 123.8368511  13.6295772  81.5706062 124.1831017  12.2471535
  77.1103668  13.2032662  16.4162767  76.7071247  14.0242367  16.6984832
  76.7592525  13.0532723  15.5385220  86.8171120 144.6759129  99.2794462
  87.7312660 144.6962929  98.9963635  86.3278294 145.0248623  98.5344156
  73.6760235 135.3591061  98.9168736  74.3940592 134.8138523  98.5953900
  73.1160116 134.7548008  99.4041475  71.2297678 133.0894947   2.2281064
  70.5645609 133.7161636   1.9434690  71.8528128 133.6136246   2.7314264
 106.9635296 115.6668758 100.2047332 107.4190331 115.6576920  99.3629106
 107.3539162 114.9441719 100.6961920  94.2923927 144.6112156  25.2433515
  93.4429073 144.1812706  25.1445603  94.9150276 143.8911629  25.3437495
  13.8290244  15.8555012  94.3760666  13.4890967  14.9937611  94.6170624
  14.3204241  16.1429005  95.1455816  63.3902788 108.7242508  78.9735445
  64.0634871 108.5709095  78.3105930  63.4043217 107.9357338  79.5160087
  82.2795773 134.9753189  32.3819327  81.7606926 134.7177315  33.1439281
  82.0314598 134.3502426  31.7007971  73.6388493   3.0241089  17.7131343
  73.5741329   3.9791184  17.7157307  74.0278101   2.8081017  18.5606515
  86.8322277   3.6306076  52.7454472  87.4036407   4.3345528  53.0523491
  86.2465382   4.0539818  52.1178007  95.8717346 117.3320961   3.9991838
  94.9226856 117.2084618   3.9830512  96.0084057 118.0578709   4.6081153
  60.1490259 108.5566425  53.7663651  60.1116371 107.8578949  54.4195032
  60.6781626 109.2403889  54.1771364  74.4876862 137.1963787   2.5954059
  74.0543795 136.5863705   1.9984365  73.8226891 137.4013519   3.2526731
  83.0393028 142.4617672  28.9354181  82.8037071 142.9932785  28.1750059
  82.3208237 141.8351936  29.0215683  60.4347992  12.8073674   9.6539873
  60.1277924  13.7089329   9.5582783  59.7357273  12.2747593   9.2747033
  97.2333717 131.8956566 102.3008146  98.1568336 132.0719051 102.1208175
  97.0314121 131.1194706 101.7783424 105.8298969 125.4856873   9.2889184
 105.4386330 126.2674713   9.6787298 106.1072350 125.7661152   8.4167475
  73.2756329 132.1907043  28.5417485  72.4936342 132.7304363  28.6574841
  73.8154411 132.3836708  29.3083048  60.8436012 143.0479431  39.4590282
  60.7723379 142.1331310  39.1865039  61.6844225 143.0975914  39.9137640
  76.9105625 116.2299728  28.4647155  77.5096512 115.6582355  27.9846716
  76.0814905 115.7517242  28.4772253  80.6090546  19.3512135 106.4941382
  80.9303761  18.7852841 105.7922100  81.2781811  20.0303440 106.5795209
  88.4690666  26.8661480  98.9026436  88.4432507  27.1155720  97.9788765
  89.2122555  26.2664585  98.9681228  93.2572460   6.0665684  13.2140493
  92.4993992   6.1363488  12.6335013  93.9499474   6.5489369  12.7626896
  56.8764925 136.1744595  61.7329796  57.1384859 135.7090378  60.9386405
  57.0275021 135.5464268  62.4393853  92.3712254 132.1145916  88.4401473
  91.6919708 132.4977970  87.8851708  92.1467209 131.1852360  88.4863099
  75.1540041   7.0011883  94.7098061  74.4167089   6.9731026  94.1000220
  75.5134678   6.1142330  94.6919950  85.0072098   5.8579522  36.6517091
  85.1843929   5.3131085  35.8849144  85.5131531   5.4523545  37.3558021
 103.5163021 121.5178013  97.2666844 102.8152847 121.0063267  97.6706585
 103.0772781 122.2952938  96.9217225  40.3055859  27.6116543 109.1773475
  39.6443963  28.0626278 109.7023918  41.0645247  28.1946736 109.1956483
  60.2790594 129.1145897  99.1801556  60.6413555 128.7453270  99.9855252
  59.6782017 129.7972488  99.4787844  90.9251595  91.2597275   3.9223999
  91.7489433  90.7980728   4.0789005  90.3041267  90.8529663   4.5266256
  50.5759048 116.6003609  45.1166153  50.4308271 116.2893486  44.2230511
  49.7478342 117.0115566  45.3645086  62.4306870  12.1947842  92.3665520
  62.7793980  13.0415325  92.0878836  62.1661186  11.7652684  91.5530738
 120.0713825 120.0685406  15.7480514 119.3688869 119.7590828  16.3198733
 120.4366016 119.2712879  15.3643477  69.7825670  23.1008702  16.7009107
  69.7160912  23.6916714  15.9507314  69.2742014  22.3311406  16.4453641
  72.2125435 120.2162838   1.6619436  71.7645597 119.6166515   1.0652963
  72.3372078 121.0152054   1.1496679  69.1575384  96.3599586  61.2661505
  68.2303810  96.1865425  61.1032534  69.6071434  95.9934807  60.5047226
  96.3967896   4.0463047   4.7453538  96.9448471   3.3218842   5.0471345
  96.4595604   4.7002774   5.4414979  74.1430044 130.6881809 107.5875473
  73.9448309 130.8204556 108.5146141  74.2695284 131.5715313 107.2412586
  91.9707108  32.1281605  68.1552172  92.0898438  31.7261486  67.2947359
  92.3101616  33.0173283  68.0532312  47.6448965 133.1495953 104.6696377
  47.4311733 132.2496891 104.4232082  48.2312298 133.0593872 105.4208469
  65.0436544 119.8730850  60.8719969  65.0578785 118.9172554  60.9210968
  64.7343302 120.1526070  61.7336321  53.9156961  98.7998772  86.6594315
  54.6333694  98.4393311  87.1801853  54.1095352  99.7353363  86.5997028
  14.5009148 130.0624657  12.9168264  14.6425271 130.0272751  11.9708101
  15.3733563 130.2034473  13.2845250 107.6804161 110.1640224  19.5357171
 108.5017681 110.5934811  19.2966119 107.1701145 110.8477592  19.9696771
 104.0980244 117.5654602  66.6941786 104.9132156 117.0866489  66.8439436
 103.5450459 117.3364544  67.4411774  98.3037281  96.9556713  67.7444887
  98.8755512  97.6947498  67.5370598  97.4326515  97.3432732  67.8294563
  62.2988272 145.6916904  90.2707100  62.1494436 144.9013233  89.7518253
  62.8707504 145.4059696  90.9831047  80.8999443 119.9683571 101.3693523
  80.5570507 119.7416592 100.5049038  80.4239464 119.3979645 101.9729424
  57.3472548 124.3019772   9.2406408  57.8519058 123.8914680   9.9428026
  57.9357576 124.9642944   8.8783876  83.3942890 120.5637455  96.6581154
  83.2961273 119.7305012  96.1973667  84.3171692 120.5904961  96.9107056
  58.6595154 121.9792843  78.3581161  57.7569103 122.0390224  78.0451155
  59.1655493 122.4941730  77.7295828  87.4703026 103.2015514   1.5565339
  86.9995213 103.9600658   1.2112085  87.5526047 102.6098824   0.8086149
 102.1424294  95.8413887  69.7798681 101.2023640  95.8154202  69.6014452
 102.5268364  95.2595806  69.1241455  29.2616773 120.6896210  48.9256334
  30.0589895 120.2657890  48.6080027  29.4175839 120.8231831  49.8605633
  67.8270006 132.8298283 101.9085884  67.0028210 132.9633999 101.4404869
  68.3427811 132.2682190 101.3299656  79.6286535 131.4291954  81.4203453
  78.8464689 131.5873718  81.9489288  79.4588137 130.5936527  80.9853172
  64.3657589 108.2588196  63.2542562  64.3012428 109.1224480  63.6619616
  63.7768984 107.7065754  63.7685537  72.3738098 108.4274864 109.9645424
  72.8325653 107.9175758 109.2968845  72.0055008 109.1708755 109.4871044
  66.9428825 127.0730686  80.2425957  67.7818298 127.5330353  80.2138615
  67.0748091 126.2997532  79.6941328 104.0366936 139.1543293  62.6462889
 103.7961388 139.4126892  63.5360193 103.3931351 139.5905781  62.0879412
  97.9739380 108.3450222  77.4920177  97.3717213 108.5557270  76.7784548
  98.8376427 108.5822296  77.1544313 102.9931164 100.5379963  94.1643143
 102.9004383 100.9531212  95.0218105 103.1706429 101.2630463  93.5651302
  69.7920799 123.3018875  70.9794283  70.3335714 124.0549278  71.2159634
  69.0985107 123.2890034  71.6389942  74.0080261  99.1681957  20.0847856
  74.4516897  99.1013527  20.9303228  73.2329559  98.6140442  20.1765291
  58.2890320 129.4969940  85.0331020  59.1706753 129.4463634  84.6638107
  58.2690382 128.8108826  85.7002544 111.8072510  89.8971176  94.9305820
 112.4250984  90.5929089  94.7061634 112.1317863  89.5470428  95.7602501
  90.3855133  76.7051935  74.9964952  90.9092617  76.3908911  74.2595196
  90.8946133  76.4665413  75.7711554 107.9525661  27.5224476  77.2155333
 107.1615314  27.7516728  77.7033329 108.6693287  27.6991062  77.8248549
  79.4378185 127.8542805  96.0266018  79.6703196 127.0405769  96.4738846
  79.2045355 127.5815964  95.1392174  94.5278072 105.5511665  55.2842045
  95.2350807 105.6841946  54.6530914  93.7300491 105.5600357  54.7553110
  66.6397524   3.1006890  16.8572656  67.1177769   3.2722454  17.6686231
  67.2092104   2.5101929  16.3640443  68.4208441 108.0208492  81.2382221
  68.5396147 107.5878143  80.3928757  67.9314852 108.8174057  81.0326195
  81.0658932 127.1483135  65.6304884  80.8491135 127.6388550  64.8376369
  80.2741241 127.1968937  66.1661816  67.0989752  17.2577076  93.1870556
  67.3997784  16.6256504  92.5341702  67.2128010  18.1096821  92.7658558
 103.4111500 137.9927444 100.4671097 103.5039234 138.0120564 101.4196014
 103.4924507 137.0671082 100.2372646 110.9989166  20.4744892  80.1899815
 111.5334892  19.7065335  79.9882507 110.4662895  20.2056294  80.9384918
  61.9858217 123.5616112  65.2324295  61.3720989 123.7470150  64.5216513
  61.7121363 122.7082253  65.5686808  49.2692947 116.9563580   5.9219781
  48.4378576 117.2908974   5.5857793  49.6392965 117.6876354   6.4165155
  96.9365883  96.8929386   8.2248536  96.6498756  97.7657032   7.9559652
  96.4782810  96.2971210   7.6322500  49.5077801  21.2466030   8.3867017
  50.0119019  21.9904499   8.0568830  48.7242794  21.6398030   8.7710706
 116.5397167 129.6661854  37.9164735 116.2180805 130.3341293  37.3109762
 117.1163750 130.1422787  38.5139886  60.1604509 121.3096619   7.3074380
  59.6817303 120.6241226   6.8415014  59.9257135 122.1179008   6.8514959
  73.1299877 139.1821194  87.9012012  73.0449629 139.7071457  87.1053600
  74.0496445 139.2726326  88.1507301  89.9546528  92.2920799  68.1122398
  89.1293907  92.2196960  68.5917521  89.7223949  92.7479076  67.3032188
  96.0174084 109.6067142  82.3159027  96.4593506 110.3540325  82.7189350
  96.1655331 108.8836479  82.9253769  86.9328213 118.2017994  91.6801453
  87.8200436 118.1404591  91.3261604  87.0586109 118.3508015  92.6172733
 102.2067070 134.9747086  89.9242306 101.3623524 135.3235626  89.6385670
 102.4234295 134.3082047  89.2722893 104.4731045  74.4742680  43.5089341
 104.3464279  75.4096508  43.6678068 103.6296654  74.0778446  43.7273160
  78.0732059 113.9117622 105.9282780  77.4277210 113.3286190 106.3276863
  78.8290071 113.3502674 105.7559204  55.9780407 118.2056999  89.0583134
  56.6946888 118.4275818  89.6528053  55.2033091 118.1713581  89.6194172
  61.9059420 119.1128826  96.0487556  62.0738792 119.8742199  95.4934216
  61.8103600 118.3848953  95.4346466  94.9112320 132.7265167  82.4242115
  95.7215977 132.5872421  82.9142570  95.2013111 133.0110550  81.5575409
  74.3821335 123.7101841   4.0794889  73.6613131 124.0669250   4.5985166
  75.1068878 124.3179035   4.2265931  56.1517096  83.7615108  89.3111610
  55.6398535  84.5452118  89.5112801  56.4437962  83.4417725  90.1647949
 119.5390987 105.9177017  15.1697961 119.1072750 105.4189491  14.4762460
 120.4677200 105.7060814  15.0743524  69.3097210  86.2656212   3.7943975
  68.9372396  86.9647408   4.3317357  69.0278244  86.4723778   2.9033223
  71.8162251 102.1655178  83.6503315  72.0043278 103.1030846  83.6929321
  72.1687078 101.8887138  82.8045368  64.6692801 119.0394688  88.5340500
  64.8353004 118.1111622  88.6980724  64.7038698 119.4456577  89.4001007
  98.8138103 136.3553429  32.0216028  98.7586880 137.2157288  31.6057435
  99.6420860 135.9910393  31.7093793 109.1915226  74.5701313  47.6444817
 110.0492287  74.7105455  47.2434282 108.7778664  75.4332685  47.6336622
  81.6204739 144.5760632  61.8637848  82.0168495 144.1736031  62.6365328
  81.5652847 145.5068493  62.0801830  99.7632027 107.5763035  97.1430683
  99.7701645 108.1402683  96.3696861  98.9347553 107.1003437  97.0849800
 118.7169266  90.6577778   8.8384763 119.5562458  90.9606743   9.1849271
 118.8151169  90.7158184   7.8881017  77.1911097  74.5493698 102.9232216
  77.1779442  75.4612255 102.6324177  78.0940962  74.2655516 102.7807617
  74.2473364  93.2385159  93.0369091  75.1121950  93.0411339  93.3964729
  74.4280529  93.6884308  92.2115898 101.1942005 117.2882748   5.9976236
 102.0903492 116.9581318   5.9331647 101.0178566 117.3204613   6.9378892
  69.2568636 107.7372932   0.9884301  68.9336872 107.8236675   1.8852750
  70.1904774 107.5506496   1.0872022  81.7857265 105.6053925 107.1788979
  81.6491985 106.5099525 107.4606133  82.5169754 105.2958488 107.7133942
  65.3114843 107.4535656  23.6772958  65.0560856 107.4100494  22.7558175
  64.6018457 107.9373264  24.0999261  77.5990868 118.5207462   2.3345224
  76.9972944 119.2418861   2.5189916  78.0511618 118.7850380   1.5332738
  72.4233913  94.0053940  11.0999624  71.7902660  93.8375473  10.4019586
  71.9519520  94.5583057  11.7230741  65.7904482 135.3214073  78.4046650
  65.5475760 135.3552055  79.3299198  65.1958895 134.6747494  78.0244398
  53.7919235 102.5507069 101.2381554  53.9365244 103.4955406 101.2893581
  54.6380091 102.1661568 101.4672565  73.6759996 121.1206532  87.4318314
  74.2025995 120.8212471  86.6907024  74.3146276 121.4673805  88.0548668
  86.4015865 102.1905804  14.1481057  86.7770958 102.9671192  14.5630971
  86.9495010 101.4673996  14.4531099  99.5750141 146.4866543 109.3275166
 100.3402710 147.0580292 109.2631531  99.6399117 145.9125328 108.5643578
  71.3517809 133.3336735   6.1627618  70.7125521 133.6327553   5.5160943
  71.8473291 132.6503468   5.7113973 115.2581406 145.9148216   0.2930871
 115.3665638 145.4228401  -0.5208071 116.0304546 146.4785957   0.3368608
  93.8727951 122.9699898   6.9109002  93.6038208 122.1075344   7.2272149
  94.6334076 123.1950951   7.4466554  71.0914135 107.4550533  86.9356441
  70.7380724 107.1839237  86.0883713  71.6841316 108.1773853  86.7278957
  84.9345493 113.2900715   7.8695813  85.4349136 112.4757767   7.9223577
  85.3485870 113.7799835   7.1590940  92.5465393 122.8042412  79.4909906
  93.4791183 122.8865814  79.2916059  92.1064091 123.2454014  78.7644291
  94.5999908 108.1259918  73.6189222  94.8287106 107.6837254  72.8014135
  93.9632702 108.7924290  73.3606815 116.2947845 142.0068455   3.9583246
 116.6919804 141.7340755   4.7854081 115.4003048 141.6684914   3.9991037
  91.4097500 136.9350243  78.4731388  91.5648746 136.7500782  79.3993998
  91.4915562 136.0843182  78.0420589  70.8109665  95.2090549  86.7577076
  69.8577070  95.2829647  86.8031597  71.0084391  95.2299118  85.8213329
  96.0908127  24.8360615  79.0881443  95.3167915  24.2756253  79.1433382
  96.4910698  24.6096592  78.2486391  57.7700377 140.6718731  67.9401207
  57.2617626 140.2065659  68.6044836  58.2405281 141.3475895  68.4282494
  90.5468750 121.8446445  15.8542672  89.6104431 121.9349575  15.6777135
  90.7110405 120.9031582  15.8004419   2.6990634 120.1676559  89.9538708
   3.4661990 120.0234604  90.5078983   1.9779234 119.7583675  90.4320621
  94.4032001 119.0108585  22.3926774  94.8408604 118.9744186  21.5421811
  93.5315418 119.3556595  22.1989194  40.1160860 106.5733147  10.9428731
  40.0618172 106.4457226   9.9957696  39.2248106 106.8039322  11.2049333
  66.4073467 116.2593555  53.2729101  66.7180014 115.3863525  53.5129023
  67.1918631 116.7188263  52.9734850  77.4822187 104.8376846   8.4616510
  77.4791241 104.3527412   9.2869035  76.8934727 104.3434906   7.8912298
  48.6149788 137.6245022  61.1481190  48.4581614 138.0710411  61.9801283
  48.0216360 138.0526257  60.5309582  89.3288136 130.9568691  67.8905582
  89.9981308 131.6200638  67.7219439  89.6033669 130.5420113  68.7083244
  82.2488594  11.7124825  72.1405888  82.1360302  12.6565724  72.2510195
  83.0504227  11.5090542  72.6226139  52.4382734 136.5268612  93.8961792
  53.2042217 136.8545151  94.3675518  51.6921473 136.8143845  94.4223404
  84.0394306 117.3365211   2.9949418  84.7773838 116.8051243   3.2937185
  83.9063549 117.0714569   2.0848504  85.8153534 130.5253410   8.1958429
  86.6723442 130.7081795   8.5810224  85.9723282 129.7940731   7.5984899
  83.7800980  89.3232727   6.3896886  83.8193226  88.6658955   7.0843355
  82.9060173  89.2218018   6.0129682 110.8930111  91.0264301  78.7442350
 111.0192013  90.3520489  79.4117022 110.4147243  91.7226124  79.1945791
 104.0975380 145.7190418   5.3774206 103.9898777 145.7188511   6.3285486
 104.6243000 146.4974403   5.1961557  64.7496128 103.9103699  78.4816647
  65.0612020 104.7751236  78.7487745  64.1531992 104.0850258  77.7536440
  84.5262814  89.3962193 101.2860107  85.4662895  89.2299366 101.2154484
  84.1277790  88.5259628 101.2771225  58.5281420 137.0096588   2.9413453
  59.3346453 137.4095440   2.6159707  57.9253340 137.0479012   2.1987859
  77.4005938 112.1543884  12.4927846  77.2108364 112.7535343  11.7708055
  78.3029461 112.3559856  12.7404634  89.5616817 125.1934242 104.8509121
  89.9685097 125.1513100 105.7163239  88.6499405 124.9444675 105.0024796
  91.8450928 134.7644615  76.7742348  92.7505970 134.4550705  76.7503929
  91.3761330 134.1787624  76.1798716  61.3455057 108.9529896 102.4307442
  60.5386448 108.6363983 102.0245743  61.7861795 108.1605434 102.7374554
  82.5900745  97.5559616  19.0589944  83.5335732  97.3946190  19.0561048
  82.4191761  97.9623413  19.9086324  53.8769674  19.3271618  19.3243448
  53.9944363  18.8338452  18.5125200  54.3846226  18.8421421  19.9749414
 103.3630180 115.7862091  75.2394915 104.2924404 116.0111046  75.2823019
 103.3021927 115.1546097  74.5228243  75.3616142 125.4307556   0.8065358
  76.1535501 124.8931026   0.8073751  75.2535105 125.6993580   1.7188875
  43.8524961 126.5176201   8.2228986  43.6169195 127.1886635   8.8635484
  43.9033270 126.9881439   7.3908750  74.3803263   8.8553219  81.0270882
  73.9539671   8.9730816  81.8759537  74.7064352   9.7261410  80.7999992
 107.1786022  -0.2313060  88.0021572 107.6623058   0.0276833  88.7864971
 106.4888573   0.4270153  87.9178524 103.7670135   9.5147114  74.5497370
 104.7232437   9.5577698  74.5492125 103.5693455   8.5794144  74.5009279
  71.8249798 123.4449387  12.7168695  71.7562485 122.4903107  12.7304879
  71.0948467 123.7298203  12.1673433  86.0290241  95.4118919 102.3237991
  86.6001320  95.2882099 103.0819416  86.6126156  95.7255840 101.6329670
  62.2639608   7.4071389 107.9278946  62.3685026   7.5047856 106.9814396
  63.0928755   7.7160435 108.2935524  88.8463593 143.1653881  85.8587360
  88.4570408 142.4972057  86.4228153  88.1167412 143.7418270  85.6315517
 104.6246147 128.7136078  95.9580612 104.9870777 127.8277969  95.9438038
 105.3414345 129.2605591  96.2793827  87.3362732 125.2238178  89.4861126
  86.4016533 125.1745129  89.2854023  87.5980759 124.3148422  89.6325588
  91.3879013  94.0616989  75.0447941  91.6469002  93.1445885  75.1345968
  90.7121086  94.0544510  74.3669462  91.8133450 114.4434834  80.1263905
  92.0704269 115.2706051  79.7189522  91.4580727 113.9221287  79.4065332
  79.3312836  77.8927946  38.2449857  80.0572300  77.9102230  37.6213495
  78.7245274  78.5603809  37.9249708 108.3911133 139.2820168   9.8314706
 107.8988457 138.4668064   9.7348253 109.2723846 139.0673351   9.5257036
  77.5256252 127.2677422  34.2788259  78.1522369 127.8214169  33.8129560
  76.6979313 127.7455616  34.2255250  86.7695236 143.7127781  61.4356136
  86.9995785 142.8744698  61.0349226  86.0628414 143.5008335  62.0454597
  67.7078199 104.2417145  90.0871277  67.7084446 104.7468662  89.2740726
  67.6270008 103.3311367  89.8033047  78.0614614 108.6994267  15.0349084
  77.4129915 108.0345249  14.8033468  78.5457039 108.8544083  14.2239038
  95.2360916 103.9441967   1.0674993  94.5012760 104.5020008   0.8122865
  95.2164555 103.2207108   0.4410688  87.1791458 107.5240231 106.3690376
  86.3072014 107.6288700 106.7497635  87.2851753 106.5778542 106.2702560
  71.3129663 137.3656940  70.5349922  72.0734310 137.3784542  71.1161661
  70.6842279 136.7941666  70.9757614  62.3692036 122.0515347  70.9471703
  63.0051899 121.3977718  70.6567335  62.0008659 122.4038315  70.1369619
  84.8414516 110.5452251   3.4904329  84.0483379 110.3314018   3.9818422
  85.2396488 109.6964931   3.2972471  61.9060993 100.7675457  82.4907017
  61.9981527  99.8147774  82.4888706  61.8740606 101.0068512  81.5644550
  76.8569279   9.4587212  52.3240280  76.3667297   9.2876225  51.5198755
  77.6429939   9.9201565  52.0317745  89.1254807 140.8195210   0.0042859
  88.3047771 140.9608459   0.4762117  89.5755672 140.1391029   0.5049650
  65.4806566 123.5986614  64.7001839  66.2216091 123.8228226  65.2631855
  64.7271919 123.5841656  65.2903652  99.3031597 116.0178375  87.6660252
  98.3892822 116.0240173  87.3813725  99.2833138 115.5980492  88.5260391
 109.6544933 137.2369289   1.6791288 110.0919437 136.9239998   2.4709264
 110.3165340 137.1573734   0.9923879  90.0031567   5.0074272 104.5321846
  90.8963776   4.9629288 104.8733807  89.8843956   4.1813641 104.0634060
  87.0284748 131.1626053  85.4499722  87.1192360 132.0842648  85.6918907
  86.6514778 131.1818600  84.5703506 110.7861423 137.1540546  64.0872478
 111.5575123 137.5908279  63.7260723 110.0467300 137.6723099  63.7695503
  97.1844101  21.1780720  84.8231411  96.6487598  20.4849224  85.2089596
  97.9136944  20.7154827  84.4103622   4.5957022 116.2138557  80.9834862
   4.8679667 115.7922935  81.7985916   5.1812773 115.8509445  80.3189373
  94.0513420 109.9976635  90.4761696  94.6014881 109.2596149  90.2137661
  94.6660328 110.7192993  90.6089115  16.2338763  98.0374622  14.2583314
  16.0621672  97.0989037  14.3348924  15.6018477  98.4456253  14.8500959
  69.3480301  83.8178253 109.8390961  69.0270519  83.9453316 108.9463806
  68.7185097  83.2160187 110.2362919  71.3565731 109.9377251   9.1998998
  72.2741556 110.1789093   9.3268243  71.0513258 110.5162334   8.5010663
  69.4441414 104.6989918  63.1820154  68.5353756 104.8731709  62.9369831
  69.7484684 105.5186462  63.5716057  69.9533129 108.8843822 102.6010990
  69.1359806 109.3816471 102.5705147  69.6916533 108.0112267 102.8932858
 111.8713474 113.5167503  85.8991909 112.0726490 114.3713284  86.2805176
 111.8006229 112.9293728  86.6516685 122.5757599  12.8754692  87.5789070
 123.0030346  13.3109360  86.8413162 123.2001019  12.2046452  87.8553486
  66.0456562 114.3391895   7.7154199  66.9766569 114.4715118   7.5366441
  65.9217262 114.6769905   8.6024228  84.3047142 135.6853962  18.4411279
  85.0309753 135.8191967  19.0501252  84.7223377 135.3937435  17.6307145
  56.7812538  98.1288815  74.1090155  57.3929358  97.5572491  74.5730400
  55.9186935  97.8706837  74.4339037 103.1837940 108.5660839 109.6200371
 102.6123333 107.8075409 109.7395039 103.7863541 108.3047104 108.9237404
 102.8830242 111.1262512  13.5366956 102.9076004 110.1738644  13.4439794
 103.0210972 111.2795448  14.4714013  98.0185223  10.5216675 102.2483253
  97.8196049  10.1490765 101.3893414  97.1789932  10.5252247 102.7081013
  72.9299355 122.3753357  89.6940517  72.7521849 121.7975235  88.9519215
  72.0722103 122.5254154  90.0915623 107.0082188 102.8906822 106.5006924
 106.5317249 102.1364784 106.8476200 106.3605022 103.3634758 105.9780502
  84.1089153 116.3116360  98.1146049  83.6435986 115.5256271  98.4008026
  84.3716717 116.7436886  98.9273357 118.1380463 140.8042908   8.2197992
 119.0861511 140.6848145   8.2750837 117.9274559 140.6277275   7.3028985
  99.7796631 118.7130833  89.1050339 100.5214691 118.3705997  89.6037006
  99.5146370 117.9867744  88.5407066  90.6656837  82.1679211 108.5936069
  91.3055420  82.7904320 108.2482243  91.1751175  81.5927315 109.1644573
 114.2234230  93.7485313   6.8966810 114.1018486  94.6400642   6.5701524
 115.0581932  93.4678745   6.5216962  89.6789455 116.8002510  76.8185234
  89.6608067 116.1322212  77.5038290  90.5812263 117.1198177  76.8193769
  76.0197973 106.9983959  14.4551603  75.8488131 106.8392849  15.3834287
  75.1569557 106.9594669  14.0425817  78.3000469 125.5215931  11.3595048
  78.8760805 125.9147930  10.7039110  77.5013590 126.0478973  11.3231031
  92.4430275  88.6478710  82.9256821  93.3237076  88.8383865  82.6026726
  92.5849819  88.2195663  83.7698555 100.3802395 126.6594791  92.4625874
 100.3105545 127.3686600  91.8234921  99.5101738 126.6071796  92.8581619
  69.0020370   2.0250779  24.7062818  68.5361576   2.3890763  25.4590741
  69.7010994   1.4958363  25.0902692  97.0371342 125.1698303 102.6573086
  96.3013935 125.6421566 102.2676563  97.0032024 124.3011379 102.2567463
  78.8695192 103.8401127  25.6781045  78.5992861 103.0064487  25.2931253
  79.7571707 103.6795330  25.9982911  83.6588001 122.2240639 106.4148521
  83.4552479 122.9733944 106.9745827  84.6131516 122.1560383 106.4433861
  98.2742310 127.8308296  83.8461685  98.6344719 127.0092773  84.1800976
  98.1907940 128.3878708  84.6201038 124.0149307 136.7110634   3.2560102
 124.6599579 137.3863316   3.4661905 123.2140064 137.0006084   3.6929456
  90.2047443 116.5778828  69.9733400  90.9441185 117.1564579  70.1598978
  89.6340847 117.0943737  69.4042873  98.1633377 126.7839241 104.3967628
  97.6958942 126.2672138 103.7404537  98.0263710 127.6924515 104.1283417
  80.0145626 107.9938126  82.5516891  80.0697899 107.5605774  81.6999340
  79.2636824 108.5822010  82.4728870  74.3401098 101.5606403  90.9111118
  73.5932732 101.1005306  90.5280209  74.2563438 101.4108372  91.8527985
 108.7167835 112.4127197   2.0313207 108.8907146 111.6177177   1.5273801
 107.7840805 112.3641777   2.2409288 120.8670139  92.3661137  76.9007874
 121.5128708  92.4945641  76.2060881 120.8693314  91.4219856  77.0583868
  62.4128628  85.0891113 100.0222397  62.5482845  86.0224247  99.8584938
  62.8162766  84.6532345  99.2715740  81.3652992 113.1863594  75.1760197
  80.6466293 113.7003613  75.5441856  82.0660686 113.2557678  75.8243561
  97.8527832 111.8531513  89.4219398  98.0639458 110.9572124  89.6844673
  98.7017250 112.2909927  89.3600273 102.7357292 117.1816635   2.1396962
 102.5894547 118.0898476   2.4043313 103.5865784 117.1939945   1.7013589
  48.7126875 124.7794724  85.9973717  48.3504677 124.6987343  85.1150417
  48.0051374 125.1675320  86.5121651 112.4490643 122.1728802  98.2215500
 111.6064167 121.8274975  97.9267788 112.2217083 122.8296852  98.8796806
  82.8956127 104.4267941 101.4841747  82.7305794 105.0312996 100.7605839
  83.5930634 103.8547134 101.1639977  68.9524126 118.2115841 108.7113857
  68.3984900 117.4463654 108.5569763  69.7702074 117.8502274 109.0532398
  92.0897198 125.2273178   7.3531286  92.6883125 124.6261787   6.9097940
  92.1048450 124.9485302   8.2687036  75.7066345 127.5808334  94.4320107
  75.7684517 127.8866100  95.3369427  75.9124851 126.6472626  94.4800663
  49.1642046  82.6851654   2.4973623  48.9071894  82.9168606   3.3898298
  48.9602613  81.7528439   2.4237768  52.8446102  87.4299812  85.1222324
  52.3231173  88.0776405  84.6480846  53.5594225  87.9351711  85.5096149
  90.8318996  70.4039907  57.0593882  91.0762501  69.9337959  56.2622404
  90.0682068  69.9319506  57.3913288  92.2148514 100.5525112  61.1118126
  92.7029514 100.8964443  60.3636837  92.8811646 100.1467800  61.6664600
  56.9123793 126.7634964  83.9559650  57.8389883 127.0015240  83.9870834
  56.4794540 127.4132538  84.5096970  59.9356794  16.5591412  72.9419088
  60.2198982  16.4070874  73.8432026  59.1880751  17.1513539  73.0232000
  83.7533665 141.2348652  64.8853350  84.2953587 140.5694675  65.3092718
  83.6552906 141.9204807  65.5460501  83.5631084 110.2938175  71.1331320
  83.1443882 110.6009197  70.3290224  83.0322456 110.6665611  71.8370342
  79.2310381 129.8584747  60.4615307  78.7674093 129.0864086  60.1372051
  78.6097765 130.2786446  61.0562801  58.9544773 127.9811478  54.5662832
  58.6236763 128.3916950  53.7673759  58.6596918 127.0723152  54.5082808
  83.9799213  86.7203712 104.0344048  83.2986259  86.2628555 104.5270920
  84.7663689  86.6298008 104.5724773 101.9467449 129.5034027 100.9750843
 101.5676785 129.1192341 101.7656231 101.8364525 130.4471588 101.0908127
  55.8509541 100.8767128  60.6519556  55.9273720 101.3971996  61.4516354
  56.6165686 101.1220074  60.1324463 102.1486473 132.4761009  53.7837076
 102.2435093 133.1083393  53.0713129 101.2667084 132.6283169  54.1231823
 120.0271511 115.5863762  98.8083839 119.2196369 115.5491352  99.3210030
 120.7065010 115.2798843  99.4090366  88.9793301  96.8557453  86.4145279
  89.8108864  96.8708038  86.8883610  88.3765221  97.3466301  86.9729996
 108.9854050  95.9513855   5.2092019 108.1740856  96.4341736   5.3670636
 109.6032238  96.3056278   5.8487741 105.7164574  97.7314854  92.9227829
 106.2733936  97.1987724  93.4904671 104.9754620  97.1631813  92.7125835
  44.8355484 135.7962227  89.7132397  44.5429564 135.8139324  88.8020229
  44.6434069 134.9064445  90.0092316  62.3832035  66.9152641   7.2429220
  62.2173500  66.0416174   6.8886987  63.1910706  67.1980524   6.8144170
  94.9328995  95.2655506  86.2040520  94.7856903  96.1751747  85.9449005
  95.6033134  95.3161144  86.8853855  88.6364841  87.5858116  83.7612629
  88.8687801  88.2406330  83.1028652  88.6249447  88.0699539  84.5869160
  77.3748064 130.7610512  49.2907047  77.0986319 131.2231445  48.4992361
  76.8260622 131.1259842  49.9849176  67.7730274 143.3572006  62.6207304
  67.3852634 143.9447594  61.9721603  67.2623205 143.5079575  63.4161425
  99.8506546 133.3436394  98.2849026 100.6628036 132.9270267  97.9966640
  99.9471569 134.2604065  98.0271244 116.6417789 131.7775154  99.0606499
 115.8141994 131.3677597  99.3125153 116.5772724 132.6723766  99.3942642
  63.4072399  95.5719280  42.0519352  63.3810997  94.9059868  42.7390146
  63.6532450  96.3768578  42.5077868  79.9537468 128.8739872  63.8706017
  79.0806723 129.2625427  63.8157988  80.4321480 129.2550659  63.1342936
  90.9026527 100.2552223 104.5238495  91.2705803  99.4789600 104.1016102
  90.4893017  99.9215221 105.3201008  67.3470831  98.4247303   1.6362230
  67.2413635  97.4766541   1.7150155  68.1487894  98.6175537   2.1223489
  90.3657436 111.5427017  84.3238354  89.9881458 110.8293247  83.8093185
  90.6940269 111.1185169  85.1166344  63.3571815  14.0588551  32.3188519
  62.4434471  13.8225537  32.4784660  63.4827280  14.8729496  32.8064370
 102.6814842   2.6841431  90.9318256 102.9975605   3.1007271  91.7335606
 103.4550858   2.6259404  90.3711224 105.5358982 123.7816429  75.1189041
 106.0488319 124.2239761  74.4425440 104.6269989 123.9962673  74.9089479
  74.5728397  98.1340885  91.3368034  74.7120333  97.3921490  90.7482624
  75.4085541  98.6007881  91.3356495  45.8109331   4.3157082  93.0009556
  45.3486013   4.6472531  92.2311783  46.7112780   4.1869335  92.7025700
  61.6893959 111.4492321 101.3164234  61.8362474 110.5297947 101.5384865
  61.4454889 111.8599510 102.1459103  91.7423916 124.9374485  19.7174585
  91.1345768 124.2118263  19.5750821  91.3509846 125.6735420  19.2471457
 103.6064625  79.0383577  88.6505508 102.7521420  79.3353891  88.3372879
 103.9335632  79.7656679  89.1799450  87.8802013 111.1939812 105.8153915
  87.7928448 111.0244846 106.7534065  87.2165871 110.6369305 105.4085255
  76.2591982 120.7266140  45.6128979  76.8062782 121.1838913  46.2515211
  76.0554743 119.8887062  46.0283899  65.8931828 106.5622044 104.8199749
  65.6488466 107.0821476 105.5856037  66.5008640 105.9056187 105.1603603
  59.1420031 115.1856422  88.1165791  58.2061863 115.3113365  87.9594803
  59.5448971 116.0060978  87.8324032  84.0741062  91.9556904  90.8785152
  84.5262432  91.4784718  91.5742683  84.6179485  91.8200970  90.1025867
  80.7636929  93.2742882  61.4502478  80.6003857  92.3563290  61.2336636
  80.0209999  93.7453270  61.0724068  52.4380636 123.0070686  64.6721077
  52.6122189 122.3105049  64.0391016  53.2350826 123.0557919  65.1999569
 107.4932480   8.4568768 102.1817398 106.7458344   7.9111748 101.9371891
 107.4710369   9.1854554 101.5613270  81.8782234  97.6313305  59.9968338
  82.6419544  97.1351814  60.2914381  82.2106075  98.5164738  59.8476458
  87.0012379 123.4200764  48.7442780  86.6329670 123.7178135  47.9124355
  86.8949604 122.4689579  48.7265110  69.1441202 109.0668106  83.7904072
  68.9223051 108.6941814  82.9370785  68.3172655 109.4183731  84.1204834
 116.6433811 127.8049946  84.6482468 116.8913746 128.6968899  84.8916626
 117.0062923 127.6866055  83.7704563  84.7152138 128.8211536  41.7227030
  84.1874218 128.6195469  42.4953747  85.5682945 129.0749550  42.0749283
  52.4523783  82.9728413  51.4415169  52.6221466  82.2779369  50.8054972
  52.7544069  82.6131630  52.2755718 105.7872868   7.2594719  60.7557297
 106.1868286   8.1041031  60.9635687 106.3954926   6.8521099  60.1389837
  47.5271893  99.0415192  81.7463303  47.7442455  99.8983002  82.1138191
  47.9876471  99.0170765  80.9075069  53.6323309  83.6320114  99.2816067
  53.8651800  83.6345005 100.2100563  53.2412338  84.4924927  99.1304588
  65.0969982 111.2735081  92.4424458  65.1321888 111.2446308  91.4863300
  65.8402443 110.7409573  92.7256680  90.2839470 132.9991817   8.0775491
  91.0274124 133.3160305   7.5646249  90.5300522 132.1097946   8.3318368
  80.2682972  96.3968658  21.0737840  80.7740498  96.2853718  20.2687875
  80.8426476  96.0674572  21.7650453  87.2438049 105.4552078 103.8404942
  86.4677334 104.9560261 104.0949726  87.6672935 104.9157047 103.1727886
  93.4629059 104.4480610  70.4366779  93.8507462 104.0485573  71.2152767
  93.1166363 105.2856636  70.7444954  80.7238102 127.9040241  17.2213840
  80.2406597 128.0671692  16.4113331  81.1025047 127.0329189  17.1030974
  62.5778198  96.9946003  46.7192936  63.2736206  97.2947979  47.3040771
  62.9189110  96.1863899  46.3362980  57.1824360 113.7707424  72.5155449
  57.3588276 113.8179874  73.4551620  56.2747765 113.4725094  72.4569416
  53.7830210  91.2337780  54.5261192  54.1686296  91.6934586  53.7803078
  54.1339064  91.6857243  55.2934885  55.2296782  98.8287735  93.5136604
  55.2736139  98.0031395  93.0313396  54.5021152  98.7109566  94.1244030
  65.7416391  94.0338516  73.9464664  66.1994505  94.8318958  74.2105961
  66.4048195  93.5178661  73.4880209  57.1056080 107.2103500  88.4388351
  56.6803789 107.8903961  88.9612770  56.3817739 106.7077923  88.0650330
  93.8622475 103.5139179  90.3474808  93.0878735 104.0765476  90.3512478
  94.1581440 103.5197926  89.4371796  92.1592045 106.9929504  71.3836575
  91.8553925 106.5712738  72.1874762  91.7509556 107.8586006  71.3982582
  54.1121197 117.9902744  77.4457550  53.5492229 118.3353996  76.7527437
  54.1550541 118.6946297  78.0924845  67.0379114 114.1725540  61.8374014
  66.9787407 114.4077682  60.9114408  66.6186666 113.3138943  61.8936586
  65.1045752 146.1599731  92.0410347  65.1136446 145.2803516  92.4184132
  64.5641327 146.6728497  92.6419735  45.5856085 104.3683815  80.0986099
  45.2267647 104.3994808  79.2117691  45.2144861 103.5724449  80.4793835
  73.5282946 117.1811199  79.3377018  74.1537666 116.5173721  79.0470791
  73.6309862 117.2067451  80.2890301  57.8349733 114.4656467  66.2638330
  58.2815361 114.0419197  66.9968224  57.7853966 113.7880516  65.5895615
  70.0871372 106.8590164  12.8125421  70.7619762 107.2454166  12.2544137
  69.2991924 107.3684978  12.6233236  82.6125050 107.2516155  18.6443654
  82.7502632 108.1617069  18.3817235  82.8729439 107.2259903  19.5650998
  75.4393291 143.0045795  42.2967196  75.0518990 142.1296120  42.2729731
  74.7527838 143.5797691  41.9590044 120.6441498  96.3137913  60.5059719
 121.0540104  97.1467876  60.7391214 121.3507366  95.8006001  60.1140547
  66.8807983  91.5055656  27.1540666  67.7470875  91.0984039  27.1530008
  67.0343637  92.3945332  27.4740458  95.9879303 112.5137711  82.8575897
  95.1909256 112.8970432  82.4913692  96.6099739 113.2405567  82.8904915
  52.5459862 101.7729473  71.0532331  51.9086885 102.4861240  71.0149288
  52.0352173 100.9850693  70.8672571  94.6296501 138.7801361  62.0745325
  94.4089985 137.9485130  61.6550732  95.5848694 138.7716103  62.1354961
  91.9964027  87.1734333   6.9974462  92.4247265  87.9781818   7.2892610
  91.2417793  87.4738598   6.4909593 106.9717503 113.3254719 109.1771698
 107.1977806 113.3059692 108.2472420 106.0456467 113.0849361 109.2036438
  90.1393986 121.2165642  49.0985966  90.4077148 120.2980232  49.1213274
  89.3922615 121.2331009  48.5004902  50.7178450 108.0163574  90.3813839
  50.9542894 107.0953465  90.2715302  51.5248108 108.4370518  90.6781101
  65.3539324 133.3356857  85.9095097  65.2998447 134.1899586  85.4811001
  65.4814959 133.5399818  86.8359089  82.3331356 141.6430283 103.1162071
  81.9815826 141.0457230 102.4560070  81.9415379 141.3484669 103.9384747
  75.2379465 118.7522316  96.9623566  75.9245968 118.3214569  97.4714375
  75.1915693 118.2494831  96.1491394  70.6379318 103.4643364  77.0589781
  70.5009365 103.2650375  76.1328316  70.8661985 104.3938160  77.0727444
  62.5643253 108.5129833  70.0540400  62.3203278 108.7965679  70.9351063
  63.4899187 108.7440300  69.9757910  89.7366714 109.2108822  83.0308628
  89.0761471 109.3819237  82.3595238  90.4273415 108.7335014  82.5711823
  86.7589569  91.1273003  98.6622810  87.2351360  91.4471054  99.4285870
  85.8425617  91.1132908  98.9383984  64.3061113 133.6185551  66.2010336
  65.1008511 133.1799698  66.5047741  64.0102053 134.1276932  66.9556522
  77.1868467 106.7088032  59.6058559  77.4779177 107.4373913  59.0575266
  76.2416744 106.6631889  59.4616318  72.3937225   2.2423344  41.5923977
  72.3320150   3.1971054  41.6211748  72.8258848   2.0054131  42.4129677
   8.4867220  95.1122761  63.4631395   8.5890418  94.8238087  64.3700838
   7.7826911  94.5647335  63.1156254  75.6998682 140.4661655  88.7952709
  76.1932039 140.0587749  88.0833149  76.3703585 140.8253765  89.3763351
  86.5064812   8.9151364  47.6126242  87.4541950   8.8029270  47.6866531
  86.3570023   9.8362904  47.8255844  78.9448786 137.7225113  75.5891562
  78.3566093 138.1343079  74.9562359  79.8121452 137.7910995  75.1899338
  32.8203702 122.6741219  63.5481071  33.3696342 123.4580421  63.5460234
  32.2256303 122.8003407  64.2874241 101.6078854   7.7623349  77.8989267
 100.9515953   8.3034878  78.3378553 101.6065693   8.0717736  76.9931269
  62.9475880 139.3346024  78.3459854  62.7168465 139.2524529  79.2713165
  63.5999870 140.0346565  78.3230591  67.6967764 115.8490562 109.1610432
  66.8555784 115.4047680 109.2670250  68.3459520 115.2014446 109.4356441
 103.5024548 106.9272423  93.0377483 103.4566689 106.0058403  92.7825165
 104.3632603 107.0202160  93.4459114  85.9166718 119.9285698  86.7131042
  86.0528183 119.1600037  87.2671795  86.4532566 119.7630787  85.9379101
  54.5191956 112.0616722 104.6937656  55.2179289 112.5689411 104.2806244
  53.7531090 112.2144318 104.1405869  93.3305550 116.6824150  66.3987064
  93.9296246 116.2016678  66.9698763  93.9033413 117.1886921  65.8226681
  91.2747002  73.7822628  42.7765036  90.4611874  73.8391352  43.2776833
  91.1979961  74.4711542  42.1163750 111.0990906 118.0364799  64.6942663
 111.2412453 117.5495911  63.8824987 110.2240658 117.7745438  64.9805546
  77.3247385 117.6061153  77.1451950  77.7918482 118.4289551  77.2900391
  76.4191866 117.8702068  76.9824934  88.7483120 142.2632694  69.1167450
  88.2134056 142.3463535  68.3273125  89.6459866 142.3982048  68.8131094
 101.4381218  93.6933994  84.6841335 101.4483929  94.6503544  84.7030926
 101.4630890  93.4720039  83.7532234  78.7497473  95.0809669  83.1658936
  77.9770184  95.5784702  82.8982925  78.4123850  94.4232368  83.7740135
  95.7261753 132.9016495  48.2993937  94.8994446 132.4936676  48.0419064
  95.7426453 133.7313175  47.8223085  68.9482260 127.4249744  86.8538857
  68.1197166 127.6774979  86.4463997  69.0959167 126.5262890  86.5592861
  41.9409418 105.4119873  41.6396904  42.4220610 105.5448723  42.4564505
  42.6217365 105.3041744  40.9755135  73.2075787 115.8126259  67.9892731
  72.7906704 116.1327267  67.1893024  73.7297344 115.0629139  67.7037477
  96.7564392 108.4962082  68.8874340  95.9070206 108.8002968  68.5676622
  97.3487949 109.2314625  68.7300825  46.9079399 125.6313705  24.4615149
  46.9090796 125.3572083  25.3786111  46.5360403 126.5132523  24.4756222
  73.5363913   2.8340512  52.0405674  73.3914471   3.0144673  51.1117601
  74.1626883   2.1102410  52.0490742  80.7610035 127.4465084  77.5555372
  81.3340950 127.9059887  78.1692839  81.0986042 127.6811218  76.6911221
  60.4249287 110.7367992   4.9719373  61.1546421 110.6770420   5.5885259
  59.8864794 111.4538383   5.3068487  85.9311581 116.1714363  69.0433168
  86.2285137 115.4440022  69.5898104  86.6203117 116.2753773  68.3871889
  90.6162071 139.4587994  95.2696228  90.2454948 139.3282223  94.3968391
  91.3973618 139.9916077  95.1207924  87.6643848 117.4489689  59.9732828
  87.4512959 117.7219582  60.8656406  88.2397652 116.6922474  60.0852537
  75.2436590 111.7841339  99.2791748  75.0239754 111.4109421 100.1328182
  74.3967915 111.9794941  98.8780785  14.5446807 136.6855812   0.2469007
  14.5425349 137.1368027  -0.5972632  14.3850642 137.3775196   0.8887521
  87.6603222 126.3137245  57.7385807  87.4172592 126.6309929  56.8688107
  88.6175156 126.3172531  57.7359581  82.7534103 119.5541954  47.2320604
  82.2917175 119.1996861  47.9919291  82.5953960 118.9158344  46.5365314
 102.4737930  89.9151516  80.3126907 102.0874214  89.9862671  79.4398212
 101.8710709  90.3944874  80.8811855  85.9602928 131.1222267  95.9085464
  86.6983128 131.2576675  96.5028763  85.6165028 132.0012665  95.7493877
  78.0575895 116.4425564  82.4700737  78.1276608 115.4879856  82.4809647
  78.9173746 116.7491245  82.7581882  91.8661499 125.1257324  85.5478573
  91.2054348 124.4989109  85.8424664  91.3680744 125.7978344  85.0826454
  54.6862698 139.8299026  92.3192787  54.3229294 139.5291519  91.4863491
  53.9221144 139.9602413  92.8808022  81.0670090 134.7685432  54.0342999
  82.0190716 134.8504925  54.0899277  80.8674049 134.9172688  53.1100321
  72.3177147 124.4027615  98.5746670  72.2811699 125.1997662  99.1035080
  71.7372561 123.7894344  99.0253639  89.2423534  96.4993858 105.7299805
  88.5047626  96.8224049 105.2124405  88.9435768  95.6572437 106.0731506
  84.9494648 134.9168015   7.6582757  85.1684666 134.0783215   7.2517816
  85.2936268 134.8483849   8.5488359  81.3835621 116.9446850  91.1525249
  81.2036514 117.7150059  91.6914749  82.3373604 116.9244766  91.0744286
  68.9317703 108.6239243 105.7016087  69.8212862 108.2982635 105.8392429
  68.3675671 107.8910446 105.9481716  96.6746330  89.0787601  89.8969364
  96.1860657  89.3886757  89.1343784  96.0087109  88.9520454  90.5727482
  87.1920300 118.3576202  94.5903683  86.9448662 117.8319931  95.3511906
  87.4620152 119.1991138  94.9580956  72.2780609 113.9352322   7.0514242
  71.9867468 114.4450569   7.8073636  71.7770147 114.2889214   6.3165132
 115.3756618 140.0943184  81.3898182 115.0213528 139.4317150  80.7968044
 115.8917904 139.5967197  82.0240307  99.9239635  96.4489841  75.5496788
 100.7526875  96.6397762  75.1103067 100.1750088  95.9564304  76.3310862
  80.4081821 136.6812229  68.9174891  80.4218864 136.1845970  68.0993223
  80.4935837 136.0175800  69.6019697  51.3080740 117.4574375  87.8676128
  51.4625597 116.5737820  87.5336742  50.5990934 117.7988911  87.3226452
  63.6825943  89.4641113  81.4240837  64.2526674  90.1164341  81.0169983
  64.1709948  89.1642857  82.1907616  80.6004333  86.5590096  86.3345432
  80.3493881  85.6449795  86.4678192  80.0153923  86.8697834  85.6436157
  84.4984722 113.0203629  67.3439264  84.6378994 113.8596535  67.7825451
  85.3708458 112.6299858  67.2909307  94.1549969 115.3175831  90.3087139
  94.1947365 114.3789196  90.1255417  93.4867859 115.4007816  90.9890175
 119.1051197 141.1127567  60.2148581 118.8181400 140.3005314  60.6321764
 119.9007320 141.3568878  60.6877565  68.2030249 134.6004105  51.2838840
  68.4358358 134.5564747  50.3564644  69.0396738 134.7094154  51.7359495
  77.3830557 145.6517982 102.1814919  78.1701899 145.2505302 102.5497818
  76.6757870 145.0509453 102.4159527  96.3633251 134.6255684  78.0113935
  96.7311001 135.5040169  77.9149103  95.9793854 134.4314194  77.1563339
  72.2404575  14.9197178  68.3327341  72.7711010  14.4172459  67.7145386
  72.2789717  15.8186131  68.0060196  91.6930485 122.3630810  21.9161272
  91.7304039 122.5317669  20.9746504  92.6065922 122.2391987  22.1736860
  69.7618294 127.5425243 101.3584900  69.1457415 128.1537437 100.9546661
  70.0786400 128.0009651 102.1367550  87.6735401 130.8445358  76.1962843
  88.0168819 130.8241272  77.0895529  87.6811600 129.9293900  75.9157848
  92.5186253  83.2906818  76.3346577  93.2148743  82.6628113  76.1416817
  92.7909470  83.7063599  77.1527576  43.9301777  93.7284851  59.5207405
  43.9426041  92.8930283  59.0537548  43.2781124  94.2529583  59.0560150
  44.1699982 100.8359241  35.1935196  44.2009258 101.6608715  35.6780076
  44.8141479 100.9447479  34.4939065  97.9800987 122.3894119  42.7586555
  98.8232231 122.2666454  42.3224211  97.4384022 121.6672134  42.4404860
  82.7612686 135.1392937  57.9030275  83.4817696 135.3696728  58.4895802
  82.8543377 134.1962051  57.7682638  80.5055332  95.4595280  78.6632156
  80.1526833  94.8493576  78.0155849  80.3172874  95.0485802  79.5069647
 116.7851830 109.6563244  14.0571443 116.7449093 110.5810928  13.8134042
 115.8710575 109.3729019  14.0734807  45.3649044 111.9814491  61.5875101
  44.9138260 111.1410522  61.6680956  44.9512720 112.5394249  62.2461510
  84.0347195 145.6054020  98.2659912  83.1746578 146.0250854  98.2463646
  84.2017078 145.4447651  99.1947174  47.1998501   1.1058026 103.7514877
  47.7557802   0.9047013 102.9986763  47.1166849   2.0593148 103.7399006
  80.5638981 107.1246719  62.0237017  79.8731804 107.2015381  61.3654947
  80.4810047 106.2303066  62.3545551  64.1803932 127.8814697  53.8690138
  63.8080120 127.4231625  54.6223497  64.9315691 127.3472500  53.6109972
  81.9281673 101.3814545  91.0792446  82.8175926 101.7265797  91.0015583
  82.0349026 100.4314137  91.0316753  79.9670029 110.8549976 109.1422939
  80.3583813 111.5579033 108.6236668  79.0898228 110.7462025 108.7749290
  70.5684233 119.2646408  42.5204277  70.6532049 119.8133659  43.3001328
  70.0313902 118.5252190  42.8051662  24.8843431 131.2477398  86.6757202
  25.4747725 131.6910744  87.2848797  24.0103340 131.5415287  86.9326878
 108.9379215 107.2227764  79.4192696 109.0556049 106.3539028  79.0352774
 109.7046280 107.7179527  79.1308308  44.0730619 113.0490875  94.6545696
  44.0560675 112.8123760  93.7272549  44.3836784 112.2595215  95.0976658
  94.3520355 118.1284237  48.6302662  94.4523335 118.5544395  47.7789831
  95.2031708 117.7235699  48.7972641  41.2254715 103.5015488  77.3674822
  41.8388939 103.9446640  77.9536486  41.5200663 102.5908756  77.3564816
  18.0057650 110.2320004  71.8399286  17.0791560 110.2332401  71.5998507
  18.4408694 109.7860622  71.1132574  74.3604565 133.0518723  91.7728806
  74.5763016 132.3895645  92.4293709  75.1711416 133.1720161  91.2783146
  77.5576019  11.7206650  83.0037785  76.6751575  11.9402199  83.3026314
  78.1348419  12.0779591  83.6785793  62.3259640 124.3552971  96.6585064
  61.5718222 124.4647312  97.2377491  63.0815506 124.3568611  97.2461414
  55.3819942 134.4723892  65.3542566  54.8643541 134.2480278  64.5809889
  56.0411406 135.0867367  65.0312424  96.7635632   5.0252419  44.8065424
  96.3699436   4.8484783  43.9521122  97.3250771   5.7862263  44.6587467
  70.1860285  89.8397541  98.2418346  69.5981693  89.6717262  98.9783287
  70.1305294  89.0487003  97.7057648  98.9648151 109.3632603  89.1396809
  98.6647987 108.5632610  89.5712185  99.8021030 109.5619392  89.5588398
 116.9660187 140.4929352  79.2000103 116.7338467 139.8906422  78.4931993
 116.1924934 140.5104351  79.7635508  47.4290085  99.9845791   5.6637899
  48.3142042 100.1555252   5.9853975  47.4349070  99.0569496   5.4277746
  42.3073816  20.8221035  70.4789448  41.5172720  20.5369740  70.0199699
  43.0278349  20.4596119  69.9633980  81.6136074 116.1395168  70.9880877
  82.3783970 115.8498192  70.4906988  81.9726658 116.4547920  71.8174934
  87.2779369 128.8804913  98.5323906  88.2009315 128.8635921  98.7854099
  87.0620060 129.8113155  98.4761524  69.6144342  79.3984032 100.9568024
  69.9517250  80.2863693 100.8385372  70.1517105  78.8588715 100.3767490
  85.1176548 122.6319218  86.4932632  85.3191280 121.7400455  86.7764568
  84.7133350 122.5242710  85.6323528  87.4725342 124.1810799  85.7662487
  86.8478775 123.4733391  85.9247875  87.5211620 124.6488476  86.5999603
  70.8322001 128.8370991  74.6131706  70.3960371 128.5595131  73.8076019
  71.6376209 129.2603302  74.3158436  72.6150608  82.1380806   1.1225358
  72.5544643  82.6786709   1.9101373  73.4046459  81.6128731   1.2526933
 112.9094028 125.1935005  84.8269367 111.9621849 125.1750183  84.6902943
 113.2182789 124.3579865  84.4765854  74.5726919 105.1267338  63.5548353
  74.1525412 104.8335171  64.3633747  73.9589500 104.8801231  62.8629303
  37.7099895 106.3202858  44.5907021  37.2589087 105.8191681  43.9112568
  37.9590797 107.1378803  44.1597462  95.0522423 128.6494637  67.4265480
  94.2804813 128.3101177  67.8798342  95.7873726 128.1804085  67.8212595
  51.3723755 126.3989830  91.5747452  51.1605406 126.5348625  92.4982738
  51.2545156 127.2596836  91.1728287   1.5718966 136.7859173  48.0160379
   2.1670371 136.7213345  48.7629414   0.9039813 137.4120522  48.2954359
  67.1462297  96.4986324  74.5433998  67.2986364  96.9764519  73.7281132
  66.3933372  96.9364834  74.9404764  76.7830610 118.0725670  49.9370003
  77.4739838 117.6121902  50.4133558  77.1128750 118.9659882  49.8407888
  56.7407799 114.6861267  76.0982561  57.3702192 113.9839554  76.2625456
  55.9034443 114.2359352  75.9867668  70.9208775 132.3317814  65.7803965
  70.6715584 133.2531166  65.8526707  71.1267138 132.2113705  64.8533773
  91.5727139 143.0831623  85.6058598  91.8736839 143.1847477  86.5088081
  90.6247520 142.9733467  85.6802845  67.7789688 118.5444736  75.9130192
  68.7317276 118.4677696  75.8620501  67.4620628 118.1302929  75.1103592
 124.6745777 102.9150200  96.1895084 125.3096485 102.4791050  96.7577457
 124.1013622 102.2108650  95.8864880 107.1777153   7.1209698   0.6524793
 107.0180607   8.0632477   0.5989877 106.5130520   6.7996388   1.2617437
  86.2443352 120.8184814 107.1430016  85.9965801 120.2388763 106.4226532
  86.5254974 120.2266312 107.8407764  75.3801298 123.3887291 107.3241711
  75.5870724 123.1898689 106.4110088  74.4258928 123.4615135 107.3431301
 112.2337532 142.7178860   4.6501867 112.1715832 143.2116413   3.8325254
 111.4280415 142.2019863   4.6803037  61.1404324 101.5413380  58.1086540
  61.2199736 102.3931980  57.6794243  60.3765821 101.1364746  57.6977301
  55.9739447 106.1435604  51.0584593  56.0314798 105.6819344  50.2219057
  55.3524780 106.8536568  50.8979273  53.3802223 113.0193806  75.7502842
  53.4605980 112.1871948  75.2842093  53.6090136 112.8098297  76.6558075
  73.2688046  21.8008976  78.5004759  73.1477785  20.8538800  78.5692167
  73.1504583  22.1229725  79.3940592  70.9702253 119.4231224  56.0449362
  70.5787849 119.1775322  56.8832016  71.8963718 119.5602894  56.2441015
  83.9382172 129.3874645  54.7569132  84.5987701 129.9675465  54.3782282
  84.4250011 128.8402462  55.3732061  61.3672829 101.3501072  49.7230244
  61.0915995 102.2009182  50.0641441  60.8579683 100.7141781  50.2254438
  44.3775034 127.8121376  67.5268745  44.9703169 127.0990181  67.7640772
  44.9274874 128.5954380  67.5407171  60.8038092 134.9359703  19.9886155
  61.2712431 135.6433392  20.4328847  60.8699799 135.1522923  19.0585303
  85.5313396  94.7407532  72.4614811  84.9053669  95.1486206  71.8631124
  84.9983501  94.1648293  73.0096292  56.9407225  97.5270844  24.4890165
  57.5043106  97.4699974  25.2606010  56.1214209  97.8971291  24.8177052
  73.9416313 107.2291660  72.5881433  74.4363356 107.3621368  71.7795515
  74.2545462 106.3896370  72.9250622 105.3203678  81.0950947  63.1682348
 105.0660896  80.1824093  63.3045626 105.1042938  81.2696648  62.2522306
  97.5376701 133.3857059  80.9237576  97.3124504 132.4598980  80.8321667
  98.1890678 133.4055233  81.6248417  26.0150957  10.8577233  47.1021748
  26.0832334  10.7508831  46.1533976  25.8361363   9.9764614  47.4301910
  79.4499683 118.3209515  95.0378990  78.5586214 118.0404663  94.8303986
  79.9992132 117.5780106  94.7876930 106.8375778 109.7118378  84.4146442
 106.3524055 110.5349827  84.3574429 106.1722755 109.0332317  84.3002224
  58.0121326  97.8746414  67.1136951  57.6575708  97.2479057  66.4830399
  58.5239410  98.4850025  66.5829086  85.4752159 120.7180882  48.3388615
  85.2756500 120.8646774  47.4142456  85.5727196 119.7689342  48.4152842
  76.6246080 112.0358372  95.7169247  76.1861753 112.8839588  95.6484127
  77.5491190 112.2531033  95.8365345  52.9162931 139.2855263  67.6430321
  52.6504040 139.1020393  66.7419910  53.5315037 138.5846233  67.8586531
  78.8985920 113.3743000  48.7629461  79.2760372 112.5789642  48.3871746
  79.6493149 113.8524342  49.1151333  76.9297314 126.8571949  55.9109020
  76.0064697 126.6695690  55.7417345  77.0675182 127.7309227  55.5450296
 101.5945721 123.8890362  61.7394876 101.3262844 122.9708672  61.7744589
 101.1315823 124.3017864  62.4685335  74.1056585 110.0553036  96.3670349
  73.3546925 110.5261803  96.0057259  74.5312786 110.6897163  96.9437408
  89.2105007 114.0673065  87.8700733  89.3523979 114.5445061  87.0525169
  88.3921623 114.4232845  88.2162380  65.5920076   9.7936039  82.9904652
  65.4720354   9.0058022  83.5207462  64.7124195  10.1615315  82.9057312
  61.5413380 111.7489719  58.5406065  61.5192890 110.8237839  58.2961035
  61.3405132 112.2159004  57.7295113 102.4125862 131.5255165  74.0004301
 102.9342365 131.1720848  73.2798767 101.9406128 130.7688141  74.3480825
  97.4712276 138.9419365  70.9980631  98.1452942 138.4036732  71.4129591
  97.0321655 139.3799973  71.7271423  80.3439808  81.4090824  63.9255953
  80.1021862  82.1354771  64.5001650  80.6136417  81.8292332  63.1088972
 120.9864330 113.3993340  76.1963606 121.4750385 113.7298393  76.9501972
 120.1821804 113.0401230  76.5710068  98.1045914  85.7051468  92.3666573
  97.9466152  85.5909061  91.4295197  98.5120201  84.8841476  92.6426888
  73.3287811 125.3207493  56.9487858  72.9489088 124.6325684  56.4025831
  74.0177202 125.7043076  56.4061260  55.0891161 130.7034969  61.5711737
  55.8882856 130.6661892  61.0456562  55.3628588 130.4208946  62.4437761
  75.8720016 126.3698006  72.0770502  76.7043877 126.1641216  72.5025558
  75.4489040 125.5198860  71.9551039  64.7195339  97.0777893  52.4652481
  65.5270147  96.7275238  52.0890522  64.4921255  96.4608955  53.1609154
  60.0646210  89.2140579  63.9267206  60.6592464  89.9604797  63.8524771
  60.4877281  88.5196209  63.4217691  72.4634886  97.0201874  68.2930136
  73.0061054  96.8583202  69.0647602  72.7684784  97.8635406  67.9583931
  70.0479794   0.4103070  62.0647764  70.9466982   0.5004769  61.7479086
  69.5780325   0.0001793  61.3387108  89.1612148 113.6827850  75.6256485
  88.5726833 114.1010284  74.9972105  89.2775440 112.7939510  75.2899837
  85.6771278 141.4276791  53.8691282  85.0838566 142.1444511  54.0938616
  85.5103493 140.7609081  54.5353317  64.0671349 131.9624996  68.7447929
  63.9130926 132.5448895  69.4886541  64.7469521 132.4015617  68.2336140
 100.9717655 110.5132866  63.3306646 101.5248203 111.1297989  63.8105297
 100.3493309 110.1920128  63.9830399  82.1312046 124.0691376  42.7520609
  81.4250374 123.9697075  42.1135616  82.7955151 124.5857525  42.2959614
  90.4811954 128.3865166  78.0376101  90.8084202 129.0132236  77.3923206
  91.2207508 128.2424259  78.6279726  85.6263638 114.1780949  31.1665034
  84.8657703 114.6164036  30.7849145  85.3410530 113.9240074  32.0441532
  61.2072372 105.7842731  62.7792263  61.2162066 104.9060154  63.1597853
  61.5751600 106.3450146  63.4621859 111.3349915   5.3966503  45.5718374
 111.0975075   4.4968396  45.7958460 111.7466927   5.3283196  44.7104025
 109.2046452 120.9632492  91.9359016 109.6090698 120.1336384  92.1897221
 108.2826519 120.8625412  92.1725845  78.4825039  24.1720753  42.2713375
  78.3761311  24.0708142  41.3254738  79.3567896  24.5476704  42.3751974
  97.3774147 142.9052448  98.3371735  96.9555569 143.6970901  98.6707211
  98.1806850 142.8268814  98.8517952  85.7501221 146.7986107  64.3543959
  85.3249645 146.1899757  64.9585676  86.3869762 146.2619877  63.8824987
 119.2109394 129.8807144  80.4245472 119.4099236 128.9984703  80.1110458
 119.3931293 130.4479027  79.6753311  87.9040051 131.4059925  81.9029903
  87.1265793 131.8194771  81.5276527  88.3076477 132.0925045  82.4340343
  91.1349201 130.8688354  74.4400072  90.8444309 131.7800045  74.4802570
  91.3017464 130.6301308  75.3518295  75.1770353 102.5630856  58.4543943
  74.2686653 102.3299599  58.2626820  75.5791187 102.6868343  57.5945997
  82.8687763 146.2757874  78.6534405  82.4372768 146.7955589  79.3315887
  82.1898365 145.6771183  78.3422232  78.3333492 131.6096210  94.7185040
  77.8080940 130.8383846  94.5051479  79.2367268 131.2932205  94.7127914
  93.6905384 110.7676601  59.3835926  94.1071033 111.5073872  59.8257542
  94.1350746 110.7130623  58.5376406  92.9267979 126.7375755  53.7398100
  93.7761879 126.9652081  53.3617115  92.6298809 127.5426960  54.1638899
  39.1145539  96.4123631  65.5629063  39.0174961  96.4266872  64.6107483
  38.4341693  97.0052528  65.8819628  87.5861073 100.1732922  58.5478926
  88.1777287  99.9296474  59.2598248  87.5549698 101.1294842  58.5789776
 104.6840763 105.5839825  52.1728611 104.1219425 106.2351799  52.5925922
 104.3187904 105.4831505  51.2938690  79.7456074 107.5430202  87.9919815
  79.3436193 108.0297565  88.7115192  79.0058899 107.2360134  87.4677753
  68.7059832  99.6680260   9.9749414  68.8532400  98.7222576   9.9661771
  69.2356348  99.9996185   9.2498533  59.9187422  98.6502934  78.3653402
  59.2178535  99.1604137  78.7712526  59.6935654  98.6316204  77.4351931
  82.4600124 140.8387852   2.0158998  82.7914143 141.6949940   1.7451516
  81.5178013 140.8843327   1.8534318  32.7591562 134.0655899  65.2639914
  33.6100578 133.6928082  65.4947090  32.1474481 133.6677170  65.8834600
  65.1962996 129.0949154  47.8069115  64.6650791 129.8676491  47.6147652
  64.5822668 128.3626175  47.7526808   2.5331526  95.5876160  69.0164757
   2.9507285  96.2059402  68.4168673   2.9382544  94.7448444  68.8118649
  52.8472853 106.4852619  63.1840372  52.8643322 105.7052231  63.7385464
  53.1834650 106.1859894  62.3392582  73.6231089 133.7591076  66.1388397
  72.7890968 134.2248726  66.1998796  73.8405085 133.7783146  65.2068520
   2.6239615  12.6729088  88.9909458   2.2645884  13.4772473  88.6166096
   3.5222941  12.9006939  89.2304039 106.4680576 106.9473171  50.8742142
 105.7946491 107.5911903  51.0937119 106.2643909 106.1907768  51.4241219
  71.6157198 125.0613689  38.3384180  71.8041611 124.7842503  37.4417996
  71.8117237 124.2920017  38.8730979  65.1449108 116.4414406  88.3423615
  64.7682476 115.9409332  89.0661335  64.5741081 116.2521648  87.5976467
  35.2988052  98.1281567  73.9322615  36.2181330  98.3516979  74.0775299
  34.9453831  98.8725567  73.4452343  75.4729939 141.1918926  85.2490139
  75.8592367 142.0671082  85.2167702  76.1237764 140.6273746  84.8318481
  57.1410275 109.3456745  26.8972206  57.6133823 110.1104164  27.2262859
  57.4476099 108.6216259  27.4431062  74.9372339  90.6411266  76.9630671
  74.3023920  90.1909828  76.4057732  75.7240391  90.0979519  76.9168949
  78.1086874 130.0739956  33.7736535  79.0250826 130.0844765  33.4973550
  77.6246929 130.3885269  33.0100775  73.1484842  10.7722931  37.8459597
  72.6684761  10.7163411  38.6722136  72.6072788  11.3350277  37.2921896
  82.8454781  98.7317085  63.0460262  81.8996239  98.6661530  62.9144716
  83.1768322  97.8571415  62.8421593  63.8412428 130.1908970  55.4910326
  63.5883331 129.6030426  54.7792101  63.0107117 130.4962444  55.8560276
 105.0934315 113.3246517  78.0689096 104.9598980 114.2329979  77.7981615
 105.9919930 113.3024597  78.3980417  68.5926390 107.3049164  63.9343166
  67.6946688 107.6356602  63.9564180  69.1158390 108.0517006  63.6431170
 105.0925446 114.9023438  45.5268526 106.0312080 115.0275898  45.3873634
 104.7137165 115.7725620  45.4025841  33.6958814 130.4569244  82.2448826
  33.9537454 131.3085938  81.8921852  34.4177580 130.2082443  82.8221893
  74.6143866 102.9795361  87.1039391  73.8454533 102.4170494  87.0112991
  75.2335167 102.4568176  87.6135254  88.2663345 115.2627277  55.7915926
  88.0405998 114.5719337  55.1686335  87.4907207 115.8229828  55.8193922
  70.4029751 117.7039146  45.4356432  69.6467733 118.2456779  45.6612158
  70.1927137 116.8398190  45.7897186  79.3640995 114.6717072  76.4333153
  79.0235996 115.0173569  77.2584295  79.4995451 115.4459476  75.8870173
  97.5961876 129.5372391  43.4612370  98.3480358 129.2244720  43.9643621
  96.8762779 129.5541000  44.0918541  66.5829992 109.8303795  84.3220139
  66.1159039 110.3924751  84.9401569  66.0153246 109.7975540  83.5520077
  91.7790127 137.9898071  65.8449316  92.4433899 137.3424721  66.0811520
  91.9538307 138.1876373  64.9248648  89.7331810 134.6242332  72.0400333
  88.9527321 134.1088963  71.8361712  90.3251266 134.4633293  71.3052225
  76.7636347 114.0759945  42.6239157  76.4923763 114.6412849  41.9006586
  75.9849739 114.0028954  43.1758022  82.7042580 113.7240219  53.3463860
  82.2224045 113.3695126  54.0936327  83.4975338 113.1905365  53.2980156
 113.0914974 140.8289528  52.1856880 112.7133560 140.2593803  52.8556347
 113.4201336 141.5851593  52.6718760 107.8228855 108.0908394  75.4608774
 107.3633003 107.2848225  75.2256346 107.2527981 108.5127163  76.1037254
  72.0476007 140.7546329  65.0258255  71.7752028 140.1158333  64.3670607
  71.6508102 141.5774822  64.7399950  60.4940701 107.4985695  82.5218582
  60.8392191 107.5653362  81.6315556  60.2837133 108.4000492  82.7654171
  55.4662228 131.8032360  66.7248392  54.6306992 131.8678093  67.1873999
  55.6160593 132.6823616  66.3771152 114.8233414 105.2376270  71.6762733
 114.1255569 105.3837490  71.0375357 115.4770279 105.9070206  71.4742136
  93.4424400 125.6870556  79.0859985  93.0603313 125.2570534  78.3209372
  94.3466377 125.3738880  79.1100740  82.0978355  10.3212910  77.1824169
  81.5594864   9.6422654  77.5890398  82.5137329   9.8841839  76.4393187
  89.0985680 118.6695957  68.3246851  89.7131729 119.3688774  68.1022024
  88.9790726 118.7478828  69.2711639  47.6761580 144.0604115  37.7310371
  47.5650740 143.1467247  37.4682498  47.9328156 144.0152264  38.6520791
  78.9967203 140.2452183  31.2916398  78.4968233 139.4329834  31.2103748
  79.0139484 140.4227829  32.2320676  76.7577219 103.5609245  62.5474548
  76.2165022 104.3149376  62.7815008  77.2782660 103.8617134  61.8026066
 121.9196701 141.7052078  60.7073116 122.5693512 141.7883205  60.0092840
 121.6691494 142.6065445  60.9099102  61.4015532 124.6547890  45.7889175
  60.9524775 125.3716660  46.2368679  62.3144054 124.9383163  45.7385302
  50.0922489 138.8203335  86.4777279  50.1750946 139.2110920  85.6078529
  49.2268705 139.0940094  86.7817974  74.4176197 124.5758724  82.2735977
  74.4883633 123.6245155  82.1952534  75.1553011 124.9135399  81.7656136
  86.5942097 146.5579891  56.6306353  86.7137241 147.1289539  55.8717203
  86.8195248 145.6843472  56.3109255  96.4401054  17.3399334  47.3291111
  96.7174911  17.0687085  46.4540529  97.2445107  17.6380520  47.7536964
  91.4354229 124.0689850  36.2348366  90.4949760 124.1286278  36.0667849
  91.6496468 124.8836994  36.6893601 107.5334644  98.0205727   3.3122484
 108.1029987  97.5139618   2.7332727 107.1179104  98.6631298   2.7372018
  62.2161245 124.3234253  24.9365544  62.4973440 125.1586246  24.5629382
  61.9484377 124.5387268  25.8299875  72.2372198 106.9427586  69.4460773
  71.6780758 106.2980843  69.0125036  73.1161356 106.5663052  69.4011259
  81.4439583 135.8978271  60.5219364  81.4111710 135.2025795  59.8648310
  80.8331776 136.5607548  60.1998901  84.6936989 139.4453144  51.3798332
  85.6444836 139.3692112  51.2995625  84.3500996 138.7306786  50.8436775
  76.7701626  14.9799519  20.5620956  75.9344673  15.0463467  21.0240841
  77.3698902  15.5240422  21.0725045  39.9287200 121.7397881  51.1392307
  40.0516415 121.9221687  52.0708179  40.5519199 121.0388374  50.9481287
  97.1961689  98.8862133  47.1924734  97.3885441  99.7992611  46.9789839
  96.8795395  98.9129543  48.0953932  65.0320482 133.0114746  17.4358332
  64.8721790 133.9539814  17.3873293  64.1746950 132.6148510  17.2813272
  64.6000242 117.6943970  84.1947460  63.8914061 117.8295040  83.5655975
  64.4671535 118.3746815  84.8548889   4.2261820 101.0160637  77.4042273
   4.5107775 101.9106388  77.2172117   4.2231398 100.5823708  76.5509224
  89.5907688 120.1909733  91.7645073  89.1360855 120.8473110  92.2924519
  89.0748978 120.1310635  90.9604454  56.1746550 137.3786926  57.8251696
  56.1975765 136.4810467  57.4936056  55.3264904 137.4507332  58.2629633
  82.9173374 140.1681328  68.5430288  82.1434307 140.4607201  69.0243769
  82.7903652 139.2254925  68.4355688  44.4649410 127.7204800  81.1188507
  45.0725985 127.2427082  80.5542946  45.0258827 128.2839203  81.6518688
 114.1001701 119.4269466  40.2115631 114.3745613 119.0270424  39.3863297
 114.3058395 120.3559875  40.1075459  78.9885283 108.9020443  79.7971535
  78.3835316 108.2721329  79.4054747  79.1010666 109.5752144  79.1260242
  44.7768116 118.4510899  73.6568689  44.6167564 118.8372231  74.5179844
  43.9324427 118.0807400  73.3997583  71.7273951 102.6959133  74.1470861
  71.1361551 101.9762707  74.3679667  72.3170233 102.3280334  73.4888744
  75.0756073  93.8533211 107.1323299  75.4781818  94.7155571 107.2358227
  74.2986298  93.8831902 107.6905727  50.6240654 125.8354282  71.6663074
  49.8735571 125.3206921  71.9629669  51.3573170 125.5141354  72.1910429
 111.1697483 111.1836338  41.2359142 111.1192322 110.2329445  41.3353205
 112.0999527 111.3858509  41.3362837 101.1468983 106.1404800  82.8799057
 100.5524731 105.3916931  82.8328323 101.3627529 106.3326645  81.9673824
  53.4765005 127.9454994  38.1612802  54.2612123 128.4556675  38.3617473
  53.8042212 127.1729755  37.7008033  60.7866716 120.3102493  37.0601082
  60.6850147 120.5633259  37.9776311  61.0505867 121.1166477  36.6170526
 113.0451965 108.7539577  52.7267933 112.8912067 109.5917225  52.2901392
 112.3087597 108.2047844  52.4579096  68.8601255 121.7525959  42.0492554
  69.3776083 120.9588337  41.9136381  68.3241987 121.8269348  41.2596416
  65.8034992 132.1456718  45.6638336  66.1502361 131.2534904  45.6682587
  66.4848852 132.6695442  46.0851479  79.7272062 133.4352493  65.5105972
  80.3501797 132.7839279  65.1882315  78.8984632 133.2015038  65.0925255
 102.2181892 140.8362484  56.8647385 103.0737972 140.5813885  57.2100306
 102.1422195 141.7667770  57.0758486  80.6860161 123.8931274  30.0366211
  81.3203526 123.1821156  30.1278305  79.8738909 123.5372829  30.3972578
 104.0814209 126.5427971  43.2162666 104.9435902 126.4755440  42.8059435
 103.9858150 127.4728012  43.4216547  73.9954805 117.2560787  43.8091898
  73.4799671 117.8987026  44.2965460  74.6575451 116.9575596  44.4327164
  97.5779152 113.5598850  35.1435757  97.6903248 113.4379578  36.0862994
  97.9116535 112.7508163  34.7559500  98.0081844 139.8048306  57.6355219
  97.2911930 139.8569202  58.2675362  97.5858402 139.9193478  56.7842054
  92.3616123 118.8245010  69.6306896  92.5302696 119.2715263  68.8012600
  91.8468857 119.4506073  70.1398802  51.0358095 138.4366226  35.0356269
  51.6779757 138.3471107  35.7397866  50.1960278 138.5226631  35.4868340
  61.1752224 115.9731865  35.4671311  61.8567276 115.3696728  35.7630277
  61.1679077 115.8778477  34.5147181  81.4182663 130.4950237  61.9033527
  82.1953392 130.0874424  61.5209007  80.8404350 130.6558228  61.1573744
  52.7368689 132.0735645  40.7703161  52.4589396 131.2242413  41.1133146
  52.5983667 132.6819706  41.4961863  57.2256279   3.4910088  72.3967409
  57.9191256   3.0704480  72.9050875  56.5896368   3.7789517  73.0516005
  91.7837334 126.9564247  37.0506001  90.9609413 127.2348881  36.6484761
  92.4624348 127.2969055  36.4677954 103.4276676 126.9672012  39.8017311
 103.5618782 127.6692963  39.1651106 102.8616524 127.3543835  40.4695272
  96.7487621   1.7705136  79.8995495  96.0034561   1.4552384  79.3883276
  96.8045616   1.1659031  80.6395245  65.7349110 132.2944260  54.7647238
  65.6017828 132.6682472  55.6357956  65.2971554 131.4439011  54.7996235
  81.4500904 124.5907593  79.3733883  80.8015728 125.1089668  79.8499632
  81.2711716 123.6866760  79.6319246  82.6923656 101.2208176  66.6729164
  82.1291637 100.6270695  67.1694088  83.1484985 101.7327690  67.3408079
  90.4285145 120.6809616  58.8087177  89.5561218 120.8471680  59.1658449
  90.5873775 121.4137840  58.2137728  82.2508335 124.2189312  68.1516981
  82.5454044 123.9564514  69.0238047  81.2967110 124.1533279  68.1913424
  87.4300575 124.8040390  76.4661551  86.7413902 125.0929642  77.0649004
  87.1988964 123.8997841  76.2537384  63.1167412 105.4261875  58.9184189
  62.2333956 105.2737331  59.2541218  63.6942339 105.0664234  59.5916939
   8.1320887 124.6315479  54.7633028   7.4722033 124.3616962  54.1245842
   8.1335669 125.5876160  54.7167826  81.9759846 121.1462784  76.4275074
  82.4866295 121.7626667  75.9025812  81.0925388 121.5145969  76.4373350
  79.6357679 126.6290474  87.5634766  79.6449947 126.0214424  88.3030415
  78.7475777 126.9858551  87.5577068  67.4413013 129.8651791  49.3993855
  67.6634264 129.2361069  50.0857925  66.6863871 129.4787598  48.9555264
 108.3135223 122.2814178 109.1911888 108.2056904 121.3512802 108.9925480
 109.2370605 122.4589062 109.0128899  76.9762325 116.4288235  52.7788877
  76.7905855 117.0676422  53.4671307  77.7678823 116.7583084  52.3534918
  70.6778336 126.3174629  32.2038531  70.4715729 125.8073330  31.4206219
  69.8364258 126.6784859  32.4830079  61.7695999   1.8839913  89.4716167
  62.1793079   2.5488262  90.0251198  62.0749044   1.0512810  89.8316383
  61.3412428 134.5401573  29.8958421  61.9894314 133.8504410  30.0385928
  60.6112337 134.0970135  29.4634748  62.9897022  83.9279652  71.8280840
  62.2045851  83.6089325  72.2731018  63.1367159  84.7990036  72.1967363
  96.0505772  98.4047508  68.2664824  95.6783390  98.3572960  67.3859024
  95.6983280  99.2162704  68.6320019  81.5530586  99.3778419  68.2357407
  81.2791061  99.2949581  69.1491508  81.9027042  98.5155010  68.0113602
  78.5503864 134.0969467  25.5720901  77.8072214 133.6609364  25.1551604
  78.1851864 134.4847679  26.3673615  97.7094841 118.8996506  64.8153114
  98.3744812 119.5165062  65.1210880  96.9970226 119.4539165  64.4968510
 102.7358341 110.8660030  73.6237621 101.9373226 110.3449249  73.5395336
 102.9763603 111.0829830  72.7230406  50.9190035 104.6247959  82.0014095
  51.2746954 103.9327621  82.5588989  51.6284275 105.2634716  81.9303608
  71.4804649 117.8002644  85.4463577  71.1473656 118.6247730  85.8005714
  71.8544579 118.0378151  84.5978642 101.2037373 142.9398060  77.6756811
 101.8328953 143.6553192  77.7675056 100.5560780 143.1008148  78.3618641
  83.8376141 125.4932976  61.7257214  82.9770374 125.3394890  61.3358641
  84.0740967 124.6549225  62.1225214   1.1209231 112.4313450  55.8076382
   1.7609912 112.0634365  56.4168835   0.2949172 112.0096111  56.0444498
  71.6950417 121.6075039  72.3388529  71.0797215 121.8894291  71.6619968
  71.2487221 120.8865643  72.7830172  73.3347559 104.4405556  65.6849146
  73.9727211 104.4324398  66.3984728  72.9117966 103.5831642  65.7320261
  91.6252232 104.2015934  85.2639103  91.7505646 104.5077705  84.3657017
  92.3591423 104.5777702  85.7497978  94.4973660 129.3751526  15.9116721
  93.8606167 129.6639729  15.2579343  94.1939068 128.5060406  16.1739612
  46.6919756 107.8266716  45.4903746  46.9611120 108.7245560  45.6843042
  45.8825922 107.9223728  44.9884081  77.3120022  17.3676281  37.2697401
  76.5073586  17.7363758  36.9053173  77.2957706  16.4481144  37.0042515
  69.9554348 127.1458721  76.6509485  70.1823378 127.8327656  76.0241079
  70.7142639 127.0915699  77.2318649  82.1301651 123.2756996  48.6879826
  82.2947025 122.5109005  49.2395639  81.5089798 123.8036251  49.1896486
  80.7148838 102.2611237  69.4400406  80.9023762 101.5469456  70.0491667
  81.5662479 102.6675701  69.2781401  69.7355032 131.5398979  56.5742874
  68.9538670 131.0876274  56.8916750  69.7760725 131.3230515  55.6428576
 104.9744701 107.1160316  67.2124577 104.8778152 107.1555710  68.1639433
 104.0784645 107.1604538  66.8786430  71.8950272 106.6998672  65.6940413
  72.4308538 107.4653053  65.9019470  72.4958134 105.9587288  65.7715559
  33.9743376 121.3823223  42.8042984  33.5358167 121.8545723  42.0965433
  33.9027858 121.9643021  43.5608768  39.6365809 101.3853455  43.7179136
  38.9574647 100.9543705  43.1989813  39.6431661 102.2885323  43.4009886
  69.1387224 112.9176426  84.8159695  69.1884089 113.8695526  84.7286701
  68.2008028 112.7268791  84.8282051  76.3347149 108.9080143  37.1781182
  76.3280344 107.9720974  37.3787141  75.4728222 109.2185783  37.4554682
  88.5800838 116.5896606  63.8767052  88.7590599 115.7672024  63.4208965
  89.3837833 116.7738533  64.3628931  54.8977089 134.0599918  37.6326942
  55.2815437 133.9788342  36.7595863  54.1050100 133.5246754  37.5965476
  71.2848568   1.7139702  68.8944244  70.9658051   1.0300618  69.4832420
  72.0939636   2.0227509  69.3021345  68.0237150 130.8745003  72.4289227
  67.7610350 131.6864300  71.9953203  68.0135393 130.2172565  71.7331171
  58.5997438 104.5302582  70.3465033  58.7356424 103.9164639  71.0683203
  57.7181673 104.8752022  70.4881859  84.3058586 114.9411297  62.8029299
  83.7627888 115.7227516  62.9047918  84.9262333 114.9840164  63.5306168
  50.5651617 132.2659111  74.2926264  49.8000383 132.1419811  74.8542786
  51.2386417 131.7056084  74.6782684  93.4122753 128.6964607  64.5654631
  92.7884769 128.9895630  63.9012337  92.9975986 128.9200211  65.3987026
  61.9714212 100.6733322  60.7038164  61.4407158 101.1091614  61.3706303
  61.7539644 101.1277485  59.8899126  90.4809856   9.4412308  58.9451504
  90.2621078   9.1037255  58.0765772  91.3361073   9.8562794  58.8323355
 100.6139946 140.9746265  65.0180721 100.5103874 141.8310928  65.4327536
 100.1968575 140.3628063  65.6246233  80.5352688 103.5370255  32.7439642
  81.1040688 103.6695671  31.9855881  81.1132050 103.6472416  33.4989953
  80.2837086  15.1076680  60.4669380  79.8473787  15.8543377  60.0566578
  80.4235649  14.4886189  59.7503805 101.0467529   5.7894020  33.4035945
 100.8381271   4.9253350  33.0484939 100.3654385   6.3632279  33.0532169
  64.1545630 139.4745731  59.2335272  63.2575703 139.1799355  59.0759706
  64.4741344 139.7407818  58.3714151  66.7849493 105.1195335  62.9928255
  65.9371662 104.6831894  62.9085875  66.7162991 105.8877754  62.4259567
  75.9276915 110.1869488  47.8045702  76.8318796 109.9250221  47.6311636
  75.4027271 109.6316147  47.2281647  62.3800278  18.8661747  73.0011845
  62.7504444  19.6615963  73.3837080  63.1059647  18.4727650  72.5169611
  82.8420162 115.3980637  30.1186562  82.5711727 114.5008278  30.3132105
  82.3795128 115.6178284  29.3099380 115.4760551 131.5122986  62.3781776
 116.1444569 131.0223579  62.8571653 115.0846100 132.0882416  63.0349064
  71.9272423 119.4848824   8.7886769  71.8994808 119.1855335   9.6974403
  71.2374020 118.9860821   8.3510178 113.6696243 130.1386166  66.0708189
 114.4776630 129.9819946  66.5594721 113.3752632 129.2663002  65.8088160
  91.3409233 136.3619614  48.9895678  91.5616035 136.5171146  48.0711699
  92.0920086 135.8820915  49.3386078  97.7252769 120.3931904  52.0059299
  97.8265095 120.5791187  51.0724354  98.6023712 120.1437092  52.2969532
  41.6258001 132.9702187  44.0280962  42.1288013 133.7264729  44.3302488
  40.7539368 133.0975246  44.4021034  96.4189339 132.9688835  42.3133898
  97.3082924 132.8505611  42.6469564  95.9252548 133.3047962  43.0615044
 100.6030750 135.2198601  83.2132244  99.7416496 135.5923843  83.0250740
 100.5902672 135.0506401  84.1552639  88.3883381 115.6556320  13.1683159
  88.3249378 116.5657902  13.4578490  89.3272781 115.5029964  13.0619156
  96.2139511 140.9836960  64.0450668  96.6765881 140.9480476  64.8822832
  96.6837788 140.3655148  63.4852886   6.2414961 142.2805595  32.5827360
   5.8906870 141.3995075  32.7127910   5.5558997 142.8622341  32.9111433
 122.4459362 136.8654919  37.5304580 122.1926212 137.2308064  36.6827512
 121.6213703 136.7740440  38.0079031  87.1665668 115.6307697  29.1936398
  87.0190334 116.5715408  29.2906737  86.7281723 115.2403450  29.9496865
  93.5982800  14.4739323  29.5658731  93.2183266  15.2792912  29.9169922
  94.1984367  14.1746502  30.2488565 106.9013023 115.5936718  42.7842569
 106.9692612 115.0384235  42.0075274 106.0316086 115.4061508  43.1373787
  86.2544632 123.5261822  38.5848331  85.3565407 123.2045364  38.6654973
  86.5553093 123.1876183  37.7415633  87.1820641 120.5591965  64.9283981
  86.6498470 120.0230122  65.5161810  87.1606541 120.0922966  64.0930653
 100.3167725 137.7256584  35.8704066 100.7375717 137.5035381  36.7009640
  99.4728947 138.1007481  36.1222315  77.5683498 133.9668941  56.6144562
  77.7288628 133.2320118  57.2064018  78.3182192 134.5474243  56.7445278
  52.3858929 135.3941631  42.6740932  52.8345203 135.6054592  41.8553686
  52.5481510 134.4595051  42.8018141  78.5058832 133.1946087  30.6788301
  79.0431547 133.7029457  30.0712419  78.0681229 133.8522625  31.2192822
  95.2932167 110.0814533  67.1976423  96.0355377 110.6769753  67.0950174
  95.0613403 109.8313808  66.3032532  42.9112959 112.0181274  69.6818972
  41.9923496 112.0730400  69.9441195  43.0313349 111.1054897  69.4193792
  62.9013586 129.5583248  78.0889273  63.0881500 129.4745827  77.1538734
  63.6944532 129.2411709  78.5209513  63.2451391 143.2249165  41.2307024
  64.1699123 143.2927513  41.4682484  62.8231430 142.8654957  42.0110655
   1.6317492 126.1073112  30.6641841   0.8829337 126.0701752  30.0691032
   2.3460990 125.6977749  30.1761031  77.5653601 107.8040791  21.1755061
  78.2988214 108.4181976  21.2090158  77.3023844 107.6949787  22.0893860
  78.6261797 137.2362518  47.7696323  78.3345222 137.0981503  46.8684673
  77.8169775 137.2826481  48.2788229  48.0836344 111.7266083  50.3220081
  48.4205627 112.5588703  50.6537533  47.7179623 111.9412422  49.4638443
  84.8405647 127.4458408  56.1524391  85.2886391 126.6556358  55.8507252
  84.3363762 127.1593189  56.9139719  97.2535515 107.9743862  55.7061958
  96.7366695 108.6337948  56.1690569  98.0943966 108.4012222  55.5417776
  95.4549503 145.0747299  74.0244627  95.8338737 145.2414703  74.8875093
  95.3401947 145.9443188  73.6412048  93.5255527  12.2835522  50.9730244
  93.8537502  12.8028088  50.2389240  94.0365314  11.4747506  50.9416771
  74.2480803 139.3786526  61.5675735  74.8581362 139.9181652  61.0645866
  74.7971344 138.7017155  61.9632053 121.0093021 110.7384872  53.7962675
 121.4210033 110.5385494  52.9555798 120.3734493 110.0346661  53.9249659
  78.2221889 105.2920151  31.7620778  78.9312220 105.2298450  32.4021077
  77.7649212 106.1017132  31.9890881  97.8609943 114.6720791  82.6610088
  98.7067604 114.6738148  83.1092358  98.0791950 114.7962093  81.7373180
  66.2859535 101.5615749  44.1571712  66.4184999 100.7630920  43.6462069
  65.3351021 101.6620541  44.2021847 100.5976391 106.4375591  74.4775772
 100.0907803 105.6989098  74.8147964 100.8863354 106.1538410  73.6101770
  61.0975266 137.0074844  61.7879438  60.8900690 137.9397869  61.7246628
  61.5759277 136.9240189  62.6128054 102.5134087 114.6798897   3.6923280
 101.9100761 114.1959572   3.1283772 102.7145672 115.4760265   3.2004684
 101.4466953 146.1289310  25.2474952 102.1922588 146.1832619  25.8453321
 101.2762260 147.0361233  24.9941611 101.2322807 114.5586300  77.5471258
 101.6161823 114.0279198  76.8491268 101.0821342 113.9408588  78.2627010
 105.6989002 143.9180565  40.6481314 105.5674553 144.4710827  41.4182711
 105.1700592 143.1388760  40.8196974  66.2279224 123.8585186  24.8669219
  66.0762548 122.9768562  25.2073622  66.4083433 123.7280464  23.9359784
  78.8247252 137.3371315  81.0647678  78.0537176 136.7761993  80.9803009
  78.4942532 138.2227612  80.9141350  99.4856262 141.9801426  52.9754591
 100.0434589 142.7538300  53.0559206  99.4890881 141.5903950  53.8497114
 111.9969940 108.0707932  62.6453733 111.2053394 108.2266617  63.1603622
 112.7157497 108.2829380  63.2408714  77.4232674 128.9919949  26.9348311
  77.1249199 129.1001415  27.8378963  76.8076801 129.5094013  26.4156246
  53.5856915 126.2222385  14.9328339  53.6532307 127.1599102  14.7527206
  53.3562756 126.1725140  15.8608031  67.8704691 135.9899902  58.1142282
  68.3904934 136.7499256  58.3755732  68.4875727 135.2585888  58.1358385
  94.0244865  70.6898022  10.2580988  93.5374069  69.9761057   9.8462570
  93.4238625  71.4347267  10.2342272  42.5781345 134.9426937  68.0081034
  42.4163961 135.6990433  68.5720301  42.6876879 134.2105770  68.6149168
  46.9524336 109.6722698  34.2088413  46.7243958 110.2579689  34.9307752
  46.1555195 109.1663933  34.0499687  95.5979633  92.1083832  37.9479480
  95.5801296  91.2571335  37.5105882  94.7422886  92.4931335  37.7581882
 100.6328011 126.7832565  17.9969621 100.1339912 126.3802719  18.7076032
 100.7334232 127.6971531  18.2632291  56.8098354 125.8116245  45.4092360
  57.5468016 125.5527782  44.8559618  56.8791676 126.7643547  45.4702377
  54.6471834   4.6825199  53.1276608  54.9051809   5.1564102  53.9182854
  54.0894032   3.9724427  53.4453154  88.0480480 111.2680149  56.5621710
  87.4419689 110.6355095  56.9479656  87.6508808 112.1203136  56.7413092
  71.4331198 135.8340454  48.6296606  71.7225981 135.5863667  47.7515459
  70.9051275 135.0926018  48.9258194  82.0830059 134.0757465  43.9261055
  82.8526497 134.5900154  43.6823750  82.2861671 133.1872654  43.6335993
 113.3671665   6.8963604  46.6857433 112.8015137   6.1960869  46.3603354
 112.9842281   7.6983147  46.3301420  70.9754753 133.7703514  23.3568621
  71.0694551 134.6966839  23.1348181  70.9645557 133.3213520  22.5115752
 106.1778259  87.5734234  31.1795235 106.3804913  87.5942516  32.1147895
 105.4191685  86.9937134  31.1117077  84.0931225 143.5970879  54.1836786
  84.1078758 144.2130661  53.4511614  83.1780148 143.5800743  54.4639158
 103.8039398 131.4063644  55.4208279 103.0933094 131.8773842  54.9856520
 103.5070610 130.4967690  55.4479313  73.6083317 116.6574478  27.2158003
  74.2443037 117.1684551  26.7151594  74.1041565 115.9026909  27.5332022
  86.3152409 116.1667061  14.9800766  86.5555763 115.5956745  14.2504239
  85.6152344 115.6958008  15.4322553  73.2942152 142.4951172  44.7633076
  74.2448044 142.3891735  44.8006392  72.9477262 141.6695118  45.1017523
  95.9142017 103.4387970  44.1824245  95.9026337 104.3862343  44.0465403
  95.8796501 103.0698204  43.2998753  86.1945820 139.0904713   7.5254649
  86.4291954 139.1662979   6.6005659  86.4139843 138.1874657   7.7549696
 100.4686069 140.6502724  46.6947746 100.3469658 141.5996552  46.6840792
 100.4090595 140.3908062  45.7753372  84.6673679 116.3989544  93.3865547
  84.0672398 115.8667660  93.9089108  85.4531670 116.4749146  93.9278316
  45.0389433 133.7372303  56.9151545  44.6171713 133.5985184  56.0671616
  45.8933210 133.3141708  56.8297720  52.4402046  95.3154564  58.4862375
  51.9863272  95.6000423  59.2794847  51.9302702  95.6935310  57.7698183
  92.2459412   6.5832119   2.1959338  91.8770599   5.8665448   2.7122146
  92.0439053   7.3708802   2.7009010  89.6188831 133.6469936  46.0371590
  89.0589142 133.0338287  45.5610275  89.7677898 133.2270622  46.8843365
  55.9122133 145.1063919  48.4699249  55.6176043 145.6543350  47.7424717
  56.2395430 144.3096733  48.0524015  68.1140137 144.4186592  46.2096453
  67.5764084 144.8821831  46.8518019  67.6214314 144.4859314  45.3916836
  95.1871490 111.0824966   7.2989041  95.4369736 110.4861164   6.5931112
  94.8981380 110.5073929   8.0073917 110.1594067   9.2383843  24.9909949
 109.3066883   9.1490059  25.4165626 109.9536419   9.5153885  24.0981555
 114.3966961 115.5236053  58.8255167 114.8354721 116.3003349  59.1725063
 113.7875366 115.8650303  58.1708479  91.4963722 114.5910168  39.9922800
  92.3504734 114.6414757  40.4214716  91.4469528 113.6939907  39.6619344
  79.0900230 133.2777405  17.8135800  79.7287893 133.8398075  17.3750699
  79.6157598 132.5868034  18.2166016  90.8333302 112.9513550  60.8714390
  91.1369801 113.0071068  59.9653959  90.1350498 112.2970009  60.8501863
  95.5287743  82.3053932  85.2940083  94.6783829  82.5798988  84.9509239
  96.1668301  82.7325535  84.7224808  67.1271372 100.2882004   3.8967308
  66.8808031  99.9115086   3.0519488  67.6828194  99.6229076   4.3027362
  75.1038218 141.9896793  69.2391968  75.8107328 142.6268101  69.3420649
  74.5077229 142.1740341  69.9650860  56.1055803  79.9260998 104.2449524
  57.0600891  79.9548769 104.3106445  55.8255577  80.8222866 104.4311383
  58.1324387 128.3359051  63.1979704  58.9942694 128.7266922  63.3420515
  57.5753403 128.7304592  63.8689423 121.5219784 123.8136101  48.9297676
 120.8170223 123.6209297  48.3115911 121.8953609 122.9580498  49.1415119
  59.6053505 133.1450558  32.1427941  60.0145149 132.3897362  31.7205381
  58.6820316 133.0855465  31.8974924  93.4888840  92.3299503  82.4102783
  93.7714100  93.0297947  81.8215370  93.9002800  92.5412846  83.2483292
  81.9319916 139.6617889  36.1002922  82.5552464 140.1466656  35.5592966
  82.4294376 139.4218254  36.8820810  59.0372372 146.2235260  50.3217745
  59.1221237 146.0853291  49.3784142  59.9378157 146.3183403  50.6319475
  64.7182655 141.6572952  78.5555267  64.9974680 142.4226761  78.0530596
  64.9787474 141.8535328  79.4554520  96.7965412 137.5461388  16.0309362
  96.9399929 138.4705067  16.2339211  97.6768589 137.1815777  15.9395015
  36.9863939 126.0161686  39.2173147  36.3110733 125.3380203  39.2341137
  36.6016698 126.7492580  39.6977377  87.4598026 131.9424438  44.5527411
  86.5696621 132.2724247  44.6751833  87.3431683 131.0259628  44.3023443
  89.5842934 121.1786938  62.7353096  90.4629326 121.5264988  62.8877974
  89.7217560 120.4222488  62.1651077  76.0150719   8.0977040  17.3225558
  75.7494211   8.8228016  17.8881419  76.9301653   7.9371147  17.5528860
  83.5985470 132.1422195  52.1085453  84.3984795 132.6672935  52.1338463
  83.8065815 131.4170551  51.5194035  53.0616093  24.0295773 106.7053019
  53.5776281  24.7574025 106.3585620  52.9348564  24.2446690 107.6293669
  65.5619955 112.7662849  64.7941542  66.3312387 112.9893780  65.3182936
  64.9848986 113.5250282  64.8807716  80.9256172 123.3415127  39.9258232
  80.2051830 123.4203434  39.3005276  81.5537357 122.7613163  39.4956303
  83.2727814   6.7432957  61.6396236  82.3387051   6.6704922  61.8356752
  83.5237408   5.8690720  61.3413143  98.1278419 113.2777214  72.7127123
  98.2997894 113.4811974  73.6320972  97.1742249 113.3068752  72.6352501
  64.1441536 115.8414555  45.1874876  63.7993050 115.1380634  45.7375288
  63.4293270 116.4757824  45.1337004  43.8662863  64.7608089  47.7487373
  44.8140478  64.7084570  47.8721714  43.7524986  65.3799820  47.0276928
  50.9521818   7.9735928  95.1025486  50.7514381   8.8485031  95.4349041
  51.8660164   7.8281861  95.3474998  96.9006824  99.0167522  43.7405729
  96.8531704  98.0665684  43.6351013  97.7095509  99.1631508  44.2310238
  45.1677036  87.4174500  42.6628685  45.9831905  87.2838211  42.1797943
  45.4460001  87.7580166  43.5130405  59.3736935  86.0009003  53.3553982
  59.6022081  86.4207363  52.5260925  59.0581465  86.7165565  53.9072084
 112.6792049 129.4326496  31.8651772 112.6863384 130.3480434  32.1448898
 113.2986546 129.4001389  31.1361694  85.6759644 124.9205589  55.4219484
  85.4636383 124.3482685  54.6846342  85.4867649 124.3922710  56.1974144
  83.4378242 136.2911129  40.0472975  82.5550270 136.2742138  40.4169273
  83.3702087 136.8755913  39.2922878  97.1422958 109.7458458  36.6335988
  97.6515007 109.9909973  35.8610415  97.5017357 110.2847862  37.3382831
  50.4868460 142.6951599  78.3001375  50.1046753 141.9773769  77.7951956
  51.0998583 143.1134510  77.6955891  68.8881207 144.7976303  42.1581316
  69.0932560 145.3433990  41.3989925  69.7243786 144.6951580  42.6124430
  76.5616417 113.7138939  22.0079732  77.1382761 113.0443764  21.6399169
  76.1123562 114.0864372  21.2492967   3.7434130 117.6916695  22.7557898
   4.1130477 116.9227791  23.1898403   3.0814105 117.3366833  22.1625209
 101.2715816  10.9333401  47.3284101 101.9197369  11.6256600  47.4580812
 100.6328964  11.0690384  48.0283356  85.8111954 125.8448124  52.0795774
  85.9687901 124.9373817  52.3402929  84.8847675 125.9914398  52.2705460
  83.5215569  22.6882725  22.2267222  84.2138863  22.0292836  22.2781944
  83.0898762  22.6493054  23.0801654  77.7570868   4.1851502  78.2491970
  77.4482727   5.0446301  78.5358381  77.5517416   3.6011486  78.9792633
  73.8911819 129.2844868  56.5315056  74.5092869 129.9878407  56.7301750
  74.3545628 128.7281609  55.9053946  22.9415541  71.0046244  35.6501555
  23.7307101  71.5382719  35.7433677  23.0926543  70.4900551  34.8572993
  48.2459545 144.9323750  54.8645830  49.1602087 144.7743320  55.0999260
  48.2518339 144.9946594  53.9094257  84.4730663  15.6532460  35.4798579
  83.5671234  15.3472691  35.4366183  84.4084358  16.6050129  35.4011631
  55.3250790 120.4112911  40.5686188  55.0310516 121.2603855  40.2387476
  55.8226919 120.0321388  39.8441434  91.1125183 131.2885475  59.9484587
  90.3054714 131.5506458  60.3914165  91.0717297 130.3325748  59.9222326
 111.8008232 100.5950069  22.2280264 111.5171051 101.5065289  22.1583652
 111.9017887 100.3056145  21.3212228 103.0048275  94.1723633  59.7540903
 102.2641087  94.7589111  59.9074984 103.4347820  94.1015530  60.6063604
  96.1503887 132.6214981  61.2578964  95.2853870 132.3222065  61.5379572
  96.6033077 132.8405190  62.0722198 114.8073292 126.3732243  44.0646648
 114.9956036 126.6373158  43.1640911 114.0539742 126.9065475  44.3181372
  90.3467655 104.8058224  56.3838720  90.3840256 105.6297398  55.8980751
  90.7826233 104.1719818  55.8142185  87.3631382 125.6448269  80.1306915
  87.7138996 126.5351295  80.1544571  88.1085396 125.0876617  80.3546906
  83.2414341 133.6623573  25.1022243  83.9967346 133.8405228  25.6626010
  82.9195881 132.8106880  25.3976774  87.2208118  92.0284462  57.2707462
  87.7079678  91.2049198  57.2973633  87.0676327  92.2459507  58.1902409
  95.5877781  23.5227566  40.5240488  96.4248180  23.7325268  40.1098061
  95.5316067  24.1226940  41.2677956  62.9421949 111.4970016  32.6598048
  62.2492647 112.1562290  32.6985192  62.5676060 110.7860279  32.1397805
  60.8690405 114.9512005  44.1344357  60.1450682 114.3414021  43.9921427
  60.4467916 115.7627583  44.4160461  95.5455112  99.1367054  34.0814900
  95.7289696  98.3655262  34.6180153  96.2603951  99.7417068  34.2793393
  71.6829729 109.1537476  67.5774479  72.5647116 109.2180443  67.2105217
  71.6653347 108.3001995  68.0103111  93.3404732 140.7791805  64.7529984
  93.4144878 139.9322033  64.3132305  94.1571426 141.2312603  64.5410919
  96.8772888 137.5564194  39.1893578  97.0007229 136.7026424  39.6041751
  95.9277630 137.6741028  39.1614509  46.6534328 121.8100548  30.6712937
  46.5522575 122.7505970  30.5251074  45.9797001 121.5940380  31.3160062
  90.1201439   2.2269516  37.8910875  90.7293320   1.9522934  38.5764241
  90.6813049   2.5655346  37.1934509  64.3466806 101.3193035  65.7153511
  64.9303246 101.2250233  64.9625540  63.9022207 100.4741001  65.7811546
  86.8621731 128.4114933  28.9196467  87.4840736 127.8279686  29.3543577
  86.6862679 129.0970230  29.5641160 121.8197346 133.2890224  71.7435455
 120.9371185 133.4853458  72.0576620 121.9199562 132.3474693  71.8837547
  92.7454758 136.8074512  28.9471602  92.1086979 137.1858120  28.3408689
  92.9981422 135.9777737  28.5421586  60.3099871 123.4739780  52.3200893
  59.8275852 122.6534176  52.4211454  60.4825497 123.5362244  51.3806343
 112.9938698 123.3466434  61.5672016 113.1939220 123.7387466  62.4171782
 113.7867069 123.4822655  61.0483074  96.4874554 104.4725800  83.5864258
  95.8502197 103.9704418  83.0784512  97.2551632 104.5302963  83.0176353
 123.5138702 146.0766125  58.1457233 123.1930351 146.3422394  59.0075445
 124.4672298 146.1123371  58.2236099  52.7346087 129.0611458  35.1847625
  52.0269108 128.9199066  35.8136082  53.2817698 128.2793999  35.2603841
  76.3680792 145.0430870  39.9741149  76.0228395 145.6703663  40.6093740
  75.6470442 144.4313431  39.8254347  64.9289989 134.4919491  27.7944493
  64.1012573 134.9722195  27.7740312  65.2973557 134.6860886  28.6563396
  62.3021412 126.8666649  42.7398729  62.6755095 126.1390495  42.2424746
  63.0332661 127.2023773  43.2585096  59.4790649 115.9733391  23.1370091
  59.4485760 115.3117657  23.8281083  60.3043890 115.8063602  22.6818323
  59.0481472 134.9612999  35.7042384  58.2898283 135.4097939  36.0784554
  58.9032745 134.9941730  34.7586370  94.4176960 124.6254253  38.0529165
  94.2902088 124.2826653  38.9375043  95.3255653 124.4087601  37.8406286
  60.4385757  22.8472119  39.7544909  59.7903061  23.3986073  39.3163753
  60.0131130  21.9933491  39.8326755  64.2062044  15.1084881  55.2724695
  64.9493551  14.7302800  55.7424974  63.9410448  15.8573132  55.8064842
  68.9440823 141.3951588  46.0128784  69.0679598 141.4311790  45.0644112
  68.5956430 142.2567940  46.2418032  65.4984283  99.9238396  25.9969163
  66.3243008 100.0932312  25.5436230  65.5007696  98.9796352  26.1540937
  61.2722921  74.8638678  36.4548802  60.5319214  75.2295828  35.9707999
  61.6338634  75.6074047  36.9372201 106.8912315 133.1054783  50.8605957
 106.1977768 133.5506630  51.3475895 106.8496418 133.4856224  49.9831009
 105.7757282 126.2429523  17.6079476 105.1522160 126.8576813  17.2212005
 105.2295780 125.6050491  18.0673170  91.3518143  19.4971829  36.2719512
  90.7263279  18.8156300  36.0260534  91.4959240  19.9922543  35.4654980
  71.4645290 105.4815769  18.3023167  70.7266998 105.5134106  17.6933646
  71.9728851 104.7201252  18.0230522  98.5931969 122.2250271  17.9423618
  98.3574963 122.5049114  17.0578611  99.5239162 122.4347305  18.0198979
  72.9399300 139.4934654  59.1716003  72.0588350 139.8670959  59.1889286
  73.1793785 139.4017601  60.0938177  69.8606586 110.8506680  28.3056283
  69.8100710 111.7947674  28.4551144  69.2681026 110.6924438  27.5707269
  59.9795485 107.7084637  34.6606755  59.5132113 106.9112301  34.4092965
  59.6635103 108.3736897  34.0492630  54.3562460 128.9043999  14.5369804
  55.1597166 129.0361214  15.0402880  53.7186718 129.4894505  14.9461663
  76.6569090 127.8597832  12.0489347  76.2044239 128.6044788  11.6528082
  76.1429071 127.6551151  12.8300512  94.2814732 116.4530659  51.5022564
  94.7432613 117.2914982  51.4988232  93.4151649 116.6553211  51.1489201
  63.2719183 130.7856274  99.1424128  63.6744642 129.9366760  99.3253943
  62.8652048 130.6775188  98.2826849  91.5459347 140.5307007 107.9507142
  90.6080818 140.5314732 108.1421489  91.7031097 139.6871471 107.5265063
 104.5795918  76.6354752 108.4532917 104.7292519  75.6910896 108.4090261
 105.4406643  77.0221519 108.2943592  62.6843882 131.7795753  15.4169142
  62.8860760 130.9806824  14.9297690  62.5336409 131.4815140  16.3139439
  76.9492054 130.5814934  31.2953949  76.5425634 130.0836468  30.5861545
  77.5378323 131.1925316  30.8522439  80.0103760 104.4424343  10.4335916
  79.2388058 104.2908096  10.9794068  80.2284431 103.5792446  10.0820363
  65.0400734 129.0355396  11.9402552  64.6390295 129.8171234  12.3204160
  64.2997169 128.4736729  11.7113197  85.1948929 119.2981911  24.1378570
  84.5781994 118.8891888  24.7450209  85.7611465 118.5811806  23.8524103
  58.5169363   3.4144764  38.7190247  59.2880154   3.6161595  39.2491078
  58.8076591   2.7200680  38.1278348  86.2843895 118.1952667   5.7169539
  86.0386086 117.7062702   6.5022594  86.1602688 117.5740719   4.9993587
  90.7953548 112.1258354  70.8853579  90.0889969 111.8160439  70.3185034
  90.6583309 111.6644001  71.7127275 101.3906384 132.0833206  38.6955214
 101.0946178 131.2153530  38.4212160 101.4983749 132.5691319  37.8778315
  51.2478495   9.2242604 107.1239796  51.4283657  10.1074391 107.4459041
  52.0231152   8.9926224 106.6125711  97.3724556 124.5868015  14.0174210
  97.5476360 123.6637688  14.2006087  98.2357788 125.0001621  14.0231538
  81.5073109 127.8324699  20.3615189  81.3782501 127.7942467  19.4138300
  80.7991982 127.2983456  20.7214117  84.8111057 128.2652378   6.9989252
  84.3313980 127.8423786   7.7111763  85.0136375 127.5539970   6.3911849
  82.0049477 106.4926815   8.4854591  82.1671009 105.6262112   8.1124085
  81.3757324 106.3363457   9.1896427  81.8739414 125.5063629  10.9773314
  81.3307953 126.2753963  10.8046424  81.4952374 124.8180008  10.4305530
 109.5085335 109.8695564  37.3341608 110.2661800 110.1307774  36.8107343
 109.3142700 110.6361008  37.8735113  77.8455687 104.4081974 104.2501333
  77.6172733 103.5012150 104.4538339  78.5365152 104.6274471 104.8752370
 110.5854797  93.9610291  95.9513041 111.4175892  94.3294621  96.2480982
 110.2522755  94.5993614  95.3206452  74.9720478 130.8852196  20.3503823
  75.3676367 131.4563179  19.6919036  75.6943655 130.3371620  20.6571603
  94.5432377 139.2391300  35.0364923  95.4581451 138.9902592  34.9051738
  94.5541191 139.7857857  35.8221674  85.9309673 138.7223148  23.0493855
  85.4370117 139.2241383  22.4009943  86.5812206 138.2425690  22.5362992
  62.2350121 117.7144527  45.0916672  61.3179302 117.6072407  44.8392820
  62.2257519 118.4266472  45.7311440 107.1819592 138.9355850  27.6672125
 106.5217304 138.2836533  27.4320006 107.8521824 138.4390736  28.1367922
  34.8384213 117.0428753 102.0554014  35.4965949 116.6356850 102.6186373
  35.1972032 116.9632912 101.1715617  91.7069244 137.9324150  98.5721441
  92.5001621 138.1836319  98.0989667  91.4075375 138.7425137  98.9848658
 108.2521057 130.7050800  51.3581848 108.0570602 131.6373825  51.2633514
 107.6280499 130.3953934  52.0146084  65.7324123   3.8223248  49.4614553
  65.9570026   3.8662320  50.3908968  64.8751974   3.3968335  49.4420290
  52.3842335  75.1364279  32.7710176  52.8032017  74.3316936  33.0761385
  52.0639658  74.9223375  31.8947601  89.5524788 124.6607018  28.9587474
  88.6999321 124.5305538  29.3740273  89.4661331 124.2471600  28.0998206
  74.2306948 113.5387802  44.0160894  74.0603685 114.1011810  44.7716856
  73.6934471 112.7616596  44.1699886  63.4757710 126.0252094  37.2876143
  63.5792971 125.0738430  37.3081470  63.7244844 126.2740421  36.3974142
  94.9378872 133.3590412  31.4821553  95.0466156 132.5331688  31.9536924
  94.0900612 133.2758141  31.0456944 101.4549637 109.6638870  28.8995552
 101.8345928 109.6303844  29.7776198 101.7528343 108.8573170  28.4789014
  77.7494526 111.8808270  40.8059406  77.4475956 112.4723530  41.4952946
  76.9720745 111.3767338  40.5655241  74.7124910   7.4900227  83.9960957
  74.0083885   8.0602246  83.6873150  75.4651356   8.0725651  84.0980721
 102.3168850  13.9128094  59.8443079 102.2222900  14.7615986  59.4120598
 103.0057526  13.4680157  59.3505001  78.4848166 137.5212288  26.4843345
  78.1283092 137.2293472  25.6453252  79.4340801 137.4859333  26.3665080
 105.1145458   5.1057701  10.0556815 104.1699886   5.0153427  10.1816618
 105.4908752   4.3589478  10.5213666  67.4900866 118.4747124 104.1988417
  67.0682049 118.7862110 104.9995997  67.3099613 119.1570759 103.5521903
  72.8199148 145.7289791   7.8256708  73.4945202 145.1544285   7.4636805
  72.0088625 145.2272511   7.7438521  84.3936729   7.6284294   6.2304425
  83.8754654   7.0686226   5.6522453  83.7457848   8.0736046   6.7766052
 113.8859940  75.4914331  33.1734586 113.6939430  74.6408272  32.7787209
 113.0264187  75.8825874  33.3295679 105.7594109 130.3263092  18.9920175
 106.2547684 129.8114681  19.6290374 106.2950611 130.3057671  18.1989884
  88.2717228 111.0112286  21.6772461  87.8957939 111.8816853  21.8084955
  88.3485317 110.9242916  20.7271028  73.8445187  97.0832729   2.4943596
  74.1586447  96.7413807   3.3314157  73.7926626  98.0298805   2.6265752
  58.7606955  91.1017799  52.3418474  58.1125021  90.8804703  51.6731977
  59.6003628  90.8609676  51.9504404  91.0371017 116.0874176  34.0494657
  91.5865612 116.8062496  34.3618941  90.8147907 116.3291931  33.1503797
  63.6044216 127.2141266  27.6577234  64.5066595 126.8997383  27.5997734
  63.1535006 126.7831135  26.9316840  87.9837322 107.0006180  17.6668370
  87.0451164 107.1031284  17.5096262  88.3687019 106.9474792  16.7920732
  87.0416260 121.0373020  68.6506033  86.1454678 121.1277103  68.3266306
  87.4601364 121.8702126  68.4330320  85.4275799 122.6381111 103.3768430
  85.0398254 123.2637978 102.7649631  85.3606129 121.7938900 102.9306986
  87.4645996 116.6071701  10.6054485  86.7199898 117.2010899  10.5103052
  87.5885487 116.5280724  11.5512884  97.8990459  73.5711432  -0.0321581
  97.3988628  72.9657364  -0.5794543  98.0630779  73.0842209   0.7754527
  70.7404709 117.8055668   3.1349549  70.0600433 117.7680588   2.4627608
  70.3459167 118.3086300   3.8473347  54.4665861 116.8335247   9.1779125
  53.5272169 116.8064022   8.9960337  54.6468210 117.7536869   9.3703717
  77.8867579  91.5080547   2.8999278  77.0863676  90.9889221   2.8217411
  77.8498745  92.1175671   2.1627888  77.5732994 102.8208256   0.0442838
  78.3968019 102.3486233   0.1671622  77.4615002 103.3216286   0.8523207
 101.0251331 130.6958675  47.9471827 101.5139103 129.9469852  48.2884979
 100.1399231 130.5818939  48.2930613  77.8811884 106.4541721  11.9051564
  77.1734142 106.7932701  12.4531472  78.0021572 105.5520058  12.2012901
  76.2172651 109.1191196 109.2229679  75.3876114 108.6860847 109.4239363
  76.4241648 109.6187019 110.0128022  88.0243206  87.5706196  45.4008102
  88.5304832  88.2968807  45.0366974  87.6200962  87.9321194  46.1895800
  91.3480568 123.6381054  31.1175060  90.8075619 123.7538242  31.8989849
  90.7485962 123.7904644  30.3869772  66.9277191  87.7430153 109.0022925
  65.9718609  87.7458477 108.9517385  67.2140074  87.5361061 108.1126528
  79.2624092 111.5290260  24.9387145  80.0799942 111.1110115  25.2089977
  79.4200897 112.4651527  25.0613022  67.0640039 139.5230007 109.4471263
  66.8115091 139.6141148 110.3659168  66.2516499 139.2904758 108.9974156
  69.1536522  97.7386951  20.0546741  69.4093037  97.2033691  19.3034697
  68.8418627  97.1076965  20.7034159  79.9511433 105.5618572  29.6219134
  80.1212502 106.4853001  29.4360518  79.2647696 105.5742836  30.2889729
  57.2005415   2.4084168  49.8211956  57.5299978   1.6584092  50.3163433
  57.2637987   3.1440430  50.4303598  79.6553278 145.5346775  48.0611420
  80.5424213 145.3044319  47.7849436  79.5960283 146.4786243  47.9138470
  13.0404215  26.8860226  21.8163681  13.6082583  27.5925236  22.1240211
  12.5464182  26.6207486  22.5921392  68.0148315  71.5809679   6.3845557
  67.4278927  71.8342876   7.0969886  68.8933849  71.7364264   6.7312753
  69.4190168 119.3298626 105.8808567  68.6096668 119.0698624 105.4408702
  69.1381216 119.6141243 106.7506411 111.8809605 119.0331841  51.2836838
 111.8285179 118.1636047  51.6803217 111.2870693 118.9907837  50.5342054
 103.2195950 107.5961876  13.5625911 104.0197277 107.6273537  14.0870416
 103.5064220 107.2775364  12.7067757 107.8530216 102.6730919  19.0148258
 108.3988857 103.4572601  18.9569640 107.8500366 102.4515247  19.9460220
  69.7047472 116.1665630  29.5465398  69.3170166 117.0374489  29.4602609
  70.6470490 116.3276482  29.5950794  53.9838600 142.3233700   0.5442848
  53.7868738 142.7674580   1.3690391  53.8272047 141.3970566   0.7276606
  88.3082867  19.1146069  51.2442064  87.7598095  19.4625264  51.9473171
  89.2048836  19.2454319  51.5528154  59.2898941 143.2737255  51.0388613
  59.1182852 142.3739529  50.7610369  58.4249640 143.6318016  51.2386465
  81.9552994 133.0604458  36.2451649  81.8961048 132.1679497  36.5860176
  82.4804115 133.5300064  36.8932438  89.9143791   1.0761147  75.9426117
  89.7318363   0.1670914  76.1804819  89.2582989   1.2861519  75.2780199
  63.6330175  11.3333302  13.7596047  63.4558725  11.3282376  12.8189528
  62.8442669  10.9609680  14.1538835 109.3426037   6.4879303 102.8800508
 108.6713505   7.0083027 102.4386253 109.1668224   6.6118317 103.8127788
  76.1188936  77.6105547  15.8411837  76.8858290  78.0597734  16.1965036
  76.1678839  77.7630138  14.8974741  62.1379232 122.3496914  99.8021331
  62.8183985 122.3708820  99.1292747  61.8175411 121.4477825  99.7904506
  94.6426392 122.4895191  10.4353118  94.1371727 123.2348156  10.7597709
  94.1829491 121.7219830  10.7756245  95.6426048 135.3020191  20.2413201
  96.0149956 135.3518867  21.1216998  95.2840900 134.4164371  20.1827145
  58.0718517 137.1935272  25.6080794  57.5136662 137.9710579  25.5980062
  58.3552933 137.0903873  24.6996450 100.7710361   3.6856919  95.2983257
  99.9489403   3.4975033  94.8455878 100.7193661   4.6174794  95.5112179
  89.9404144 145.4344654  26.9061446  90.4783916 146.2257004  26.9336557
  90.5122566 144.7692204  26.5231633  65.0989008 130.2535152 101.5049615
  64.4789124 129.5917225 101.8113449  64.5506907 130.9959698 101.2510713
  76.7906427 124.8783875  45.8732080  76.2329340 125.4397774  46.4117479
  76.9915724 125.4090881  45.1023579  84.0891171  96.2993813  -0.1904674
  83.1499386  96.3237572  -0.0072253  84.4500542  97.0304108   0.3110790
  90.9131050 106.6517925  37.6263762  91.4626026 106.1740494  38.2477093
  90.4368114 107.2839355  38.1646752  85.3026009 110.3619194  50.3635979
  85.1068878 111.1046410  49.7923851  85.5041027 110.7582569  51.2112665
  71.2129068 134.0372086  29.1337490  70.3128910 133.9511490  28.8194370
  71.4188385 134.9649811  29.0194511  89.4305611 132.7292538  38.0773544
  90.2001953 132.4065399  38.5461378  88.8145447 131.9968414  38.0954576
  92.3061466 100.1739407  27.2443104  92.4787331  99.2737103  26.9685912
  91.9657993 100.6036854  26.4596343  90.3478909 117.3850060  44.2719507
  90.3158379 118.3121014  44.0359449  90.5026627 116.9320488  43.4430313
  95.4876804 104.6087933  49.1726875  95.6515217 105.5074883  48.8867998
  96.3581085 104.2499256  49.3453264  31.0675025 123.2409286   1.5289676
  31.2208033 122.3028851   1.6421524  30.2337694 123.4023666   1.9706184
  77.7043486 126.6734505  18.1467903  76.8314981 126.7987537  18.5191751
  77.5586367 126.1298561  17.3725140  72.9234743 111.8165779  19.1155982
  73.6073065 111.3181210  18.6682248  72.5014448 112.3214436  18.4204459
  92.7403545 109.5651054  94.0693232  91.9610691 109.5192814  93.5153981
  92.7754784 110.4769516  94.3583556  87.2107983 146.4402962  22.4290848
  86.6463089 145.6675816  22.4068785  87.0816040 146.8558693  21.5765357
  81.3692379 145.0886631  50.3615093  80.5585480 145.0631618  49.8532057
  81.6399860 146.0063839  50.3346682  81.6625977 131.3309002  26.4396620
  80.8855057 131.2567043  26.9936061  81.4499092 130.8195591  25.6589437
  78.5478497  78.4638500  17.3320174  78.8389015  79.2197657  17.8420281
  78.8788462  77.7069235  17.8154850 109.0480614 141.3456726  24.9658751
 108.5397148 141.8895435  25.5675578 109.5005608 141.9720459  24.4009519
 102.2152042  21.4420681  16.3067305 102.2792435  21.0575466  17.1809542
 101.4703178  20.9965687  15.9031010  71.7411518 130.0006580  15.7780826
  70.9726429 130.2844048  16.2731719  71.4816236 130.0898170  14.8610616
  61.7657375 138.3888340  32.0416117  62.1218681 139.2683887  32.1672750
  62.4645329 137.8035069  32.3336840  81.8931007  17.8811245  53.4169865
  82.5516796  17.1928959  53.5110617  81.0939312  17.4991017  53.7797832
  63.5430765 116.3777256  12.8396428  62.6915312 115.9987640  12.6216996
  63.6243629 117.1341419  12.2587240  95.2435017 135.9686947  30.4641247
  94.3681717 136.1091232  30.1031446  95.1586246 135.1785374  30.9976721
   4.6769076 122.1590042  42.9616594   5.3008872 122.8779888  43.0613422
   4.7945338 121.6287708  43.7498569  51.7267179 130.4829311  29.9197817
  51.0074234 129.8982620  30.1585364  52.3739100 130.3626156  30.6146955
  90.4445648 115.9234238  15.9490490  90.4090977 114.9676991  15.9886277
  90.2450752 116.1329174  15.0366104  71.0566998 104.1043758  20.9344840
  70.1014614 104.0741539  20.8812046  71.3219452 104.6331692  20.1819873
  89.3991661 128.6058331  16.3763165  89.9322987 129.2440510  16.8503225
  90.0250530 127.9468060  16.0760283  95.8283043  96.1824036  30.6244278
  94.9634266  95.7751656  30.5756617  96.2809467  95.7011127  31.3170338
  93.4538078 116.6620731   2.8086019  94.1710377 116.4211845   2.2222674
  92.6724529 116.6311264   2.2565460  35.9649324  90.2055645  28.6162210
  35.8573341  89.3144131  28.9486575  36.3511753  90.0922203  27.7477717
  53.2223177 135.7193184 100.0444051  53.5210371 135.0775337 100.6886961
  52.5373125 135.2651501  99.5537659  65.4054499   2.4036007  31.8936968
  65.3199434   1.9116383  31.0770631  64.8253679   1.9523888  32.5070000
 110.6615257 101.0459900  17.6711619 110.6052303 101.2100410  16.7298055
 110.9202194 101.8879223  18.0459523 108.7058163 120.2589321  11.3488877
 109.2771339 119.5956135  10.9617901 108.4303761 119.8801517  12.1836877
  36.2301826 127.4046516  16.2320554  36.9804168 127.2167015  15.6680918
  36.1157990 128.3529854  16.1703587  92.3352718 115.6577110  92.3813983
  91.7360973 115.4995346  91.6518744  91.9606972 116.4096165  92.8402682
 108.6039543 133.3130074  32.5978589 108.2132053 132.5078583  32.9374027
 108.4316158 133.9670372  33.2751942  63.3304548 140.6572628  33.4458208
  62.5793362 140.8640289  34.0019703  63.6978006 141.5098858  33.2127357
  51.5921450   3.6065083  17.5517094  51.9533062   4.4490319  17.2761214
  50.7736015   3.8301640  17.9946542  95.7506847 102.0654488  30.2771282
  95.2565861 101.8064594  29.4992971  95.1009464 102.0795727  30.9798956
  61.5693665 129.3927479  37.0865130  61.5960455 129.7500515  36.1989021
  61.9533300 130.0788116  37.6325178  73.6407757 122.2700882  19.8251283
  72.9948664 121.6449928  20.1541901  73.4403324 122.3532009  18.8928473
  65.7661963  87.1750069  26.8998504  65.3060341  86.6322422  27.5400734
  65.1295424  87.3089886  26.1977434  79.3469048 115.7143593  25.4901385
  79.1770267 116.5814114  25.1219177  80.2733040 115.5548000  25.3096628
  87.0982456 110.1391602  44.4898510  86.7815208 110.5947971  45.2697897
  86.9216347 109.2146969  44.6642399  69.4146681 101.1181068  13.0414891
  70.0931501 101.1166477  13.7166882  69.8481798 101.4767361  12.2670984
  60.7051039 140.2401066  34.6427035  59.9871492 140.0350285  34.0437770
  60.4101324 141.0205746  35.1118493  87.2804356 102.6183510  55.8374842
  87.1623898 101.7450237  55.4638728  86.4822865 102.7725506  56.3428696
  49.0179110 113.6407471  25.6987000  48.8997412 114.1925049  24.9255037
  48.1379747 113.3251667  25.9044933  65.3795052 112.1120739  30.3111029
  64.4701958 111.8467712  30.4489708  65.4558182 112.9509354  30.7657599
  53.4262133 115.4500866  96.9959494  52.6591158 116.0226154  96.9937535
  54.0161180 115.8425045  97.6395746  46.2451124   0.4469567  18.3416772
  45.6235790  -0.1956100  17.9995739  47.1052742   0.0860577  18.1269598
  46.7982006  99.4173622  21.4887094  46.7341948  99.2726517  22.4327397
  47.6218176  99.8915100  21.3743806  89.9409294 144.5633888  49.1979361
  89.5826435 144.0822697  49.9438477  89.6678448 145.4691601  49.3436337
 108.7520885 122.5468636  32.6577950 109.5211601 122.3710728  33.1998801
 109.0960789 123.0204296  31.9004059  82.9973793 142.3860741  21.5795302
  82.1028805 142.2499275  21.2671757  83.2683849 143.2114697  21.1776590
 108.2237911 128.1781864  38.8316202 108.9908218 128.5197544  38.3720255
 108.3963394 127.2410011  38.9219117  81.8887043 105.6473255  12.1096909
  81.1960793 105.5826283  11.4521873  82.6038265 106.0981464  11.6606927
  97.4374008  96.1323643  98.3520588  96.5935612  96.3579369  97.9605313
  98.0456543  96.1092091  97.6133319  95.0736427   6.7320805  52.0118809
  94.3109035   6.8974953  51.4577150  94.7238064   6.7175083  52.9027414
 100.6119347 122.0437145 105.0285526 100.5220318 122.9884624 104.9036657
 101.3564491 121.7992306 104.4788631  96.1696911 125.8239269  26.0035253
  96.8947601 126.0397053  25.4170561  96.3667011 126.2969303  26.8120360
  99.1392803 121.6316128  29.6352768  98.2443714 121.4344788  29.9118948
  99.1399860 121.4679813  28.6921644  99.5119572 137.9245090 104.6830913
  99.5407009 138.8716125 104.8187124  99.4644260 137.8199577 103.7328055
  50.5908251  92.9578590  29.4341826  49.7852182  93.0152988  29.9479246
  51.0200548  92.1626759  29.7499084  87.7537918  78.6694765  51.2762690
  87.4869156  78.8866472  50.3830433  88.4947777  78.0735350  51.1666536
  92.3127747 115.6423283  24.6714568  92.3934269 114.7739506  25.0659800
  91.7316437 116.1209393  25.2625966  94.8842812 133.0763054  18.0713606
  95.5082417 133.4817123  17.4692369  94.9166012 132.1438026  17.8577626
  98.8927650 120.5161667 103.2022180  98.2454681 120.0104046 103.6935880
  99.4248676 120.9416676 103.8745626 108.0799198 103.1587982  21.7260551
 107.9240799 102.3842239  22.2664094 108.9593029 103.4478378  21.9697070
  94.3702412 109.7361755  19.2884266  94.0735245 109.3064499  18.4862304
  94.0145969 109.1968060  19.9947035  86.3405132 118.1711960  29.1002727
  86.7551231 118.9658642  29.4361806  85.4451275 118.2076359  29.4367194
  28.2935643 101.5461636   2.0249315  28.8369226 102.3336411   1.9954872
  27.4726033 101.8363571   2.4224819  82.7257538  89.0534210  13.3158016
  82.3240471  88.5719776  14.0390444  83.5669422  89.3498325  13.6633337
 100.4786777 116.2173843  32.0523238 100.9426212 116.3579273  31.2269545
  99.9980164 115.4001427  31.9207525  79.8663759 106.1683559   2.5173381
  79.4778204 106.3351059   1.6585889  80.3975773 106.9446373   2.6946926
  79.5817280 140.8385181  16.5005553  79.6311235 139.9721718  16.9045770
  79.6385670 140.6679440  15.5603933  78.0304861 135.3179169  27.9154468
  78.2888508 136.2247467  27.7507496  78.5299063 135.0637531  28.6914706
 106.5544605  78.8400793   9.9634457 106.5800381  78.1217098  10.5955279
 107.1200275  79.5128918  10.3425133  75.3888607 112.9030609  17.0270550
  74.4753170 112.9430580  16.7440867  75.7999182 112.2848892  16.4227998
 105.7173347 122.9393864   3.8936442 104.9658203 123.3845329   3.5020998
 105.6018829 122.0196056   3.6550725  49.3015814 113.4496880  77.8260740
  49.2725611 114.2294788  78.3804282  48.7131453 113.6510468  77.0984563
  62.8024054 126.9646263  24.9762797  63.4080553 127.7050495  24.9416828
  62.0379210 127.2571373  24.4800568  84.4433022 143.1415367  18.2930291
  83.8694191 143.5570431  18.9366508  85.1545143 142.7669907  18.8127661
  65.9961605  98.7363148  37.3215985  65.1924229  98.6601448  36.8073678
  66.0549974  99.6669674  37.5376153  75.3885889   1.0758763  51.2772369
  75.7260513   0.7004624  50.4639626  76.1708832   1.2777024  51.7905760
  87.9798794  91.5141296  24.4465876  87.4062157  91.1344910  23.7809896
  87.4085331  91.6591167  25.2007627  54.3924189  13.7640744  31.7999506
  53.4633589  13.5338574  31.7909837  54.4053173  14.7127705  31.6733551
  89.2959404   6.0578328  20.8190417  88.6278725   5.4483586  21.1328292
  89.3028164   5.9375553  19.8694539  81.8880463   1.3526135  50.2522182
  81.1639404   1.9578343  50.0921917  82.0605564   1.4283448  51.1906910
   1.7202311 100.3138256  25.0851178   2.4543028 100.9209728  25.1786304
   0.9722071 100.8729458  24.8751783  90.8838463 101.0850143  24.7435379
  90.2258205 100.3960705  24.6508288  91.1898804 101.2456131  23.8509107
 101.1811733 106.5397549 109.2442719 100.5656910 106.8263245 109.9190211
 100.6511116 106.0160923 108.6434024  72.9182386 133.4916782  16.2585652
  72.4732542 133.2923412  15.4348624  72.2530842 133.3463764  16.9313884
  72.8337526  71.7094326  25.4060745  73.1142092  71.2111139  24.6384430
  73.6252928  72.1589279  25.7021308  79.1462469  18.8757115  26.1543179
  78.2746696  18.5340100  25.9547758  79.6710777  18.0977803  26.3430214
  40.6396580 107.2611141  16.6550016  40.0568151 106.5285969  16.4551425
  41.2779474 106.8986034  17.2693348 102.6659966 124.1999435  36.5142870
 103.5066128 124.6384430  36.6458845 102.8234005 123.2947731  36.7828298
  34.4163561 125.2930927  36.5902972  34.3996882 125.2182770  37.5444245
  34.9805045 124.5749378  36.3035607  88.3866310 128.3950520  22.3268437
  88.3980083 128.4167671  21.3699579  87.5205040 128.0530071  22.5483680
  38.1679487 141.2786865  22.8154039  38.5734200 142.1305943  22.6539302
  38.0481243 141.2465000  23.7645292  90.9317875 119.9630928  12.0601165
  91.3832092 119.2703533  12.5423682  90.9487057 119.6706772  11.1488342
  93.5703182 130.7374859  55.6994963  93.9639282 130.7708549  54.8276091
  94.2648220 130.3962231  56.2629128  46.5172529 129.1087723  21.9809866
  47.3891163 128.9388943  22.3376775  46.2570953 128.2797909  21.5793228
  98.3166027 145.3638744  24.7989678  97.9387093 144.7714996  25.4489899
  99.2354870 145.4450798  25.0544739 105.9872913 108.1692505  19.9223602
 106.4824390 108.9777374  19.7903538 105.1603699 108.4554672  20.3103137
  56.6526031 137.7174282  18.1660926  55.7477999 137.6481819  18.4706724
  56.6612101 137.2476578  17.3321402  87.4941635 122.6300049  20.1292109
  87.0709610 122.5586319  20.9848022  88.3249760 122.1661949  20.2335095
   0.4786234 136.3381386  20.8866906   1.1286002 135.9942627  20.2739072
   0.0828009 137.0778656  20.4258609  81.6211128  13.9848118  67.1928167
  81.7485142  13.0948143  66.8643093  81.3359833  14.4840603  66.4275217
  88.3857727 133.8602829  24.2382336  87.4796772 134.1614342  24.3055773
  88.3185482 132.9788303  23.8711500 101.3930893 127.2648335 107.2591188
 101.4789200 128.0615616 106.7355784 102.2756290 127.1001720 107.5911275
  32.4717331  98.2111168  92.8289958  31.6696739  98.4827328  93.2752677
  32.1725392  97.8649426  91.9882353 110.4320240 142.4839020 105.1701626
 111.2707233 142.2904301 104.7513767 110.4789925 142.0398331 106.0168209
 100.6479454 133.0162621  30.3896236  99.6931648 133.0509663  30.4481840
 100.8383560 133.2007408  29.4698715  64.9467516  94.6886730 103.7819275
  64.3534231  93.9954758 103.4926578  64.6638107  94.8892879 104.6740749
  85.2603054 107.2887707  32.7191710  84.8962402 106.9614506  33.5416985
  84.7426319 106.8570900  32.0395327 105.3431797   3.4417134 106.5070131
 106.2136173   3.6634903 106.8377551 104.7406864   3.8034325 107.1569266
 107.8901196 131.7185307  12.4336791 107.3388100 130.9364700  12.4596906
 108.5363483 131.5791416  13.1259084  49.1463947 126.5783978  26.8795180
  49.2024708 127.3588181  26.3281202  50.0575066 126.3421631  27.0535970
  93.5745239 121.0240555 109.2684309  93.0405998 121.0846138 108.4762908
  93.5443878 121.9033909 109.6453900  62.4571276 129.3991852  92.8893181
  61.9532108 128.6218357  92.6484343  63.1341267 129.4639778  92.2157415
  76.5502548   6.3055878  11.8836558  76.1058187   5.4796295  11.6926074
  77.4409437   6.1795693  11.5565109 102.2152615  94.1130257  30.5059147
 101.7221069  93.6941910  29.8005009 102.5036716  93.3876991  31.0599494
  90.1890755 106.2812328 109.3572887  89.8988628 105.5311012 108.8383342
  89.7338867 106.1843014 110.1937300 117.3559570 135.5080700  20.6627774
 117.7230167 135.8845901  21.4626098 116.4463043 135.3111076  20.8863211
  54.0836000 112.0220470  25.3355551  53.4447908 112.6616192  25.0207424
  54.8845482 112.2259235  24.8527026  71.5620422 109.8491573  15.4982674
  70.6534481 109.6460533  15.7206225  72.0489979 109.0602493  15.7364357
  93.7543392 137.6726151  59.5414972  94.4579411 137.1799660  59.1190290
  93.4932995 138.3236885  58.8901997  96.9937897 110.5450726  19.6602798
  96.0740757 110.2899647  19.5875299  97.2049046 110.4188251  20.5853319
  51.9538021 141.8023682  14.1116571  52.4869967 141.0957146  14.4757605
  52.5798035 142.5010014  13.9212072  90.1103592 107.3157883 104.7872388
  89.3876457 107.3015022 104.1597738  89.7044373 107.5756550 105.6142392
  72.6108599 136.4724541  15.2305424  72.9028034 136.2935734  14.3366730
  71.7703199 136.0202599  15.3029919  61.0250330 110.6921864  18.4045601
  60.4038048 111.1853313  18.9403856  61.0054922 111.1282635  17.5526893
  97.9771996 127.9206657  12.8958559  98.3995247 127.5069332  13.6486495
  97.0581913 128.0012035  13.1511486 105.7168102 112.1795464  20.7215381
 104.7713184 112.3285961  20.7130408 106.0961437 113.0531502  20.8172178
  62.5753593 145.5713272  29.1134977  62.9540110 145.6475639  29.9893093
  62.8506613 146.3698673  28.6631966  62.8252363 139.4302940   6.6917998
  62.2964001 139.5105934   7.4855989  63.6754274 139.1175842   7.0010233
  97.8757668 114.2750740   0.7462531  97.8323269 115.1191139   0.2968859
  97.7251530 114.4862461   1.6676405  61.9249916  91.0322857  78.4779056
  62.6690435  91.6312981  78.4162720  61.5822649  90.9834385  77.5855025
 101.9205666 130.0072670 106.3115152 102.1075726 130.4247952 107.1523055
 101.8583393 130.7340813 105.6917521  59.6071053 146.0088158  26.6110206
  60.5261278 145.9819412  26.3447475  59.3672466 145.0907326  26.7368221
  65.1658583 101.9100094  82.6956924  64.7678137 102.0865917  81.8432792
  64.9520063 100.9943581  82.8748234  90.7950497 142.9040718 105.2603813
  89.9265766 143.3011818 105.3259181  91.3984203 143.6061287 105.5038660
  81.4747810 111.4023876  10.9638071  81.2543583 110.4713917  10.9338439
  81.3922882 111.6973591  10.0569332  99.6586609 130.9581661  45.1731157
 100.1194191 131.1267185  45.9950209  99.7293282 130.0117207  45.0486565
  97.1056461 119.9470901  11.5532851  97.1969223 119.2181778  10.9396172
  97.1853161 120.7301617  11.0085988 100.2221870 118.9106655  10.0522983
 100.6778431 119.6947861  10.3584969  99.6798229 118.6436462  10.7944465
  54.2148399  99.5440197 108.5335926  53.8945961  99.4705963 109.4326383
  55.1672888  99.5819759 108.6209555  98.1074142 145.3901482  20.3678513
  98.2502842 144.6238041  20.9233141  97.1603966 145.4131889  20.2304888
  76.8895340  72.1922255  10.9800446  77.0809793  71.7834806  10.1359415
  77.2892952  73.0600166  10.9221017  78.8768387  91.3787365  96.3088366
  78.5560513  92.0634937  96.8957206  78.9429045  90.6005478  96.8622729
  80.3479958 120.5172920  43.9979172  80.9134960 120.9365463  44.6465158
  79.8819780 121.2425709  43.5819435  53.1993151  13.0934315  26.5531015
  53.7538433  12.7352314  25.8599734  53.7564945  13.7303334  27.0004845
 111.9681263 137.9454803  58.1715679 112.4851322 138.0614567  57.3743963
 111.0613346 138.0618858  57.8880024  71.4497232  99.7423553   8.6505848
  71.3899803  99.1442394   7.9056549  71.9484043 100.4890060   8.3188486
  94.4571686 130.2217770 103.6511590  93.7281895 130.8418751 103.6336836
  95.2181816 130.7532787 103.8848092  88.8763618 127.4655056  30.5927277
  89.6179390 127.2963333  31.1738229  88.4372234 126.6188049  30.5121207
  49.7568274 114.2183399  13.4066784  50.6588221 114.5012951  13.2564270
  49.2315674 114.7796726  12.8363824  66.2582874 114.2017746  15.7307386
  66.5137863 113.9167404  16.6080678  65.8962154 113.4167385  15.3198171
  71.9442129 133.4278393  99.4402667  72.3833466 132.7624035  99.9699720
  71.0173798 133.1918716  99.4793817  40.8993721  14.9297123  99.1549524
  40.5673742  15.8255749  99.0963467  40.5575943  14.4960003  98.3730897
  20.6498146 113.1406975   6.2195975  19.8279285 113.1847954   5.7309347
  21.3167167 112.9783058   5.5524367  93.2944870 138.8237858  91.2695857
  92.7847767 138.0557060  91.5274247  94.2006207 138.5157108  91.2540146
 104.0746689  99.9814987  32.3001266 104.2054462  99.6730709  31.4034653
 103.4191322  99.3868828  32.6647305  79.3776369  89.5650196  32.3549223
  79.9594498  89.9763393  32.9940939  79.7099543  88.6715031  32.2687459
  76.2050343 119.8219681  88.1418427  75.8911848 119.4754791  88.9771112
  76.6869926 119.0952969  87.7470144  65.2772665 133.5906887  10.4767215
  64.7751331 133.9497566   9.7451741  65.2773666 134.2880917  11.1323571
  84.5104980 103.6668491  17.0201063  84.1426659 103.4403896  17.8742993
  84.0286350 104.4491196  16.7516053  37.9102850 108.9552593 105.3974690
  37.2202015 108.8006496 104.7524031  37.4414372 109.1919136 106.1977246
  84.7742748 119.2514992  19.7114360  84.5157146 119.7908306  20.4587626
  84.6396065 119.8163033  18.9504564 102.8919220 126.8042850  21.3078713
 102.3112297 126.2475109  21.8265557 102.8502369 126.4369869  20.4249310
 103.0422020 114.8696899 103.4214016 103.9990616 114.8730469 103.3959892
 102.7832699 115.5322933 102.7809783 118.7756157   1.2741261  45.3690624
 117.8788948   1.5432721  45.5682898 119.1085243   1.9599514  44.7902346
  83.1763268  69.4617558   9.7793007  82.9363346  70.0988960   9.1064805
  82.7088165  69.7526455  10.5622721  84.2040920 102.6134491  12.8368580
  85.0941658 102.5259113  13.1779492  84.2360592 103.3921909  12.2811759
  97.2297764 120.8996201  21.5020108  96.6210079 121.0054207  20.7709575
  98.0490112 121.2831020  21.1889124  50.8362007 133.3694267  14.6779406
  50.8511209 132.8626633  15.4898524  50.6085539 132.7315044  14.0015841
  96.4461231 139.8168659  17.1839762  96.1736298 140.1878643  16.3447285
  95.6575489 139.3969536  17.5275671  75.9321833 102.5278378  26.6251397
  76.3534737 101.9270039  26.0105324  76.6291046 102.7772713  27.2320294
 102.0876884  86.0315704  87.4903854 101.5951157  85.5631733  86.8164381
 102.8392982  86.3993931  87.0255932 109.1116619  81.0936546  37.1433616
 108.3208656  80.8273506  37.6123667 108.9230728  80.8981037  36.2255239
  89.2199612   0.7944088  29.7722268  88.5561657   0.4716759  29.1627669
  88.9630222   1.6993790  29.9490190  94.5260143 123.5313320  67.3234852
  94.3970966 122.8547573  66.6587599  94.4492912 124.3560982  66.8438014
  81.9553471 122.8781700  24.8669696  81.4783764 123.6700535  24.6186709
  81.8486309 122.2899723  24.1194010  73.6595488 107.1739578  13.4204245
  73.2579613 106.5274906  14.0009749  73.2641840 108.0064392  13.6790502
  82.9106903 102.5045109 106.3873550  82.9857922 103.1926441 105.7262483
  82.1556187 101.9862556 106.1089220  76.9232559  94.2066765  11.8278146
  77.5248289  94.7995186  12.2782362  76.0999155  94.2899418  12.3088658
  79.9079704  84.2098713   8.3507472  80.8257198  84.1658592   8.0823624
  79.8659372  83.6816311   9.1478831  81.3986397 103.5667038   5.3919840
  80.8538246 104.0103340   6.0420662  80.8721638 103.5747337   4.5926175
 103.8352013 119.3702126  24.6555638 103.1659698 118.9086914  25.1609015
 103.7544727 120.2838516  24.9293900  66.3709068  94.8165512  -0.0298623
  66.0037518  95.1123619   0.8031573  67.3158312  94.9318314   0.0704627
 118.1119442 127.4634552  42.9296064 118.5768986 128.1800365  42.4976778
 117.3131084 127.3512554  42.4143410  78.8479090 133.3058167   5.4133183
  79.7808599 133.4522057   5.5695462  78.8215876 132.6254272   4.7405580
  73.2192278 128.9005375  41.0787392  73.0991125 127.9512787  41.1054707
  72.4709082 129.2503643  41.5623522  72.2842836 113.8707256  88.4142336
  71.8275452 113.0642891  88.6535820  71.5993452 114.4377899  88.0599269
  85.8481693  95.8521557  26.5073538  86.1788654  96.4143562  27.2079277
  85.0174713  96.2526226  26.2508631  78.2669067  13.5461598  23.1532097
  77.3420858  13.3707981  22.9794455  78.6441803  13.7186413  22.2905707
  96.6409874 123.6543274 107.5386886  97.3457813 123.0097580 107.4751809
  96.7913437 124.2469788 106.8022179  84.5579243  99.3905354 101.4635202
  84.6150208  99.3391895 102.4176356  83.7996864  99.9510384 101.2987693
  92.2504139  93.6876202 103.0231049  91.4797688  93.9626026 102.5263842
  91.9545650  93.6688232 103.9332428   3.6788779 133.0867100  93.5338827
   2.9706126 132.4432182  93.5114225   3.3425456 133.7939644  94.0842470
 114.8864079 117.7532959  94.6727165 114.9598408 118.7068939  94.7112831
 115.5288315 117.4377060  95.3082665  40.3298140 103.5070229  22.5154543
  40.1081896 103.1069946  21.6745639  40.6445408 102.7790737  23.0514383
  44.3517876 142.7188587 100.7712873  43.5186720 142.2488117 100.7366385
  44.9677515 142.1487999 100.3110161  83.5109520 105.5835438 109.4039628
  83.3810425 106.5230560 109.5330678  83.0807781 105.1766872 110.1560612
  84.8601055   2.2549706  29.6164536  85.6345654   2.4371987  29.0842438
  85.2073860   1.8676644  30.4199600  62.1255302 122.7993679 102.7137437
  61.6447639 123.2262993 103.4228446  62.0960665 123.4276390 101.9921889
  87.9473782 107.1851349  71.8319734  87.0815563 107.4118805  71.4926203
  88.5331821 107.2885895  71.0820635 114.4926548 122.9591846 100.7975897
 114.1275501 122.1932125 101.2405648 115.1732254 122.6035786 100.2260979
  89.3119717 144.2656326  57.6423320  90.1987267 144.0494251  57.9307040
  89.1547298 145.1437855  57.9892644  42.8602314  70.5549431  92.9363497
  41.9706297  70.3918743  93.2497975  43.1687880  71.2916183  93.4639212
  88.4466267 113.1154060  82.6438054  88.8148975 113.4023666  83.4794291
  87.6244164 112.6856518  82.8793844  97.5871849 138.0125523  33.8390160
  98.1182480 137.3371410  33.4170985  97.9569244 138.0934906  34.7182059
  63.5226583 130.8323860 105.3989663  63.7937355 131.1212730 106.2703394
  63.6592722 131.5971851 104.8398086  80.8125401 115.4485607   7.9616612
  79.9214029 115.1113892   7.8698623  80.7086182 116.2745380   8.4341079
 110.1503468 112.7360630  26.3251543 110.8725929 113.3326721  26.5217233
 109.9406528 112.3287296  27.1655989  98.7990570 130.1060963  55.9898329
  99.5079994 130.0262451  56.6279936  98.9783382 129.4211102  55.3457117
 118.5707855 117.4038029   3.2933465 118.4514046 117.1955872   2.3667242
 119.0032387 118.2577419   3.2931691  82.9607773 132.2238827  16.3880503
  82.7904510 131.3121319  16.6245568  82.1002293 132.6423359  16.4121497
  95.9454632  98.0734634 101.3785680  95.4083824  98.8591099 101.2759014
  95.3674030  97.3534966 101.1261036 104.4627666 107.0065975   7.9250097
 105.3818989 107.0000076   7.6578337 104.1309834 107.8513813   7.6209027
  52.3438787 119.2335796  47.0527029  51.7047310 119.8192978  47.4584818
  52.9691648 119.0405369  47.7512598  86.2765884  88.4966278   5.0949210
  86.9425488  89.1821098   5.1482511  85.4629230  88.9330292   5.3473699
  48.6122608 128.3648300  91.4879342  48.7264824 128.2953072  90.5401190
  48.9275789 127.5279617  91.8292018 102.8165722   3.3731060  12.5474644
 102.8496265   4.2039090  13.0217040 103.1977749   3.5703640  11.6918898
  61.9961977   7.8367596  40.0742102  61.0897350   7.8018074  39.7687030
  62.5091743   8.0036621  39.2834949 111.2448883 129.6566391   5.1443070
 111.7926788 128.8728046   5.1024151 110.9246063 129.6771049   6.0461044
  97.6678276 128.2669544  26.8159842  98.6061192 128.3992481  26.6805720
  97.2586536 128.6339951  26.0323453  74.9666452 144.8276520 108.1502827
  75.4124165 145.1960373 108.9130529  74.6102142 143.9950752 108.4601141
  69.6485949  95.4293823  50.6338930  69.9566603  95.4151058  49.7277355
  70.3260708  94.9640656  51.1245441  97.7244186 116.6897488 109.5385138
  98.2056332 117.2999954 110.0973158  97.8201199 117.0470238 108.6556619
  98.6450863 129.5815849  17.5378191  99.1035557 129.4679165  18.3703542
  98.4131336 128.6927319  17.2688162  58.6643696 131.5812969  96.9999453
  59.0925646 132.3546696  96.6328152  58.7401247 130.9175014  96.3144776
  65.9705544   3.6841565 104.0096679  66.4281321   2.8586274 103.8504519
  66.3899708   4.3085270 103.4176513  82.1591759   9.2433625   6.6979033
  81.6106892   8.7546711   7.3115575  81.5643883   9.4912129   5.9900618
  91.9075012  39.9579029  18.8937032  90.9891605  39.8868924  18.6332273
  92.3925400  39.5545750  18.1737781  92.9206657   7.3039513  50.4239178
  93.0098915   8.1371575  49.9612761  92.4895000   6.7256241  49.7947454
  65.1463747  90.1054001  25.4767156  65.8733749  90.6121445  25.8385348
  64.8178291  89.5955849  26.2172389 100.0992393 118.4832001  19.4558752
 100.7744980 119.1344738  19.6458673 100.2599907 117.7807236  20.0858831
  45.0273371   2.2719555  96.0742971  44.2822838   2.8726559  96.0911926
  44.6609068   1.4445858  95.7621654  94.3390560   9.4906311  13.9889586
  95.2069092   9.0945893  14.0677536  94.0945816   9.3517475  13.0739868
  67.4316740 113.1677055  22.1890092  67.5612593 112.2727394  22.5028133
  67.7308559 113.7203503  22.9110193  35.3994107 119.2248631   0.9058675
  35.9036398 119.8758888   1.3938615  35.2880621 119.6103573   0.0368291
  36.0714149  84.5712662  85.7012328  35.8248138  83.6732483  85.4799303
  36.1698008  85.0080395  84.8551925  86.6644001  14.8384075  33.9240527
  86.1341000  15.0120526  34.7017837  87.2371006  15.6017285  33.8493419
 122.3077202  97.8764248  24.3533516 121.8457031  98.2336521  23.5949588
 121.6222286  97.4641418  24.8790550 103.2986069 115.9050274  18.3691096
 104.0727234 115.4126644  18.6421490 102.7303505 115.2513123  17.9617083
  88.1142902 125.8880329 107.9273132  87.4522877 125.2706623 107.6161229
  87.6770687 126.3767242 108.6246289  91.1316299 141.2178135  21.7071724
  91.8416595 141.3491154  22.3355412  91.3361740 140.3831482  21.2855959
 120.1020622  90.2094746  24.4146633 119.4261646  90.6673336  23.9149117
 119.8016071  90.2558899  25.3222990  55.0976562 110.8191586   4.2521733
  55.9617996 110.4508972   4.4361886  55.2175188 111.3197041   3.4451276
  57.5037336 111.2755871  94.6023461  57.3174524 111.1124516  95.5269643
  58.3613491 110.8761978  94.4567093 100.3633022 118.5766506 101.8778392
  99.7453117 118.0498600 101.3710722  99.8229599 119.2532921 102.2857841
  85.9206676 102.2906113  74.0881785  85.8286381 103.1522560  74.4947871
  86.5953350 101.8519974  74.6065124  64.2591667  99.9278355  22.9062247
  65.1153135  99.5301151  22.7479196  64.3272924 100.8029175  22.5243521
  82.4111748  98.2613945   5.9311008  82.8003311  97.4947071   6.3517886
  83.1589985  98.8095474   5.6933552  65.0101709 116.2171555  28.9442706
  65.3198099 115.6608582  29.6590352  64.4328785 115.6504822  28.4325671
  98.7755299  30.5234890  13.3525491  99.3101597  30.1264935  14.0401506
  98.9240646  31.4643841  13.4468699 114.7688961 131.4353180  11.5458834
 115.5588341 131.0358143  11.1817074 114.4784069 130.8205986  12.2196627
  77.1325493 117.8385448  98.8489529  76.7619991 118.2807255  99.6127614
  76.6929293 116.9885445  98.8276013  98.3929348 136.3786221   8.2266653
  99.2363834 136.7552662   7.9757458  97.9244232 137.0994568   8.6475211
  83.5458279  13.7022000 102.9215773  83.2312202  13.8580304 102.0310887
  84.4884109  13.5681515 102.8225681  73.1046486 118.3365440   6.5656120
  72.6404715 117.5027561   6.6402602  72.7576160 118.8687897   7.2815084
  81.1236763  97.3050022  96.5035363  80.6674004  97.5763702  95.7070419
  82.0399094  97.5311947  96.3435718  47.8572607 100.2406788   1.2020991
  48.4351969  99.4897175   1.0669325  47.2413492  99.9508381   1.8750608
  80.2313805 129.4501781  24.7630954  80.1032448 128.5528183  25.0706005
  80.8652496 129.3708706  24.0502477  92.3415279  87.7045727   3.6106804
  92.4847507  86.8643570   4.0462866  91.3968086  87.8469276   3.6695877
 106.1240482 126.3711548  31.3185239 106.7936707 125.9723949  31.8742394
 106.5798664 126.5726280  30.5012894  86.8898010 104.0149212  90.2088007
  87.6655865 103.7390804  90.6969603  86.9653320 104.9677563  90.1575431
 103.1302357 111.6740131  36.0585237 103.5757923 112.4250317  35.6664991
 103.4834385 111.6228294  36.9467044  87.4956512  93.5517693 104.3387254
  87.4940681  92.5946140 104.3479874  87.7651978  93.7994003 105.2231752
 110.9857845 123.7376022  39.4005728 111.8260002 123.9357281  39.8141122
 111.1885929 123.6674309  38.4677410  80.5148888  88.4101486 105.4518192
  80.8387470  87.9860973 106.2465098  79.7585917  87.8845501 105.1910751
  72.1481991 108.4522533  94.9035414  72.1960640 107.6000977  95.3368708
  72.8555870 108.9619160  95.2986046  54.2283344 104.7782230   9.7935027
  53.4696198 104.2453384  10.0314403  54.2445517 105.4772472  10.4472148
  83.6474037   1.4648323 101.9571217  84.3265820   1.5964203 101.2955841
  83.8206863   0.5912094 102.3078146  95.7808304 133.5775661 103.9582326
  96.2922955 134.2811489 104.3577501  96.4000988 133.1281185 103.3831319
  58.3110952 113.5510731  32.2338533  57.6508093 113.8277245  32.8692412
  57.9542255 112.7495670  31.8511462  91.7525101 134.9082088  23.7248397
  91.9018745 134.1475010  24.2863059  90.9383869 134.7086239  23.2626724
  54.4846678 137.8012371 108.9724083  54.7777653 137.0740128 108.4233441
  54.5425272 138.5690975 108.4038315 109.3944740 122.7568531  10.2606070
 108.9137745 123.3945179  10.7883739 108.9997482 121.9141579  10.4848516
  83.3775520  91.2906456  17.7592278  83.6096191  90.7735157  18.5305583
  84.2169476  91.4984226  17.3487592  87.7406025 136.3661480  91.6332790
  87.2723866 135.5498123  91.8082341  88.5228539 136.0953140  91.1526855
  81.0779190 110.7641983  29.8911214  81.3811493 110.7166672  30.7977748
  80.4794979 111.5111542  29.8775601  44.9274683 112.1199703   5.2262652
  45.4558182 112.8519821   4.9080729  45.3332520 111.8754387   6.0579938
  72.0518017 131.1572266   4.6790624  71.9119692 131.3046932   3.7436834
  72.9634905 130.8726883   4.7430161  98.4689045  93.7555122  19.7476459
  98.4718895  92.9441738  19.2397606  99.2974281  93.7411976  20.2267838
  82.8226948 129.2522526  98.1959995  82.8471851 130.1789856  97.9577097
  83.4466362 128.8355446  97.6016232  87.6995564 123.0488777   7.0833218
  87.4215317 123.8655758   7.4979639  87.3029327 123.0752277   6.2125617
  71.2967491 123.6406326 102.3532095  72.2456408 123.7157345 102.2522410
  71.0019827 123.2237244 101.5435591  51.2263060 128.8831902  89.7595652
  51.4225006 129.6239758  89.1860017  50.5941963 128.3597183  89.2669710
  83.3584404 114.5748615  86.5805706  84.0196514 115.1758575  86.9238337
  83.8620377 113.8436794  86.2228068  66.3521194 136.6179371   9.9005789
  65.5342340 136.5537930   9.4074500  66.1345434 136.2819290  10.7700574
 111.2372017 119.5676517  15.2668357 111.0423279 118.8848305  14.6249545
 110.9751797 119.1892338  16.1061072  60.6411123 107.8615379 106.2580513
  61.1097336 108.6201668 105.9100386  60.1001549 108.2169819 106.9632148
  99.3769550 134.9501324  93.3520850  98.6320591 134.6790504  93.8886222
 100.1270008 134.4969177  93.7371155  73.5212994 125.5917835  28.1218028
  73.6754370 124.8950481  28.7597990  74.2788839 125.5538177  27.5379753
  87.9801750 117.6930618  42.4238110  88.5178852 116.9016933  42.4524689
  88.2926655 118.2216740  43.1580830  94.2599201  97.5371552  76.6573151
  94.4942665  97.1381760  75.8193835  93.3261585  97.3521996  76.7578396
  78.2997179 113.6277294  93.4864756  77.9910707 114.1402435  94.2336663
  78.5195589 114.2810440  92.8223344  64.8793840 125.8246803 104.7944500
  65.1268911 125.8200264 103.8698139  65.6922626 126.0238457 105.2589848
  79.8768234 108.4396648  29.2328429  78.9901733 108.7103844  29.4711733
  80.4454899 109.0834332  29.6552157   7.5132685   6.1696415 105.9208699
   7.3980647   5.3869515 106.4597278   8.4346610   6.1489468 105.6623452
  93.5715389 142.3140335 108.3038471  92.7899075 141.7794037 108.1643584
  93.9286232 142.0036888 109.1359548 101.3068771 115.3252506  29.3731022
 102.0761299 114.8004913  29.5947385 100.6026173 114.6855068  29.2683315
  91.1692333 135.8808517  13.2635808  91.4902687 136.7778397  13.1708753
  91.8065834 135.4565239  13.8380003  44.3950462 107.7658844 107.9003012
  45.3216505 107.5993919 108.0732701  43.9307499 107.1847534 108.5027535
  77.2218418 121.2514782   4.1132426  77.3330975 121.7218494   4.9394423
  78.0453110 121.3907719   3.6455637  39.1628528 124.0927410 104.0456256
  38.5915112 124.8538971 103.9434334  40.0128412 124.3854141 103.7168553
 102.7682018 132.6555443  88.2084370 103.4359360 132.4288845  88.8557339
 102.1420288 131.9326019  88.2470417  80.5499268  91.7324066  19.5664636
  79.7203159  91.6990852  20.0427667  80.4476547  91.0922623  18.8621942
  45.0138569 104.1928864  88.9100361  44.8817921 104.3263626  87.9714298
  45.9310389 104.4233513  89.0580177  66.8116856  93.4412670  87.7829075
  66.5228891  92.5367355  87.9039383  66.0004234  93.9435482  87.7067375
  84.9196053   7.1650486  99.0966225  85.5151558   7.9124909  99.0428638
  84.3627930   7.2462826  98.3222961  71.5934896  71.7045975   4.0214483
  70.9237051  71.0217714   3.9844552  71.3371944  72.2515154   4.7640363
  98.6466789  97.5245953  14.0732232  97.9821587  97.1990108  13.4660665
  98.2757092  98.3350277  14.4222490  64.7627258  86.9114685  14.2855302
  64.2190266  86.1481380  14.0907041  65.1777935  87.1291828  13.4509317
  65.8574915  58.5745144  89.8570251  65.8107138  57.6420879  90.0682640
  66.0591841  58.5983562  88.9216232 108.7953281  69.4333887 107.6780319
 108.8650990  70.3381491 107.3734283 109.0113163  69.4769430 108.6095238
  57.1468210  69.9454260  93.8571453  56.9931507  70.1659346  94.7758293
  58.0971622  69.8539400  93.7885094  54.8688793 115.6503010   0.8368436
  55.4159927 115.0559330   1.3502733  55.3728247 115.8107185   0.0390092
 104.1977310  58.8909101  76.9302797 103.9564323  58.3057213  77.6483011
 104.6431065  59.6227980  77.3571491  37.8216219  92.9687500  95.8106899
  38.0825186  93.8731194  95.6366539  38.6345243  92.4678230  95.7436180
  73.6035442 106.1320686   1.6995946  74.0847254 106.8382549   2.1308652
  73.6243010 106.3607788   0.7703439  94.0587902 103.7067413   7.8566114
  94.8361111 103.1761360   7.6821081  93.3240032 103.1126499   7.7036897
  60.7092285  86.1669827  14.0844194  59.8727512  86.2230682  13.6224786
  61.1329317  87.0085526  13.9156667  64.3757772 103.8227272   6.3996259
  63.6574173 104.2600250   5.9425107  63.9699411 103.4498882   7.1822587
  87.5861645 101.3486099   3.7708131  86.7721176 100.9384060   4.0628473
  87.3189068 102.2104359   3.4513513  41.9468689 133.0114460   4.6116487
  42.2638607 133.7454510   4.0853444  41.7918825 133.3873749   5.4781858
  93.9590931  85.8416843  93.9276600  94.8793507  86.1048794  93.9367962
  93.4779072  86.6463661  94.1204548  68.7345600 118.9402771  99.1784286
  68.4511423 119.8368740  98.9994717  68.0485630 118.3917809  98.7979221
  61.7131376 100.7865906  74.9165344  61.4951372 101.6883659  74.6809435
  61.0453987 100.2570629  74.4806862  52.1954679  98.7905884   3.8980047
  51.7732143  98.0458736   4.3261758  52.9126310  99.0294456   4.4852582
  88.1861019 120.5980587  95.4794502  88.3438873 121.2629700  94.8092079
  88.9078522 120.7063103  96.0988045 118.0662823  94.9244976 102.7164936
 117.8400612  94.3431187 103.4424782 118.6262321  95.5932713 103.1107521
  35.5445695 135.8209419  20.5921975  34.6360373 135.6423950  20.3494588
  35.6068826 135.5447865  21.5065709  60.6588173  69.6431923 101.7753983
  59.7854042  69.7569656 102.1501446  60.4991388  69.3066168 100.8936596
  76.8648434 124.1942787 100.8698559  77.3368168 124.1323090 100.0394154
  75.9585857 123.9818192 100.6467152  81.5881634 122.5111771   4.3778554
  82.3229408 122.9440212   3.9431421  80.8636570 122.5879002   3.7570230
  42.4878550 130.4239082   3.5565320  42.0823383 131.1458588   4.0367261
  43.4260178 130.5273724   3.7158147  79.5337725  91.6831493 103.8785744
  79.0979719  92.4747849 103.5629654  80.4332066  91.7619610 103.5607243
  66.5124369 101.1493492  16.4543668  66.8901587 100.5769920  15.7865564
  66.4200115 100.5894852  17.2252408  78.1735182 123.2351303 102.9420185
  77.5992393 123.3682728 102.1878910  78.7679815 123.9851856 102.9257679
  61.5690088 112.2096539 108.2476330  62.2767687 112.2054672 108.8920593
  61.9197559 112.7086163 107.5098991  67.4670839 110.0640106 101.7260265
  66.8008900 109.3881607 101.8511105  67.8236961 109.8904800 100.8548546
  72.9263401  91.2449074  74.3177462  71.9909763  91.1077976  74.1676617
  73.2613134  90.3785896  74.5490885 105.5165863 128.0172920  26.5987340
 106.1099911 128.7170219  26.3258115 105.4595089 128.1090164  27.5498239
  97.0881748 130.1825905  53.4385920  97.5124073 130.0744247  54.2898035
  97.8120327 130.3005505  52.8234911  96.6533470  74.6293879  87.7320099
  96.0329247  73.9028788  87.7911377  96.4040756  75.2159405  88.4461880
  98.1472874  79.0087938  81.8686390  98.2348347  78.6280107  82.7424717
  98.9782524  78.8108253  81.4367580 123.9915371 111.3738632  93.3585835
 123.2815933 111.2884712  93.9949131 123.5657215 111.2636948  92.5084209
  89.5168686 103.2735157  29.5059434  89.8013401 102.3721981  29.3545381
  89.6976376 103.4292221  30.4329339  91.7100906 110.9718895 100.7958126
  92.1550274 110.1571274 101.0291195  92.3237419 111.4221764 100.2153873
  83.6458683  78.4102583  78.9625406  83.4920979  77.4678278  79.0289450
  83.1948566  78.7805700  79.7212839  91.6152954  55.9218407   3.0610410
  92.1737480  55.2433109   2.6816312  92.2238350  56.6095829   3.3310834
  57.9819536 142.7925968  17.8752462  57.6213598 142.0498466  17.3909799
  57.3445368 142.9577541  18.5699884  96.0337925  82.7141190  98.9148140
  95.6142330  82.2643757  99.6482563  96.7430687  83.2163620  99.3159485
 102.0772552  87.8349209  33.3650056 102.4000740  88.5356426  33.9315835
 102.8445911  87.5600243  32.8631536  75.4247522 115.1333141  78.1606245
  76.1774635 114.5914650  77.9238701  75.0923252 115.4599476  77.3245430
  52.2691011 130.6982613 101.1386395  51.9612312 130.9676552 102.0040226
  53.0100441 131.2765026 100.9573174 109.6385956 132.9418755  73.0776596
 108.9356995 132.2930908  73.1129646 110.2952385 132.5524139  72.5002766
  87.8820705 117.2367859  97.9318237  88.0397511 117.5168991  98.8334370
  87.9515076 116.2825775  97.9618645  79.1398811  97.5289440 109.0923500
  78.5781193  97.1244240 109.7534180  78.5300875  97.9105282 108.4608555
  94.9585533  93.0688095 103.3797932  94.0495300  93.3276176 103.2283401
  95.1733589  93.4385967 104.2361546  36.2973738 105.7997036  14.9728624
  36.3059068 105.4300022  15.8557359  35.8749914 105.1288891  14.4363633
  89.5171261  80.1296806   1.9356004  89.2990208  79.7336006   1.0919324
  89.1115570  79.5529175   2.5829736  64.2780733 125.9582996  90.0079441
  65.0441551 125.7760334  89.4637585  64.6339321 126.0866547  90.8872128
  87.8030872  75.8243418   2.1971837  88.7222862  75.8625460   1.9329015
  87.3318100  75.6041002   1.3936750  81.5285397 133.4698963  81.5192223
  81.5021229 133.5026264  80.5629444  80.7874393 132.9141808  81.7604160
  71.6983032 122.5578690  -0.0145110  72.2169495 122.9620457   0.6810991
  70.7897282 122.7230358   0.2373735  81.5774059 135.1407623  84.9024200
  81.6862488 136.0262775  85.2491760  81.0873699 135.2606297  84.0889549
  92.4943066 128.8647556  79.9335146  92.2427940 129.2406273  80.7771397
  92.9286480 128.0418205  80.1578999  76.3938808  73.9674807 105.3332615
  75.5297613  73.5723495 105.4490376  76.4522076  74.1450691 104.3944931
  74.6800423 132.7993011  77.1125889  75.1084614 132.7457333  76.2582970
  73.8660479 132.3076057  77.0035696  65.3803682 116.2145424  41.4801351
  65.2241421 116.5170002  40.5855123  64.6221113 116.5262794  41.9741956
  72.1253061  95.9462929   0.2759973  71.8831587  96.7581367  -0.1695403
  72.9212475  96.1668205   0.7598153  30.7169032 110.7994461 100.1734161
  30.5368614 111.6005802 100.6653500  30.4549193 111.0053921  99.2760944
   5.0090151  65.4280090 109.0749264   4.0980559  65.5172110 109.3549728
   5.4713088  66.1270332 109.5374012 100.4063702  89.2193508   1.1207143
  99.9522209  88.9603996   1.9225446 100.6554699  88.3920479   0.7086984
  92.8671265 112.5693703  82.2027016  92.8064346 111.7614174  81.6930485
  92.6932716 113.2657051  81.5693569  71.4935780  54.2214394   8.7418691
  72.0886278  54.1925144   7.9926626  71.5201378  55.1326561   9.0337888
  61.2779570 103.1407928  98.2485485  62.0230055 102.7739239  97.7725792
  61.4134312 102.8647995  99.1550255  73.0557489  79.8685169 108.4246445
  73.5375309  80.2104092 109.1777897  73.6653376  79.9537611 107.6915932
 116.0838699 111.5147495 102.0741940 115.5960751 111.7587852 102.8607941
 115.4475403 111.0471725 101.5331841  47.9916334 131.2148857  75.6438589
  47.1758366 131.1122799  75.1537752  47.7253675 131.6169262  76.4707184
 105.4180336 142.2482014  88.3321667 106.0346603 142.9799080  88.3568954
 104.8639584 142.4274826  87.5725079  51.0637379 104.3376064   4.2565194
  51.5674591 104.3584824   5.0701944  51.2048197 105.1997375   3.8652936
  91.9962215 111.4731026  55.6999016  92.9106045 111.3507175  55.9551764
  92.0350838 112.0575714  54.9428558  81.2542343  95.4582882  83.2296562
  80.3524017  95.2857304  82.9591656  81.1699867  95.9163284  84.0659142
  80.1181984  78.0806208   2.8139726  80.1718044  79.0310812   2.9138509
  80.1492500  77.7435732   3.7093297 119.6261024  92.3368073  85.1039696
 119.4603157  91.8807220  85.9290409 119.0428448  93.0953884  85.1282310
  42.7188444  71.8126345  15.6291429  41.9725227  71.6240788  15.0602094
  42.3743391  71.7139578  16.5167276  92.2561455  95.4128933  49.1940451
  92.0783424  94.5754242  48.7659645  93.0902481  95.2794266  49.6442652
  98.8450336  88.7179375   3.9826433  99.4733238  88.0199814   4.1679326
  98.4222412  88.8892174   4.8241559  93.9469719 124.9989891 107.8895855
  93.3961010 124.4200993 108.4165287  94.8396587 124.6950817 108.0538654
  70.5620861  75.8104897  64.1703606  69.9362421  76.4708138  64.4678783
  70.0344658  75.1895094  63.6681318  36.7437077  71.5680790  79.5543814
  36.2648821  71.7720699  80.3577137  37.6468086  71.4332294  79.8415327
  78.6147404 106.0784531  98.0249119  78.0273485 105.3948498  97.7025986
  78.1133604 106.8885136  97.9318619  67.5293159 122.7120304  56.7799520
  67.1916199 122.5479031  57.6604366  68.4787273 122.7589035  56.8924427
  69.2564964  86.6011810  68.0192947  69.3310738  86.4435291  68.9604712
  69.9569178  87.2238445  67.8245068 101.6326427 113.6051559 100.1428699
 101.6663361 114.1798782  99.3781567 102.5422096 113.5401058 100.4338646
 114.0884781 125.9163189  23.2431642 113.8960266 125.1453972  22.7094213
 113.4877872 125.8497524  23.9854375  75.0616455 129.9565983 101.7408562
  75.3089857 130.8748627 101.6320324  75.6180763 129.6414661 102.4531174
  77.6634407 102.1942234   9.6231309  77.6984406 102.1116734   8.6701433
  78.1145191 101.4148903   9.9477807  71.6839695  93.4443378  67.2757483
  71.0896015  92.7830887  66.9211960  71.1317778  94.2142105  67.4122190
 110.6602001 106.6773701   9.1688005 111.3581657 106.0617256   9.3925420
 109.9183559 106.4049911   9.7088949  76.4486837  90.9279633  86.1029434
  75.8496761  91.0159206  86.8443489  77.1540928  90.3696346  86.4298820
  66.4340734 113.5355186  87.6581192  65.5271482 113.3344555  87.8889465
  66.4257479 114.4686699  87.4450493  60.3024864 101.7012882 103.7168407
  60.1193571 100.9558773 104.2887402  59.5869398 102.3142242 103.8857460
  80.4033184 100.0896931   7.3535577  79.9233341 100.3055191   6.5540162
  81.0119438  99.3999958   7.0887414  53.2578230 112.8199863  92.4205017
  52.5708532 113.4833908  92.3556900  53.6240625 112.9392719  93.2967854
  75.7583141  84.9756336  11.3526193  75.5919266  84.1768360  11.8530885
  75.7357693  85.6759357  12.0047704  66.5530157 109.0637207   1.7825738
  66.6012573 108.2699394   1.2498323  65.9675217 108.8329220   2.5037900
  77.9275894 120.1770878  18.3439771  77.1415710 119.6408653  18.4482328
  77.6866341 121.0287189  18.7085382  63.6899328  87.5944710  99.4354820
  64.5870543  87.2606945  99.4375992  63.6119843  88.0665588  98.6064529
  84.6692753 101.8764877  81.6488552  85.2570629 102.1023846  82.3697662
  84.1298389 102.6575851  81.5259171  78.3153629 117.9758263   9.7752420
  77.8401279 117.6448822   9.0131036  77.9675436 117.4725819  10.5114499
  84.3660450 121.2751770  99.6170616  84.7880840 120.5743122  99.1201687
  84.1615295 120.8786964 100.4639530  56.5133142  68.9071417 100.1791096
  55.9573603  69.6022034 100.5312920  57.3211813  69.3527126  99.9240494
  70.2615309 134.0180969  86.0508156  70.5847740 134.3106174  86.9029713
  69.7570372 134.7604942  85.7182980  65.7626152 106.7333221   0.3472272
  65.7539606 106.2606239   1.1795179  66.6306734 106.5606022  -0.0172957
 108.7050056  99.0632057   5.4992048 109.2565441  98.3287334   5.7686082
 108.3160305  98.7797642   4.6717969  62.8417063  96.0868740  96.0733414
  62.2616243  96.3578987  95.3618050  63.4497976  95.4706192  95.6650639
  82.8232193  95.2788830   2.7248231  83.5426521  94.7882271   2.3274461
  83.1930351  96.1434269   2.9037992 100.9711075 112.3083496  85.4094124
 101.8336773 112.6546001  85.6381512 101.1142540 111.8285942  84.5935822
  58.2533026 122.1957207  73.8485956  59.0111923 121.9895649  73.3014727
  58.1618881 121.4381313  74.4264603  79.3089771  67.7319193 106.4841747
  78.3765745  67.6084280 106.6619492  79.5622158  68.4715223 107.0365238
  80.1924515 115.3167057  11.3403837  80.3154564 116.1800289  11.7350522
  80.8939457 115.2472305  10.6928293  89.4765568 106.8428993   9.4030420
  90.4122639 106.7308807   9.5707647  89.0918159 106.9734383  10.2697316
  83.6732197  81.4475155  82.1474552  84.4097519  81.2669849  81.5633678
  83.1345749  80.6573963  82.1049500  88.7482929 102.7057171   6.4551202
  88.6780834 103.6315632   6.2224904  88.2498360 102.2498894   5.7768956
  65.6601048 140.6952667  61.3331167  65.8974123 139.9712181  61.9124929
  65.1187372 140.2916241  60.6547300  35.6535888 125.4664803   3.1203309
  36.2108111 126.0443687   3.6416570  35.0005579 125.1406860   3.7397233
  89.4099236 110.7071114 102.2519207  90.2328682 110.5801105 101.7798328
  89.0873432 109.8205471 102.4137306  63.1047106  93.8285637  97.8501606
  62.2046328  93.5917091  97.6265621  63.2505798  94.6629906  97.4044132
  78.6823750 108.1080532  90.2964306  78.7454414 107.5653553  91.0823822
  78.1604099 108.8630772  90.5679607  98.1416893 134.4417000   5.6223146
  97.1896839 134.3549728   5.5734102  98.3238697 134.5596218   6.5545884
 111.4461327  69.0163279  78.5393953 111.3996887  68.1846857  79.0110397
 110.5407906  69.3256855  78.5096264  92.7151775  86.7260170  80.7324123
  92.7454758  87.1146679  79.8581886  91.9617176  87.1404934  81.1528111
 104.2965603 119.0955257  61.0325193 104.0556431 118.8386154  60.1424694
 104.6405506 119.9840260  60.9405231  71.6725016  88.2844830 101.0111237
  71.6634512  87.5212288 100.4335403  72.5410604  88.6675453 100.8882427
 116.1331177 109.7978878  50.2736568 116.9200325 109.4054890  50.6518555
 115.4686737 109.1119003  50.3382301  62.0364666 113.7130547  24.4136564
  62.9522085 113.9779186  24.3270818  61.9790411 112.8883266  23.9312021
  83.2812023 111.9477749  81.7003345  83.2545757 112.6957512  81.1036301
  83.2074642 111.1830997  81.1293125  93.6575413  80.3515625  71.1393213
  94.3148422  80.4698658  70.4536152  93.3013821  81.2282562  71.2835217
  76.7778969  92.9142380  84.3076038  77.4689054  92.5303841  83.7677860
  76.6429377  92.2792816  85.0110531  96.8963146 129.1242409  93.0489635
  96.5452385 129.3095207  93.9199638  96.7371559 128.1891441  92.9205036
  62.6210594 109.3045807   9.5182554  63.0506945 108.7603951  10.1781884
  63.3295488 109.8235512   9.1375486  55.8204412 109.4509411  89.5927143
  55.1062202 109.5668411  90.2193642  55.8561945 110.2792931  89.1144085
  81.8052387  75.3042459  95.9628963  82.7597046  75.3397846  95.8999634
  81.5357113  76.2198734  96.0350323  46.8466187 117.5655365  98.9627361
  47.2108936 117.0853043  98.2191467  47.3351622 117.2417259  99.7195053
 110.1997185  95.5819988  16.3453428 109.9744034  96.5060806  16.4527837
 111.1108303  95.5901623  16.0520116  47.2393227  90.9769917   8.5902540
  47.3578787  91.6403770   9.2700330  47.1454620  90.1549530   9.0715829
 109.3955803  91.0854530 100.4185200 110.0729561  91.4876747  99.8748302
 108.8269615  90.6319141  99.7962475  46.5121126  95.7113743  93.4068298
  45.6117344  95.4440975  93.5915375  46.9508505  95.6786251  94.2569256
  64.7301388 102.9745388  47.3921911  64.5447683 103.5129356  48.1616060
  65.1409721 102.1854305  47.7453843  73.8054323 127.6801586  44.1487169
  73.9831400 126.7482758  44.0213013  73.4948158 127.9835796  43.2956696
  98.3470440 142.7194405   9.3351594  99.1385174 142.1893024   9.2415563
  98.2832432 142.8907394  10.2747480  75.8356094  93.1682491  36.2436048
  74.9123192  92.9206371  36.2931482  75.9689856  93.4136009  35.3280393
  73.0540180  95.0169849  98.0530643  72.8940487  94.1668892  98.4629154
  74.0046215  95.1240253  98.0867386  96.7403030  99.6611500  55.2874613
  96.1761570  99.4534206  54.5425987  97.6270199  99.6485043  54.9271870
  82.5112152  84.5116901  85.0329876  83.2157326  84.9383831  85.5206585
  81.8605042  84.2882156  85.6984615 106.4594841  88.4027481  92.6052094
 107.3953152  88.2132816  92.5377083 106.3466740  88.7388420  93.4943390
 107.0049191 137.2779083  14.7899572 107.2943115 138.0169582  14.2549077
 106.5539074 137.6812649  15.5316583 100.1295376   1.8248825  92.8312492
  99.7947884   2.2683983  92.0518494 101.0580158   1.6837006  92.6462841
  68.4307957  84.0730095  81.7110538  69.1968060  84.3942261  81.2353611
  68.0934143  83.3602810  81.1684418  53.9866114 110.9982300  99.8839760
  54.8913813 110.9789562 100.1958275  53.6219358 110.1556683 100.1547909
  81.4830399  92.4699593  91.6577148  82.4090958  92.5745010  91.4392948
  81.2055492  93.3392048  91.9469166  93.7210941 106.7054367  76.0164213
  94.1332436 107.0933723  75.2444935  92.9547310 107.2550106  76.1804247
  58.0181742  81.2185860  88.0241013  57.8180027  81.7968655  88.7601376
  58.3524847  80.4194641  88.4313965  81.6882515  14.5720654 104.6652699
  82.3960876  14.1416149 104.1857910  82.0344353  14.6883564 105.5500698
  78.4940863  89.4733524  40.0462953  79.4044924  89.3815041  40.3272859
  78.2282448  90.3330135  40.3727189  56.1783266 110.8601761  12.2393934
  56.7894745 111.4924908  12.6174299  55.3526974 111.3390255  12.1667425
  91.4021397 145.8852577  10.3573076  91.1125374 145.3133297  11.0681287
  90.9524155 145.5499172   9.5817319  57.6167297 100.6640148  83.2281399
  58.1654978 101.4361572  83.0907631  57.8204298 100.0908375  82.4890900
 117.1655273 101.6481590 105.5673313 116.9533443 101.1919498 104.7530365
 116.5662766 102.3943043 105.5869961 107.2441959  79.9359941   1.0057298
 107.8732777  80.4962826   0.5512277 106.5579414  79.7725105   0.3587667
  63.2686281  98.8561535  85.6081581  64.0042305  99.3050575  85.1914883
  62.5049114  99.1211605  85.0955772  86.4386749 110.9673786  23.8706151
  86.7596722 111.0757923  22.9753915  87.0552063 111.4647102  24.4080106
  91.0513210 111.9011211   5.0143949  90.7292747 112.7332878   4.6679536
  91.9309902 112.0996571   5.3353254 106.0580349  73.3579350 102.1425629
 106.5830231  72.6684618 102.5490761 105.4831600  73.6658335 102.8432465
 105.2918530 107.8481674  95.1135921 105.9643841 107.1710396  95.0400066
 105.6306362 108.5793686  94.5970535  76.2489748 119.4026279 105.3684998
  75.6193638 118.7710667 105.0207233  75.8501816 120.2562332 105.1995277
  87.0655251  88.7648773  57.0069361  86.1900616  88.7434578  56.6204834
  86.9233418  89.0615463  57.9058266  20.5386859  87.3606968  14.2689172
  20.7559615  87.0320415  13.3965627  21.3394385  87.7906513  14.5691816
 112.9673195 108.9081860   9.9444238 113.6907005 108.2989502   9.7968236
 112.2111702 108.3459187  10.1126901  78.1710815  94.9639511  86.8961811
  78.2797289  94.9757767  85.9452343  77.2629690  94.6926212  87.0301342
  84.2970657  85.9796047  90.0409985  83.3837795  85.9479332  89.7561550
  84.2481709  86.1053371  90.9886456  44.2707109 133.2739925  92.1301842
  44.1151428 132.9844093  91.2311935  43.6367464 132.7831268  92.6530266
  50.0825548 109.0477753 102.7642155  50.4957962 109.2629433 101.9280529
  50.3276110 109.7681904 103.3448887 100.3024387 119.0226269  30.7315770
 100.2296066 119.9582481  30.5430738 100.3819656 118.9757252  31.6843168
  72.9493523  88.5074520  87.0453072  72.5634098  89.3115234  87.3927879
  73.8438082  88.5043621  87.3861313  61.1630869  91.2398720  89.8282337
  61.0340357  90.5127907  90.4372787  60.6417513  91.9543266  90.1942730
 117.4272251  90.0857544 100.0705814 116.6810799  89.4862652 100.0601387
 117.2481823  90.6783009 100.8006954  95.5234337 106.7267418 103.9918613
  95.7033062 107.0393562 104.8785210  95.2390385 105.8205032 104.1105080
  84.3805027  85.8124638  86.2240314  84.8955917  85.5250740  86.9779015
  84.0242767  86.6611481  86.4868546 110.9608555  95.5491161 105.2556038
 111.4834881  95.1825047 105.9688187 110.2078629  95.9484577 105.6912136
  79.6966124 127.0191574  83.5382938  78.9498091 127.4721241  83.9298820
  79.5903683 126.1063480  83.8060951  84.6351051  82.2504234   4.9056951
  85.5520725  81.9829941   4.9681321  84.5570087  82.9826927   5.5171720
  55.6689692  86.2334538  85.0128841  56.2352037  85.7124805  85.5822659
  55.4764366  87.0207787  85.5220890  75.9819889 124.0159225  96.3285446
  75.4461193 123.2272243  96.4123917  75.9774780 124.2100239  95.3912449
 118.2945824 136.8776512  76.7129517 119.1004848 137.1951103  77.1203613
 118.5927296 136.2952232  76.0142994  87.9837036  90.7885933   7.7933828
  88.2368469  91.6249371   7.4026243  87.0305729  90.7635117   7.7089349
  97.9535866  96.1090183   4.6130601  97.0467281  95.9327793   4.3625394
  97.9894257  97.0582962   4.7306672 100.9370518  83.9617252 101.2795258
 100.8008003  84.0524673 102.2226238 101.3561630  83.1070232 101.1792278
  57.2431421  98.8769150 105.0796700  57.5331926  98.4602833 104.2681694
  56.3367033  98.5884190 105.1863098  84.9899578 113.9617157  55.5664253
  85.0457001 113.7280273  56.4929867  85.3677750 114.8398495  55.5177355
  69.4261980 109.0491962  30.5320588  68.9996815 109.5785904  29.8582307
  68.8298750 108.3136082  30.6718389  19.3373585  98.1233978   4.2572156
  19.0342820  98.0561924   5.1626817  19.8436129  97.3237324   4.1141168
  42.1259975  81.3491535   2.0594922  41.4056921  81.9713783   1.9583551
  42.7423000  81.7892838   2.6448861  72.5055265 109.5322990  86.1839294
  71.6609716 109.9459362  86.0054016  72.7782249 109.1708374  85.3405952
  95.1111507  65.8683729  90.6215858  95.3112602  65.8218575  89.6866989
  95.2168083  64.9698305  90.9341335  99.4359207 107.1836853   1.7757169
  98.4859848 107.2409821   1.6729394  99.5970440 107.4677467   2.6754896
  74.0718651 109.8998928  54.9312449  74.1757584 110.1412678  55.8516645
  74.5875025 109.0993500  54.8338985  57.8048134  91.8037891  62.6317644
  57.6259899  90.9231281  62.9614449  57.0633554  92.0003223  62.0591879
  36.2432504 101.6879654  46.0371590  36.9750404 102.3016739  46.1009979
  36.1228752 101.3650417  46.9301653   4.1406184 136.7304134  74.6104860
   4.0871554 137.0963287  73.7276030   4.4787627 137.4474716  75.1468754
  85.9297085  97.3132610  74.7928905  85.3506565  97.4075222  74.0365505
  85.3841209  96.9003201  75.4622507 104.4685841 119.6403503 103.8984489
 105.2518082 119.1567039 103.6360073 104.5722771 119.7708130 104.8410320
  97.1827888 102.1062756  59.8666859  96.5777683 102.6491261  60.3721523
  96.6226006 101.4604664  59.4361687  64.4146872  78.7770176  71.8641567
  64.7578573  79.5109510  71.3544416  64.6638298  78.0002975  71.3632822
  42.2374296  86.2683678  40.0700808  43.1849766  86.4021492  40.0921488
  42.1310568  85.3197289  39.9993801  63.0118895  87.8441048  74.8321486
  63.5891771  87.5408173  75.5328560  62.3418570  88.3602238  75.2803755
  80.6820202 111.8066692  88.5228539  80.8197880 112.1588993  87.6435471
  80.0221443 112.3816013  88.9104939  61.4112473  93.4496021 108.6050034
  60.7979774  94.0390873 109.0439034  62.2580719  93.8905048 108.6737347
  97.3807526 100.5679417 105.5505753  97.4011707 100.6075859 106.5067291
  96.4567471 100.4401398 105.3358269  86.2948227 118.8592720  67.0338726
  86.8351841 119.3334961  67.6658201  86.7091560 117.9993820  66.9620752
  46.5107536 103.0150700  74.3169403  47.2753429 103.5072517  74.6159315
  46.1806440 103.5154152  73.5706758  98.4042740  73.1021309  93.6075783
  98.9326191  73.5743093  92.9640484  98.3044338  72.2247744  93.2381153
  92.9481125  72.5848007 104.2348099  93.3257294  72.8053188 105.0862885
  93.7049294  72.4149752 103.6739063  96.0045338  88.4109592 103.4476757
  96.5889931  89.0905476 103.1118107  95.3888607  88.8810158 104.0100098
 101.7963982 128.7392044  81.8500328 102.0591259 128.2012844  82.5969219
 102.3310566 128.4182358  81.1238384  80.2527714  90.6757832  61.1245966
  79.7476768  89.8981476  61.3620710  80.3836727  90.5970192  60.1796675
  43.9057446 135.4086781 105.3962803  44.3266249 136.1407757 104.9455929
  44.1405535 134.6402645 104.8760414  67.8277636  94.9432564  69.7433662
  66.9734621  95.3317165  69.5549536  68.4257841  95.3709602  69.1304398
  74.2417049  97.6640129  82.7888584  75.1466656  97.3521423  82.7849197
  73.8049364  97.1402359  82.1172047 122.5980091 126.3209915  48.4580469
 121.8223763 126.8787670  48.5172606 122.2848511 125.4489899  48.6984158
  72.3237276  81.5891552  96.7465019  73.1866074  81.4452839  96.3579559
  72.4278212  82.3806286  97.2746658  42.0241785  81.4630795 104.6382236
  41.7679596  81.3748360 103.7201786  42.1392822  82.4047947 104.7653103
  80.3756332  94.2594051   2.5192300  80.3051853  93.5968399   1.8320028
  81.2834454  94.5590305   2.4708978 102.2606945 124.7058964  90.5624104
 102.5519943 125.3663921  89.9338245 101.7703819 125.2001858  91.2192917
  59.0557861  97.9641819  64.4992685  58.2630587  97.4472809  64.6429110
  59.0132761  98.2165909  63.5769272  46.8600130 121.0430908  70.9005547
  46.0757542 121.2654972  71.4022589  47.5797701 121.1458588  71.5231419
  95.6457520 103.1187916  85.9473991  94.8584557 103.6353493  86.1193562
  96.1288929 103.6279678  85.2966022 113.9433765 105.2020741  75.6294489
 113.3891010 104.8995781  76.3488245 114.0296268 106.1444378  75.7734680
  72.3402739 103.0766106  70.2471399  71.4620304 103.2966328  69.9364805
  72.9049730 103.7479401  69.8641777  85.2197742  82.4038410 100.6161976
  85.3877735  82.2542286  99.6858120  85.6767750  83.2213879 100.8136749
 114.2618656 119.1561127 108.2628345 115.1807785 119.1438103 107.9951096
 114.2651081 119.6020412 109.1098118  70.5734873 137.2854519   6.7620794
  70.8503437 137.8768826   7.4619237  69.6800804 137.0361900   6.9985715
  37.0654559 110.7130241  76.0854149  38.0208683 110.7184887  76.1436272
  36.7839098 110.1667213  76.8192530  64.6018982 119.6890640 102.7589607
  64.4997120 118.7425041 102.8580666  65.4509783 119.7946739 102.3298454
  67.1400738 119.2778301  57.2273827  67.3498058 119.5107937  56.3229609
  66.6304111 120.0194454  57.5537062  99.9956036  92.8421021  67.5831079
  99.4880486  93.5596371  67.2039461  99.4584274  92.0639515  67.4342299
  77.9675245  67.7320719  78.2520008  78.2998419  68.5815573  77.9618740
  77.1544409  67.6126528  77.7612162  79.7055626 119.3274117  89.4034958
  78.9607000 119.0758514  89.9495125  79.7210503 120.2835751  89.4452667
  94.7137260  90.5057335   6.6625253  95.2038288  91.2256241   7.0597688
  95.3007317  89.7523594   6.7264596 113.0839825  83.6576080  75.4804277
 113.8701820  83.9707470  75.0331497 113.2820606  83.7580490  76.4115047
  59.4690466  80.2419853  74.6533966  59.3045139  79.3278980  74.4218683
  59.8534536  80.2017975  75.5290937  63.0396652  88.5247135  87.1773243
  63.0359936  89.2695618  87.7785015  62.1550655  88.5073566  86.8120670
 120.5184078 128.2255459 108.4140205 120.5878353 128.0581856 107.4741268
 120.9189796 129.0865517 108.5342121 104.7509098  84.0437889  87.9238224
 105.0263309  83.9990520  88.8394451 104.8833942  84.9594307  87.6783180
  68.2661533 111.5958881  98.7443542  68.4382582 112.4666882  98.3861256
  67.3433924 111.4341736  98.5479069  53.2288361 108.7016964  76.1240053
  53.4817791 107.9669285  75.5651188  52.2805786 108.7712860  76.0135651
 115.1414394  99.8282623  76.9711304 115.2909946 100.6035328  76.4299965
 114.3294716 100.0174141  77.4414015  44.5703459 131.0334110  85.5895329
  44.9962807 131.0957050  86.4444828  44.0362215 131.8254852  85.5297661
  69.7473097  99.6980000  61.9978714  69.4462299  98.7967491  62.1133137
  69.7743177  99.8218250  61.0490990  86.0763168 116.3510704  78.6003304
  85.7337284 116.0050583  79.4244337  86.9847488 116.0506344  78.5736370
 105.8452511  96.3926125  82.6800823 105.9376812  95.4405117  82.7146816
 106.7394543  96.7162514  82.5710392  44.5888281 109.2945004  62.4960852
  45.3412008 109.4261265  63.0730152  43.8837194 109.7975922  62.9034519
  43.7739944  84.4538498   7.4842969  43.4631157  85.3591633   7.4844495
  43.1719017  83.9939594   6.8993036  89.8674583 108.4825516  92.9819870
  89.9629593 109.0468788  92.2147560  88.9477634 108.2174492  92.9713345
  74.5281267 100.1968861  74.5000839  74.9187851  99.3778419  74.1954947
  74.3983030 100.7111931  73.7032938 124.3605232  89.5450020   9.9119035
 125.0895786  88.9467335   9.7482816 124.2529297  89.5369816  10.8630029
  53.6714077  92.1759605  69.8494768  53.6425066  91.2372780  69.6643353
  54.5960426  92.4084854  69.7645235  71.0327530  79.6080160  74.9445724
  71.5309906  79.4573212  75.7478666  70.4271412  78.8683462  74.8960352
  53.3049822  73.3529520  78.2152128  52.9816580  72.7345753  77.5600052
  54.2202902  73.1057024  78.3467960  74.8514080  95.2689648  73.3418226
  75.1412249  94.3680000  73.4849691  74.3626070  95.2355480  72.5195122
  63.9230108 101.7836666  62.5040293  64.7673130 101.3353920  62.4547338
  63.4700060 101.5303326  61.6997719  62.6869774 100.8961201  10.9394494
  62.2341299 100.3809357  10.2718107  62.3178959 100.5913258  11.7683736
  63.2211161 108.9506912  89.4747448  63.8107634 108.4696960  88.8940620
  63.0670500 108.3541203  90.2072716  72.9623556 105.3623390 104.0297604
  73.9174986 105.4239941 104.0412807  72.7463865 105.1598072 103.1194973
  30.6670809  99.2844486  89.7706032  30.9107828  98.4211731  90.1046658
  30.3261638  99.7494507  90.5346584  78.2921982  86.7822456 102.2044849
  78.2712841  87.7108097 102.4359322  77.4562073  86.6260052 101.7652416
  32.4144411  68.2033920 103.8081455  32.7509046  68.3372164 104.6942139
  33.1548882  67.8388453 103.3232975  86.5318680 102.8215694  87.7506924
  86.5578651 103.3141708  88.5709953  85.9407043 103.3227921  87.1889591
  76.1346722  63.3800650 101.4202499  75.4230070  63.4063482 102.0598412
  76.8092442  63.9503622 101.7889595  41.9330168 119.6744347  75.8399582
  40.9857798 119.5607376  75.7621765  42.1841955 119.1022015  76.5650034
  98.8972664 110.9119892  67.0293713  99.5270634 111.0218811  67.7417660
  98.5370827 111.7879486  66.8908548  74.7401381  95.2422523  62.1523380
  74.6831179  94.4321918  61.6456079  75.4764509  95.1011658  62.7474642
 101.7471790  82.9269123  11.4521734 102.5240707  83.4524822  11.6430703
 102.0928288  82.1123314  11.0871831  79.4071341  94.3094349 103.1088448
  78.8580942  94.3885517 102.3287678  80.2960873  94.4726562 102.7936363
  92.8192329 107.4035168  84.8032188  92.6862144 108.3513927  84.7949314
  91.9983768 107.0435238  84.4672966  47.8148603 111.4506054  65.0654316
  48.3858442 111.3434887  65.8261776  47.5223684 110.5629635  64.8586178
  66.9435263  97.5356770  83.8615894  67.8873730  97.4256229  83.7463665
  66.7434311  97.0592117  84.6673012  68.2150221 115.2722359  31.6115308
  68.8119364 115.4450703  30.8834791  68.5240364 115.8428192  32.3152232
  98.4038067  64.4170284  85.7670784  98.5676193  64.9094725  86.5713787
  97.6082134  63.9172411  85.9500694  63.7831545  97.8829288  89.2651558
  64.3853951  98.0064297  88.5314751  64.3495512  97.8423500  90.0357342
  64.8834467  89.3478966  73.9072132  64.4430304  90.0579357  73.4401846
  64.1812134  88.7377834  74.1327286 112.9890537 103.9724064 105.2051163
 113.8489723 104.0710640 105.6138229 113.0759144 103.1987667 104.6481800
  71.3701153 119.6152401  62.9800892  71.2146139 120.4972649  62.6423168
  71.4885044 119.0765858  62.1977377  85.0162411 128.7161922  73.3762646
  85.0948715 129.5082283  72.8445435  84.2763138 128.2439327  72.9945469
  82.1717167 104.5986462  92.1483898  82.8602600 104.3249989  91.5423775
  82.2209263 105.5545807  92.1509457  57.2006893 127.1325493  72.0893621
  57.3901844 127.7674198  72.7802038  57.7854776 126.3972855  72.2727919
  86.6005135 114.6686268  88.8711834  86.0774803 114.1186428  88.2879353
  86.5715694 114.2179680  89.7151661  85.5601597  89.4437504  14.1319982
  85.4125881  88.5546112  13.8097040  86.0018253  89.3235683  14.9726621
  93.3981705 100.6273937  65.5172539  93.5674572 100.6059647  64.5753860
  93.3085632  99.7072983  65.7654858 108.9046955 103.0305958   8.8458482
 108.1460190 103.2779694   8.3172265 109.3350983 102.3417187   8.3394567
  77.0674419  97.7663994  99.2290306  76.4123583  98.3989143  98.9340305
  77.8940725  98.0953693  98.8759136  89.0726757 111.3262081  73.9215469
  88.1169128 111.3722610  73.8964796  89.2659569 110.3904819  73.9787769
  70.6058073 113.4954834  70.1426458  70.3171444 113.4062481  69.2343807
  71.3904381 112.9501629  70.1992750  95.5175686  83.5792255  92.0906544
  96.1437988  83.7951183  92.7816391  95.6727409  84.2369366  91.4127350
  77.0825052 102.5900745  72.6368570  78.0173683 102.3984146  72.5624514
  76.8916702 102.4932194  73.5698271  40.3504467  61.7256308  52.0765257
  40.5982208  61.5198755  51.1751318  41.1836052  61.8341017  52.5351238
  98.3619308  87.5629520  75.0441885  97.6176262  86.9624138  75.0840425
  99.1219521  86.9944954  74.9198723  66.6425753  85.8388519 105.4995918
  67.1692181  86.5116787 105.9310818  65.8734846  86.3077641 105.1757812
  72.3201180 102.9275036  97.2624969  71.6596794 102.4581242  96.7528534
  73.1038952 102.3816681  97.1993637  66.9114161 115.3889561  79.1995049
  66.3516665 114.8384571  78.6519051  66.6835785 115.1447582  80.0965500
  67.3037815 122.3682976 105.1277351  68.1339645 121.9451809 105.3468323
  67.3201609 123.1933880 105.6126976  54.8257256  99.9850464   4.7228185
  55.6682158  99.7544670   5.1143209  54.8394680 100.9407139   4.6705095
  84.0103531  95.2851677  56.5875816  83.0870438  95.5297184  56.5250063
  84.1728783  95.2017403  57.5271845  67.1753645 117.5700760  93.0396557
  67.8036737 118.0696487  92.5182343  66.3567448 117.6262856  92.5467777
  63.7371588  93.4062767  68.5556841  64.3043756  92.7391529  68.1691027
  63.5125732  93.0587959  69.4188452  67.8410339 112.3149776  93.7506199
  67.5638199 111.4277267  93.5221863  67.0341492 112.8296566  93.7343884
  43.8268852 108.9078712  87.7077579  43.6187315 108.1333542  88.2302761
  43.5709953 109.6458912  88.2609940  77.2152376 106.6673660  63.1028557
  77.8600502 106.0636139  63.4715509  76.4108086 106.4843941  63.5882902
  84.6340084 108.3359814  99.5248127  84.5782280 109.2823029  99.3921566
  85.4714489 108.2054329  99.9696350  66.1840487  67.1195984  99.2530251
  65.5832148  66.5612745  99.7464848  66.5243387  67.7366161  99.9008846
  83.4191990  75.7586193  86.2264919  83.4948349  75.5611610  87.1600437
  83.2579803  74.9098253  85.8144379  81.7367649 104.9908161  83.5893059
  80.8198643 104.9609566  83.3160973  81.7021370 105.2077103  84.5209599
  89.9491119 127.7352333  84.8370552  89.8356247 128.3291435  84.0950203
  89.6611214 126.8835926  84.5084286  77.8749704 108.4087849  72.0366669
  78.6799526 108.9024734  72.1932364  77.3757315 108.5010910  72.8481293
  97.5922489 102.0872307  77.9911661  97.4480343 102.9610825  78.3542347
  97.3097801 102.1571255  77.0792675  78.6427402  79.2749023  96.6621399
  78.0469418  79.7769165  97.2182369  78.1010246  78.9909363  95.9258366
  70.4560566 117.6144218  79.2540932  70.1981592 117.6547337  80.1750088
  70.6525898 116.6902637  79.1006327  74.0966940 108.8807678  66.7669344
  74.7105122 109.6030903  66.6338730  74.6520615 108.1042671  66.8366146
 111.0315895 101.9289112  50.3560877 110.1023102 101.7002296  50.3367710
 111.2481976 101.9725609  51.2874317  94.8649406  89.5830059  81.9130230
  95.7877922  89.7421837  81.7149353  94.4962883  90.4550934  82.0536900
  59.9233961 106.5492535  45.9672785  60.1790667 107.1723652  45.2871370
  60.5454254 106.7024231  46.6785097  70.3439951 101.3343620   6.0513536
  71.1813545 101.5746307   6.4479867  70.0479603 102.1329689   5.6145326
  76.4513588 109.3195820  94.8490429  76.5162134 110.2642059  94.9894524
  75.5592203 109.0984154  95.1162624  80.9968662 102.1393204   9.1472761
  80.7056522 101.5423489   8.4580270  81.7735577 101.7186451   9.5160810
  81.1832714 129.0897942   0.3705827  80.8073616 129.6177292  -0.3338393
  82.1295834 129.1693020   0.2506391  87.6972580 117.1004772  83.1538296
  88.0886555 116.9159031  82.3000336  86.8133831 116.7376900  83.0955982
  55.5927992 112.8824997  97.3411465  55.9938002 112.0356369  97.5367069
  56.2707281 113.5235691  97.5548363  55.9464407  83.5950184   4.7602311
  55.0491428  83.5941315   4.4269315  55.8546925  83.4135914   5.6955854
  81.2648773 109.6218109  63.3448267  81.2412071 108.7168026  63.0339718
  81.1594486 110.1497459  62.5533724  35.0974965  97.4150753  85.8327103
  34.7409511  98.0601883  86.4433956  34.9359584  97.7899933  84.9669266
  79.9980259 134.6387291 101.6081238  80.7257557 134.3412590 101.0620785
  80.4178047 135.0689507 102.3530483  65.1823044 100.5720806  93.8190746
  65.9088659 100.8243084  94.3889141  64.5191908 101.2471104  93.9634514
  80.5996990  93.7946033  66.0723400  79.9190426  94.3338680  66.4749908
  80.1217270  93.1900978  65.5045795  74.9478436  79.1469717  99.6035957
  74.5831871  78.5216284  98.9773369  75.2234554  78.6093378 100.3460407
  76.3104582  91.5814495 106.3017559  76.0071564  90.9656811 106.9688892
  75.8714151  92.4041176 106.5178299 101.4193726  70.4058218  53.9353657
 100.5160427  70.4024267  54.2519474 101.3390636  70.3830194  52.9818153
 107.7742767 113.0567074  78.7858343 108.2069302 112.2670841  78.4609890
 108.4270477 113.4732342  79.3485355  57.3675489 100.4941845  93.7161541
  58.0849838  99.9657059  93.3665276  56.6140270  99.9038982  93.7178802
  65.4858494  85.6062222  75.4065752  66.4181232  85.5226421  75.2062845
  65.3727770  85.1244259  76.2259197  60.5417442  75.6370401  90.9297943
  59.8541164  75.0520468  91.2478828  61.2113905  75.0505066  90.5779648
  97.1516323  66.6390848  99.8149395  97.4823761  65.9084320 100.3374100
  96.8851089  66.2399864  98.9867401  57.7589655  86.8556309 103.4977531
  58.5077906  86.7700863 104.0878201  58.1282520  86.7344570 102.6230145
  73.4536171  67.7834558  99.1009426  73.3357143  67.5484419  98.1805611
  72.5690651  67.7710533  99.4665241  92.8299999  71.2630415  93.7203693
  92.8697014  71.4803934  94.6517181  93.7459564  71.2098217  93.4475803
  65.2187634 101.3604832   1.7076913  64.8944950 100.5750179   2.1482984
  65.0154114 102.0749474   2.3113576  66.9392443 107.4716759 102.4645805
  67.8197956 107.0997810 102.5151443  66.4896870 107.1287155 103.2369137
  69.5555592  84.7051716  84.3214226  69.2963505  84.8907089  83.4188652
  68.8597298  85.0899124  84.8543644  75.1851797 103.9815903   2.4724904
  75.9114408 104.4292068   2.9065648  74.8002052 104.6470451   1.9022313
 106.3111210 129.5308685 101.4242744 106.0675621 129.6501446 102.3422527
 105.6549644 128.9254379 101.0791016  57.7383232 102.0704937  68.6916590
  58.1360245 102.8726292  69.0302372  56.9625044 101.9392586  69.2367363
 120.6605625 100.0317955  58.5286617 119.8211575 100.4827309  58.4375715
 120.4779530  99.1300964  58.2644081  34.1724920  87.3014736  53.4106302
  33.8949466  88.1956863  53.6095905  34.5126224  86.9660950  54.2401266
  77.1155119  99.9146652  96.4639950  77.8130293  99.4993305  96.9711494
  77.5728083 100.5122662  95.8724022  52.9893398 110.8324623  90.2536201
  53.3005381 111.5048122  90.8596992  53.1690264 110.0053501  90.7006359
  73.9495277 110.0953007   7.7823297  73.7140322 110.0905132   6.8545572
  74.5480204 110.8367062   7.8737012 114.4792175  91.7028332  75.4726267
 114.4143867  91.8480778  76.4165211 115.0241089  90.9204769  75.3875494
  53.2789803  83.0610180  72.3485804  54.2287016  82.9835320  72.4394512
  52.9272747  82.3764038  72.9176474  82.3265171  89.7224903  90.5292797
  83.1198978  89.2912102  90.2118301  82.5864983  90.6339645  90.6629086
 119.4251919 105.4837990  77.6977110 120.0892067 105.7894611  77.0797539
 119.8179054 104.7144508  78.1101561 116.9378281 112.4288273  40.9117174
 117.6144695 111.7623425  41.0308647 116.4945889 112.4742699  41.7588902
  65.4856205  98.1063557  87.1632385  65.5020905  98.8469982  86.5571022
  66.3101912  97.6473808  87.0030499   7.7695685 118.8310623  55.3049326
   7.8304320 118.6769962  56.2476873   8.4687167 119.4578552  55.1190472
  95.6182384  72.1587706  53.1655025  95.0471783  71.6766691  52.5674200
  95.0479794  72.8169680  53.5627604  83.7605953 110.8553600  58.7916327
  83.4102726 111.7411709  58.8856792  84.1448307 110.6578159  59.6457863
  53.5230494 111.9711971  70.5954599  53.2719374 112.7750587  71.0504055
  52.6953745 111.5174198  70.4364824  83.0999088 118.0934143  78.7582731
  82.3200130 117.6939964  79.1435814  83.7485600 118.0797768  79.4620466
  78.2470560 108.8573456  99.2575836  77.3711824 108.6865807  99.6038723
  78.7885380 108.9977169 100.0343227  66.3600874  96.3267612  97.1545029
  67.1245861  95.7558155  97.2305679  66.0711384  96.4616394  98.0570316
  75.3293133 122.5652599  61.9508123  74.4643450 122.8223991  62.2700977
  75.8065891 122.3020840  62.7376938  46.6580629 124.2004395   1.3996927
  47.1191025 125.0120831   1.1877958  45.7673454 124.3399906   1.0781614
  82.5406265  93.9180279  81.3893509  83.4479332  93.8556480  81.6879082
  82.1164131  94.4889736  82.0298958  90.4261017  96.9911480  56.1490536
  89.7388554  97.6461792  56.2709570  90.6115723  96.6714191  57.0320034
  80.0960159  98.3885002  62.5141716  79.7518969  98.5776329  61.6412210
  79.4503021  97.7989101  62.9036093  31.0685015  82.9806137  63.2714176
  30.1206350  82.8725624  63.1932926  31.2445545  83.8380623  62.8840971
 102.6051903  73.7255001  96.2223911 102.7711773  74.5312977  95.7331371
 102.1771526  73.1463194  95.5918598  74.2148113 117.6641941  51.0231924
  75.1252842 117.9506397  50.9509516  74.0912342 117.4920273  51.9566345
   0.4676276 110.5319023  69.2441177   0.0118571 110.4791546  70.0841904
   0.3340464 109.6723080  68.8447666  36.8735480  77.2756577  66.2847471
  37.6608968  77.4878311  66.7860413  36.7013502  76.3560724  66.4870882
 109.9928856  77.7850866  98.2325840 109.3535519  77.0824909  98.3501911
 110.8180809  77.3316574  98.0602837 100.7726002  83.9157772  91.9646168
 101.0917377  83.9933300  91.0655212 101.1714458  84.6542358  92.4248695
  61.2649918  56.6939497   9.1532270  61.1962509  56.6218662  10.1052228
  61.2935877  57.6359606   8.9857999  78.8297701  92.4107552  15.2758066
  78.5406685  93.3209515  15.3406373  79.7250938  92.4191475  15.6142656
  96.8717575 123.8006878  87.8101158  95.9330368 123.6150551  87.7860355
  97.2215843 123.1834030  88.4526157  72.1532393  98.0170441 107.4660206
  73.0343151  98.3840084 107.3933601  71.9414186  97.7252960 106.5793133
  47.2505331  94.4652367  76.9743967  46.6880369  93.6907959  76.9665480
  48.1080580  94.1412258  76.6989040  63.0223608 102.5755215   8.7770501
  63.3627272 103.3766079   9.1753427  62.9799747 101.9484138   9.4989625
  77.4941683  60.9744930  24.1492692  78.3177233  61.4303589  24.3229905
  77.5345278  60.1901531  24.6964589  65.5023098 103.7013626  92.1285343
  64.9495697 102.9728127  91.8458176  66.0346413 103.9100647  91.3608742
  84.9435139 120.0928688  61.4522934  85.5096817 120.8545399  61.3276243
  85.4639530 119.4923592  61.9859314  84.2483330  75.4804277  62.2282505
  85.0468254  75.2415848  62.6989937  83.6043549  75.6449509  62.9170513
  62.7428055 128.0560780  98.4219074  61.9095373 128.5262680  98.3935070
  63.0515337 128.0608845  97.5158787  41.8531513  86.1223030  34.3173885
  42.3070383  86.8966007  34.6500707  41.5964890  86.3595295  33.4262800
  91.1895084  94.3384075  79.8002243  90.5633450  93.6833286  80.1084709
  91.0282898  95.1027775  80.3533745  95.7961559 121.1590862  70.2299690
  96.0042191 120.4803753  70.8720732  95.7614899 120.6949425  69.3935490
  74.6469688  67.3562622  86.3783646  74.9020767  67.7897692  85.5639744
  73.8904428  67.8542900  86.6879940  52.3331690  91.0422421  92.9291439
  51.7417192  90.5959797  92.3231220  51.9379807  91.9044495  93.0582142
 115.1655293 127.7637959   9.2897168 115.9184742 127.9923153   8.7446634
 115.3370571 126.8649006   9.5704213  88.0364895  98.4682178  95.1254082
  88.2101917  99.4086170  95.1666737  88.9008331  98.0691242  95.0261021
  92.1436977 122.7867317  62.9413128  92.1094227 123.7433052  62.9370594
  92.5819969 122.5591278  62.1213579  81.3953495 107.0162773  95.9587288
  81.4179420 106.0706329  95.8121777  80.4798698 107.2048759  96.1650181
 107.0872974  82.8882504  93.3164597 108.0110550  82.6379490  93.3322239
 107.0609856  83.6725330  92.7683163  81.3711739  90.7423496 107.4795151
  81.1524963  89.8620415 107.1738148  80.5606079  91.2405586 107.3746300
  38.7150335 112.8696346  73.5012102  37.7680397 112.9892445  73.5728312
  39.0791607 113.7404060  73.6605883  68.8831234  84.6090889  66.0867500
  69.3634987  85.2819443  66.5691757  68.0747128  85.0421238  65.8125353
  85.5266571  81.1918068  80.0228596  86.0676289  80.4242325  79.8373699
  85.0402927  81.3435364  79.2125130  69.9736547 117.8197765   7.7718393
  69.9306583 118.3788490   6.9960729  69.2116165 118.0735779   8.2925168
  94.5636368 110.6259537  70.3804779  94.1463757 109.8588943  69.9883699
  95.2155113 110.2635479  70.9804344  59.7034264  93.6825180  88.0724144
  59.1620636  93.0021191  88.4727001  59.0883255  94.3850899  87.8619957
  82.2358513  90.8432293  86.4419174  82.1226692  90.4434204  85.5796146
  81.3836861  90.7429218  86.8661499  93.7164021  96.6523170 100.4189873
  93.8261604  97.1049595  99.5827389  93.7319565  95.7225704 100.1919270
  59.7557449 105.6408405  65.2794981  59.9232149 105.6058502  66.2212849
  59.4293356 104.7677803  65.0616646  95.8933353 140.2620125  98.4409237
  96.3500500 141.1030865  98.4256554  95.2440071 140.3546715  99.1380692
  65.7663059  96.2500095  68.6495686  65.8923817  96.3558865  67.7066326
  64.8371410  96.4328766  68.7890005  51.2430525 102.0492172  47.0658970
  50.9315586 101.3688660  47.6628304  50.8687449 101.8129158  46.2171936
  25.0209832  99.4387817  52.1276903  25.3429222  98.6387920  52.5431395
  24.7070312  99.1534233  51.2696505  61.1858892  98.1389999  61.9679356
  61.7916298  97.9227161  62.6768351  61.6257620  98.8361359  61.4813709
  62.7190876 141.9296646  61.3785028  63.3426046 142.0641708  60.6648016
  63.1579161 142.2870731  62.1504641  84.6744442  88.7253284  89.8686790
  84.4571400  87.8310585  89.6054554  85.5271149  88.6484814  90.2967930
  76.6556501 136.7938709  55.2334452  76.7871141 136.0076618  54.7035265
  75.7697058 136.7012024  55.5837917 121.8799591 115.9401989  96.6202831
 122.2723579 115.0966835  96.3950348 121.3010311 115.7458401  97.3573780
  82.5233459 112.0591259  72.8912830  82.2485447 112.7022552  72.2377634
  82.1907139 112.4029827  73.7203550  87.7378082 118.8522243  77.0863247
  86.8163967 118.6753178  77.2758913  88.1605434 117.9946041  77.1313477
  80.1672459 107.5831985  59.1514492  81.1099052 107.6848793  59.2828894
  80.0801849 106.7626095  58.6663914  66.5117311  83.1579304  59.3663692
  67.0227671  83.3369732  60.1556826  66.8427229  82.3164082  59.0525007
  71.0532808 113.3863735  31.3944912  70.6188202 113.3639812  30.5418634
  71.0569429 112.4744701  31.6854525  11.6392928 114.6235085  32.6377892
  11.3669997 114.7141457  31.7246222  12.5699931 114.4050980  32.5896478
  95.6474018  70.7882786  68.3558846  95.4233360  70.0486565  68.9206696
  95.2705097  71.5494537  68.7972450  47.4838114 115.1547527  54.5282269
  47.9140902 115.8767319  54.0701389  48.1088638 114.4316864  54.4762087
  92.8682327  98.6234951  92.4223900  93.1889629  97.9594612  91.8121147
  92.5984383  99.3521786  91.8633938  61.5167093  87.8332520  62.1564960
  61.6028786  88.1928539  61.2736082  62.3961639  87.8986931  62.5286579
  82.4359989  87.2555637  66.4581013  82.4042511  87.2078037  65.5026245
  82.7706528  88.1330776  66.6430616  70.3699780  75.3635597  68.3748960
  69.4263220  75.3984833  68.2182980  70.7181311  74.8716497  67.6312256
  74.6071386 122.2930813  73.1152201  74.4858027 121.3450432  73.1675053
  74.1831350 122.6326466  73.9033508 101.9011116  91.0908890  26.1194563
 101.3170910  90.5179787  26.6163778 102.7292442  90.6124973  26.0798430
  77.5982761  93.1052685  54.5988560  78.4803104  92.7826309  54.4140244
  77.0491028  92.3213673  54.5868397  56.1898136 113.7065315   2.4186555
  55.7742929 114.2825413   3.0603639  56.9259024 113.3153439   2.8891603
  83.0942059 127.9700279  63.0286932  82.9850006 127.9451847  62.0780659
  83.2925797 127.0654202  63.2707071 102.5438881  98.1682301  30.9351039
 102.6359558  98.1736565  29.9823570 101.8393326  97.5427055  31.1040878
  84.7476673 118.5817909  80.8462620  85.1028824 117.8352261  81.3286400
  85.5158710 119.1014576  80.6095505 108.8261032 127.1535397  41.3698244
 108.7293720 127.8371525  40.7068396 108.9773941 127.6307964  42.1856499
  60.7241678  85.8709431  68.0622435  60.2254534  86.0423088  68.8610888
  61.5576124  86.3214111  68.1989431  12.1653014 114.6418667  43.6712074
  12.3439437 114.9542999  44.5581722  11.2436038 114.3841934  43.6891317
  93.6125278 110.4810238  49.1414976  93.3235836 111.3352013  48.8203621
  93.2947826 110.4443264  50.0436783 106.3024139 116.6744041  13.1363431
 105.6285191 116.9305611  13.7660066 106.0640907 115.7836151  12.8795759
  69.6837234  69.5013618  84.4726181  70.5646753  69.8719835  84.4196892
  69.7470760  68.6660480  84.0095139  65.5668163  91.3768768  81.0984421
  66.1958838  90.6642342  81.2109280  66.0726643  92.0811081  80.6929588
  90.3488350 105.3139687  82.4891853  90.6370735 105.6842422  81.6548920
  90.0566387 106.0698986  82.9985237  77.5016499  91.3197136  37.7183938
  78.0110025  90.7299900  37.1624947  77.0487976  91.8969059  37.1035695
  77.3864222  80.2540588  77.9814863  78.1947660  79.8496819  77.6663828
  77.2258949  80.9747696  77.3723555  95.5441093 104.3749809  52.4529743
  95.2276993 104.7689342  51.6400099  95.8574104 105.1157188  52.9719925
  59.6945477 131.9809341  51.8789673  59.4448233 131.0735989  52.0538950
  59.2887735 132.4817276  52.5866365 117.7105141  65.4780579  10.6959224
 117.2426128  65.5704165  11.5258443 118.3369064  66.2018347  10.6922841
  69.3709326  99.1819286  80.3266430  69.8248768  99.5671177  79.5771122
  70.0732470  98.8877106  80.9066582  89.9738216 106.7228031  43.9831161
  89.1660023 106.8790245  43.4939766  89.7348690 106.0653305  44.6364641
  28.5164118  94.9578667  37.4068260  29.0510917  94.7621059  36.6373920
  29.0448737  94.6608257  38.1475878 116.9186115 130.0392056  64.3971491
 116.6692257 129.6570873  65.2385902 117.3952770 130.8365250  64.6280384
  67.3045778  62.0629215  82.8358364  66.5025043  62.5788784  82.7539730
  68.0018234  62.6591444  82.5626945  55.5894899 100.4880619  89.3716812
  55.7438660 101.1562347  88.7038898  56.4483833 100.3432083  89.7686100
  75.4635096  97.6637077  74.2401123  75.0755644  96.8099594  74.0481663
  75.8942652  97.5461483  75.0867891  98.4587479 135.2518463  15.0580541
  99.3887138 135.4015446  14.8878042  98.0096436 135.6841755  14.3316690
  71.9126749  70.3495502  99.0837383  72.2911549  70.0391197  98.2611752
  71.1390829  69.8009682  99.2135429  58.5685158  92.2675419  70.5757332
  58.0488682  93.0704308  70.5361271  59.0193272  92.3153591  71.4187717
 119.1344261  70.0896168 102.4639893 119.6789551  69.3653631 102.7725029
 119.1052914  70.6985903 103.2019138  92.8172112  80.0441265  81.6111183
  91.9844437  79.7358894  81.2537479  92.9889107  79.4640112  82.3528862
  64.5315790  86.2111568  72.7910042  65.3679180  86.3094139  72.3359013
  64.7595072  86.2415314  73.7201738 102.6321793 103.0668640  58.4151459
 102.1077156 102.2824097  58.5757875 102.0403194 103.6600685  57.9524994
 109.8311234  85.7947922  66.2021732 109.2815781  86.4125633  65.7199001
 110.4933548  85.5182838  65.5687523  80.0046635  91.4635563  72.1050978
  80.6176472  90.7301998  72.0532894  79.3623018  91.2878227  71.4175510
  57.7430439  94.7082329  58.5027456  56.8437481  94.7168636  58.8305044
  58.2269049  94.1884327  59.1445541 102.1071911  77.9887390  72.5186348
 102.7478981  78.4636736  71.9893265 102.5448704  77.1681881  72.7452898
  69.2372608  74.1845751  71.6905403  69.6786308  73.3985567  72.0124054
  68.4344482  74.2377901  72.2090864  83.4329224  99.6192360  48.6046696
  82.8386116  99.8767471  49.3094444  84.1393471  99.1485786  49.0470409
  75.8198738 100.7290077  70.8037949  75.8050632 101.0756016  69.9116707
  76.6042280 101.1120701  71.1965799  65.3551531  86.8882561  78.9548969
  66.1931896  86.9311810  78.4943676  65.5669260  86.4948082  79.8014069
  81.4732838 105.0085735  71.9960356  80.9339809 105.5907249  72.5312805
  82.3472881 105.0700283  72.3814869  80.3350925 127.0639038  42.8072214
  80.8164215 126.6593742  43.5289574  80.3341866 127.9984951  43.0140066
  65.9577751  80.5420971  62.6863098  65.0269699  80.6468773  62.8834343
  66.3585281  81.3599300  62.9808855 119.4952297 120.3217697  59.8389053
 119.9088001 119.4588184  59.8164845 119.3850422 120.5585575  58.9180279
  66.7192030  69.4120264  93.2145977  66.5003777  69.8997784  92.4205875
  66.6590977  70.0590944  93.9173889 111.3269711  95.0382042  80.3196335
 111.0833168  95.7650852  79.7464848 112.0726871  94.6276379  79.8819351
  69.1838169 104.1371059  58.5748816  69.3396997 104.7558784  57.8614044
  68.5443640 104.5752239  59.1364717  97.2781277  91.8333817  73.8725519
  96.4021111  91.8717957  73.4886742  97.6023293  90.9625626  73.6427975
  95.4030800  76.0724449  89.9011517  94.7170925  75.4204845  89.7576332
  94.9286175  76.8892384  90.0559711   7.5014334  95.6481552  50.3923655
   8.2716399  95.1222610  50.6078911   7.5671130  96.4140511  50.9627438
  81.9346333  92.6455688  23.0475545  82.1520424  91.9166565  22.4664736
  81.7696571  92.2344494  23.8960791  91.4164639 111.0179901  43.1046247
  91.2826347 110.0813389  42.9596853  90.7962036 111.2441254  43.7977123
 110.2785206 120.9074020  58.3076382 110.3721142 119.9570370  58.2422304
 110.4372215 121.1006737  59.2315912  84.5994663  89.8423195  45.3461313
  84.0579319  89.0606976  45.2364731  84.0736008  90.4227829  45.8963633
 104.1969109 136.0757160  14.5625675 103.6658859 135.2892971  14.4369650
 104.7560215 136.1136436  13.7865579  52.1327734  70.5582428  89.0646267
  52.8745079  71.0531521  88.7165928  52.3725700  70.3743172  89.9728680
  69.4893646 112.8810692  67.6282930  69.2706347 112.1033859  67.1148825
  68.6421347 113.2398891  67.8922701  89.6041584 117.8020954  95.6861591
  88.8516903 117.5333691  96.2132359  89.2234707 118.2935047  94.9582672
 119.8002338 114.0950012  57.1253252 118.8948345 114.4046688  57.1496201
 119.8024845 113.3174515  57.6835823  68.9694786 123.3849812  37.2988105
  68.4294319 124.1752815  37.3003817  68.3513355 122.6721668  37.4601555
 101.7734909  83.5177231  17.9644442 102.4977303  84.0361309  17.6137757
 101.9324589  82.6322460  17.6375079  94.0425301  79.3868256  54.0602636
  93.4395790  80.0927353  53.8271046  93.5496426  78.8444138  54.6759558
  63.1162930 101.1984062  30.0451493  63.0830431 102.0763302  29.6651649
  62.9952240 100.6101036  29.2998552  88.8464737  96.8404675  73.8150549
  88.2831383  97.3181725  73.2062149  88.2395840  96.4296246  74.4307899
  84.2518711 135.6746483  42.9253149  84.7086906 136.4718437  43.1936646
  84.5950222 135.4843235  42.0522404 110.7366467  97.4672604  78.8780451
 110.0751495  98.1395435  79.0414095 110.5775166  97.1888256  77.9761696
  85.9750366 138.2114124  32.6867843  85.3189087 137.5781822  32.9778862
  86.7050743 137.6749516  32.3777556  85.9106541  84.1668797  71.7807722
  86.7727947  84.5673370  71.8929148  85.5168056  84.1981506  72.6526356
  85.3587627  95.0937176 107.6128674  84.8478794  95.4096031 108.3581543
  84.7282124  94.6127129 107.0768929 113.9502621 116.8507481  13.3370057
 113.0019379 116.9174004  13.4486429 114.2919064 116.7791367  14.2282907
 102.5901413 114.0752125  73.4418631 102.3948765 113.2738781  73.9276171
 101.8268681 114.2062950  72.8793097  61.6134644  87.8543091  54.8815441
  61.7323875  88.1289291  53.9723253  61.3441706  88.6508083  55.3390408
  87.6217461  96.5818501  91.4698982  87.7059174  96.6173840  92.4227238
  86.9703102  95.8984470  91.3123226  91.5834141  77.8892231  57.6708937
  90.9708023  78.2287550  57.0184660  91.2103367  78.1555510  58.5112000
  83.4409142 101.0601044  64.0784502  83.1246758 101.0361099  64.9815893
  83.2219791 100.1979065  63.7250328  89.8426342 120.8850765  72.6752377
  89.5784760 120.6854439  73.5733461  89.2595196 121.5948868  72.4062300
 111.6950321 114.5726871  60.2794361 110.9006500 115.0558186  60.0519085
 112.3477554 115.2517319  60.4500008  71.8793058 111.1408329  50.3839922
  72.4940205 110.8621979  51.0627508  72.2511864 111.9544315  50.0434256
  78.5776472 101.9672585  95.2515125  79.0663290 101.6903496  94.4764328
  78.0924082 102.7409840  94.9649429 117.4074936  94.2505264  79.7812843
 116.8355751  94.0792179  79.0330982 117.4630260  93.4108734  80.2375031
  86.5396690 101.0862541  43.3624315  86.4266777 101.1858654  44.3077040
  86.8955612 101.9266701  43.0738735  95.1275921 120.6867886  64.9495029
  94.7431564 119.9040890  64.5547676  94.3755436 121.2287998  65.1879883
 105.9517002 112.6112652 106.1750603 106.8857574 112.4657917 106.0246944
 105.7878876 113.4898090 105.8321953  61.9503164 113.5432148  90.1840782
  61.3542652 113.4895325  90.9311199  61.8123627 112.7241898  89.7082615
  46.2344265 129.3516731  93.8877392  46.1891556 129.6859550  92.9919529
  46.4653635 130.1151371  94.4169140  75.9095812 101.0273933  88.5548973
  75.3261995 100.2730656  88.4719181  75.5265570 101.5500450  89.2594242
  78.6382627 141.3943291  85.5167675  78.2817221 141.7450237  84.7006035
  79.5743704 141.5892220  85.4724789  91.6862106 137.5460815  54.3872881
  91.3059807 137.5139904  55.2651405  92.2576237 136.7792797  54.3455935
  61.2615919 110.2244759  51.7521095  61.0966253 109.4890404  52.3421431
  61.5859270 109.8185158  50.9482193  69.4755840  78.4228516  93.7340450
  69.0046740  78.7554646  94.4981480  69.4647741  77.4717474  93.8413620
  -0.2149267 106.7381191  63.4724951   0.4804831 106.2635803  63.9279556
   0.1968318 107.0518589  62.6673508  63.0175114  84.0559959  68.9371014
  62.2643137  83.5347176  68.6592579  62.9427481  84.0956211  69.8905563
  54.2580748 117.8822041  48.8962030  53.9518118 117.5210667  49.7280788
  55.2035952 117.9780769  49.0103340 103.5413647 112.7693462  67.7442551
 103.3568764 112.8898144  66.8127584 104.0032387 111.9322395  67.7906418
  92.9386711 114.6646309  98.9988232  92.6514626 114.4373226  99.8831749
  93.1660080 115.5929279  99.0520287  87.4841785  87.6195717  74.4803047
  87.1086788  86.8673897  74.9379683  86.9327736  88.3576393  74.7399998
  89.2498970  96.5176296  60.4824972  89.4928265  95.7859421  61.0498190
  88.7733173  96.1114120  59.7585583  56.8497896 145.7405949  79.2681408
  56.5031147 145.8213711  78.3795881  57.8003025 145.7620907  79.1572571
  84.5713234 125.8821774  68.2963514  83.6380196 125.7113934  68.1698179
  84.8099041 125.3555393  69.0592194  79.7082138  97.3830795  91.7932320
  79.8159266  96.4352608  91.8723965  79.9178362  97.5724030  90.8786583
  54.8975325 129.6161652  91.0118961  54.0615463 129.9168110  91.3682365
  54.6935701 129.3485641  90.1157856  90.3813362  87.6153374  72.5155497
  90.5142879  88.1229210  73.3161211  91.0658264  87.9221821  71.9209528
  98.9503288  98.9685535  75.6194878  98.9256859  99.2157936  76.5438795
  99.2929268  98.0747700  75.6196642 110.5563450  51.9715786  62.0395851
 110.3985596  51.0696316  61.7606163 111.4672470  52.1408081  61.7990589
  80.6177902  78.2928181  86.8704796  80.8315849  78.6755037  87.7214050
  81.4645672  78.0429411  86.5006733 100.4281044 108.9511204  73.1921768
 100.5435848 108.0176258  73.3696365  99.6636009 109.2008114  73.7112284
  94.8098660 112.4439526  64.0371609  94.1680813 113.0124950  64.4627190
  94.7552776 112.6734543  63.1094885  86.7823792 110.8628464  88.4451103
  87.3886681 110.2910709  87.9742432  86.5716362 111.5557480  87.8192425
  83.5281658 128.7435627  48.2474804  84.0943050 128.0330086  47.9461050
  84.1298294 129.4605064  48.4480810  86.5027237  98.6020279  99.8082924
  87.3766613  98.7697792 100.1609039  85.9065819  98.8761234 100.5052185
  92.4541664 117.1468544  73.2636118  92.4382591 118.1037998  73.2792139
  92.8020573 116.9271564  72.3993587  94.3936062 103.5691929  65.4807806
  93.9885807 102.8225136  65.9219837  93.6891651 103.9473534  64.9544764
  43.8961554 126.2748146  70.2909851  44.7409773 126.0623455  69.8942995
  44.0915155 126.9812584  70.9066153 100.4378223 113.4896660  92.6601982
 101.3933659 113.5376549  92.6898003 100.1590061 113.7168980  93.5472488
  49.8929262  79.0907001  67.1912241  50.1212931  78.1801271  67.3781490
  50.7357502  79.5363474  67.1059513 109.9821472  92.3156738  26.6853237
 109.1334915  92.0090675  27.0047259 109.7741318  93.0813408  26.1498594
  81.2256145 102.1276760  13.1508255  82.0846939 102.2284126  12.7408624
  81.1049843 102.9323387  13.6550057  74.9591446 119.7171211  90.6316280
  74.0384912 119.5745182  90.4118633  74.9517107 120.4781914  91.2121105
  93.4863472  77.0443630  55.8270311  94.2659283  76.6500092  56.2181330
  93.0132198  77.4244928  56.5672207  90.8122349  92.2223949  82.4150467
  91.7002487  91.8685341  82.4643517  90.9210396  93.1629276  82.5557613
  89.8149490 104.1193771  71.7641544  90.0018978 103.5065174  72.4752665
  90.1448631 104.9605846  72.0800114   5.5731516  86.4823627  59.8963642
   4.6904975  86.5973377  60.2484179   5.4479914  86.4286423  58.9489079
  62.3208952  97.9802608  83.0126858  61.9132137  97.6223564  82.2240543
  62.6698637  97.2152901  83.4701633  67.1729231 105.1930809  84.1862392
  66.2933731 104.8655987  84.3743324  67.5046825 104.6099663  83.5034847
  72.8100967  86.6375065  25.2429175  72.2294283  87.2344971  24.7710490
  73.6391354  87.1114922  25.3082442  36.7046642 103.5046101 108.1034279
  35.8774471 103.4980011 108.5849857  36.4751697 103.8425255 107.2377586
  97.1815777  83.8069820  59.1313887  96.5298176  83.1478786  58.8925886
  97.6702881  83.4102726  59.8525095  81.2189293  83.2233715  69.8246241
  81.8035603  82.4719143  69.7259140  81.4030361  83.7718678  69.0620661
  79.3991804  80.1001167  57.3653507  79.5424938  79.9284458  56.4346409
  78.4633255  80.2895451  57.4326277  95.0427246 107.4770260  78.6666155
  95.3002071 108.3973789  78.6128998  95.0377941 107.1762657  77.7579069
  88.2234001  72.4081182  64.6874332  87.6751900  73.1528473  64.4403028
  87.6507378  71.6470718  64.5920849  84.4311237  93.7882710  62.3666239
  84.3536949  94.2743111  63.1875944  84.4604588  92.8696442  62.6339912
  49.5612907 107.5464821  44.1554070  49.0056086 106.9006729  44.5917320
  49.1051006 107.7408314  43.3366585  53.4842491  85.4109383  70.5784941
  53.2439899  84.5514107  70.9244919  53.1827497  86.0297108  71.2436628
  99.4296932  95.4635429  69.9372959  98.9507294  95.7019329  69.1435671
  98.9158916  94.7540474  70.3230953  95.4733467  69.8917818  71.9569731
  94.7427559  69.5044661  72.4391127  95.7057953  69.2319632  71.3036442
  72.6959324 101.5628624  81.1255169  72.6533318 101.9893265  80.2696323
  73.6223984 101.3526249  81.2425137  63.0158138 106.6233444  64.8794174
  63.0124903 105.7555008  64.4755936  63.4055948 106.4843941  65.7425451
  51.2294769 129.5915127  79.2990685  51.9059229 129.4588661  79.9631929
  51.6004705 130.2453804  78.7065792  58.9139462  91.0662270 101.1905003
  59.4219971  91.3145924 101.9627953  58.0610943  91.4806366 101.3214207
  92.0108795  86.9575119  75.8717108  92.5401878  87.2572231  76.6107845
  91.6171837  87.7558422  75.5197239  86.1006641  63.0936527  63.2526731
  86.0702229  63.9669180  62.8618908  86.6551018  62.5854826  62.6605701
  87.0966530 133.7596893  86.0532284  87.3228359 134.5259857  85.5261040
  86.6688633 134.1208553  86.8296242  43.7346792 112.3131943  50.5069351
  43.1287289 111.7187119  50.9492493  44.1275692 111.7826748  49.8138142
  78.2982874 103.9650154  60.5527496  78.1712723 103.2542610  59.9243164
  77.8048754 104.6991634  60.1869678  69.1139078 111.8604374  63.3690357
  69.3026161 111.5455914  64.2530537  68.6212349 112.6700687  63.5032177
 105.7066345 101.1538792  78.5650015 105.1797962 101.1842823  79.3635941
 105.9872627 100.2412128  78.4977961  84.4586086 121.7174721  67.8153801
  84.0481663 122.4202633  68.3192253  83.8489914 120.9830952  67.8880882
  76.0388279  86.4525318  84.3768978  76.5275240  85.7912731  84.8669434
  75.2098274  86.5357876  84.8481274  75.6658506 109.8099327  60.1336002
  75.2546644 109.1953659  60.7414341  76.5825415 109.5364666  60.1000500
  82.5147247  78.2320786  96.7422581  82.9415131  78.4910393  97.5589848
  82.7677250  78.9091015  96.1146736  90.9585571 107.8987408  55.4763699
  91.2889004 108.1357002  56.3429451  90.3834248 108.6240578  55.2327204
  41.2211561 125.4947281  58.7954998  41.8319416 125.2187920  58.1121016
  41.6217089 126.2779903  59.1727114  82.9718685  80.5807400  53.1150818
  82.3884964  79.8507643  52.9076338  83.5176563  80.6803036  52.3350573
  98.6804581 115.7532978  98.4204578  97.7277088 115.6739902  98.3735371
  98.8324547 116.6595650  98.6884403 120.4518414 125.8827305  46.3908148
 120.3455734 126.5944862  47.0219612 120.2000713 125.0952530  46.8732262
  98.9615440 115.4737568  57.4873924  98.4805870 116.2082195  57.8688097
  99.6050453 115.2362823  58.1550360  70.3581858 116.2361908  63.3708668
  69.9135637 116.9164944  63.8765574  71.0167646 115.8843899  63.9698219
  79.0626240  86.2754917  63.1397152  79.7113705  85.6044579  62.9274035
  79.0878439  86.8769741  62.3955297  79.4989538 113.5331154  65.9394360
  80.3664970 113.9373875  65.9263706  79.4849253 112.9710770  65.1647425
  98.7152576 139.6973991  39.5059562  98.4676456 138.9762402  38.9272928
  98.3486748 140.4765797  39.0879512  91.9323349 113.8337421  43.0010033
  91.7732811 112.8903961  43.0331898  92.5794983 113.9438915  42.3043776
  95.4390430  91.6081810  52.8081083  95.7301044  90.9096527  52.2219706
  94.5445919  91.8000793  52.5263786  69.5769978 116.2153816  67.1593523
  69.5813131 116.9989967  66.6096640  70.4333591 115.8142090  67.0112514
 114.2483616  94.3700695  83.6586380 115.0245476  94.1328907  84.1660976
 113.5373688  93.8715172  84.0613365 115.9497738  92.7991772  24.7405386
 116.1482525  93.4001732  25.4586148 115.8417225  93.3659363  23.9767742
  97.5061893 107.0183468  50.4372597  98.1032181 106.4039898  50.0102425
  97.4164772 106.6840458  51.3296890  64.8840094  83.5794067  41.0414600
  65.7158804  83.1203079  40.9254551  65.0641489  84.2349148  41.7153263
  95.3035069  92.6381683  55.7441807  95.3376198  92.6878357  54.7888756
  95.4978180  91.7223358  55.9434891  95.6282043  74.6746349  37.0162749
  96.0059834  75.1456165  36.2735128  95.8273602  73.7545872  36.8428349
  77.2058296  80.5598927  21.7993188  76.5747833  80.8872223  21.1583304
  77.9090500  81.2092781  21.7962980  92.8562641 117.9884720  29.8940921
  93.7838078 117.7640820  29.8196268  92.4577141 117.6251698  29.1032696
  50.9192467 126.8796158 108.2114213  50.2802038 127.2206497 107.5856785
  51.7315674 126.8094635 107.7099820  99.7421837 108.1541729  42.9972219
 100.6363010 108.0456734  43.3212996  99.3733788 108.8506413  43.5404968
  71.0868120 111.5564346  61.1033010  71.9141102 111.2150860  61.4428377
  70.6145668 111.8561840  61.8800735  71.8292952 117.6577759  61.0211849
  70.9170341 117.4572945  60.8118391  72.2718191 116.8092632  61.0005188
  32.3508835 122.0368481  52.9203749  33.0280018 121.5689754  53.4090853
  31.6497755 122.1769619  53.5568047  67.9610109  96.2330532  45.4050493
  68.4419632  96.8635464  45.9411383  68.1892252  96.4615059  44.5039606
  93.2363701 121.0293579  56.0222197  92.7962399 121.8204880  55.7113743
  93.4773827 120.5598736  55.2236366  85.2703571  96.4515972  67.7979517
  85.2563095  97.2273254  67.2373390  86.1625957  96.1143494  67.7178812
  97.1101856 106.2217712  67.6558065  96.4215565 106.3769245  67.0093107
  97.1589375 107.0374966  68.1542587  89.0031052  76.0287237  66.3738012
  88.6650944  75.9105873  65.4860973  89.0633869  76.9777870  66.4828110
 115.2871227 123.6231804  52.4868679 114.5785809 124.0645027  52.9553032
 115.6761646 123.0382061  53.1370163  97.2241879 122.8153229  26.8651938
  96.8761539 123.3663177  27.5662708  98.0363560 123.2478237  26.6014481
 102.8728580  71.4775181  46.1040258 102.6024151  71.7962933  46.9651127
 103.6432648  72.0019245  45.8856058 107.2467995 107.2613239  48.2779074
 106.9555092 107.2181511  49.1886854 108.1887245 107.4217987  48.3350468
 103.8819504  57.3675537  47.5951576 103.1696987  56.7672062  47.3749065
 104.6763134  56.9047976  47.3285723  92.3477840 100.9998608  69.2178488
  92.7997303 101.8187523  69.0144110  92.1858215 101.0433960  70.1602411
  75.4067373  91.3066196   8.1961393  75.9000826  92.1262836   8.1647515
  74.7238731  91.4628983   8.8484412  96.9011974  74.2458296  28.6351418
  97.4559402  74.9308109  28.2619262  96.2710190  74.7180080  29.1793466
   5.3266173  92.9080772  69.5076513   4.6826296  92.7249146  70.1917315
   6.0178023  92.2613811  69.6500301  82.2543144 109.8708820  65.7903433
  82.8474236 110.5820084  65.5479431  81.5535736 109.9110985  65.1395130
  96.2882614 120.3081036  41.8378401  96.7158318 119.5533180  41.4332342
  95.6760216 119.9274731  42.4675369  95.7128334  86.9032288  45.4059076
  96.5797901  87.2922516  45.5211210  95.7794762  86.0427761  45.8199310
  99.2338181 108.9521217  26.0278487  99.6761227 109.7999573  25.9855866
  98.3038330 109.1699886  26.0902143 116.5104103  96.4453125  29.0320039
 116.0451698  95.7023907  29.4165134 115.9786415  96.6959476  28.2766056
  96.7123413  67.1955204  85.2885818  96.7832088  67.6042938  84.4259644
  96.3903809  66.3121033  85.1092815  82.0251465 118.3062077  27.9504228
  81.5923691 117.4530888  27.9840183  81.4506245 118.8449669  27.4064660
  90.6688881 126.2146091  15.8954680  90.4467869 125.7168961  15.1085854
  89.9815750 125.9902191  16.5227497  91.2047958 125.6788921  48.0108595
  90.5119610 125.2320671  48.4972239  91.7902088 126.0201550  48.6869287
   9.8967295 103.9047432 106.1526256   9.9117213 103.7901211 105.2024313
  10.7672816 103.6302376 106.4407524  91.9958687  93.5579777  47.0104694
  91.4934921  94.2225933  46.5391541  92.4571896  93.0753231  46.3245726
  37.2449946  92.9949379  84.3942603  37.3418117  93.6789894  83.7317403
  37.0113397  93.4669685  85.1935276  50.0076437 123.6033726  42.5156784
  49.7652054 123.5470676  41.5914011  50.4599285 124.4433403  42.5939178
 105.8630085 122.2403812  35.4556656 105.3553581 122.4697685  36.2340617
 105.2048969 122.0769978  34.7800732 110.5870247 115.7265282  39.2193294
 110.3455639 116.6430759  39.0856099 111.1151123 115.7319832  40.0176525
  83.4431171 129.7200298  31.8833041  84.3242645 129.6599483  31.5142512
  83.2117367 130.6452274  31.8014598  90.7925797 111.2671089  20.3027034
  91.1100769 111.7800331  19.5595086  90.3643799 110.5089855  19.9050331
  85.9690857  83.6399555  29.1162205  86.2786293  83.2407284  29.9292612
  85.3795147  82.9874039  28.7382889  80.1183510  66.8002129  15.9071136
  80.0331402  66.8241310  16.8602133  79.2447090  66.5653229  15.5943632
  85.8942699 108.4393597  24.5016527  85.9014797 109.3716431  24.2848134
  85.9101200 108.4158611  25.4584336  84.5586586 101.9874287  92.8061410
  84.3812370 102.5027370  92.0192453  85.3193378 102.4112988  93.2035550
  89.3369484  79.9658871  96.0861214  89.9700737  80.2486324  95.4262432
  89.8250389  79.3577814  96.6412922  82.0284653  99.0091228 108.0416531
  81.8079472  98.0780315 108.0673627  81.5847397  99.3388748 107.2602382
  46.1006546  72.3867512  35.7305336  46.8061018  72.3827505  36.3774943
  45.6746197  71.5360355  35.8354545  87.7029991 122.2076130  36.3474655
  87.8151798 121.2576389  36.3819766  86.8758965 122.3343849  35.8826351
  36.6143131  91.6566372  11.9169986  36.8565440  92.5092697  12.2783530
  35.9406948  91.8548298  11.2664676  99.1033649 142.9783821  26.3132286
  99.4072628 143.0894661  27.2140813  98.3631897 142.3754406  26.3827753
  55.2778721  85.7065487 104.4047048  54.8471069  86.3741970 104.9384793
  55.9829235  86.1751747 103.9580240 104.3234253 125.5400467  54.8739433
 105.2400875 125.3024960  55.0137138 103.8899994 124.7117233  54.6684074
  77.0814466 114.2500305  15.1894629  76.6184616 114.6829987  14.4722331
  76.3907766 113.9958191  15.8014941  83.3992386  87.5812435  32.1147132
  84.2360592  88.0109215  32.2917318  83.4854698  86.7154026  32.5136018
  92.8316307 126.9083309 106.4662840  93.1619358 126.0982895 106.8548226
  92.1115112 127.1723938 107.0389386  54.4937134 115.3033924  53.3555269
  55.3199768 114.8268986  53.2750511  54.6542072 115.9461498  54.0464258
  97.1976566 111.6447353  22.5552273  96.2876797 111.4770699  22.8002930
  97.2174549 112.5747299  22.3295093 116.7825413  94.5662117  48.3441448
 116.0782719  94.7430134  47.7204657 116.4176369  94.8133373  49.1938543
  93.3310127  80.7047653  36.6709709  92.8903675  81.2402630  36.0111952
  94.2424011  80.9963226  36.6464019  88.4323883 115.4723263  34.6444368
  89.3369675 115.7458401  34.4922853  87.9621410 116.2872505  34.8204851
 105.8098888 113.7058544  33.2529092 106.2120533 113.0868244  33.8622570
 106.2030792 113.4974384  32.4054432  95.0217342  95.9079838  37.4962378
  95.4407215  95.1454639  37.8953004  95.4600430  96.6589451  37.8964591
  94.9840164 126.5028954  43.9104271  95.4398251 126.8087673  43.1262589
  95.5112457 125.7673931  44.2223549  89.7469234 120.9647846  20.2924275
  89.2396355 120.3489208  19.7636569  90.2678204 120.4097176  20.8727598
  66.5419006  76.9066238  10.7363164  67.1598816  76.8518114  11.4652383
  65.7770443  77.3497486  11.1035609  78.8555431 113.2684898  89.9947246
  77.9727745 112.9325676  89.8394366  78.7334538 114.2076778  90.1334795
  55.1341105 121.2635231  51.7362356  54.9769354 121.4503002  52.6617861
  54.2627239 121.2656498  51.3401222  99.0751743  17.2953015  66.4113998
  99.9046326  16.9159680  66.7018270  98.8314629  17.9020291  67.1104765
  64.9017191 100.0993061  19.3054438  65.8454704 100.0154686  19.1692972
  64.8137665 100.8070755  19.9438488  95.6310272 114.4818211  30.9987378
  96.1321259 113.6680222  30.9452558  95.7053661 114.7491074  31.9148517
  99.0884686 117.3090458  42.5676537  99.9165726 117.5997353  42.9497290
  98.9057541 116.4741993  42.9987907  81.2572861  51.5213251  39.3655658
  80.3999233  51.8136549  39.6749139  81.7842388  52.3196554  39.3305087
  50.5062056 104.7528744  70.5790329  51.4291525 104.9969959  70.6483364
  50.1813459 104.7865200  71.4787912 119.6222496 122.7287483  30.9565210
 120.1392174 122.5129509  30.1803708 120.0915241 122.3132801  31.6799855
  88.7967968 111.5722370  50.4437733  89.4445992 110.9177494  50.7049561
  89.2531586 112.4090958  50.5311489 104.5689392 112.0988464  45.0244570
 104.2190742 112.2617435  44.1485071 104.4739914 112.9354954  45.4796886
  88.8326454  83.0966091  30.9902525  87.9587650  82.7276897  30.8619666
  89.1170692  83.3497143  30.1120305   6.1307650 135.5938053  65.5623484
   5.5181437 134.9908543  65.1411772   6.9947177 135.2259254  65.3766727
 108.9908409 104.4509602  27.0380211 108.3245659 104.2518139  26.3802624
 109.3755341 103.6015034  27.2540760  85.9209347 103.1273365   9.2296690
  86.0319424 102.4736977   8.5392541  86.3954830 103.8951588   8.9111072
  70.5529833  80.8883953 108.8454311  70.8149529  81.7201519 109.2401146
  71.3524294  80.3619766 108.8432916  59.3749857  78.4252882  50.7132196
  58.6180925  77.8965807  50.9658432  59.3032551  78.5072041  49.7622347
  94.1658306 107.6991940  39.7498560  93.8082695 106.8742847  39.4213820
  95.0806618 107.6926899  39.4683051  60.7740116 107.9246902  17.7300990
  60.0854731 107.9052353  17.0654392  60.9137869 108.8557148  17.9029763
  99.4449806  82.9000950  95.7579406  99.5071983  83.2186508  96.6584274
 100.0639629  82.1710300  95.7184943  58.9413977 107.5816822 102.4519535
  59.2166948 107.0301247 103.1842288  57.9916143 107.6513100 102.5483873
  67.3435354 123.1590939   6.1714280  67.2764778 122.6846790   7.0000839
  67.5485849 122.4838161   5.5247557  65.6022596  76.7246151  24.6066093
  65.9513998  76.0084677  24.0760756  64.6947336  76.4741802  24.7795558
 107.3833275  96.4105701  27.0833707 107.0028210  95.6239986  27.4742103
 106.6290092  96.9555283  26.8591690  91.1951542 102.0737457   0.7758243
  90.9232044 102.4817753   1.5978846  91.8483448 101.4240170   1.0355172
 101.4641476 114.7774696  26.4831018 101.6097164 114.1644669  27.2037053
 102.3344135 114.9209785  26.1112380  75.4943085 113.4534836   4.4212171
  74.7894335 113.2861519   3.7956113  75.8159494 114.3254185   4.1920671
  91.7506790  62.0405531  24.9994612  91.5905857  62.9403400  25.2840376
  92.6807117  62.0226240  24.7737384  66.5638113  99.6742630  28.7941146
  67.5057220  99.7115135  28.6278415  66.1632442  99.8335266  27.9394722
  50.2135515 131.9465637  10.6866169  50.6619453 132.7584648  10.4499853
  49.6869755 131.7306900   9.9169755  97.3499107 107.2349262  30.0970554
  96.6728210 106.5698624  29.9726653  97.0996952 107.9449558  29.5058799
  63.1486845  74.7711039  39.5188880  62.7328777  75.5980396  39.2749333
  63.1076002  74.7552872  40.4750729  77.0705986 114.9988079  37.2396970
  76.2842655 115.2748966  36.7688680  77.7490377 114.9519444  36.5660810
  71.2530136 106.3945198   7.2850406  71.9446707 106.6170788   6.6618943
  71.4936638 106.8597507   8.0862147  73.8939285  75.8891106  29.1829562
  74.3285275  75.0362778  29.1776276  73.0146408  75.7119465  28.8487482
  72.4640083 104.7416401  11.8731856  71.7627525 104.9914455  12.4749053
  72.9652596 105.5465126  11.7421949  82.8241062 132.3366928  30.7825828
  82.7372074 131.7308521  30.0466299  83.5111618 132.9456329  30.5116844
   0.3811293 127.9115963  26.8808818   0.0177889 127.1024418  27.2407174
  -0.2774019 128.2121181  26.2545824  57.2745419 110.3669834  16.8622172
  57.5780535 109.4827271  16.6567922  57.2660303 110.4011154  17.8187716
 109.8681259 144.0602112  83.5888577 109.0558338 143.6584759  83.2805824
 110.5616474 143.5389805  83.1844044 110.0485992 137.5946045 100.4053309
 110.3910255 137.5507164  99.5125529 109.4406414 138.3338261 100.3926035
  97.0831871  70.0754642   3.4940112  96.3282967  69.5054865   3.3473745
  97.3185253  69.9302483   4.4103950  68.2733250  66.0129881  97.5582501
  67.7504158  66.3530779  98.2842942  68.9889717  66.6415596  97.4634775
  27.8811431  92.4570751  12.0212924  28.0746579  92.7081203  11.1180985
  28.4095407  93.0517578  12.5536311  34.2361021  79.4097948  18.6050236
  34.7762132  80.1763821  18.7969971  33.3361697  79.7316980  18.6572981
 112.3646832  73.7926292 106.0008373 112.1090603  74.3057203 106.7674040
 111.5366745  73.4883022 105.6293424  92.3315907 128.4009361  11.0045934
  92.4697781 127.4567318  10.9297442  93.0932999 128.7166882  11.4907479
  91.7337418 117.9278278  26.3345766  92.0342541 117.1342850  26.7775416
  92.5126457 118.2643986  25.8915591  92.0871067 101.1874866  22.1836376
  91.4677143 101.9145775  22.1209884  92.9486275 101.6022873  22.1395040
  48.1918716  93.6063671  27.0179415  47.4022388  94.0219498  27.3643661
  48.4490633  92.9796600  27.6941967  84.6638107  93.0551624  94.3995126
  85.0770187  92.3158646  93.9535018  85.1128006  93.1071854  95.2432748
  84.5283413 111.2098408  10.2636635  83.6294079 111.5312195  10.1938796
  84.4635773 110.2739811  10.0733984  60.4269981 101.6612148  42.5218916
  61.1935663 101.3476849  42.0419931  60.7891226 102.0968914  43.2934380
  92.9090786  92.7194881  41.8951941  92.4619961  93.3020782  41.2812424
  92.4780750  92.8798866  42.7346802  82.3326302 112.7316952  31.5557981
  81.4404392 112.9016304  31.8580198  82.6357460 112.0053005  32.1004987
  83.8654041  79.0850258  24.8102713  83.2456684  79.6800518  25.2322865
  83.3190155  78.5125875  24.2717528  86.9112015 117.9889393  20.6707501
  86.1165524 118.3789730  20.3065729  87.2887897 118.6793232  21.2157655
  44.8725891  87.6447964   9.2528278  44.6867228  86.8623352   9.7719055
  45.6767082  87.9987907   9.6327102  81.8803787  62.7386189  28.9592433
  82.7272606  62.6413155  29.3946147  81.5181065  61.8528414  28.9393902
 111.6261005 101.2667561  11.2251949 111.2301159 102.0672989  11.5695345
 111.0908699 101.0431480  10.4637706  51.0080671  85.6255531  18.2353115
  50.7241249  85.2245331  17.4138582  50.3002071  85.4366207  18.8513196
  78.7576723 122.0866776  47.0343924  79.4508123 121.4269829  47.0098782
  79.1592693 122.8701210  46.6586781  97.5503445  83.4824276   3.2922700
  97.5445271  83.0180836   2.4552645  97.3731518  82.8039551   3.9438099
  54.9617767  65.3460407  18.3280921  54.6304178  65.1724958  17.4470055
  54.2259312  65.1419163  18.9052379  85.5821133 105.8234310  47.7503014
  86.4059639 105.9615326  48.2176542  85.0559807 106.5953159  47.9591179
  83.1672859  67.6754284  13.4607625  82.3052406  68.0753517  13.3459842
  83.3793545  67.8237677  14.3823123  88.2155991  60.9399033  16.0342574
  88.4317398  61.8377256  16.2861180  87.3505688  61.0062456  15.6298447
 108.0919456 146.5855217  68.1965923 108.9204407 146.2641811  68.5523605
 107.8070164 145.8979511  67.5946856  57.8552818  59.6411562   8.1293100
  56.9924736  59.2306232   8.1864107  57.6803589  60.5206680   7.7945077
  96.4761543 118.1524277  31.5213060  95.9979916 117.9517269  30.7167530
  96.5849209 119.1032791  31.5044165  55.5358744 115.5546284  46.8543243
  56.0373831 115.0734043  46.1961937  55.0463009 116.2066269  46.3528681
  85.4158306  62.7262878 103.3750191  86.3582134  62.7099562 103.2080223
  85.1073265  63.5154772 102.9297861  99.5262337  80.2398396  11.0913169
  99.5965290  79.9645567  12.0053792  98.7417221  79.7972012  10.7675302
  92.7721214 125.0945854  23.4479046  93.0651188 124.1954899  23.2995510
  91.9980240 125.1889038  22.8928161  87.3882866 111.7343521  46.9690514
  87.3731613 111.3132095  47.8284931  87.5382996 112.6604939  47.1587706
 107.3838902 111.8465233  16.8451416 107.4233913 112.2059155  15.9588563
 108.1512833 111.2777805  16.9073927  60.9532499  95.4534626  32.7549529
  61.0176992  96.4027882  32.8591228  60.8551979  95.3221035  31.8118930
  66.0785532 113.2149029  41.7730522  65.9965372 114.1172123  42.0818424
  65.1768780 112.9290199  41.6264772  53.0740881  91.5415668  88.7751826
  53.0685186  91.8598652  87.8724703  52.7276897  92.2713757  89.2886194
  34.7599101  89.8604202   5.4457563  35.3449416  89.5405197   6.1325103
  34.0460253  89.2231655   5.4232204 107.1615219  75.3783894   9.0677339
 106.6705990  75.7779408   9.7857720 106.7407417  74.5292139   8.9332771
  96.3831902 115.4776001  28.5198736  96.0429859 114.9534893  29.2449903
  97.0846272 114.9436760  28.1468678  71.2255144  96.4748192  28.7369704
  70.3369522  96.2152481  28.9805102  71.3966084  97.2601223  29.2568278
  88.5146904 134.9570656  97.4724575  88.3011436 135.6585121  98.0877706
  89.1324806 135.3558636  96.8596538  46.0577345 107.3728466  48.3697081
  46.0762215 107.6329517  47.4487114  46.8794107 106.8998814  48.5015535
  59.1944695  78.3109426  38.1335092  59.0028381  79.2476606  38.0880308
  59.4732141  78.1671286  39.0378618  77.7339697 118.6021996  29.2937970
  77.4111271 117.7408504  29.0290737  78.5632133 118.7013054  28.8260698
  53.6792231  86.8459034  42.3082829  53.4031534  86.8871593  43.2238770
  54.4498634  86.2782001  42.3158312 115.3651237  98.1574821  64.6600771
 116.1847687  97.7831459  64.3371439 115.2721119  98.9803886  64.1800690
  92.3619461  93.6809731   7.2467291  91.7501640  93.8157845   6.5230018
  92.4223423  94.5364761   7.6718140  95.7594967 104.7879219  13.4474611
  96.0478115 105.4598904  14.0651703  96.5535927 104.2942429  13.2427180
  79.5232964 127.5867367  29.2022943  80.0382137 126.9483948  28.7087321
  79.3567610 128.2936478  28.5787773  59.3881369  97.5630665  30.3437662
  59.4882679  97.5357437  29.3922091  58.5257196  97.1803188  30.5049372
  37.1935868  91.7418861  47.2674799  37.4366760  91.9188595  46.3587332
  36.9294190  90.8218670  47.2699404  75.7986021  86.5253735  33.6609674
  76.1476088  86.5391159  32.7697682  75.5882120  85.6055069  33.8216448
 114.1853142  90.9368706  88.3226975 113.2294178  90.8950615  88.3502229
 114.3931866  91.0577679  87.3961958  72.8373051 113.1696987  24.6031427
  72.6412439 112.2587490  24.3841362  72.6470613 113.6552811  23.8004923
  93.1068707 112.7810287   6.5553182  93.8684940 112.3039341   6.8848056
  92.7874470 113.2737160   7.3112655 102.4816227 124.2272186  47.5832176
 102.7206993 123.5963058  46.9042253 101.5278244 124.1690922  47.6390409
  33.1831288 101.3099766  48.6560202  33.5298586 100.4720211  48.3496666
  33.9436221 101.7668724  49.0153551  69.5676136  72.8576183  35.3440499
  70.2132511  72.5467157  34.7094440  68.7630177  72.9612064  34.8359823
  64.0027714 110.9123039  21.6495419  63.0562735 111.0016823  21.7608094
  64.3673277 111.1446571  22.5035572  56.7438126 103.7977028  28.5252547
  56.1163330 103.4951115  27.8687978  57.4793673 103.1896114  28.4517050
  57.0241690  57.8879642  12.8845000  57.5708580  58.4136677  12.3005497
  56.7683029  57.1315813  12.3566282 113.3200550  97.7307224  17.1504283
 113.2827950  98.6605167  16.9261086 113.6027622  97.3007584  16.3433099
  73.5908222  96.6029358  27.5282979  72.6630020  96.4728737  27.7244282
  74.0215588  95.8240891  27.8805590 119.3748283  90.7885647 108.1916010
 119.0834618  91.0257721 107.3112243 118.6801529  91.1073399 108.7678205
  10.3031188  71.9993496  18.6049533  10.0356513  71.1253119  18.3207774
  10.8338290  71.8451452  19.3864918  62.9390717 113.4009361   8.8859898
  63.4178352 113.4424400   9.7138155  63.1286383 112.5275612   8.5432011
 112.5874615 137.4847984  37.7160168 112.0553017 136.9189739  37.1566486
 113.4510899 137.0720673  37.7217531  54.7682333 126.1758995  12.4140680
  54.5281744 126.2573051  13.3370948  54.0795517 125.6299591  12.0347250
  40.8208466  78.1155157  26.4546967  41.0922050  78.5000229  27.2882152
  41.6321468  78.0333519  25.9534240  61.4598370 113.0376816  39.4956422
  61.6526890 113.5342789  40.2908945  60.6983232 112.5049019  39.7247267
  88.1113338  97.0598030   1.0386963  88.8252163  96.9990921   1.6734540
  87.9615498  96.1565399   0.7595892  80.7701015   0.3098278  26.8852925
  80.7496929   1.1927204  27.2545028  79.9670458  -0.1018638  27.2044301
  46.3005447 112.0211220   7.7176142  46.8569183 112.4814796   8.3459061
  46.5184307 111.0967350   7.8370845  69.9666357 104.7899342 106.2116855
  70.0064754 104.9242020 107.1585851  70.5919361 105.4201889 105.8538946
 110.0922394 126.7265511 105.0708612 109.4070816 126.4984703 105.6991681
 109.7849560 126.3648701 104.2395976  44.6954298 118.1673145  57.9926300
  44.0166235 117.5138760  57.8238773  45.3967285 117.6784420  58.4232235
 104.6121025 117.1327782  15.4317439 103.7415409 117.5062847  15.5690706
 105.1233006 117.4343681  16.1827075  84.7138977  92.7781200 102.9729685
  85.5245399  93.2839966 103.0293306  84.7972584  92.2820854 102.1585795
  92.2029972  70.0483704  53.8781404  92.3326397  69.1737509  54.2448378
  92.6049137  70.6376839  54.5164299 112.6626015  83.1908703  23.3138180
 111.9359589  82.8955936  23.8624907 113.1100559  83.8506413  23.8436413
  70.8389187  94.6198750  39.9827862  70.8272648  95.4612350  39.5264816
  70.0613594  94.6391964  40.5406952  77.3537445  96.0264206   0.5684606
  76.9643116  96.0599899   1.4422144  77.3418331  95.0978470   0.3364433
  60.6473398  90.5966377  27.4687934  60.7809210  90.9455204  28.3500814
  61.3178492  89.9200153  27.3748755 104.7419834 116.4427662  33.5411763
 105.3383160 117.0115948  33.0542874 104.8474407 115.5821228  33.1357217
  72.6397896  78.1463337  12.8723192  72.9490423  77.2585535  13.0524147
  72.2751713  78.4464645  13.7049115  94.1970539 100.7276917  40.3583145
  94.5095921 101.4885330  40.8478832  93.2519627 100.7171726  40.5097008
 101.2158489  83.6190224  36.2354565 100.9068775  83.7573147  35.3401136
 101.3362312  84.5014381  36.5862751  84.6040154  77.8890610  11.9324517
  85.2554512  77.2285843  12.1683145  83.8372421  77.6687956  12.4613929
  64.8396206 101.8034744  12.4424028  65.4842472 102.0062828  11.7644942
  64.0804958 101.4752007  11.9605303  82.4992371 120.4290581   8.1003749
  81.7419720 120.8414745   7.6848185  82.2390938 119.5156479   8.2196289
  69.5244741 105.0114441  16.2811506  69.4891405 104.5345879  15.4519379
  69.5103121 104.3280506  16.9512308  56.0951042  87.8369331  22.5506401
  55.6066513  88.5719109  22.1799016  56.4904737  87.4056339  21.7930794
  86.2427139 107.5105476  44.0017843  86.4679813 106.7670155  44.5609379
  86.6108799 107.2874832  43.1468391  74.4656563  89.7257519  32.5520253
  75.3919458  89.9626255  32.5059986  74.3943453  89.1902733  33.3422184
  70.0679731 114.9026966  33.7211704  70.2085781 114.5444107  32.8447604
  70.7825994 115.5279922  33.8417840  58.8951111  92.5953388  10.0284350
  59.1439724  91.6917610  10.2229798  59.1371393  92.7180862   9.1105109
  97.0014572 143.5752678 102.4516782  97.7425194 143.5816860 103.0575045
  96.3593960 144.1612625 102.8524276  66.2195539 136.1868858  86.1128553
  66.2202883 136.6454506  86.9530662  65.4281378 136.4959812  85.6719979
  56.3467884 106.2351894  83.7817129  56.5105724 107.1737957  83.8735088
  57.2037506 105.8614922  83.5762914  58.5629749  78.0227995  27.4216080
  59.1086578  78.8087082  27.3931932  58.3108664  77.8731918  26.5104032
  84.3398857  86.0812378  95.2836069  85.0229931  86.2350750  95.9362348
  83.5376072  85.9803391  95.7958564  69.3504095 118.4438515  91.3149890
  70.0686216 117.8888607  91.0110351  69.1084480 118.9636040  90.5484804
  74.5875502 105.0969791  26.9812107  75.1693296 105.5133820  27.6171136
  75.0282717 104.2783546  26.7535162 107.5846958  89.2183495  88.3479270
 107.3371315  88.6360836  87.6296576 107.3064518  88.7554932  89.1382273
  53.2726955  93.3002090  95.5336865  53.9552879  92.6304150  95.4926773
  52.5314331  92.8614998  95.9511813  98.9040089 111.5190697 101.3810089
  97.9845619 111.4062977 101.1398735  99.0998840 110.7652283 101.9374140
  84.8484421 114.5050430  83.5819896  84.1031647 113.9145947  83.4717139
  84.5269585 115.1895046  84.1688331  77.0720196  87.2695160 108.2690116
  76.9751120  87.2761917 107.3167534  76.3768291  86.6877651 108.5764317
 116.3952541 103.7922764  92.0366856 116.2552166 102.8799915  92.2903880
 116.0944653 103.8373566  91.1290940  98.5324669  75.4440546  95.6302711
  98.5594940  74.9109650  94.8357149  98.2965469  76.3195086  95.3234216
 115.5473804  76.1390352  39.9514699 116.0833073  76.9172192  40.1045704
 116.1791325  75.4235935  39.8790073  67.8417540  83.5920906  68.8721999
  68.1337690  84.2488098  68.2399996  68.6507988  83.2448196  69.2478045
  80.6029987 137.2295380  44.9637985  80.1442719 137.1139812  45.7959366
  80.4223537 138.1358910  44.7145700  55.3445816  83.5958004  13.2445073
  54.5118904  83.5984516  12.7724361  55.9626055  84.0101337  12.6423359
  79.4138861 140.2091885  13.9193499  79.2723370 139.2897606  14.1448510
  78.7425518 140.4013157  13.2646477 112.0520592  89.6517563 109.2038163
 111.9016361  88.7064743 109.1972564 111.6212082  89.9683571 108.4098595
  33.2569551 112.0923805  88.1201657  33.8437176 112.0843697  87.3639425
  33.6876225 112.6688480  88.7513837 105.3729057 108.7784958  42.6933765
 105.9794235 108.6540413  43.4233618 105.5471230 109.6681881  42.3862457
  51.4308405 104.2258549  95.7775041  51.6299438 104.4629002  94.8717447
  52.2801685 104.2319679  96.2189134  79.2517376  98.8494396  98.1315085
  79.6854496  98.1218529  97.6857134  79.9659252  99.3438816  98.5336264
 113.6646938 101.5881920 103.7776014 113.4403038 101.1405563 102.9618218
 113.5332012 100.9273243 104.4574448  52.0944262 111.5473938   3.3520985
  52.6211500 111.1248684   2.6736659  52.3585510 112.4669456   3.3223924
  89.3559742 102.1421242  69.8257025  89.6330738 102.8512478  70.4058775
  89.3127537 101.3719845  70.3924926  74.6731997  80.2690697   1.0340112
  74.8092461  79.7265720   1.8108124  75.5246592  80.2791595   0.5968055
  99.1210365 111.3809872  18.3384109  99.9270344 111.2584209  18.8399875
  98.4200573 111.2707424  18.9808261  87.9081535 100.8164787  18.7535906
  87.1220779 100.2744484  18.6863530  87.6581001 101.6512203  18.3574724
  60.2362108  92.7963924   2.5116420  59.9535751  92.8186607   1.5973935
  60.9095335  92.1165466   2.5376922  56.1937904 129.4776535  12.2711217
  55.6170607 129.4950867  13.0348682  56.8100834 130.1947689  12.4199510
  65.7476759  89.1466141  15.5386162  66.2730122  89.4520950  14.7990668
  65.3366375  88.3414268  15.2240443  75.1594734  71.7091131  22.3257756
  74.3178129  71.3310575  22.0709968  75.8111572  71.1477709  21.9057417
  90.8473110 133.8334370  99.2501208  90.7633686 132.9419804  99.5884927
  90.0297356 133.9879894  98.7769278  76.7614317  92.9275131  24.9564767
  77.4536657  92.4399853  25.4029846  75.9898329  92.8096104  25.5105257
  55.1981401 102.3422432 107.8483272  56.0516787 102.7521610 107.7081081
  54.6095610 102.8043079 107.2514167  80.9362125  80.7587242   3.5413712
  81.1600685  81.6887856   3.5746658  81.3294601  80.3892708   4.3319970
  84.3072701  97.7200890  72.7500828  83.6375904  97.0995617  72.4624952
  83.8175774  98.5066414  72.9904159  74.6486282  99.7548389 103.9294412
  75.3418779 100.1745224 103.4200259  73.9269495  99.6484089 103.3096960
  75.5886412 104.9569702 100.3250047  76.0914898 104.1459751 100.4002657
  75.9467983 105.3898048  99.5500191 117.8135777  93.3804512  30.2905059
 117.7043915  94.1050148  30.9063864 118.7182617  93.0939198  30.4157281
  70.5726194 124.4276333  87.6124557  71.0916615 123.9896774  86.9379004
  70.9654379 125.2970600  87.6901087  50.6373930  94.3670082  99.3290766
  51.1314058  94.9747944  99.8793259  49.8224211  94.2181396  99.8085453
  83.6744404 101.5317154  15.5363572  84.0137959 102.2332001  16.0922337
  83.3890533 101.9757271  14.7378337  81.3812065  97.5691032  28.7835097
  82.3093414  97.6959038  28.9802694  81.0759640  98.4316540  28.5023236
  78.5269690  96.3766956  13.6970007  78.6925840  97.0708561  13.0590820
  79.3934345  96.1502457  14.0349197  98.3375359  99.0826702  98.7218317
  97.7713490  99.5831394  99.3093570  97.8699780  98.2591343  98.5825440
  76.2910414 122.5027466  28.4234858  76.8650484 122.3365402  29.1712356
  76.0349464 121.6318321  28.1199002  65.4320955  99.1864872 108.9358468
  66.0560179  98.8850975 109.5962432  64.9200821  99.8619175 109.3806686
 100.6628895  84.1424847  14.1982818  99.7538376  83.8683510  14.3195605
 100.6010437  84.9835396  13.7454677  85.2798080   1.6532688  18.4613967
  84.4514561   1.2204151  18.2547653  85.9419823   0.9723168  18.3428645
  72.3193932  94.6138668  15.2408946  71.8609810  93.7850189  15.1026773
  73.2460499  94.3939114  15.1452231  65.8571434  97.8836536 104.1581055
  65.8091116  97.6586342 105.0872409  66.1428356  97.0762825 103.7305995
  92.9476929 106.2767410  24.0371227  93.0907536 105.4282379  24.4564128
  92.1177292 106.1766052  23.5708880  81.2913609  82.4320030  20.6363726
  82.1649361  82.0566368  20.5259061  81.2641716  83.1616497  20.0174117
  82.3170567  87.6726723   8.9591753  81.9915962  86.9097042   9.4368607
  81.5650940  88.2628536   8.9095575 111.5335178  87.0608139 109.1963921
 110.7095718  86.7312336 108.8376152 111.8251991  86.3742542 109.7962158
 104.2016983  84.6385098   8.7492234 103.8528061  85.4875946   9.0204138
 103.6125660  84.3489170   8.0526006  68.9547443 111.0293484   3.2479644
  69.0909863 110.0831890   3.1984258  68.1919765 111.1908913   2.6926982
  94.4975662 107.4656963  32.4200988  94.8489666 106.9906902  31.6670227
  93.5594845 107.2758293  32.4065638  72.4054909  80.8411980  99.5706710
  72.0331764  80.4370880  98.7868925  73.2968855  80.4956341  99.6179136
  78.8623667  86.8278790  11.8725026  79.1394091  87.1529102  11.0158622
  79.1759491  85.9238815  11.8985450  42.6178980  72.3800421  12.0574641
  42.3028517  72.0328569  12.8919947  43.2134962  73.0882645  12.3022294
  68.3064890 127.1653175   3.1687957  69.0285063 127.2647190   3.7893105
  68.0109310 126.2627029   3.2878315  88.1847191  89.1522884  89.9966439
  87.5751019  89.2116070  89.2610582  87.6894474  88.7047482  90.6826791
  71.7457390 106.7770481 105.9267917  72.3780918 107.4803448 106.0742062
  72.1304607 106.2523079 105.2247476  96.6401958  85.4037189   9.0530306
  96.5824509  85.4017067  10.0084853  97.4949551  85.0165939   8.8639253
  65.3826046 111.2220478  96.8572708  65.0586176 110.3252125  96.9405600
  64.8200226 111.7348194  97.4376150 100.4105282  85.6764126  22.5583887
 100.3364563  84.7641850  22.8386974 100.6225300  85.6241417  21.6264248
  97.6544571  80.9714794   4.5409688  97.7289009  81.5102196   5.3286523
  98.4345150  80.4169178   4.5554844  84.9922848 120.3730965  39.4423318
  84.5157814 119.5594406  39.2775917  84.8059845 120.9186840  38.6782265
  87.7546978  92.1355820  92.1549364  88.3354378  92.4872780  92.8296753
  88.3454704  91.7547607  91.5051755  66.8249083 100.1865578  13.4838593
  67.6490021 100.5417919  13.1508231  66.1574602 100.7982922  13.1731808
  80.5552292  85.4747105  33.8807750  80.5280495  86.2017250  33.2587266
  81.4859295  85.2686787  33.9678645  46.5181255 111.8588448  24.1990376
  46.1241770 112.6332378  24.6007180  46.3089895 111.9391155  23.2684207
  87.9721355 110.3302193  96.1720749  88.0111313 111.2509060  95.9131678
  87.5076580 109.8991394  95.4546770  60.8751678  89.0458965  91.4378830
  60.9507179  88.7951374  92.3585602  60.6520176  88.2323360  90.9856006
  66.4647961  94.8718357  12.1287525  67.2581673  95.1645374  12.5772166
  65.9853125  95.6783581  11.9393933  89.2112637  63.6723709  23.7051368
  88.7000370  62.8939486  23.9263463  89.8046398  63.7880850  24.4472599
  86.4336967  83.5615444   9.5949203  87.0822048  82.8955173   9.3666863
  86.9279766  84.2195129  10.0837994 100.4078770  97.9396343  94.8922738
  99.9742985  98.3001804  94.1188046 101.3424969  98.0390835  94.7111257
  75.9429359  88.5545254  82.3249181  75.4738426  89.2574215  82.7745041
  75.8623123  87.8007412  82.9093369 102.0817852 103.3881760  41.9462204
 102.2785282 104.3248940  41.9376945 101.3838387 103.2959270  42.5947428
  88.4883499  89.3146038  10.0796533  88.6062622  90.0140667  10.7223654
  88.2005310  89.7649956   9.2855859  82.0063972 103.9929104  30.3125501
  81.1452770 104.2759514  30.0049949  82.5881577 104.7230148  30.1010537
  62.3448801  85.6597424  89.5905479  63.1493282  85.9038353  90.0482746
  61.7741823  85.3141975  90.2769383 105.2824402 112.2366524  24.1233349
 105.9007549 111.8610668  24.7501135 104.4891357 111.7107773  24.2250276
  44.9865389  91.3815594  24.7442961  44.0329409  91.3452053  24.8188782
  45.2976370  90.6665802  25.2995086  43.9569235  87.1085930  88.9048394
  43.0041122  87.0193672  88.9255365  44.1066647  88.0323792  88.7037810
  64.5985126 142.7654648  45.4919004  63.7265110 142.5430202  45.8180332
  65.1783037 142.6191044  46.2393284  45.9724522  89.3500805  26.3672018
  45.9394312  90.0569630  27.0117688  46.5018034  88.6702633  26.7841768
  94.7399044 130.4329967   0.6381616  94.8754978 129.7466850  -0.0151555
  95.3741646 131.1118126   0.4076204  54.1884470 106.0654068  28.0616856
  54.2660475 105.2126789  27.6338196  55.0436831 106.2087345  28.4669685
 112.4910450 104.0073776 109.4975311 112.3955822 103.9692307 110.4491955
 111.6149712 103.8186741 109.1611885  96.7426968 126.6755104  55.6359434
  97.6332664 126.4435673  55.3726864  96.7255688 126.5253830  56.5811443
  69.7378397   3.4694176   7.4320948  69.3619919   4.1175442   8.0278254
  69.1508770   3.4702950   6.6759837  88.7654495  68.6378860  41.2786055
  88.4021378  68.2179928  42.0583010  89.1273212  69.4643784  41.5982819
  98.8592148  62.0202541   9.9340326  99.2783737  62.1270323   9.0801364
  98.4400177  62.8641748  10.1022756  87.5830269  86.9730759   7.5308955
  87.2035503  86.8030930   6.6687250  86.8276215  87.1165943   8.1009877
  81.7933083  91.7925262  95.4539033  82.4348736  92.0835495  94.8058745
  80.9481907  91.8916321  95.0155123  73.8725042  98.2036400  16.0947597
  74.4121838  98.7132168  16.6991711  73.8630915  97.3219299  16.4672136
  53.9283037 105.8401394 104.4349536  53.1439257 106.0199738 103.9166411
  54.6295261 105.7601452 103.7883356  64.7144842 105.9261227  90.3565296
  64.7737026 105.3736782  89.5770868  64.3162441 105.3625393  91.0198590
  88.6981678 114.7781754  93.8481280  89.5262241 114.3091679  93.9510187
  88.8492870 115.6256390  94.2666956  87.2071934  84.5045471   5.6446421
  86.5337181  84.3913555   6.3153446  88.0089188  84.6796322   6.1374110
  82.1103191  87.8163338  17.1765828  82.0955944  87.3789406  16.3252878
  82.8037262  87.3704338  17.6629949  15.4558879  93.1850338  35.4386091
  15.5796080  92.9703617  36.3631845  14.7341948  92.6229763  35.1567101
  72.1450758 138.3539677  37.4268603  72.2712994 138.9267159  36.6703844
  72.8154564 137.6776600  37.3297358 105.2792645 139.3859577  12.9651737
 106.1477852 139.7702599  13.0844045 105.0734329 139.5406055  12.0432472
 103.8001156  69.4606447  14.4542980 103.9993763  68.6803818  14.9717200
 103.0875111  69.8877478  14.9296999  75.9871864 102.3438549 105.5437877
  76.4070511 101.9081402 104.8021018  75.2603579 101.7675304 105.7800102
  83.1534672  97.1778679  99.8187520  83.4891605  96.3301849  99.5272442
  83.9276791  97.6489925 100.1267704  95.5965614  83.6474991  96.3703664
  95.6271839  83.4009933  97.2947749  96.1178112  84.4486618  96.3187321
  87.7335644 100.1446819 104.2412242  87.2853947 100.6728745 104.9018242
  87.3310757  99.2792034 104.3131205  57.3285341  88.5944843  56.5421677
  57.2815132  87.7111816  56.9079447  57.4438667  88.4584618  55.6017303
  33.2019615  99.5915794  10.1788175  33.1370711  98.9211941  10.8589625
  34.1372299  99.7879314  10.1245105  89.3785954 106.3740253  31.3544106
  89.4917679 106.1033154  32.2655320  89.1374588 107.2988319  31.4075112
  92.2914028 100.6917095  90.7351180  91.7322254 100.4759789  89.9887868
  93.1812954 100.5277634  90.4229470  63.3776188 107.0721626 108.9078699
  64.2154932 107.0257664 109.3683565  63.5736847 107.5488377 108.1012867
  97.7604008  86.5185261 102.1334752  97.1367073  87.0979214 102.5711306
  98.6181355  86.8200493 102.4328127 103.3219624  75.3407383   3.8323334
 103.3958435  74.8602915   3.0077460 104.1156197  75.1107168   4.3154874
  81.4943314 117.7254677  97.9263314  81.8943691 118.0211544  97.1085449
  82.1637726 117.1775436  98.3360287  69.9101067 114.5309925  18.4140062
  70.0213099 113.6843204  18.8464475  69.6637678 115.1295757  19.1191638
  94.1245556 127.4885845  24.9154520  94.1117573 126.6008186  24.5577645
  95.0367737 127.6321602  25.1673985  71.4341736 111.8544674 106.2165775
  71.2065840 112.6959610 106.6119688  71.9223595 112.0853996 105.4262763
  58.4249783  79.5657015  81.5439924  57.8928995  79.7785902  82.3106774
  58.6184835  80.4134560  81.1438593  60.6873703 122.6564026   3.4449643
  60.1917505 123.3451176   3.8879836  60.1581907 122.4357605   2.6784658
  88.4036827 108.2683468  22.1128392  87.8740501 108.7930393  21.5125036
  88.5161114 108.8258266  22.8827810  90.4655552  98.1432056  15.5627501
  90.3870010  97.5392342  16.3011801  91.3434219  98.5147572  15.6495631
  40.8279991  78.4054184  45.2387238  41.4508152  78.7650537  44.6070576
  41.3716555  77.9304981  45.8673096  43.9026642  49.9805450  92.8142794
  43.7525034  49.6965933  91.9125839  44.1280985  49.1774988  93.2838794
  40.1376295 105.4045582  95.2094778  41.0613012 105.1804924  95.0960752
  39.9580193 106.0386562  94.5152875  56.8374109  83.9297199  92.0796343
  56.1239767  83.3508205  92.3481950  56.5221548  84.8097610  92.2854587
   4.7318965  99.4334602  35.8240461   5.3243380  99.5476437  35.0809383
   3.8891631  99.7624016  35.5112481  60.3882790  53.4031582   0.7403363
  60.9713173  53.2769632  -0.0082447  60.8658552  53.9982986   1.3182302
  93.3132839  88.9168835   9.1113883  93.9515686  89.4188976   9.6181494
  93.8292599  88.2295895   8.6899436  71.8657684  57.7142096  21.4880395
  71.6644430  58.6394167  21.3477015  72.3342514  57.6949406  22.3225379
  67.1023321  79.5370483   9.0325236  66.3080692  79.2030478   8.6156034
  67.4828768  78.7744951   9.4683379  54.0236998   7.7402668  24.4904113
  53.6480713   7.2568398  23.7545896  53.3939648   7.6215439  25.2014494
  83.6160278 128.6372280 101.2189444  82.7239609 128.8852310 100.9761747
  84.1729546 129.1125679 100.6024125  75.8455944 137.6410294  71.5419015
  76.7994976 137.6217365  71.4648970  75.5324697 137.6524639  70.6374367
  30.8342457  73.1598520 105.8167353  31.4238167  73.8889122 106.0093778
  31.1866212  72.7721071 105.0156640  64.7901201 114.7719383   2.3968314
  65.3772402 114.4837856   1.6979128  65.3479290 114.8211670   3.1731415
  58.2071590  86.8889618  12.8863573  57.7932262  86.0584259  12.6516175
  57.8349257  87.5235844  12.2740495  18.4784155  71.3444757  13.1169355
  18.0356913  70.9175444  13.8503921  18.3643466  72.2806787  13.2804525
  85.2983856 101.3297558 105.9845930  84.5618057 101.8948460 106.2177306
  84.8950195 100.5756569 105.5546402  57.0660496  96.2414646 107.6887574
  56.8351173  96.1855698 108.6159998  58.0003786  96.0352516 107.6617729
  79.3302774 104.1006088  16.0776341  80.1263428 104.2075920  15.5569923
  79.4198990 104.7381020  16.7860138 120.7363319 127.0426941 105.7216366
 120.0401402 126.4020920 105.5761056 120.5707741 127.7276516 105.0738254
 107.8325462  96.0342598  91.2453970 107.5213814  96.8434429  91.6511449
 108.7682819  96.0103893  91.4455744  74.6115398  84.2270279  34.5614743
  74.4908142  83.9609528  35.4729867  73.7300634  84.4406986  34.2555809
  76.8837118 108.7601185  83.7771567  77.0912409 107.9880238  83.2508191
  76.7338705 108.4164047  84.6578582  66.3144970  98.2649040   6.6358864
  66.3751698  97.7277279   7.4258214  67.2237587  98.4085941   6.3735378
 117.7857876 133.1999302  37.4705458 117.8409481 134.0686226  37.0723510
 117.0700264 132.7678299  37.0044804  59.9554825  96.2814713  19.0525377
  60.5706501  95.6719112  19.4602549  60.2173710  96.3062859  18.1321955
  76.1507559  94.0246105   8.0427837  77.1049356  93.9624691   8.0864120
  75.9313536  94.7529316   8.6238575 107.7951813 114.8331547  20.0444889
 108.2238483 114.2669868  20.6863093 107.8226376 115.7052040  20.4381990
  71.9288301  86.3143444  18.0556178  71.3567829  85.8499050  17.4446464
  72.2157907  85.6418514  18.6733854  91.7416477  80.4551601   0.5147700
  91.9826794  79.5338202   0.4185367  91.1057091  80.4629135   1.2301391
  97.9063225  77.5771046  51.9446182  97.7218246  77.8946257  51.0606670
  97.2012901  77.9393101  52.4812460  61.3245344 103.6059380   0.7797527
  61.2110615 104.4374943   0.3194740  60.4666471 103.1845284   0.7280076
 103.5512733  96.0102940  84.5619687 103.9496040  95.6152439  85.3375348
 104.2876148  96.3866425  84.0798839  91.2588501 110.6217003  17.3134887
  91.4928627 111.1507893  16.5509033  91.9907570 110.0135231  17.4167573
 100.6031799  96.9450283  34.2723775  99.8169899  97.3928738  33.9599967
 100.3304863  96.5225124  35.0868416  59.0931225  76.4902067   9.6265262
  59.2162895  75.6188202   9.2500323  58.3080244  76.4084005  10.1679659
  96.1205101 104.4467163  18.6376154  95.8362579 104.5100403  19.5494413
  95.3067017 104.4172001  18.1345427  90.8040237  85.7334042  99.6083387
  91.2749481  84.9984646  99.2154940  91.0387611  85.7000542 100.5357101
  56.5884209  57.0346451  93.4511837  57.1569490  57.1328545  94.2149659
  55.7583952  57.4297047  93.7180551  96.0434055  70.9164286  21.4318514
  95.4731274  70.4378605  22.0334983  95.4922771  71.0940361  20.6696606
  82.9223633 112.4548435  27.6795650  82.4489021 112.0164967  28.3866191
  83.4155655 111.7549324  27.2516608  69.0631437  65.6939459   0.9052115
  69.1919661  66.2641954   1.6631357  69.7819424  65.0637770   0.9546813
  95.3378391  98.1590652  86.0207351  96.2647533  98.3114147  86.2047132
  95.0553226  98.9426136  85.5490740  79.3234396  90.4421139 109.5602314
  78.3890152  90.6029797 109.6914128  79.3797398  89.5079708 109.3591157
  79.0518045  99.0915012  21.5104747  78.9771175  98.2101631  21.1445498
  79.9943590  99.2412663  21.5839076  91.3972569  75.0461149   7.7539033
  91.6830063  74.6301699   6.9405341  91.4279938  75.9843445   7.5667721
  85.1129341 112.0659542  15.1796055  84.2402077 111.7819786  14.9076915
  84.9801445 112.9473782  15.5284357  74.2832708 109.5132828  18.5877073
  73.7778664 108.8848305  19.1033006  75.1264620 109.0831852  18.4453285
  80.8462143  51.0324955 105.9286495  81.3096142  50.4708672 106.5499937
  79.9869204  51.1719942 106.3266211  32.7467394  77.9619455  32.5708079
  33.0726814  78.5380411  31.8793559  32.2886157  78.5471773  33.1740141
  72.4943972  91.8299961   7.5132751  72.6195765  91.8292999   6.5642965
  73.3509874  92.0685005   7.8676802  90.4655170  84.5956326 106.5553954
  91.2854576  84.3859100 106.1082523  89.9253464  83.8132191 106.4445465
  72.0218420 107.7417946  10.8736217  71.9191408 108.3825493  10.1699734
  72.1711922 108.2694721  11.6581500  49.8299932 114.6682739   7.3285276
  49.5295000 115.4640961   6.8896616  50.6960821 114.5020008   6.9563961
 103.1332493  65.9996605  31.3999605 103.7176132  66.5469742  31.9245553
 103.6085892  65.8579397  30.5813026  52.6903296  89.3531609   2.3884529
  52.2626352  89.1359043   3.2167709  53.2527256  90.0989342   2.5976640
  69.9713039  98.0556679   2.4360687  70.4978848  97.3667812   2.8415042
  70.1829576  98.0017662   1.5041196  95.3417683 133.9072037   5.3350735
  94.5596409 134.0466213   4.8011589  95.6558323 133.0402946   5.0780457
  60.1576900  68.6831951  20.8490062  60.7293177  68.7574005  21.6131854
  59.4949532  68.0425119  21.1069560  96.5086365  94.8523045  16.1543357
  95.6534100  95.0472832  16.5374792  97.1358776  95.2750683  16.7409074
  96.1452961 122.9390812 101.0836461  96.2428093 121.9878387 101.1268231
  95.2029991 123.0792809 100.9906509 108.0234909 120.5828381  86.7621573
 107.2597504 120.9694672  86.3338526 108.3074951 121.2468433  87.3903855
  69.5568657  76.8601942  35.5780506  69.9977636  77.6650143  35.3058290
  68.6571598  76.9633484  35.2680135  39.2128325  81.3024235  84.8125442
  39.0089130  80.9706020  83.9381608  38.3711624  81.3094425  85.2683672
 118.3366489  90.7767296   5.8106136 118.7828636  90.2987289   5.1115829
 117.6148224  91.2258244   5.3707242  80.0564671 109.0556431  20.4337645
  80.7742596 109.5700836  20.8030105  79.9215841 109.4246769  19.5609224
  20.0628691 114.3679810  63.2326889  20.6231242 114.9607754  62.7317429
  20.6725245 113.7674618  63.6615562  67.4260092 120.1612282   0.2904931
  67.2408390 119.8781109   1.1859170  67.9433250 119.4482231  -0.0840052
  60.9604502 119.6276474  68.6710072  60.0163031 119.7094154  68.8056564
  61.0790825 119.7456455  67.7285433  82.5400734 141.5278435  96.5928173
  81.9652367 141.2213993  95.8914661  83.3891106 141.6532993  96.1689949
  97.9378414  90.5347443  70.5083656  97.4524689  90.1809597  71.2536716
  98.2394886  89.7621727  70.0304794  75.4704618 133.3702850  70.8265924
  76.2171745 133.9684200  70.8563042  75.8634043 132.4991322  70.7725191
  50.5530930  59.7155905  93.3940220  50.1911259  60.5346632  93.0558872
  50.3821850  59.0750980  92.7035236  95.9587479  54.3611717 102.9016972
  96.8790913  54.5778418 103.0508804  95.9815788  53.6360312 102.2772884
 104.3913841 114.5487881   0.6937352 104.1555500 113.6747074   1.0045472
 104.7607422 114.9845314   1.4618055  75.2426720  62.2573471   0.6382886
  75.5918932  63.0154037   1.1069242  75.9453535  61.6084146   0.6751386
  66.6579819  80.1972771 105.9007645  65.9442329  80.7737446 106.1736679
  66.2257338  79.4932890 105.4172421  94.1010857  48.8837337  92.0355701
  93.9144611  49.2329407  92.9070377  93.2450581  48.6289835  91.6912556
  69.6311951  97.0973778   9.1791574  70.1338005  97.4487782   9.9140970
  70.2476740  97.0946598   8.4469167  60.4730606  52.7151489  78.1040287
  60.1987839  51.8869972  77.7101183  61.4273643  52.6550674  78.1478786
 121.8636608  70.8216953  95.4230785 122.7759457  71.1084747  95.3815365
 121.9145775  69.8669577  95.4690838  87.8736019  91.2833214  75.0261688
  88.5757732  91.5766621  75.6068087  88.0329132  91.7473316  74.2042494
  87.5428009  57.7671909  75.4674053  87.8334236  58.6752081  75.3821087
  87.2852993  57.6833677  76.3855028  72.5397968  84.2645073  96.4285851
  73.3420610  84.7186279  96.6862297  72.1346045  84.8423481  95.7819366
  67.6225519  78.2239676  69.3276644  68.2716131  78.2158661  70.0311470
  66.7799425  78.2677031  69.7796965  79.0563488  63.2756329 100.1066685
  78.9643955  63.6681795  99.2385197  78.9671230  62.3347807  99.9547768
  62.6952171  49.1710758 108.7693119  62.4284840  48.4358644 109.3211746
  63.3755875  48.8096619 108.2012367  87.6792908  68.1652498 105.8024025
  87.4786472  68.3796215 106.7134571  88.6345387  68.1111956 105.7738495
   0.4949217  97.3265362  94.9879265   0.1578646  97.0631981  95.8442402
  -0.1178426  97.9966354  94.6850681 103.7148094  75.5736160  85.9484196
 103.5065269  75.0744009  85.1587200 103.6249924  76.4890909  85.6837082
  67.8208494  66.3171530  25.2700177  67.5022078  66.8527555  24.5434991
  67.0269442  66.0182142  25.7134000 100.7610893  59.9974394  65.7973814
 101.1763287  59.5549107  66.5376329 100.0861645  59.3867207  65.5011797
  71.4579344  76.5284729 102.5788212  70.7816124  77.1868086 102.7382469
  72.2652578  76.9325924 102.8968620  81.9098568  79.3925810 104.3637848
  82.7877617  79.7188807 104.5613861  81.9527912  78.4564257 104.5587158
  81.4631462  96.5300655 107.8949070  80.8155251  96.4404011 108.5940361
  81.0488796  96.1275673 107.1316147  57.3694563  75.3681421  99.5601368
  57.7836704  75.3642559 100.4230690  57.4501562  76.2734175  99.2598057
  97.9235268  72.4791670   2.3425523  98.5967445  71.9059801   2.7092401
  97.0962811  72.0722532   2.6000444  96.5440655  35.0752306 107.5237083
  96.6994095  34.6734214 108.3784866  95.6830025  35.4853868 107.6047802
 102.3329735 129.3283367   5.7339040 102.6140594 129.1424084   4.8379937
 102.7560997 128.6520576   6.2629072  67.9658890  87.6932144  10.6258050
  67.3758984  86.9458961  10.5275956  68.6568546  87.5391674   9.9815503
  77.5217342  69.5590019   2.4926034  77.1443033  69.7537279   3.3504239
  77.6526499  68.6108112   2.4981824  91.3313103  71.4232206  17.8033487
  90.5320930  71.6430569  17.3246518  91.9577026  71.1761904  17.1230260
  66.8659925  85.1062870  61.7081022  67.4777603  85.8406162  61.7603874
  66.0796261  85.4776764  61.3081932  92.6510715  97.8419876 108.2976723
  91.9623184  98.4866428 108.1355476  93.4637642  98.3467484 108.2663059
  90.3798676 125.5089378  10.2155057  89.6559334 125.9837437  10.6238214
  90.0634289 124.6087456  10.1397554  76.6081524  92.9810429  94.4187355
  76.8246222  93.9069843  94.3091774  77.4479914  92.5281239  94.3428040
  87.2327709  64.8113441 108.5447502  87.6784134  65.0189114 107.7234364
  87.8921509  64.9668217 109.2209625  62.1823549  89.6369076   9.4209424
  61.3155603  89.3869495   9.7409765  62.3426390  90.4965973   9.8101465
  66.0621071 106.1780548   5.3226796  66.3316011 106.7281342   6.0582200
  65.9010839 105.3188229   5.7125799  78.7143183  84.0586662   1.6027776
  78.9298439  84.9690628   1.4003888  78.5251999  84.0602016   2.5411073
 103.6675167  59.8485804  51.2597561 103.9245796  60.0049734  50.3510809
 104.4745827  59.9666309  51.7606974  93.1650734  63.9871931  83.7773609
  93.1576633  63.1985855  84.3198299  92.2556877  64.2859125  83.7765694
  52.2938919  62.8408957 106.6825676  51.6318941  63.1604576 106.0694790
  52.4303102  63.5690212 107.2887421  86.1537933 104.9150944  75.3479338
  85.8446980 105.8184242  75.2795601  85.7346153 104.5777893  76.1396074
  82.5635052  82.8371334  88.3641911  82.0152569  82.1535778  87.9789543
  82.0121765  83.6195660  88.3555698  59.9112797  89.8126507   4.9657003
  59.0907192  90.2097702   5.2576009  59.7526979  89.5801353   4.0508119
 116.0145187  97.8246498 107.4857426 115.7039261  97.2008705 106.8295002
 116.4286900  98.5214806 106.9767094  62.8848791 106.7273903 102.6620388
  63.2514715 106.8251991 103.5408306  63.0444050 105.8108997 102.4366188
  66.7484713 110.0168991  11.6032926  65.8031702 109.9454021  11.7356912
  67.0214510 109.1364765  11.3452665  45.7518530  57.4002218   1.6267530
  46.3996220  57.7691793   1.0263387  46.1297131  56.5653419   1.9032136
  74.0946341  78.2106829   2.6644746  73.6052227  78.6277342   3.3735410
  73.5794306  77.4353790   2.4415532  92.1996403 105.3403950  62.3860931
  93.1256104 105.5638027  62.4804640  92.0973110 105.1304340  61.4578295
  34.6189260 116.7407608  83.3989048  33.9453602 117.3981857  83.5730743
  35.4133582 117.2491837  83.2357883  59.4287968  91.0584831 104.1812611
  60.0000381  91.6333103 104.6906567  58.5931396  91.0767269 104.6477032
  43.2620192 120.8144760  97.9407883  43.7755156 121.6151714  98.0477619
  43.8260365 120.1207638  98.2826710 113.9040184  79.6430779  89.5149326
 114.2888737  79.0009928  90.1114655 114.2173290  80.4879379  89.8378563
  78.7244558  77.3401356   5.3212682  78.0980158  77.2520161   4.6029035
  78.5113382  78.1824398   5.7229368  53.6904812  75.3148174  94.5795345
  53.2663965  75.0881290  93.7518978  53.0129147  75.1770306  95.2414703
  35.2368999  76.3346481  68.6234093  35.0231218  75.7179165  69.3235350
  34.9681973  77.1874475  68.9651251  84.8365021  99.8129368  94.6406460
  85.7478523 100.0007534  94.8651505  84.5660782 100.5534554  94.0977383
  50.2185249  93.8147640   7.7719919  51.1341333  94.0099430   7.5724927
  49.7505999  94.6237469   7.5650541  55.9018803  73.1776285   6.2294809
  55.0433111  73.4277868   6.5708200  55.7385969  72.9495096   5.3143064
  76.8611050  76.3069487  96.0582352  77.5402641  76.3671112  96.7300701
  77.2899103  75.8695507  95.3226852  62.0072031  50.0332928  93.4455776
  61.8449116  49.3134451  92.8358936  62.8764248  50.3565645  93.2085609
  77.3847151 104.2862701  90.3996086  77.6237106 103.4467316  90.7924175
  78.0186605 104.9074936  90.7579708  79.0351200  75.2119207   0.0628797
  78.5167170  74.8204374   0.7658998  78.4405470  75.2386475  -0.6867846
  99.4356537  72.8968954 100.2721024 100.0484657  73.5483885 100.6130600
  99.3024731  73.1485462  99.3582249  68.1282520  50.8034229   9.3807355
  68.4639549  51.6991472   9.4155923  67.3240471  50.8689213   8.8657705
  57.9662561  53.0210781  76.1649513  57.1713209  53.4815836  76.4337397
  58.6803150  53.5387087  76.5369844  77.9047441  73.7739897   2.2121373
  77.0739126  74.2239046   2.3655263  78.0879641  73.3219671   3.0357496
  82.7651119  73.5350466   6.8689100  83.5636044  73.8877487   7.2616617
  82.0588303  74.0509319   7.2578183  42.0985460  90.2380657  97.8478146
  41.6647673  89.9359322  98.6458015  42.2396708  91.1738300  97.9915333
  88.9147663 105.8577919   1.8576948  88.5576630 105.0097942   1.5938512
  88.1559086 106.4407730   1.8800107  72.1284676  84.3029213 107.8423023
  72.7443886  84.6582127 108.4831142  72.2379160  83.3541012 107.9053974
  60.5984545  66.4971161   0.2765695  60.0802183  66.3926363   1.0745279
  61.1020136  67.2982073   0.4211847  51.2439489 117.9990578  92.2275829
  51.5662956 118.7661076  91.7543507  50.3558493 118.2374191  92.4934578
  69.2601633  57.1395636  79.3583822  68.9797926  57.3332644  78.4638977
  70.1695347  57.4362326  79.3938923  73.7264490  97.0017052 101.3140011
  74.5924807  97.2597122 100.9983158  73.1648970  97.0515633 100.5404282
  77.7290773  82.1367168   8.3580152  78.2998371  82.5973988   7.7430002
  78.3258152  81.7727852   9.0119878  94.5607853  77.0761108  96.2171173
  94.0209484  77.4933624  95.5457687  95.4373646  77.4337912  96.0760498
 108.1115246  64.8840046  20.4838125 108.9839745  65.2529812  20.6213514
 107.8047466  65.2902079  19.6731798  84.8168850  87.3484612   1.8586961
  85.0669289  87.3981476   2.7813283  85.2080822  86.5318966   1.5481702
  91.1979580  92.9886627  98.6213398  91.7642975  93.7401676  98.7966537
  91.6457939  92.2499275  99.0335941  98.7027645  96.2294102  96.1717319
  98.0623055  96.0748577  95.4773617  99.2347240  96.9569397  95.8493233
  51.0623693  80.8020496  31.8778173  52.0090485  80.8343887  31.7400113
  50.7583475  81.6830826  31.6596834  76.5135098  77.6429701  86.3618946
  75.8372688  76.9656038  86.3719559  76.0989809  78.3888292  85.9281921
  96.3663101  85.6758118  75.2308416  95.6312561  85.5289841  74.6355534
  96.4848423  84.8370171  75.6764984  98.9117432 135.3642559 108.3597660
  98.2210064 135.8686543 107.9300117  98.7387085 135.4698181 109.2952538
  77.8543377  93.5780334  98.0310249  78.3331823  93.3606339  98.8308239
  78.5177135  93.9458561  97.4471855  69.6792412 100.7610512 109.6088123
  70.1995087 101.5618420 109.5433617  68.8792658 101.0313320 110.0596142
  61.1189222  97.3742867  80.6676483  60.7213449  97.7144337  79.8661089
  61.5476513  96.5625477  80.3965378  60.8940077 105.6615448   7.5451795
  60.7897186 105.4684925   8.4768907  60.0438356 105.4492855   7.1599714
  81.2782383 102.5611210  95.9066296  81.0798073 103.0648804  96.6959763
  80.4532814 102.5410938  95.4215717  90.5374813  70.1058817  92.6784801
  89.7319221  70.6228113  92.6877689  91.1534214  70.6127262  93.2075882
  79.0067673  70.3772068  77.5231028  78.2304239  70.8577728  77.8104782
  78.9941168  70.4503822  76.5687895  64.8674822 114.9506092  84.5789051
  64.6808290 114.8303127  83.6478138  64.9534225 115.8979607  84.6855068
  91.2432194 118.7080288 102.1532917  90.5566597 118.1644058 102.5397396
  92.0600605 118.2775879 102.4057198  92.4539757  95.0589752 108.2291222
  92.5744247  96.0004520 108.3530521  91.6506672  94.8551846 108.7080860
  58.0157518  95.8273697   4.6675054  58.2691956  95.3291893   3.8904516
  58.8044643  96.3134193   4.9081746  75.5000544  86.3159657  15.1522008
  75.7287598  86.9901085  15.7920877  76.3336515  86.0787296  14.7459165
   4.2750769  82.1839523 109.0830326   5.0621729  81.8362617 108.6637211
   3.9702254  81.4731216 109.6469593  83.3938026 100.4058456  18.1892625
  82.8128147  99.8501015  18.7087194  82.9336929 100.5224323  17.3580400
  73.2351875  66.6733551  96.6958523  74.1100788  66.3778925  96.4438725
  72.6648760  66.3587427  95.9944248  51.8698263  89.5316505  73.2297325
  52.6460886  90.0869370  73.3025694  51.4263105  89.8423290  72.4404192
 112.5503063  63.4267998   1.0341874 112.9462528  63.2751083   1.8923513
 112.2704220  64.3418598   1.0579244 104.2044640  87.0099545  93.5383892
 105.0635815  87.3308754  93.2642555 103.8759136  87.6836395  94.1337299
  77.4088335  86.8028259  96.2219810  78.1348419  86.9026375  95.6062031
  77.8295040  86.5984154  97.0571327  81.3152122  87.5457096 108.1764221
  81.0197163  87.0666695 108.9506435  82.1609306  87.9145432 108.4312916
  94.7312260  88.0852222  91.9299793  94.4332027  87.2815228  91.5039635
  95.2689648  87.7830791  92.6619434  90.7185459  91.4666080  15.0383035
  91.2001038  91.4191055  14.2124215  89.8390579  91.1576653  14.8208467
 103.6946487 105.7230186  90.2315044 103.0124664 105.3406525  89.6795464
 103.2471180 106.4120102  90.7226753  89.7535992 102.8905010 104.6826744
  90.1971626 102.0578671 104.5208168  89.3880844 103.1363297 103.8328457
 104.0377331  71.0359716  96.1162663 104.2217159  71.9750214  96.0925198
 103.1603527  70.9732819  96.4937592 107.7204418 129.5044041  99.0668583
 107.1995258 129.4629097  99.8688316 107.9254246 128.5910511  98.8668823
  59.4920540  92.8937912  92.2450352  59.2405224  92.0208931  92.5467110
  59.4481707  93.4402561  93.0296803  46.5071964  86.0430813  97.3488522
  45.7431936  85.5738449  97.0136738  46.4289331  85.9791756  98.3007050
 123.4143066  95.7278538 108.4544849 123.4899235  96.1703968 109.2998600
 124.2800903  95.8210945 108.0570507  48.6425066  58.7694597  89.9218178
  49.0207720  58.3260059  90.6810856  47.7720213  59.0415287  90.2124405
  82.5714207  92.5198174   9.8016111  82.0331669  91.7665958  10.0448362
  82.6288319  92.4749756   8.8471834  45.9833193 123.7431717  71.1311722
  45.4460764 123.1677818  71.6757202  45.4864550 123.8362789  70.3183460
  87.8710461  98.9120197 108.6577225  88.0749226  98.3856392 109.4307518
  87.0298386  98.5727215 108.3519650  83.2096291  69.5185709  91.6875172
  83.9825153  69.2381334  91.1973953  83.4957218  69.5281982  92.6009178
 115.1043797  84.3013668  31.3489763 115.6020832  84.0064430  32.1115724
 115.7678127  84.6311665  30.7429067  78.5900307  59.8946333  82.9540825
  77.8251600  59.5740843  82.4761105  78.3066702  60.7292032  83.3274746
  64.6484089  78.0524015 105.0515842  64.9150991  77.6467657 104.2266178
  63.7292433  77.8055477 105.1537228  73.4121847  77.1818161 109.5688057
  73.5999250  77.9896736 110.0466537  73.1067419  77.4764967 108.7108421
  88.5778904 109.3487549   8.4663812  89.3014812 109.9732018   8.4142724
  88.9091206 108.6442757   9.0233651  75.9348154 101.7391014  98.1627083
  76.4214849 101.1865330  97.5511169  75.2806568 101.1543751  98.5453320
 114.8837852  80.3572941   1.3999215 114.6245289  80.7867241   2.2151510
 114.6426105  79.4395208   1.5254442  62.6326418 106.4698601  80.2308559
  61.8547344 106.1950779  79.7454786  62.9562521 105.6668568  80.6391430
  77.3504829 109.2911816   5.0891534  77.5269794 110.1874733   4.8032514
  77.3116732 109.3475914   6.0439054  79.6995258  58.4912014  97.0580006
  79.3986225  57.6029396  96.8664837  78.9424276  58.9196825  97.4572945
  69.0214825  97.1748161  94.9479675  69.3211126  96.6181183  95.6666756
  69.8109150  97.3505020  94.4359493 123.8953114  66.8169117   0.2711049
 123.6206532  65.9267092   0.4909555 123.7495136  67.3176575   1.0737459
  71.7854309 124.6610451  93.8869190  70.8680964 124.6266651  94.1581249
  72.2711515 124.3305016  94.6425915  97.8926373  76.1119843  82.5177956
  97.9510307  75.8863497  83.4461880  98.6613941  75.7008362  82.1225739
   7.6039725  92.0159721   6.1625425   7.9080897  92.4725056   5.3781263
   6.6491538  92.0466614   6.1024896  55.1525259  88.8010883  86.2098312
  55.5435514  88.8900280  87.0789814  55.0639582  89.7002888  85.8938885
  95.4938221  75.0395441  68.5634375  96.1554432  74.9939108  67.8732061
  95.9506893  74.7488451  69.3527365  86.7651939  90.1754856   1.0107938
  87.6776886  90.4639530   1.0302392  86.4025116  90.5810642   0.2232686
  98.5007668  78.1490231  85.4247761  98.4001350  78.1225681  86.3763046
  99.0570736  78.9111614  85.2638626  97.5719929  60.8194113  71.0106945
  97.3371506  61.2033701  71.8554735  97.1827793  59.9450970  71.0284901
  89.8049927  76.0787296  83.9611053  90.3351593  75.2844906  83.8952827
  89.6478367  76.3377380  83.0531216  66.4025736  40.6813955 106.1512661
  65.9614420  40.1506281 106.8145370  65.8703232  40.5711269 105.3633690
 115.0947285  82.0185184  90.0543404 115.9553146  81.5998650  90.0729656
 115.2389145  82.8417492  89.5877266  89.4789219  89.5735931  44.2592478
  89.9653053  89.5432568  43.4353924  89.5090485  90.4936981  44.5214319
  63.8736105 101.9808483  80.3007030  63.5526848 101.0800552  80.3432560
  64.1860437 102.0815659  79.4015503  43.2811022  97.4597549  15.3530160
  42.6065969  96.9427681  15.7934800  44.0488863  97.3842239  15.9196130
  45.5660772 106.2104130   7.8322545  45.0457191 106.7242718   7.2146741
  46.1177588 105.6576824   7.2787420  66.5640354  68.7393856 101.4883709
  66.6264153  68.5238743 102.4189091  67.3592472  69.2394495 101.3045025
  91.8338776  56.1505222  38.2164613  91.6925049  55.6782913  37.3959485
  91.1411190  56.8107939  38.2352296  81.4821148  32.9852724  63.9228868
  81.7433643  33.4884572  64.6941137  80.5902004  32.6965141  64.1161489
  97.9282856  73.0410242  74.8304892  98.1376457  73.9552689  74.6392918
  97.8768349  73.0017614  75.7854986  50.3577709 115.2465916   1.6109124
  50.0973654 116.1400414   1.3869134  49.9637842 114.7039223   0.9279004
  97.2835445  87.2314835  99.5399952  97.2195721  88.1786251  99.4172287
  97.5420570  87.1255589 100.4555225 108.9577293  73.9814138  68.0805969
 109.7862816  73.7165403  67.6811361 109.1628456  74.0877008  69.0094995
  62.8204250 110.8671474   6.2794534  62.5952053 109.9823666   6.5669862
  63.7222528 110.9926605   6.5747300  53.1966734  93.3850288 103.9344501
  53.5345554  93.1055641 104.7853088  52.9013443  92.5760841 103.5165787
 106.3443470  65.8048201  38.6762142 106.5515232  65.9204578  37.7488875
 106.5053654  64.8762321  38.8436198  79.3947172  89.6829414 101.1001301
  78.7356186  89.7860241 101.7865658  80.2307987  89.7046185 101.5656757
  97.6052284  63.7768936   2.8576032  97.8641319  63.3235550   2.0553056
  98.2376194  64.4901800   2.9443971  92.3748112  67.9935360  14.2379896
  91.6007614  68.2808828  14.7222558  92.1741772  68.1954050  13.3240835
  46.2682772 115.6476307  88.9280510  46.1827612 115.9575462  89.8296452
  47.0989990 115.1722431  88.9159679 118.5405827  89.2418575  78.8315535
 118.2469845  88.5235500  78.2711315 119.3564892  88.9251423  79.2191362
  93.8286209  81.5535545  10.0277273  94.0382862  81.4264679  10.9529916
  93.8025570  82.5038910   9.9163858 102.5160694  71.4197302 105.7155609
 102.0695210  71.6921711 106.5171814 101.8188953  71.3562918 105.0627518
  68.0888128  89.8933125  65.6804609  69.0313101  90.0103092  65.7998323
  67.7154207  90.0584126  66.5462255  67.8367519 102.4527740  82.2049999
  66.8833733 102.4059391  82.1335506  68.1472254 102.4073505  81.3006878
  50.5405712  55.8556747  99.4106579  50.1419497  55.3040648 100.0837612
  49.9638367  56.6174221  99.3527699  65.3617096  86.2661648   4.6048585
  65.4773617  85.3622627   4.8978082  64.4276905  86.3363552   4.4075815
  46.8815374  76.8897533  94.3095398  45.9405899  77.0277214  94.2008114
  47.0746899  76.1217070  93.7719250  90.4976654 117.1124840  89.6287060
  90.9443665 116.2803841  89.7845840  90.1574230 117.0383263  88.7370968
  80.7257175  99.2055988   0.7804910  79.9831676  98.6534500   0.5355779
  81.1916924  99.3587494  -0.0414809  85.7397556 101.0018349  79.3310690
  85.2984238 101.0243511  80.1801586  86.6716290 101.0514069  79.5441008
  66.6710663  79.3356466  24.3490926  67.5761986  79.0736294  24.1808168
  66.1808777  78.5135078  24.3549768  83.2449341  64.7012615  97.0111084
  82.8895378  64.2662382  97.7861404  83.7520123  65.4345894  97.3594475
  95.9637165  67.1902847   3.8061277  96.0195637  66.2380409   3.8857976
  96.7635536  67.5127029   4.2215101 110.6563950  80.6352711  17.5559560
 111.4543343  80.6423664  18.0846158 110.5705833  81.5346527  17.2397462
  81.6805935  69.7516584   4.8957387  81.1395645  69.5273352   5.6528417
  81.3440990  69.2005062   4.1891710  90.7398224 109.8210621  12.4500505
  91.2101841 109.0067005  12.6283876  90.9696102 110.3952885  13.1805841
  88.7001610 134.0427494  32.2807542  88.5340214 133.2872868  32.8445855
  89.6189404 133.9548302  32.0270864  90.9589672  60.0105762  16.3692228
  91.4952564  60.8033371  16.3816491  90.0712013  60.3246355  16.1975805
  88.3705997  72.8133011   7.0635930  88.2089520  73.2262516   6.2153188
  89.3208885  72.8520679   7.1716539  80.1827908  94.4687462  92.9960537
  80.9914017  94.7051334  93.4504700  79.7872925  93.7930965  93.5467815
  95.9595871  95.0596523  13.3247510  96.7269707  94.5772266  13.0171434
  95.5635166  94.4863892  13.9810506  46.7408133  81.0278320  95.2852726
  47.1937418  81.1698341  94.4540501  46.3760281  80.1459408  95.2116585
 108.4996414  68.1068611  82.5579834 108.5791111  67.9162455  81.6233253
 108.6137390  67.2583389  82.9860210 105.8154583  48.7886095 101.9045544
 105.5287170  47.8756905 101.9288635 105.4673290  49.1271114 101.0796547
 111.5206051  99.3995667  87.4460602 111.2236309  98.5366535  87.7348614
 111.4407063  99.3736267  86.4925480  81.1922836  50.9447622   2.6871053
  81.4872742  51.7707539   3.0704633  81.8606567  50.3094196   2.9437009
  46.4135218  82.0152283  18.3348981  46.2914801  82.5984287  19.0840379
  46.7928839  81.2202644  18.7095300  67.3975849  81.5250015   0.7594243
  66.5412569  81.8702316   0.5069200  67.4416065  80.6647682   0.3419439
 100.1879311 112.6374817  57.2934961  99.5933151 113.3852100  57.3532867
 100.0722122 112.1725845  58.1221771  64.0724897  87.4031353   2.1004049
  63.3737326  87.2761536   2.7421609  64.8324871  87.6615715   2.6217977
 105.2899647  53.7592697   7.2301618 104.4127655  53.9987612   6.9311849
 105.2792835  52.8026581   7.2620241  54.5275164 113.5346317  72.8505325
  54.6996593 113.5062981  73.7916994  53.5739565 113.5833454  72.7828217
  57.1716261  54.8510790  92.1279621  57.1068907  55.6754303  92.6101208
  56.8681765  54.1870546  92.7470112  79.5702076  81.6224575   1.1649553
  79.5874405  82.5792599   1.1863748  80.3123951  81.3573074   1.7081777
  99.0012741  85.7465172  88.2532215  99.8793507  85.3741169  88.1724262
  99.1489506  86.6850090  88.3700562  56.9680262  84.3887138  86.6649342
  56.8028212  84.0381813  87.5401783  57.8368664  84.0593052  86.4350605
  55.7004309  96.4257050  81.3267136  56.4973307  95.9162807  81.1795235
  55.7555103  97.1440029  80.6964397  62.0522261  55.5192947  86.5686893
  61.8008137  54.7318125  87.0512867  62.8486538  55.8230495  87.0042038
  86.6558266  75.2476740  77.2072792  86.4690876  75.2398014  78.1460524
  85.8800507  75.6454563  76.8120813  37.8012133  91.5230656 101.4729786
  37.8678608  91.1190510 100.6077862  36.9261885  91.2868786 101.7808437
   4.3861037  78.7132740  75.9076500   4.1979151  78.0632544  75.2306747
   4.1064673  78.2975149  76.7232370  68.5605192  96.5979481  89.5334911
  67.8546476  96.4132214  90.1530457  69.3526268  96.6138458  90.0706482
  54.3038464  89.4953346  68.8721371  55.2545023  89.3836403  68.8688087
  53.9588976  88.6087513  68.9780569  88.7065125 109.8252106  67.3820877
  89.1354179 110.6168747  67.0572138  88.1714058 109.5241737  66.6477394
  84.0855980  94.6390247  99.5003128  84.4658089  94.5838070  98.6236000
  84.4662094  93.8990974  99.9734688 100.3211403  76.3458920  18.2099954
 100.0296593  77.1057987  17.7062074 100.5075169  76.6938066  19.0820352
  65.0187826  56.7709064   7.4520341  64.4677114  57.3278713   8.0018846
  64.8425722  55.8816385   7.7592603  55.7984447  80.6491375  86.3385868
  56.5016079  81.0281658  86.8659687  55.1367474  80.3833485  86.9771290
 114.6944809  73.5125875  67.2403526 115.4944992  73.1212616  66.8895435
 114.1952610  72.7710533  67.5826073 105.1281738  97.8981781  25.4844356
 105.3853130  98.8006115  25.2954221 104.8481846  97.5468731  24.6391988
  65.5597353  78.7312651  77.7901316  66.4518356  78.4918404  77.5390100
  65.4070187  78.2604599  78.6094332  81.2644291  78.7032223  84.0703392
  81.4742851  78.8739586  83.1521606  82.0760727  78.3568478  84.4411278
 100.8630943  89.4731426 100.2699566 101.7833328  89.7365856 100.2704811
 100.8875561  88.5173416 100.3156567   2.2124892  51.6719103  97.4082184
   2.2468501  52.4790192  97.9216576   2.4278670  50.9804964  98.0341530
  45.6195498 102.0453930  86.6740513  44.6736288 102.1749306  86.7425156
  45.9205818 101.9942474  87.5812435  69.7603989  67.0344067 102.4837303
  70.2355337  67.0288944 103.3146572  69.3233967  66.1833763 102.4520493
 105.1784134  77.2184420  76.3409472 105.9650612  77.0714188  75.8157825
 104.7472382  77.9638338  75.9229660  86.0820770  97.7530289  60.8075762
  85.4681873  98.4873772  60.8179140  86.9456100  98.1633759  60.7610035
  76.0641623  56.7788315 100.0638866  77.0114470  56.8333244 100.1900482
  75.7028866  57.4092722 100.6869888  69.0734482  71.9703007   0.2858106
  69.8709917  72.3061800   0.6948797  69.2675734  71.9683218  -0.6514891
  43.0925751  89.4123459 103.2819748  43.6571121  89.3314075 102.5132275
  42.8913975  88.5093212 103.5275459 105.9852982  68.3173656  64.1337252
 106.7057133  68.4434748  63.5162115 105.2072716  68.2400560  63.5815239
 100.5578613  87.0549297  79.5312309 100.1916409  86.6870308  78.7270164
 100.7709980  87.9602814  79.3050861 109.2603111 125.5714512  89.2630672
 109.5612335 124.9507427  88.5994434 108.4192371 125.8867168  88.9322567
  91.4038086  94.2999935  43.5155773  90.7599545  94.9887466  43.6808491
  92.2353172  94.6747112  43.8061094  55.8477020  48.7315369  91.2544155
  56.1006260  48.5286474  92.1550274  55.6478930  49.6675634  91.2668419
  85.9265518  56.3249588  52.5561762  86.1366081  56.9406033  53.2583809
  86.5627861  56.5202093  51.8681908 101.8465519  56.8502283  64.7577190
 102.1934032  57.7212095  64.9508858 101.4863682  56.5457153  65.5906487
  38.5814381  53.0879974 104.0139198  39.4126272  52.9609776 103.5565090
  37.9291058  52.6833773 103.4420967 116.4316940  73.1522894  71.9415140
 115.4944420  73.2156754  72.1253252 116.8279266  73.8390160  72.4778318
  74.2738485  77.9519606  90.5623722  75.2199650  78.0116892  90.6947899
  73.9246845  77.7305079  91.4256668  43.2523203 100.6059170  69.2455721
  42.4880266 100.6729603  69.8179245  43.5431528 101.5101814  69.1274595
  43.4129667  97.5627518  71.1641979  43.8405180  97.8660774  70.3633022
  44.1344833  97.3055935  71.7382336  63.1716633  71.7052698  75.7648945
  62.5249672  72.3531628  76.0446405  62.8672791  70.8823729  76.1475420
  89.8730373 101.7087841  72.9888964  90.7287598 101.4112282  72.6799631
  89.2472744 101.1254406  72.5595284  52.9806948  86.4641094 101.7863846
  53.7303257  87.0398331 101.6352940  53.3479834  85.7076931 102.2437286
  78.0960703  77.5313807  92.8352261  77.4280310  77.9490423  93.3788300
  77.9396343  76.5931225  92.9421139  71.7103338  78.7050915  86.9242954
  71.4144516  77.9085398  87.3649597  70.9038353  79.1742659  86.7105961
  72.9096889  48.9833307  85.9163189  72.5837898  48.6245823  86.7417431
  73.6393881  49.5476294  86.1719322  98.0521107  64.6331167 101.0627079
  97.8217793  63.8869047 100.5092239  98.6661720  64.2752409 101.7038631
  76.4863443 109.9235535  65.9208822  77.1703291 110.5411625  66.1796427
  76.5939951 109.1830444  66.5177822  63.7375927  76.3279200  78.1614447
  63.6995888  76.5001154  77.2206259  64.0612316  75.4295301  78.2276249
  85.8652496 129.1358089  93.2117367  85.5685234 128.8041019  92.3643017
  86.2304115 128.3696270  93.6543083  77.5136566 114.1977978  33.6444807
  76.7973518 113.8158798  34.1517019  77.0797491 114.7626019  33.0049825
  58.4449673 104.2060184  97.8059864  59.1047525 103.7565422  98.3340836
  58.8763905 104.3624020  96.9659615  88.6618996 101.4726639  52.7876091
  89.4590569 101.2492752  52.3071098  88.7369251 102.4126053  52.9522324
  86.3108730 109.1351891  94.1746426  85.9870434 108.7514782  93.3596992
  85.7143688 108.8070393  94.8474979   7.8269606  98.1091690  64.3159199
   8.0585795  97.1815586  64.2698097   8.1635123  98.3981895  65.1641130
 115.2029800  62.5960732  69.9747133 114.8215580  63.4710550  70.0465155
 115.6130695  62.4429703  70.8259583  50.3046465  82.5413513   7.6572172
  50.8574438  81.9344139   7.1649972  50.1310539  83.2569504   7.0456449
  80.5161190 102.5700283  73.6172819  80.5933475 103.1523609  74.3730307
  80.8536911 103.0837822  72.8835678  58.1780195  99.5800686  90.4009819
  58.8893270  99.0521240  90.0382805  57.9628754  99.1543198  91.2308502
  67.1866798  74.4470453  73.3264446  67.0509291  73.8209105  74.0376091
  66.3056803  74.7408247  73.0945587  78.8369226  71.1425161   0.5177823
  79.4555712  71.7142010   0.9724084  78.5389042  70.5295372   1.1898557
  79.1630507  69.4689369  90.6814194  78.6237621  69.1335726  91.3976192
  80.0197887  69.6241140  91.0790920  91.3707924 105.9484100  73.8092279
  91.2628651 106.5765858  74.5233536  90.6337166 105.3455925  73.9070702
  64.2862129  76.8430901  69.5262671  64.9113750  77.1722794  68.8804817
  64.5353127  75.9280157  69.6559572  68.7366343  98.1243896 107.1126461
  68.9380789  98.2614326 108.0383205  69.4522810  97.5764847 106.7903519
 102.1548653  51.8611526  87.7556992 101.6070461  51.6307783  88.5060692
 102.9427528  52.2429514  88.1425953  85.2960682 113.5542202  78.1761074
  85.4040527 112.6423931  77.9056644  86.1710358 113.8275242  78.4517336
  86.9554329  66.0665512  79.3320513  87.8503990  65.7591200  79.4761276
  86.4412403  65.6352615  80.0145626  66.7973900  62.1799898   4.5209543
  66.9602442  62.4992704   3.6333886  66.6677761  61.2373877   4.4163934
  77.4421835  73.5471773  79.9739218  76.7502022  72.9604340  80.2790928
  78.2389927  73.0181742  80.0123405  65.4797888  59.6215153  93.1243515
  65.2122116  59.9892282  93.9666176  64.7616100  59.0383816  92.8785801
 107.6094055  72.5082111  88.4560204 107.6037884  72.0239162  87.6303959
 106.9520760  73.1936073  88.3361340  97.5128269 106.8810844  41.9538498
  97.7153683 105.9899330  41.6691208  98.1388283 107.0561218  42.6564980
  73.3661842  79.6086502  73.5907507  72.4742031  79.6154213  73.9379692
  73.3643436  80.2841377  72.9125547 110.4554367  36.6765070  76.7925882
 110.0202847  36.3501668  77.5802279 111.2060452  36.0942817  76.6749763
 110.1643372  89.5589733  72.7518225 109.8702526  89.9344826  73.5817242
 109.8822117  90.1902962  72.0899487 101.8157482  72.2895479  88.9846706
 101.4464760  71.5205145  88.5505581 101.4856720  73.0318880  88.4785080
  91.9768715  79.1333818  78.8442278  91.4687157  79.1967440  78.0355215
  91.3466358  78.8360071  79.5004272  79.6272850  74.1356754  83.8017941
  79.2094517  74.6513176  83.1120396  79.5743561  74.6898127  84.5804882
  93.3688068  70.0045776  86.5479660  93.0891228  69.6724701  85.6949043
  92.6326561  70.5359697  86.8511868   0.5433684  85.7284355  84.2726707
   0.0502997  86.5090084  84.0200329   1.4599257  86.0020065  84.2365551
  29.1071653 120.5657101  96.8844414  28.3406711 120.3340340  97.4088955
  28.9138508 121.4422512  96.5519714  83.1455135  81.4232635  11.8250886
  83.6980438  80.7288551  11.4662973  82.4077797  80.9609032  12.2228376
  78.6496782  76.8672657  72.8319836  77.9312420  77.0185232  72.2178125
  78.3755112  76.1020947  73.3375359  81.8726444  85.2149296 105.8089161
  81.2195969  84.5413113 105.9986401  82.0627117  85.6105900 106.6595364
  52.7787352  83.9681530  91.1499691  51.9668674  84.2068100  91.5973377
  53.0099678  83.1132698  91.5132046  95.3850842  83.1830788  44.7777557
  94.6341896  83.6544704  45.1385546  95.5866909  83.6420059  43.9622974
  74.0901041  82.3515511  80.5636215  74.1771555  81.4366436  80.2960396
  74.9787045  82.7029896  80.5078602  94.4229126  91.6983032  90.4469204
  93.7492371  92.3603821  90.6019783  93.9410877  90.8724880  90.4011250
  78.5559940 113.7085056  82.3180962  78.1300926 112.9188919  82.6517773
  79.4618702 113.4431553  82.1593285  80.7660484  63.4649134 102.4779415
  79.9131680  63.6210585 102.0724297  80.8683968  64.1816807 103.1040478
  71.7545462 128.2882404  89.2409611  70.9962273 128.7468243  89.6027374
  72.0358038 127.7003384  89.9420357  59.7541714  94.8125458  71.9631958
  60.3090858  94.1022873  72.2854376  60.0809002  95.5933857  72.4101496
  90.3715515  67.0918131 100.8903790  91.1834431  67.3118162 100.4335880
  89.7680473  66.8318033 100.1943874  86.7505646 109.1625786 103.9476871
  86.7549038 108.5047340 104.6429920  87.4269772 108.8699627 103.3368874
  91.5519238  80.5459023 105.1958179  91.1229324  80.6694984 104.3491077
  91.9219494  81.4037132 105.4043198 100.7699871 118.4134960  96.6166019
 101.5690899 118.7524891  96.2131882 100.6895828 118.9017963  97.4359512
 108.2114792  45.8782673  84.5805168 109.0825272  45.8202791  84.1879082
 107.6202488  45.5555344  83.9004326 101.6500282  58.1615448  67.6950932
 101.0656357  57.9107332  68.4105062 102.5191498  58.1913900  68.0950499
 117.3065186 106.1353016  63.4058332 117.5310326 105.5775166  64.1506147
 116.6279030 105.6485844  62.9380560  78.7392712  77.5463867  11.0947362
  78.3283377  77.6101971  11.9568769  78.2684231  76.8373013  10.6568662
  50.9285927  86.9839001  59.2142391  51.2536097  87.0579815  58.3169603
  50.1766396  86.3952446  59.1487694  86.9426918 145.9082317  87.5471592
  86.9271660 146.5839386  86.8693638  86.3764191 146.2499905  88.2390881
  93.6966133  72.4100828  69.3937111  93.0360031  72.3104095  68.7082291
  93.2061863  72.3326445  70.2120686 107.0672035  67.4875784  72.3596001
 107.0140743  68.0854321  73.1052446 107.4527359  68.0128813  71.6584206
 112.0978642  52.6876593  84.2869663 113.0537128  52.6387787  84.3010902
 111.9036102  53.4051895  83.6839390  46.3270664  87.9818344  95.2684307
  45.7212067  88.6909294  95.4837227  46.5989113  87.6330376  96.1173534
 108.4789467  66.4985609  79.9406576 109.3885803  66.4243364  79.6520472
 108.0608940  67.0465660  79.2764616  45.7529783 126.7234898  98.6714458
  45.0951958 126.5965652  97.9877472  45.2509022 126.7431450  99.4861603
  38.9452386  58.6582279  79.9226379  38.8129759  58.9281368  79.0138531
  38.1528521  58.1694746  80.1450729  62.3355198  98.2242775  92.4150467
  62.5331736  97.3585415  92.7723408  63.1495762  98.7172604  92.5175762
  51.2478971  88.7693977  97.2405243  50.7426929  88.2855701  96.5871525
  51.9645071  89.1650200  96.7443562  89.4203091  89.1524029  95.2310848
  90.0818729  89.5679665  94.6780205  89.7070694  88.2421303  95.3046703
  95.0069714  71.4095116  97.7825165  94.5094395  72.1375179  97.4101067
  95.8749008  71.4849043  97.3859692 106.9741917  81.0638237  99.1627598
 107.8041935  80.7192993  98.8331604 106.9117355  80.7245922 100.0556469
 110.8528137  61.9806862  85.1928043 111.6346931  62.3544216  85.5992794
 110.9418106  61.0368967  85.3253651  94.2680359  90.0056839  72.6763201
  93.5686970  90.2908993  73.2643747  94.6827984  90.8179474  72.3857546
  61.7623472  69.3350935  88.2875156  61.1087656  68.7256336  88.6304760
  62.5843525  69.0571451  88.6915874  69.6343040  75.3191948  93.5998344
  69.4164848  75.3193283  92.6677418  70.0548792  74.4720984  93.7473869
 101.7212391  98.7010288  40.0631857 101.6470814  99.0379047  40.9560728
 102.1037579  99.4237041  39.5655394  59.3513632 110.7720947  87.6029015
  59.3587685 109.9883461  88.1523705  60.0125933 111.3440609  87.9925919
  98.2674789  79.9321127 105.3492832  98.1157780  80.7213593 104.8293686
  97.5572014  79.9277878 105.9909344  91.5459919  71.7220211 102.1169281
  91.9434452  72.0945311 102.9040146  92.1048927  70.9769964 101.8960285
  95.7394981  51.6315794  67.9457235  95.9645367  51.9146395  68.8319874
  94.9415970  51.1142111  68.0548859   7.5046187  89.1691971  59.3810225
   7.7848178  88.7631512  60.2012968   8.3166533  89.4694805  58.9727926
  67.5971556  92.6551723  72.4669790  68.4155655  92.4462223  72.9172897
  67.8570795  93.2445621  71.7589617  93.3807468  77.7497387  83.3811378
  93.8567543  77.4945641  84.1714096  93.9663124  77.5130224  82.6618958
  28.2001328 108.6897469  67.4895048  28.7605286 108.6964607  66.7135286
  27.3184252 108.5432243  67.1469355  78.4475231  98.9569092  60.0302839
  77.5719023  98.5703754  60.0199270  78.3671999  99.7165298  60.6071281
  74.4320965  94.0844440 104.4655514  74.3264198  95.0348854 104.5070744
  74.7241926  93.8373661 105.3429699  60.5013800  92.0952988  80.9595013
  61.0915947  91.8267822  80.2553844  60.6362772  91.4430046  81.6469288
  51.6613865  87.1578598   0.9046689  52.2299290  87.6814842   1.4693109
  52.2636414  86.6169834   0.3938142  84.8004627  81.5812778  97.7479362
  85.4954147  81.0539246  98.1418514  84.0058708  81.0624599  97.8731918
  85.8246040  75.4433775  79.9781322  86.2575340  74.5896816  79.9767494
  84.9319077  75.2587509  80.2700901 115.7983875  91.7967510   4.7777597
 115.0870895  91.1683178   4.6538583 115.4299831  92.6340866   4.4960061
  69.3093920 114.0380478  74.3282175  69.2702723 113.3607674  75.0034952
  69.6034670 114.8220253  74.7920418  54.3906975  67.6557350  92.3040771
  54.0260029  68.2431078  91.6420937  53.7276220  66.9736528  92.4104881
  91.3479614  68.4547091 103.6837006  90.3934574  68.4554195 103.6119080
  91.6366291  69.1072273 103.0456352  63.3669806 104.4249916  81.5007019
  63.5437584 103.6492157  80.9685802  64.1811991 104.5769691  81.9804764
  98.4992313  70.0491762  72.8840923  99.0462399  70.2201653  72.1174240
  97.6077080  70.0086355  72.5379992  93.1518364  85.2824974  64.1766071
  93.7051868  84.7063923  64.7040033  92.2663307  85.1333332  64.5080423
  80.9676266  96.4723206  74.7819233  81.2768650  97.0006752  74.0460920
  80.0446224  96.3087749  74.5881557  65.4463243  67.2533703  69.2909813
  64.8640251  66.4969349  69.2205048  66.2414074  66.9066858  69.6958017
  96.8780422  84.8864937  89.7294712  96.3509464  84.2929935  89.1945267
  97.5333691  85.2353668  89.1252518 100.3316021 110.3263855  83.1271553
 100.6153297 109.6819496  82.4787521  99.9900150 109.8025894  83.8518524
  69.3301058  69.1757727  98.1405067  69.0384150  69.7587872  98.8413906
  68.5961771  69.1535664  97.5264359  57.4173212  59.3263102  15.4965440
  57.6041126  58.5668373  14.9446813  56.4845181  59.2522907  15.6981126
  61.5198517 101.9690895  77.6019239  61.5644598 101.4822578  76.7789793
  61.9031858 102.8218555  77.3968172  66.6225958  63.3236313 101.1199093
  67.5783539  63.3659267 101.1510372  66.4336634  62.6628733 100.4536247
  76.7873430  94.3474197  80.8506584  76.3681746  93.5456181  81.1631298
  77.6724815  94.0759087  80.6076527  79.1299772  93.8033676  76.7555761
  78.3049440  93.3900928  77.0100641  78.9407206  94.2174530  75.9135866
  49.7672558 100.7285595  86.6550827  49.8630285 101.2020874  85.8287430
  48.9115715 100.3044796  86.5903282  62.1140575 106.6662407  13.7861291
  61.4199495 106.0837269  13.4777299  62.6809978 106.1044884  14.3145696
  79.1137123  58.0467033   1.4332620  79.6598816  58.1947803   2.2052804
  79.5217943  57.3027468   0.9902898  85.5883694  47.6203442  77.6057863
  85.3090096  46.9152832  78.1898069  84.9142075  48.2929182  77.7027273
  58.2794189  76.2894297   4.9317876  58.7288618  77.1158409   5.1086370
  57.6689625  76.4954948   4.2238942 112.0952034 112.5688457  88.9391327
 111.6544533 112.4359322  89.7783566 112.8759384 113.0781174  89.1566372
  92.7607536  63.1920338  91.7191219  92.7491856  63.9645147  92.2842407
  93.3502197  62.5808477  92.1609497 100.5021572  62.9031897  73.0611753
 100.2895546  62.4609756  73.8830519 100.3913784  62.2289705  72.3908091
 107.7211666  83.0351448 104.3181038 107.5001526  82.1069050 104.3938637
 107.2301388  83.4566116 105.0234413  61.8247890  48.8857460  82.0716763
  62.3083496  49.6901608  81.8837643  61.4928102  49.0080738  82.9610920
  78.6600828  71.3693857  83.8823318  79.1692924  72.1578550  84.0700912
  78.9612675  71.0899878  83.0177784  79.9917555  75.1069021  76.7758512
  79.3326616  75.3043842  76.1103916  80.5474567  74.4402313  76.3721371
  54.6468639  81.6816521  66.9223404  55.4810381  82.1202374  67.0897532
  53.9837170  82.3193169  67.1866322  91.2901497  67.5429630  55.3342104
  90.9348583  67.3173332  56.1939144  92.2051144  67.2643852  55.3725433
 100.4627323 119.4548893  56.1996460 100.6753635 118.5405540  56.3867188
 101.3030624 119.9107647  56.2470961  64.3394613  93.2672024  86.4599228
  63.5261250  93.1799221  85.9628391  64.4160175  94.2058659  86.6310596
  96.1045074  57.1078777  54.1539526  96.7366695  56.8857670  54.8375225
  95.7273769  57.9405737  54.4378996  70.8967972  95.4875374  84.0274811
  70.4914808  96.2637329  83.6408615  71.7401314  95.4103184  83.5813141
  90.5493641  73.1131840  68.6443520  90.1132870  73.3359909  67.8219032
  90.9520817  73.9326620  68.9315796  69.9052382 117.9571533  49.1729832
  69.1862679 117.3577595  49.3730879  69.8145103 118.1360054  48.2370281
  89.4759560  63.0123377  64.8878670  90.1977444  62.3840189  64.8660755
  88.8626289  62.6504660  65.5274820  76.9685078  67.5034666 107.7326965
  77.1726990  66.7580795 108.2974434  76.0137558  67.4978304 107.6644993
 107.5443268  55.6748343  84.8534870 107.5405121  55.3115034  83.9679337
 108.0950546  56.4551401  84.7898483  85.6838226  91.5428925  67.5391245
  84.8461914  91.8967056  67.2400904  85.4448986  90.8321285  68.1340694
  82.0149040  85.1207542  68.0761576  82.2409534  85.9651375  67.6860952
  82.7590752  84.9106503  68.6403418  74.7877645 105.4115868  59.1981077
  74.2035389 105.4559040  59.9550438  75.0271416 104.4870186  59.1341066
  90.5997658  85.5461216  65.8307600  90.2072716  84.6810722  65.9485245
  90.1723003  85.8988476  65.0503159  15.0501853  85.1730824  97.5353146
  14.4184142  85.8201122  97.2215462  14.5121604  84.4684982  97.8963280
  73.7236071  93.8070869  75.5169392  74.6345377  93.5622406  75.3541994
  73.2111597  93.1499386  75.0460005 106.1221886  68.5873556  83.9875412
 106.0668755  68.2137489  84.8670769 107.0532608  68.5483170  83.7688637
  93.0580139 106.6606045  50.8662701  93.6108875 107.3424530  51.2479210
  93.1252098 106.7987156  49.9214745  71.9421911  91.6175079  80.8002090
  72.7693844  91.6638565  80.3208065  71.8228674  90.6854248  80.9824371
  78.1535721  47.5227404 101.9184208  78.8824749  48.1271887 101.7785072
  77.4122763  48.0877924 102.1362019 112.5876141  65.4971504  10.8595601
 113.5348797  65.3918886  10.9480420 112.2174740  64.8326731  11.4406911
  81.5204906  50.9647512  85.9423733  81.7094517  51.7200613  86.4991760
  82.1036148  50.2775908  86.2648773  81.8171120  89.3789482  72.9732323
  81.5112877  89.1154480  73.8411427  81.9118786  88.5564995  72.4927759
  99.4918156 113.7099361 104.9098396  98.7809277 113.0714226 104.9661732
  99.7039795 113.9131546 105.8208370  66.7293358  54.6990585  11.7729036
  66.4913368  53.7762451  11.8623391  67.5438786  54.6887064  11.2702600
 100.8055115  63.5263491   5.0939504 101.5652657  63.7110329   4.5417825
 100.4581738  64.3892288   5.3198377  84.3187428  96.5174866 104.2753983
  83.9344692  95.9486103 103.6083508  84.2049026  96.0363293 105.0950146
  82.7976608  58.4191513  78.7493324  81.9336987  58.6059189  79.1166592
  83.2589436  59.2571497  78.7840605   3.0035906 106.0148811  49.1907310
   3.6916380 105.3814602  48.9867735   2.7438479 105.8057785  50.0879717
 102.8274155 129.4335175  78.3909225 103.5148716 130.0139332  78.0642080
 102.0117760 129.8389244  78.0966234  69.2465305 107.7121449  16.0004083
  69.2309999 106.7660141  16.1447088  68.3239603 107.9664421  15.9797040
  57.2091198  87.7947807  54.0523767  57.6231956  88.3134174  53.3626032
  56.3921642  88.2563877  54.2414093  77.2270966  63.7541580   1.8676034
  78.0109692  63.6673117   2.4100343  76.5545273  64.0751886   2.4682943
  67.5763226  31.1448336  97.9380417  68.4022665  30.6892538  98.1008244
  67.3303843  31.5064287  98.7895012  87.4327183  81.0022068  93.2881069
  86.8144131  80.9976959  92.5574207  87.9054642  81.8294907  93.1967258
  54.6715307 100.4419041  58.3944178  54.0830374  99.7210693  58.6187172
  55.1671219 100.6050587  59.1969156  50.7685804  99.0198517  99.5533180
  51.0141563  99.9442101  99.5148849  50.0741673  98.9291859  98.9007854
  69.7568989  46.9814444  83.4762859  70.4107523  46.8428326  82.7910900
  69.0249681  47.4040508  83.0269337 108.4378624  68.2959175  67.4111795
 107.5426865  68.1278610  67.1168280 108.8455772  68.7642574  66.6827106
 113.4074593  67.0765972  81.9127655 113.0325985  67.9319191  81.7026806
 113.2374859  66.5433407  81.1362457  91.1290359  81.5302277  94.5897579
  91.4084244  82.3045158  95.0782776  90.8765030  81.8675137  93.7302876
  26.4141178  87.9329681  53.5828781  25.8980107  88.7370300  53.6407804
  26.7900252  87.9524994  52.7027988  54.7385025  95.1218891  84.8018456
  55.5931044  95.3457832  85.1702976  54.1226721  95.6930447  85.2609348
  76.1673498  61.1777210  69.9477053  76.8235636  60.5829620  69.5845604
  76.3156080  62.0057011  69.4908714 116.7253494  40.8712626  94.4794178
 117.5074291  40.9004831  95.0305367 116.0518646  41.3141394  94.9956703
  91.8967342  57.1686125  69.9459839  91.7900658  56.2176561  69.9690151
  91.8239784  57.3954105  69.0188932 113.2822895  70.5848646  66.7242956
 113.1738949  70.4294538  65.7860327 112.4738026  70.2552652  67.1166420
  85.2178669  53.2261467  55.6080484  84.5850182  52.5082636  55.6277275
  85.0276661  53.7347794  56.3963032  89.5470715  86.3397503  48.9675188
  89.8424530  86.5923405  49.8422670  90.0069332  86.9370937  48.3776569
  85.0141144  67.4503946  88.8059807  84.1389179  67.0783663  88.6970806
  85.6083488  66.7256975  88.6112595 103.3171654 108.1882000  88.4423923
 103.7171936 108.0767822  87.5799561 104.0107155 107.9560375  89.0599060
  99.7283554  70.9367418  76.2923384 100.1746464  71.5329790  76.8936348
  99.6223354  71.4435148  75.4872465  56.5852594  64.3845272  87.4896526
  57.2452354  63.6914968  87.5088978  55.7499456  63.9216661  87.5547504
  97.4841690  90.9877777  56.8651676  98.0319977  90.9012127  56.0850286
  96.9386005  90.2012730  56.8631935  70.5549288  90.4878998  66.7890930
  71.4265203  90.7260799  66.4731359  70.7087183  90.1128960  67.6562452
  76.1039639  97.4329376  60.3939915  75.6284523  97.8417206  61.1171961
  75.7702446  96.5362930  60.3643799  55.5001831  60.9804296  75.0578690
  55.1428270  60.5419636  75.8300591  56.0315990  60.3110790  74.6268320
  90.5928326  78.1891251  60.2273941  90.0574207  78.8110304  59.7346497
  90.2131462  78.1897926  61.1060715 101.0483551 107.6661205  76.8813658
 100.9212017 107.3067951  76.0033274 101.9498539 107.9878902  76.8802404
  75.4193735  84.4260788  61.7065334  75.9883165  84.0064144  62.3518372
  75.7064152  84.0691280  60.8660412  81.5267944  81.4008904  55.4303980
  80.9234428  80.7019138  55.1781416  82.3470211  81.1801147  54.9891329
  56.3541079  95.7952404  94.8699474  56.0073519  96.3622093  95.5588150
  56.3290930  94.9162197  95.2480221  71.5169668  78.8938713  91.9519329
  70.8026171  79.0512466  92.5693226  72.0932722  78.2779455  92.4044132
  78.4059143  81.8156815  60.9936237  79.0788460  81.3711452  60.4780817
  77.9969072  81.1181736  61.5058947  61.0537720  81.9433975  65.0834513
  60.4915714  81.5637779  64.4081354  60.8601332  82.8804493  65.0573969
 120.2591228  62.5471354 105.5412388 120.8900928  61.8300056 105.6031036
 120.7813549  63.3379364 105.6759167  74.8606110 109.3061543  73.9325094
  74.8450279 110.0542831  73.3356094  74.5208693 108.5778141  73.4125900
  94.2322540  87.4285221  66.0578108  93.7728214  86.9138622  65.3942776
  95.0816059  86.9968510  66.1500549  62.8693199  71.7098045  88.1953621
  62.5700045  70.8045721  88.1105423  62.3807621  72.1874189  87.5249672
  89.3568039  88.7650299  65.1223040  88.9192295  88.7713718  65.9736109
  89.0207291  87.9820824  64.6860886  40.0583124 100.5465603  68.5274315
  40.4344606  99.9725628  67.8601408  40.2206326 101.4316654  68.2011366
 106.7758179  94.2562389  48.9035654 107.4558353  94.8436260  49.2333746
 105.9811687  94.5280457  49.3627834  89.7328377 118.6833286  50.3470945
  89.6777821 118.3870029  49.4385862  88.8544750 119.0068817  50.5471373
  95.7829762  84.9709797  53.0748558  95.7758713  85.8718586  52.7514458
  96.4232635  84.9769688  53.7863588  64.2468643  89.9046135  56.9384098
  64.8322392  89.2913055  57.3827267  64.8024416  90.6544209  56.7254448
  67.7500343  70.0745296  81.0720348  67.7119827  69.1410303  80.8638000
  67.5741577  70.1176214  82.0119572  82.2547150  86.7937469  63.7286234
  81.6743755  87.5490761  63.8230371  81.9663811  86.3697243  62.9203510
 101.0033607  67.2769785  51.8897486 101.6705418  67.8143787  52.3167038
 101.4982128  66.5866375  51.4484119  92.0379639 113.2377052  53.6162949
  92.8413010 113.7256241  53.4351587  91.4499950 113.8821507  54.0102720
  97.1461105  90.1750183  32.2086120  97.9789257  89.7064400  32.1530437
  97.3768520  91.0920238  32.0599508 106.8176270 115.9226608  80.3333664
 107.6312637 115.7924366  80.8204746 106.1808014 116.1872959  80.9971809
  68.4963608  70.1470613  71.0585737  67.7027369  69.6612120  70.8341932
  68.2060385  70.7982016  71.6972876  82.5343513  85.4321480  55.9761190
  83.0051041  85.4480267  56.8094063  82.9101944  86.1558247  55.4748678
  88.7201595  81.4188385  78.3551788  89.3147182  82.0437717  78.7701416
  87.9348373  81.9296169  78.1586885  35.9882736 122.0252895  59.6052742
  36.6877890 121.4745522  59.2537069  36.0023499 122.8096104  59.0567541
  66.6841030  99.9546337  51.2295055  67.6207781 100.0647640  51.0659885
  66.6226625  99.1427422  51.7327929 107.6875401  81.3591290  45.7585907
 106.9567204  80.8730412  45.3766823 107.8799534  82.0443630  45.1185417
  71.4513063  98.7061596  74.2680597  72.1420956  99.2121410  74.6958685
  70.6698132  99.2532063  74.3470383  30.4373980 109.7478485  54.4979477
  29.9252343 109.1973877  53.9055729  31.3414431 109.6418953  54.2017889
  86.5463543  90.0071716  43.3657312  87.4256516  90.0482178  43.7417459
  85.9652805  89.9337959  44.1228342  84.6243191  80.8044624  61.9618750
  84.2987347  81.6500092  62.2705460  84.9012947  80.9690189  61.0605192
  77.7703667  96.8924236  65.8469296  78.0408621  96.0728264  66.2608242
  78.5697365  97.4177265  65.8108044 107.1245670  85.4125595  66.9627142
 107.5370693  85.0499821  66.1787367 106.6308212  86.1687946  66.6456079
  91.9724274  82.2154903  89.4041157  92.5674629  82.9086781  89.1183662
  91.8721104  81.6539860  88.6354351  79.1927147  86.6237640  94.0257549
  79.8015118  86.0456467  93.5660076  79.7452259  87.3206520  94.3797493
  77.9867744  90.6177616  58.1752920  77.6687431  89.7150421  58.1613064
  78.9225340  90.5391788  58.3607769  73.2622719  82.4993896  91.2890434
  72.9190826  83.1292248  91.9228935  72.6268530  81.7835426  91.2946224
 111.7202854 102.0759392  56.8523169 112.6755047 102.1360970  56.8652487
 111.4228535 102.9856968  56.8621302  80.6709194 109.4887829  76.2591648
  80.3691673 108.5826588  76.3234043  79.9145269 110.0124264  76.5235424
 101.2448215  67.4612236  80.8928967 100.3439617  67.3057318  80.6091595
 101.7592144  67.4271631  80.0863838  87.1891308  89.0092659 101.0621166
  87.3663521  88.4636211 101.8283463  88.0241203  89.4384193 100.8753967
 100.1171875  80.8969402  47.4720335 100.0998497  80.3222370  46.7067623
  99.5627785  81.6379833  47.2276640  45.1166248  70.2530432  64.3337727
  44.2616558  69.9512529  64.0268898  44.9234867  70.7541275  65.1261377
  72.0307970  67.2257519  78.7777948  72.2713661  68.0355692  78.3277273
  71.4733124  67.5106668  79.5018578  74.8111916 118.2258987  76.3784266
  74.4745588 117.3659897  76.1265278  74.0700483 118.6584091  76.8025398
  74.9728298  72.2910118  85.8302975  75.3124857  72.6097012  84.9940586
  75.4886627  72.7540255  86.4904213  58.6202955 102.4552345  71.9677258
  58.2709169 102.6455307  72.8383303  58.3721781 101.5454292  71.8036842
  93.6766148  97.6572704  56.0185623  93.1791401  98.4397697  56.2561274
  93.3146954  96.9659042  56.5728855  80.0134277  60.8600330 105.3684616
  80.1149940  61.8115902 105.3471184  80.1621628  60.6237602 106.2840366
 106.6869926  74.2296791  37.3535609 107.3527241  74.5561647  37.9589009
 106.6508865  74.8878956  36.6595316  82.7143764  93.8669109  86.3191986
  82.2789669  93.0238056  86.4449787  83.4608269  93.6689758  85.7536411
  86.7461205  86.6593933  77.1085596  86.6975880  86.1930370  77.9430580
  85.8351326  86.8575382  76.8915796  83.4850025  78.0061722  69.0195608
  84.1628265  77.7574205  68.3911419  83.9638138  78.4235430  69.7356367
  93.7804508  75.5004692  79.9205923  93.3030319  75.9132576  79.2009354
  94.4246960  76.1560440  80.1877975  79.7025299  88.6660385  52.8612471
  80.5455112  89.1169548  52.8134775  79.7311354  88.1921864  53.6924362
 103.3630085 119.7495365  81.8861485 102.5716782 119.9632454  81.3918209
 104.0162373 120.3762817  81.5751743  81.7609882  78.2684469  52.3744488
  81.7971611  77.7022409  53.1453800  81.3453960  77.7299023  51.7010355
  98.0662632  95.5471992  84.9093628  97.9874516  95.8351135  85.8188248
  98.8123226  96.0390186  84.5662308  93.2933235 104.9285984  38.9985132
  92.9965210 104.0539742  39.2498732  93.8191509 104.7860909  38.2114768
  69.1255856  72.3797321  68.2860088  69.6832705  72.5073957  69.0534210
  69.6927547  71.9484091  67.6468515 108.0494690  55.3643608  29.4886184
 107.8200340  56.2875986  29.5945716 108.0299759  55.0092077  30.3772783
  90.6631184  94.6730995  54.6184254  90.6388092  95.4511642  55.1754284
  89.8503685  94.7138691  54.1144276  90.6232166 108.2252979  41.8942404
  90.0285339 107.9159927  41.2109280  90.7453537 107.4676991  42.4663925
  63.0806541  97.8857231  65.8651543  64.0076303  97.6482296  65.8883286
  62.6304150  97.1306324  66.2437820  90.2755260  89.5746613  68.9707899
  90.8615494  89.6180439  69.7263861  90.2273750  90.4762650  68.6529493
 111.3977432  89.4390965  45.3384399 111.9521618  88.6625195  45.2624559
 110.5036449  89.0977955  45.3200722  88.1472492  79.7586203  85.3750992
  88.6158085  80.1769638  86.0973740  88.1771946  78.8239956  85.5795956
  56.7076397  90.2426052  81.3045216  57.4636412  89.6751690  81.1538124
  56.8705130  90.6359291  82.1618462  80.7652283  73.4567070  79.2274046
  80.8867455  73.3627129  78.2826090  80.8399773  72.5654125  79.5683432
  80.4625797  80.6432438  59.8282814  81.3573837  80.9678650  59.7274113
  80.1838779  80.4286194  58.9380598  79.7601414  86.8645096  72.2769308
  79.0068531  86.8887329  72.8670216  79.3780708  86.8895054  71.3996458
 107.4880219  95.2334690  45.4732895 108.1534386  94.9476624  44.8473740
 106.8525791  95.7154083  44.9439716  43.9143467  81.2642288  70.5478668
  44.0388727  82.2116852  70.4926872  44.1162205  81.0487461  71.4583826
  92.1741581 127.5973988  67.0288563  92.8174686 127.1619892  66.4695740
  91.7251205 126.8820095  67.4792099  93.4409904  77.8737831  75.4592609
  93.3993149  78.6753988  74.9378157  93.2874489  77.1698618  74.8290586
  62.1380043 118.5772514  70.9759617  61.9364405 117.6532078  71.1234426
  61.6150093 118.8173580  70.2110720  72.4199772  58.7466431  89.8294353
  72.6945639  59.6533442  89.6926212  71.8390465  58.5584927  89.0923119
  98.1464100  60.7305717 105.3351688  97.7946663  60.1706362 104.6430874
  98.4794521  61.5005350 104.8742294  71.0808897  95.2295780  96.2197113
  71.2332439  94.6464729  95.4760551  71.9107199  95.2311325  96.6967964
  39.6445870  82.2347069  90.4495430  39.5807362  82.3987961  89.5086765
  38.7786174  82.4578762  90.7909012  92.1664810  84.3289566  60.0628090
  91.7030525  85.1298904  59.8179388  92.1665573  83.7990475  59.2656660
  79.9496508  49.2731333  65.5855799  79.6731520  48.5600471  65.0099993
  79.4603491  50.0349808  65.2750874 108.1465244  81.9438171  65.6914663
 108.2530212  81.9069958  66.6420078 107.4151039  82.5461292  65.5555534
  80.0789738  84.8813915  59.5760727  80.0529766  84.1799927  60.2269268
  80.0100517  84.4301033  58.7347507  62.7323723  90.4784393  84.3127728
  62.0226431  90.0428486  83.8407803  62.4015903  90.5761909  85.2056694
  79.2760658  84.5880795  68.0681610  80.2226543  84.6483994  68.1968641
  78.9961481  83.8976765  68.6691713  68.5509109 101.4663506  70.9456205
  67.7119112 101.2936783  71.3728142  68.7248611 102.3905277  71.1241531
  76.4161968  91.8691540  65.0770617  76.9002342  91.3087559  64.4705248
  75.6736517  92.1904850  64.5655823  58.9042950  80.8217430  63.1247187
  58.2090998  80.9862328  63.7618017  59.1382265  79.9030876  63.2573128
  51.2224722  91.8823910  81.9754219  50.3687525  91.7544365  81.5618706
  51.0337353  92.3968315  82.7602482  69.9197578  80.6690979  55.8399630
  69.4752121  81.4593220  55.5330992  70.6665564  80.5698013  55.2494907
  83.1486320  72.2704077  95.2759361  82.7298546  73.1245852  95.1698875
  82.4905396  71.7342854  95.7183266  85.6979752  78.3231401  62.6885509
  85.1957893  79.1342926  62.6106358  86.5645885  78.5442638  62.3475170
  81.9657040  75.5011225  64.0289927  82.2187233  74.6137047  64.2833662
  81.0294533  75.5480194  64.2225981  82.0556450  71.2009048  84.5944405
  82.0475101  70.8183670  83.7170410  81.1326218  71.3504219  84.7991085
  74.6165609  76.0185337  66.7257166  74.0159607  76.4854956  66.1448097
  74.4498396  76.3905191  67.5917768  78.5002804  82.6942921  44.1062164
  79.1901207  82.0315075  44.0734005  78.9558411  83.5027218  44.3410254
  94.1240788  32.7127600  76.3863516  94.3517017  33.1992197  77.1786737
  93.3316898  33.1406522  76.0619211 111.7674446  99.1409016  47.1254826
 110.9934330  99.0771961  46.5659571 111.6847420  99.9935532  47.5525522
  92.4027920  83.7273026  79.3192005  91.6578388  83.3887005  79.8158121
  92.9495049  84.1617584  79.9738693  39.7588491  80.7103634  71.6871881
  40.4985285  80.1442337  71.4667320  39.3623090  80.2983093  72.4547815
 100.1127815  91.2843418  40.6318378 101.0679245  91.3470554  40.6339741
  99.8130703  92.1934032  40.6287575  79.2675972  92.3070145  63.9743757
  80.1527405  92.1035290  63.6721516  78.7660456  91.5105343  63.8003111
  92.0620251  83.6609173  96.0192108  92.6753998  84.1320610  95.4552746
  92.3972511  83.7983799  96.9051933 108.9964867  85.7914162  54.0617657
 108.9576244  86.5901279  54.5878744 108.4537125  85.9819221  53.2966948
  60.3850698  95.4798985  53.2156038  60.1829672  96.1038208  53.9128160
  60.1060820  94.6330261  53.5637569  94.8188305  94.6527958  51.5577698
  94.4061852  93.7923717  51.6328144  94.5843220  95.1025105  52.3695564
  93.3276463  92.5826454  62.9576254  94.0389156  92.9318810  63.4946203
  92.5399971  92.7218533  63.4834242  93.7782192  91.9453526  58.9944410
  93.3672237  92.4804306  59.6734190  94.6453857  92.3330021  58.8761997
  75.7951117  80.6733418  87.3301315  75.2641487  80.0441742  87.8184509
  76.6961479  80.3767490  87.4582291  82.1611977  79.7430658 101.3324356
  82.8214550  79.4962788 100.6848431  82.5273895  79.4563866 102.1690655
  48.8655329  91.3759899  80.5773258  48.7351370  91.6776943  79.6783257
  48.5471392  90.4732990  80.5755901  47.3868322  76.8803978  40.6064606
  47.7768755  77.6575565  40.2063084  46.4976788  76.8498230  40.2533340
  83.6944962  82.7372646  63.7704229  83.3473015  83.4850407  64.2567396
  83.5796452  81.9930458  64.3613434  91.8116951  60.5904865  83.7823868
  90.8761787  60.7078600  83.6172962  91.8579578  59.8412132  84.3762493
  64.7458887  67.0120525  28.6881495  64.9788284  66.3327312  28.0553055
  63.7942410  66.9480705  28.7688136 102.4287891  56.4138031  11.7457736
 101.7288208  55.8625889  12.0956898 102.3809814  57.2182941  12.2622418
  91.2858391  81.3340473  46.7401457  91.7370892  81.7819309  46.0245991
  91.8047619  80.5444908  46.8935871  77.5757122  87.2278404  24.9015856
  78.4683323  87.3796654  24.5910907  77.4057245  86.3074112  24.7011924
 104.6838760  30.0324678  55.2928114 105.1377869  30.6577754  54.7278500
 104.2452431  29.4360590  54.6860790  89.1316986  80.2951336  58.9528847
  89.2888355  80.5571938  58.0457640  88.4034061  79.6761894  58.9006567
  84.8193836  80.2285290  37.9411268  84.3175411  79.8326206  38.6536193
  85.5921078  79.6704531  37.8535199 107.8485298  85.1881599  58.0208921
 107.5628757  86.1007786  57.9788733 107.7080822  84.8522282  57.1356487
 115.6735039 108.7360287  32.6776099 115.1231766 109.0710545  33.3855200
 115.9920979 107.8930855  33.0003595 112.0888805  91.6348934  40.2372932
 112.7658749  92.2034645  40.6042242 111.6920280  91.2125492  40.9991074
  83.1931973  56.6834354  28.1000781  83.1842422  56.5879583  27.1476936
  82.2811985  56.5574026  28.3620071  96.8169498  97.3332977  39.0133286
  96.3447666  97.6915359  39.7649479  96.8957615  96.3984680  39.2033768
  83.9750004  70.1831675  48.4052420  84.3709183  70.2937555  49.2696762
  84.6620369  70.4441452  47.7919674  77.7366781  89.9091434  25.7574224
  77.8188086  89.0390968  26.1479306  77.5983763  89.7412109  24.8252726
  83.7538147  85.3278732  41.4819288  84.2522144  85.3949738  42.2963810
  83.8923931  84.4269180  41.1898661  79.3905354  69.8713255  33.3784533
  78.7677383  69.2845678  33.8074899  78.9268827  70.1870584  32.6028466
 103.1604290 114.1242599  47.4162865 103.7657261 114.3497562  46.7098904
 103.4191895 113.2414627  47.6807594  96.7768002  82.1686649  48.3960390
  95.8729744  82.4724483  48.3120632  97.1285248  82.2146893  47.5069952
 116.2054348  73.0833244  85.5724907 115.5612659  73.7872410  85.4964161
 116.6034222  73.0279398  84.7037125  58.2849407 100.0967693  34.6052361
  58.3743906  99.5842266  35.4086852  58.6119556 100.9657764  34.8378515
  89.0083694  71.3429022  41.9836950  89.2000198  72.0658636  41.3863468
  88.9162254  71.7585611  42.8410006 115.9236717  61.4823103  37.2002625
 116.6918850  61.5870428  36.6389179 115.5947304  60.6070995  36.9952226
  78.9266872  84.0795994  38.5368156  78.5255623  84.8708630  38.8963008
  79.2635250  84.3488503  37.6822567 101.3909531  79.4199181  56.7760038
 100.7064533  79.4585180  56.1080170 101.0452080  79.9371958  57.5034046
 106.6483879  88.4298038  46.7268372 107.2169304  88.5614872  47.4855566
 106.0625458  89.1867638  46.7322874  87.6105785  94.2171097  15.4301250
  87.5280666  94.7272682  14.6244228  88.3638287  94.5999050  15.8799148
  86.0755539  90.2777481  23.0006409  85.7962132  90.8492851  22.2854114
  85.4537582  89.5502377  22.9826880  92.9540443  61.2790060  54.3869972
  93.2995605  60.4073048  54.5793390  93.6044788  61.8799829  54.7503185
  73.0262852  88.3204079   4.6286181  72.7890205  87.9947567   3.7603498
  73.8321161  87.8526592   4.8478919  86.0439682  80.8600140  51.0979795
  86.5653229  80.0654793  51.2126303  85.7113838  81.0566998  51.9737244
  98.5375595  28.6957526  70.5280399  98.6863518  27.9707408  69.9210358
  98.0772209  28.2985401  71.2673235  90.6377697  67.5885487  16.8274784
  91.5840816  67.7210140  16.7710865  90.5372334  66.8080425  17.3723948
  88.9098454  41.8178082  50.4915571  88.6359787  41.3434267  49.7065830
  89.2269707  42.6595640  50.1642847  59.6258593  75.0096798  31.8636203
  59.0613127  75.2307701  31.1229181  59.1287279  75.2844763  32.6340628
 102.0742321  86.6982937  29.0894055 101.6641712  87.3731041  28.5483885
 102.5572014  86.1536884  28.4678102  82.2522736  69.2722559  28.4647703
  83.1887627  69.3583012  28.6431241  81.8609142  70.0523043  28.8579464
  91.3467884  86.1246490  46.3040352  90.6987286  85.4516888  46.0957956
  91.2155819  86.7981815  45.6366682  74.7810221  77.5481653   6.0755616
  74.4573307  76.6607237   5.9209609  74.0321255  78.1129169   5.8846700
  63.7077856  96.7826271  11.1736810  63.3320808  96.8302155  12.0527780
  64.4780254  97.3496723  11.2113726  92.8161907  99.6224499  49.7237396
  93.0729580 100.5151463  49.4926882  93.6344910  99.1962242  49.9785948
  32.9056454  98.2607555  32.0772409  33.2203960  98.9792442  31.5286660
  33.6647725  97.6865959  32.1787167  72.6413059  77.0118046  31.6356206
  71.9003057  76.4106178  31.5599561  73.1415367  76.8779087  30.8305883
   2.1492797  66.8073559  29.6623445   2.1350508  67.6256704  30.1587152
   3.0523425  66.7295122  29.3546915  83.0036259  86.8333530  38.5855198
  82.7403831  86.3540459  37.7998972  82.7911282  86.2432194  39.3085814
  93.8322258 117.0195484  70.7495165  94.4579601 116.6454697  70.1292181
  93.2960415 117.6110935  70.2214956  73.2747746  78.0354595  34.2612481
  73.6768961  78.8271523  33.9038181  73.2763672  77.4157190  33.5317612
 111.9818401  88.1950474  51.6225147 111.1454391  88.6594868  51.5915918
 112.5462723  88.7534904  52.1571112  71.1663008  74.1894484  16.4483523
  70.8457661  74.6285009  17.2362149  71.7342138  74.8354721  16.0284019
 118.6172962  89.7986126  46.0639000 118.6342907  90.6851578  46.4244318
 119.4861889  89.6792889  45.6804657  97.0166969  85.7643032  20.5827165
  97.2594643  86.0519218  21.4628124  97.6165867  86.2339687  20.0032544
  62.7862310  82.6613808  39.5202637  62.8971815  82.8192234  38.5827088
  63.6192131  82.9291248  39.9084449  43.3737946 104.2584896  33.4511876
  44.2519474 104.2719364  33.0705333  43.4963608 103.8826847  34.3229580
  83.6594200  70.7887030  23.6770916  84.4706345  71.0285282  23.2291579
  83.8842773  70.8094931  24.6072721  77.7775145  73.7625170  18.7339568
  78.1948948  73.7645578  17.8725517  77.9331398  74.6422482  19.0775931
  93.6306190  76.4861059  28.6158776  93.7012196  75.8081627  27.9438353
  94.0891457  76.1215830  29.3729115  61.8722486  63.0572653  28.5839152
  61.4204025  63.8089228  28.2004070  61.5853405  62.3111486  28.0573893
  64.2021513  69.3064594  37.8288889  64.1128540  69.7018194  36.9617391
  63.5721064  68.5858536  37.8296089  99.8681545  79.0665531  45.1590538
  99.1383266  78.4726286  44.9834681 100.6330204  78.6200094  44.7959948
 105.0357151 110.7456112  27.9331088 105.4740715 110.9515095  28.7587452
 104.7290421 109.8455143  28.0427241  58.7026548  64.5445538   6.7664516
  58.6770105  63.7072134   7.2295231  59.2614698  65.1011658   7.3087990
  87.7292442  74.5755672  27.5604630  87.4018764  75.3550243  27.1115685
  87.8904152  73.9449453  26.8586302  92.1339703  58.4356976  51.3603210
  92.4819374  59.2283583  50.9518576  92.7957821  58.1888247  52.0063066
  33.6744261  96.0394669  37.8582191  34.2851329  96.4114857  37.2219229
  32.9042101  96.6057777  37.8103828  84.9161720  81.7225742  48.3176327
  85.3617382  81.6135883  49.1577673  84.8867989  80.8409595  47.9459715
  96.0200310  70.7490301  39.9638534  96.1097145  71.5701962  39.4802427
  95.1333237  70.7783079  40.3231859  83.1947613  85.3236961  61.2734222
  83.9882755  84.8738384  60.9832573  83.0455208  85.9977436  60.6103754
 119.1567230  60.1615858  69.4717312 118.9067078  59.3610954  69.0102720
 119.9690437  60.4385996  69.0479088  91.7066383  73.5439634  53.4377623
  91.5030003  74.3986034  53.8177061  91.0889530  73.4509754  52.7124643
  79.3384600  84.2136860  65.1005125  79.1120720  84.3853855  66.0145664
  79.2665529  85.0664425  64.6717024 121.8381596  73.5106134  30.3518128
 121.7743397  72.6021957  30.6466699 120.9856415  73.8913393  30.5627465
  63.3335018  84.8344231  19.5005286  62.9808855  85.4637718  18.8713992
  63.0265951  85.1484299  20.3510809  66.7591667  71.7572451  24.4119477
  66.8879557  72.6183319  24.8096561  67.4538374  71.2147045  24.7852039
  73.4730768 112.2461700  29.5357966  72.9122829 111.8722343  30.2154398
  72.9029846 112.3238468  28.7708163  34.5047736  76.6398716  46.7084837
  33.6421943  77.0359468  46.8322229  34.5552158  75.9607458  47.3811483
 101.6496372  70.4715157  43.7526703 101.7259216  70.7512283  44.6649027
 101.5132904  69.5254087  43.8028526  69.0430641  58.7062502  33.6758804
  68.1490278  59.0147161  33.8234472  69.5978069  59.4042015  34.0242362
  86.0204124  73.4743309  48.0858135  86.3103294  74.3469763  48.3516502
  86.8098354  72.9350376  48.1328011  94.1345024  67.6954222  62.6046848
  93.2130718  67.9031420  62.4495840  94.1915321  66.7486238  62.4760008
  88.5859108  70.8193159  23.6636329  89.3284130  70.2156687  23.6404657
  88.9349747  71.6416597  23.3199334   3.7966757  85.4528141  40.2765608
   4.0048819  84.6370316  39.8211646   4.4916564  85.5476189  40.9278965
  82.8497410 106.3195324  57.2000694  83.3073044 107.0958519  56.8772840
  83.1443596 106.2273026  58.1061220  88.1850243  61.3800287  61.8687105
  88.4535217  61.2182856  62.7731276  87.5788116  60.6670523  61.6676855
   2.4872809  88.4149170  53.6930752   2.6550704  87.5377274  53.3486557
   3.1017142  88.5079384  54.4211292 102.1553230  64.5683479  48.9348888
 102.5681114  64.7022820  49.7880602 101.5741634  63.8189840  49.0649891
  83.0784893  90.0416470  39.5515728  83.1113338  90.1279831  38.5988402
  83.9895153  90.1301479  39.8316360  81.6708183  85.6778526  10.7473350
  82.4229527  85.1821518  11.0710847  80.9162426  85.2775955  11.1793578
  78.5367632  93.4553528  57.1535635  78.0509710  93.5110950  56.3306808
  78.6266375  92.5162411  57.3155022  49.7851658  95.7964802  38.3563423
  49.5966911  95.5866909  39.2710543  49.6377897  94.9753571  37.8870106
  96.9725704  56.8252277   5.1901931  97.4788475  56.2129116   5.7240355
  96.3072968  56.2816191   4.7681326  95.7104969  49.0927172   9.6429092
  96.1731052  48.3602715   9.2357862  95.6966209  49.7718334   8.9684898
  88.5984898  83.3103466  38.7939143  88.3415794  84.0437889  39.3527412
  87.8271675  83.1393337  38.2535005  64.1623545  85.6328106  36.0445380
  64.0199709  84.7096634  36.2537265  64.5815468  85.9935379  36.8258095
  63.2287312  81.3144112  30.4876637  62.9973078  82.1105480  30.9660363
  64.1858959  81.3081837  30.4818368  76.8349981  74.9533939  41.6659927
  76.0135221  75.3142166  41.3324976  77.4989986  75.2581263  41.0475445
  89.5306873  76.1444426  21.1693645  89.3887234  76.2625217  22.1085858
  89.1686440  75.2789640  20.9793520 111.0414028  50.0688553  46.4687347
 111.9150639  49.6953726  46.3527489 110.6818485  50.1167154  45.5829239
  79.8798752  92.1380520  99.7482654  80.5408192  92.6381969 100.2270546
  79.7384787  91.3559151 100.2816435  90.7968140  88.7456322  47.3624992
  91.6082573  88.5032177  46.9163752  90.9326839  89.6547413  47.6295328
  66.5572882  62.1392918  31.6513038  66.7846012  61.4215422  31.0602093
  67.3008585  62.7395439  31.5962481   2.6906806  99.3181419  27.6818061
   2.5982409  99.4599628  26.7396951   3.5646563  99.6488762  27.8891921
 114.5934868  69.4445896  27.9283905 114.4181728  69.4664621  26.9876361
 115.5169392  69.2014599  27.9943514 101.5294743 114.7272015   0.1946650
 102.2591305 115.2184677   0.5721321 101.2480164 115.2535343  -0.5536573
 123.5668945  70.0267839  16.8500066 122.6335812  70.2107763  16.7436981
 124.0036488  70.8259296  16.5553236  78.6148787  89.6812153  36.1522579
  79.1868734  89.2714500  36.8012142  79.2144680  90.1038742  35.5373716
  93.8316727  68.8154459  21.8180561  93.1088161  69.3386221  21.4716434
  94.3778133  68.6265612  21.0549808  83.3759975  88.5643196  42.6273394
  83.4402943  89.4946480  42.8431702  84.2759895  88.2998943  42.4367523
 122.9470634  76.2019873  29.8625493 122.5536728  75.3319883  29.7949553
 123.5709858  76.1272812  30.5846095 109.6599865  78.0463219  92.2487267
 110.3507805  78.6386156  92.5457534 110.0930691  77.1969795  92.1633264
  83.1357193  78.8240337  30.7334328  83.7960148  79.0420437  30.0756168
  82.3201942  78.7478542  30.2381110 108.7820053  80.5948067   4.1685230
 107.9835415  80.5766106   3.6409312 108.4777260  80.7788372   5.0572175
  84.3496323  71.6784191  15.8548570  84.7907639  72.5272369  15.8211219
  83.8344860  71.7080879  16.6610682  98.3573627  74.9813795  53.4882021
  97.8656387  75.7416677  53.1777143  99.2195034  75.3300142  53.7149000
  80.6617165 100.2791691  27.9385686  80.2550220 100.8677578  28.5744858
  80.3269291 100.5735111  27.0915055  62.9677296  76.9493771  98.7099167
  62.3780060  76.9733191  99.4634958  63.6039782  77.6436186  98.8815376
  84.1092396  89.4171333  19.4557989  83.8678360  88.7169456  18.8494170
  85.0663567  89.4077396  19.4636953 110.3697872  85.1381397  68.7072134
 109.9434757  84.2921734  68.8444424 110.1160240  85.3931332  67.8201914
  50.1243353  98.7471581  10.9137988  49.5235729  98.5182381  10.2046371
  50.0524330  98.0204105  11.5325892  70.7154703  98.2105732 109.8006742
  71.1452866  98.0614471 108.9585038  70.3444719  99.0899372 109.7278369
 122.2830296  83.8895321  14.4110548 122.1605015  84.3017101  15.2662361
 122.6630116  83.0337811  14.6098602  49.7025347  87.5622749  47.7457905
  49.8569822  86.6178894  47.7684307  48.8946390  87.6608372  47.2419882
  90.4932404  75.7072115  17.8393865  89.7038841  75.9314203  17.3465550
  91.1824608  75.6555605  17.1771681  79.3269730  71.6332722  27.8278923
  78.7734938  71.3716269  27.0920706  79.0991163  71.0218763  28.5282564
  65.9842873  81.8278217  30.8802724  66.4750910  81.0688591  31.1954212
  65.9641218  82.4267769  31.6266489  63.2659292 110.1986980   3.3345985
  63.7254190 109.3779945   3.5122079  62.9077291 110.4610157   4.1826034
  66.5414429 106.9642448  15.7788360  65.6389856 107.2825336  15.7566547
  66.6868877 106.7200470  16.6928625  59.9604845  71.3490820  19.3652689
  60.8247852  71.5795946  19.0245748  60.0866604  70.4963064  19.7813058
  82.3263931  53.6330557 106.1424922  81.9374943  52.9415894 105.6069001
  81.9227982  54.4397306 105.8221548  62.9095745  66.1442518  18.6121380
  62.6545668  66.7873335  17.9505908  63.8619947  66.2222290  18.6673617
  86.1039352  93.6207771   4.8122430  86.9613934  93.4863663   4.4086123
  86.2870026  93.6782265   5.7500154  85.9394455  89.2269230  37.1794033
  85.7235432  88.4819603  37.7403307  86.8159771  89.4911098  37.4589252
  81.8329525  69.6507215  36.6808915  81.4823532  68.7940645  36.9247103
  82.6056862  69.7598457  37.2351527  64.4875383  81.3870430 107.4308346
  64.2385483  81.1451149 108.3228590  64.9914455  82.1943760 107.5334346
  88.6982346  90.9872246  59.8602629  87.9403305  91.5652370  59.9481058
  88.8471127  90.6514645  60.7441950  78.8953590  73.8913631  15.9653556
  79.3576479  73.0589390  15.8674216  79.0970850  74.3731737  15.1632357
  59.2095375 107.7891159   5.8812839  59.7871399 108.1364536   6.5609622
  58.4502268 108.3718395   5.8914590  54.6089649  81.4618587  33.5337496
  55.0795889  81.1050606  34.2870378  53.9446926  82.0353031  33.9160252
  92.2997093  81.9804764  44.0611649  92.8459263  81.2215996  43.8562775
  91.5200520  81.8682289  43.5173178  78.3903885 137.1589851   2.0271699
  78.1858301 136.8326473   2.9034659  79.3005896 136.9007969   1.8818696
 104.3961906  69.0702391  25.4643607 104.8396683  69.6955204  24.8911381
 103.6624718  68.7454891  24.9424219  86.1800575  82.3755646  31.5382862
  86.1476517  81.4619827  31.8220901  85.3769398  82.7630901  31.8862343
  75.3434277  62.7481174  34.5088434  75.0628757  62.7149391  35.4234052
  74.6940470  63.3048058  34.0791559  75.4499912  78.4308767  30.4243183
  74.7307968  78.9492464  30.0633645  76.1253691  79.0745687  30.6382084
  94.5335770  82.6409626  33.4688759  94.0275192  82.8242683  34.2604208
  95.2808094  83.2370949  33.5189104 103.0177116 111.4940357  18.2468629
 103.2899380 112.1126652  18.9246702 102.5411892 110.8130074  18.7215805
  74.2759752 100.8286953  33.5193992  74.7172499 101.6641521  33.6727357
  73.5290813 100.8389187  34.1179633  63.6013412 109.9469852  18.9963412
  62.7327061 110.3215218  18.8499558  63.7227678 109.9872398  19.9449551
  92.7793407  73.4131384  12.8894126  91.8507767  73.6293507  12.8042424
  93.0637360  73.2220793  11.9956279  76.5777922  98.2835388  14.3254030
  76.1201096  98.1086063  15.1476920  77.2173595  97.5751781  14.2518783
  65.4747581  59.0071440  12.7587295  65.6587744  58.7821150  13.6707234
  64.6255207  59.4478226  12.7874351  88.1221390  89.8072624  31.3456583
  87.5535297  89.4833469  32.0442295  87.9537392  89.2205429  30.6083488
  77.1563005  68.8166285  24.5093679  76.6641855  69.1803408  23.7733197
  77.1250010  67.8695965  24.3738055  71.9775152  86.8605804   2.6721665
  71.7839336  85.9339619   2.5302714  71.1420012  87.2410583   2.9430610
  81.9740391 119.4031715   2.7214342  82.6156425 118.7032127   2.8424668
  82.3608494 120.1610756   3.1598178  99.5444965 111.1488819  30.5652905
  99.6759415 110.3836632  30.0054789 100.0704861 110.9687996  31.3444829
  93.7276936  85.1186562  37.7200437  93.6214542  84.5380116  38.4735680
  93.9291954  85.9727478  38.1023383  26.9751096 110.0180435   7.3280531
  26.1993837 110.3805542   7.7559185  27.3951936 109.4864750   8.0042183
 102.5743675  65.6674719 102.4830910 102.2087479  65.2177668 103.2448753
 103.0117035  66.4374399 102.8465762  55.7926130  75.0241947  38.6950850
  54.9171925  75.2240324  38.3635187  56.3713884  75.6170464  38.2157278
  60.4867077  45.8703661  51.0411263  59.6085882  45.5160856  50.9010458
  60.3612566  46.8190098  51.0649443 100.0970936  82.8142929  23.1244493
  99.2533684  82.7720356  23.5745358 100.7339096  82.5361061  23.7827158
  99.3249035  56.7205715  52.7538157  98.9554405  57.5026035  53.1638813
  99.8108006  57.0527792  51.9989777  94.3392849  85.4184723  19.6178365
  93.7010765  85.5856323  20.3113627  95.1647377  85.2763271  20.0811386
   9.0220767  59.9443245  24.3720174   8.5668498  60.7732248  24.2239523
   9.5492774  60.0973463  25.1561642  78.3889151  84.4327068  24.4713736
  79.0243053  84.8476505  25.0547481  78.5162401  83.4938335  24.6075177
  41.2895250  84.7323608  48.0654573  41.4025879  84.3421650  48.9321756
  41.9192934  84.2713833  47.5112629  71.4273739  51.8931866 108.6461004
  72.0728874  52.4940586 108.2739448  71.7687654  51.0214329 108.4467816
 112.0714569  70.9072781  21.5236998 112.5621128  71.4948845  20.9490561
 112.5897312  70.8705282  22.3276091  64.0649652  46.7222261  42.4346733
  64.2699385  46.2699366  41.6163492  64.6199656  47.5020123  42.4228573
  62.3361206  62.7630758  11.8162847  63.1955147  62.8508854  11.4040220
  62.5036907  62.8939152  12.7495766  90.9448528  66.6783905  49.7729111
  90.9489632  67.3682022  50.4365206  90.1962090  66.1284208  50.0037622
  99.9904728  81.2184143  20.8572245 100.8897018  80.9017658  20.9430003
  99.9318695  81.9443035  21.4784217  90.8243656  84.1783333  55.5909252
  91.7618942  84.0316296  55.4654408  90.4966736  84.3937778  54.7177505
  29.4223928  63.4566832 107.1185394  29.9105120  62.8621960 107.6882362
  29.6174598  64.3294716 107.4597471  51.7187691  93.0494308  26.9932628
  51.5418053  93.9382458  26.6851640  51.1631727  92.9487991  27.7661896
  88.1153297  94.8469257  28.2375693  87.9302120  95.1473999  27.3478055
  88.0384350  93.8940334  28.1894374  53.4158468  94.2445183  40.9716749
  53.1423998  94.9240875  40.3555202  54.3477583  94.1195488  40.7923555
  62.2303104  75.9225225  41.9472265  61.8311357  75.9285402  42.8171968
  62.4731779  76.8347454  41.7888212  90.6511879  68.4140778  51.8060637
  90.3272343  67.9950476  52.6033640  91.2053299  69.1289234  52.1193695
  76.5040112 106.3122463  28.6530113  76.0644484 107.1063423  28.9570522
  77.3225594 106.6243458  28.2672524  83.9590073  98.9658451   8.7934536
  84.1166496  99.6561527   9.4375527  83.0912018  98.6269188   9.0131474
  54.2654324  63.3692980  45.7520342  53.7384939  62.5814724  45.8858204
  55.1413345  63.1252527  46.0511494  90.2572536  63.3794498  83.2596334
  90.0613594  62.6061058  83.7885936  90.3638744  64.0851641  83.8974603
  41.9976282  82.2411442  91.8533190  42.2967720  83.1156921  91.6044804
  41.3749266  81.9971466  91.1685260  77.2248125 105.3151894  19.8309863
  77.6191282 105.3639221  18.9601386  77.3484087 106.1900616  20.1991677
  67.4774981  89.8692036   0.9629464  66.6969204  89.8901081   1.5165642
  67.3000908  89.1781807   0.3247900  99.0989494  93.1233978  37.1495080
  98.1964207  93.0715656  36.8348837  99.1693306  92.4178314  37.7925086
  79.8581982  72.8678131  41.0170889  80.1650715  72.7986574  40.1130533
  78.9774895  73.2354975  40.9436035 122.0808697  81.6368866   9.1242903
 122.9507732  81.9885635   8.9350319 121.6019154  82.3737907   9.5035225
  86.5636539 100.3583717  10.5901408  86.2637329 100.0190258  11.4334214
  86.0641289 101.1652946  10.4653251 111.9849777 115.8642769  21.3093829
 111.1076450 115.4815578  21.3162661 111.8393803 116.7938995  21.1337900
  53.7173557  71.8523979  30.4323649  53.4309864  72.0385695  31.3265514
  54.2153215  71.0381556  30.5049753  77.5751162  57.0662165  49.5546675
  78.3531237  57.3715687  50.0212526  76.9597530  56.8252182  50.2471113
  86.3308620 136.2400055  11.1014020  87.2747898 136.0822964  11.1204517
  86.1639881 136.7875862  11.8685651 105.1689529  90.8020496  34.1470003
 105.6177235  90.0392532  33.7823367 105.8731461  91.3552570  34.4850922
  94.1094589 123.6574554  19.3253350  94.1558743 123.3143520  18.4329474
  93.2275963 124.0229416  19.3958473  78.6666250  54.7797394  36.2168312
  78.8080072  55.3237152  35.4420185  78.8471174  53.8879538  35.9195590
 104.5372677  47.0483923  44.5758343 105.0767708  46.5804482  43.9384985
 103.7302494  47.2518682  44.1030169   4.4935160  95.1476097   4.9463168
   4.4708758  96.0508633   4.6303320   5.0267249  95.1849365   5.7403702
 105.5059719  83.7152863  37.1713352 105.1611710  82.8614807  37.4327993
 105.8789825  83.5670567  36.3023567  84.4473457  78.7267542  47.4389887
  83.8649368  78.2100153  46.8822002  84.0411472  78.6949635  48.3051443
  72.1506834  71.0593033  22.6373458  72.2103262  70.9357023  21.6900349
  71.5531969  71.7993116  22.7451921  99.8469067 111.7651939  26.8323064
 100.5519104 111.2998676  27.2824931  99.7732353 112.5977039  27.2989225
  97.3454475  60.3600836  52.2921753  96.8763638  61.0634661  52.7410078
  98.1160355  60.2003384  52.8370714  55.7926702  72.4573994  20.1158762
  54.8632622  72.5053978  19.8919690  55.9819365  71.5198421  20.1531863
  78.2674599  86.1452770  40.1810598  79.0155745  85.8389282  40.6936169
  78.4019518  87.0896626  40.1019096  96.1427593 107.0806599  15.2402580
  95.9231472 107.7494431  14.5916212  96.8093681 107.4910355  15.7911301
  51.6313696  52.1110487 101.2606689  52.1429157  51.7161608 100.5545434
  50.8686066  51.5400362 101.3520964  40.9446335  92.2224140  53.2783794
  40.0219822  92.2790909  53.0298996  41.2426424  93.1317425  53.3018732
  93.6886311 100.3863049  13.4264243  94.3190956 100.0297642  12.8006268
  94.0197372 101.2615681  13.6276805  52.4315739  88.3802986  19.8238993
  52.1024036  88.1248474  20.6856585  52.8811646  87.6004410  19.4984281
  79.4070768  83.1639767  35.0811720  78.7719822  83.3410454  34.3872476
  80.0190830  83.8987541  35.0389290  47.8209686 112.0427227  35.7638240
  47.7439260 112.6646423  35.0402832  47.0368862 112.1917343  36.2922597
  82.9193115 127.5299740  29.9293709  82.0022964 127.3013210  30.0811505
  83.0759144 128.2828808  30.4993176 111.8814182  96.6241646   0.1171733
 112.7359867  97.0536327   0.0785560 111.3218307  97.2456837   0.5828026
 105.9320927 104.7863579  39.6235204 106.3082981 105.1213932  38.8096094
 104.9859428 104.8576736  39.4972229  62.0278740 131.6634655  10.9153938
  62.6931381 131.7139721  11.6017628  62.5276232 131.6206932  10.1001334
  90.2244854  73.3109331  51.1585951  91.0463238  73.7255526  50.8961010
  90.0698376  72.6421642  50.4914665  61.2528133  55.0371981  18.9112282
  60.9113407  54.7059965  19.7418523  61.4118052  54.2519379  18.3874679
 100.6667137  99.6202660  57.9354429 101.3089943  98.9495754  58.1675768
  99.9538136  99.1354465  57.5195551  89.7497368  94.4833088  85.2556332
  90.0541878  94.6212864  84.3586930  89.3511486  95.3173065  85.5042370
  88.2849026  88.3962917 103.7954458  87.5878525  87.9036140 104.2286076
  89.0933037  88.0505848 104.1738578  64.9873781  51.5119028  22.1575284
  65.1602459  52.3202848  21.6749668  64.5945740  51.8034458  22.9802942
  77.2413540  87.9569817  21.9425511  77.2509909  88.2484722  22.8542376
  76.3370132  87.6840496  21.7879009 117.8748703  51.7775154  48.2505989
 117.0497322  51.4721870  48.6276245 118.5496902  51.2976837  48.7308264
  92.8698540  77.3240948  12.9064620  92.9664993  77.9171515  12.1613610
  93.5785866  76.6894293  12.8009188  75.1771307  82.6704884 106.1620485
  74.7896004  81.8974018 105.7516911  74.5426702  83.3693886 106.0032206
  76.3937664  69.6675253  33.1512141  75.9827852  68.9637089  32.6492548
  75.6601715  70.1478720  33.5350609  72.3677540 103.4000206  33.5359025
  71.6245365 103.3714485  32.9333711  72.0341015 103.8600731  34.3061376
  72.0300293  91.7129612 106.1892285  72.6802921  92.3270607 106.5302276
  72.5443077  90.9685516 105.8768126  78.8826466  52.9300928  26.4558959
  78.3207750  52.9884195  27.2286391  78.7476397  53.7599754  25.9984040
 100.1939869  42.4267387  52.9970121 100.4822636  41.5609026  53.2858992
 100.7496548  43.0379105  53.4806824  94.2212105  51.0773611  57.8214741
  93.6348152  51.6227245  58.3458376  94.3482876  50.2878284  58.3475113
  62.1623945  78.2862329   4.5355976  61.5392399  77.5750828   4.6844935
  62.0994186  78.8284302   5.3219128  76.2577724  97.4937820  35.8343625
  76.8202829  96.7258930  35.7335806  76.2709618  97.9148102  34.9748325
  87.5720978  63.0710316  46.8674612  87.3831272  62.7773142  47.7586699
  88.5268784  63.0455971  46.8042850 106.0064602  57.9559898   8.1936538
 106.4385605  57.1459961   7.9226601 105.4562855  57.6980925   8.9332664
  73.1213713  73.8945484  32.7742624  73.6288977  73.3062458  32.2151995
  73.5994244  74.7233486  32.7461839  82.1712303  53.2576036   3.5739434
  81.7919159  54.0034056   3.1090420  82.2790718  53.5659170   4.4736898
  94.0488911  69.8942280  16.5899730  94.8580551  70.3451824  16.3488483
  93.3804417  70.2839804  16.0265112  76.1240768  55.5794907  30.2341056
  75.6156063  56.3202190  30.5642700  76.0826397  54.9290657  30.9351468
  43.0678368  94.9958897  16.5054262  43.8354301  94.4251919  16.4690077
  42.3277807  94.4130802  16.3355005  67.4232769 107.3638439  11.7361343
  66.8468332 106.6472626  12.0015740  67.7675533 107.0917225  10.8854568
  91.6938019  52.1624374  10.5478525  92.4736309  52.6935625  10.3865719
  90.9737587  52.7929163  10.5640495  64.7779703  80.2208424  51.1834097
  64.4836712  81.0006428  50.7127333  64.6264935  79.5004177  50.5716372
  90.5229664  79.0299511  34.1174269  90.3771019  79.8119402  34.6498203
  90.0222301  79.1882133  33.3171487  66.1821938  67.2251797   7.5960821
  67.0694351  66.8729353   7.5256771  65.8928680  67.3284721   6.6895211
  63.9686537  76.3854074  15.0992644  63.8376617  77.2098970  15.5675459
  63.4262037  75.7532978  15.5708754  77.5852299  86.2273026  30.7549095
  77.2277832  86.8315029  30.1042128  77.1267605  85.4027081  30.5934167
 115.4325581  58.2683659  59.7878361 114.6258259  58.7830591  59.8102713
 115.2568340  57.5752354  59.1515017  95.9011173  62.0064545   6.0113555
  96.5159035  62.1354246   5.2891040  95.5957890  61.1051702   5.9079403
  82.5683784  77.4675369  23.1615043  81.8776608  76.8761730  23.4605598
  82.7089691  77.2277975  22.2455406  58.4166479  58.3052731  95.5355116
  58.2184219  58.6782646  96.3944706  59.3640900  58.1693506  95.5462774
  75.0944233  62.6084375  26.6535378  75.0997543  63.4902763  26.2812924
  75.9677649  62.5023985  27.0307231  62.7634048  93.3060551  43.9442015
  61.8875742  93.1490803  43.5913467  62.6283407  93.4006500  44.8870897
  83.0723858  95.0945663  10.0485921  82.8412628  94.1736221  10.1697397
  83.1230354  95.2059078   9.0992409 102.7396297 112.5617313  76.0718822
 102.6609707 111.8485928  75.4382610 103.3041000 112.2095203  76.7600346
  60.7035589  76.2906265  12.0814741  61.1542559  76.9711018  12.5815296
  60.1852465  76.7712879  11.4360714 111.0482883  97.1361351  56.2840414
 110.8678150  97.2526932  55.3512621 111.0954285  98.0266190  56.6319799
  83.0966663 104.5695114  95.0332578  82.4688721 103.8672352  95.2032884
  82.8914833 104.8645973  94.1460952  86.8451786  66.8161392  29.5215988
  86.3681507  66.0421562  29.2222261  87.0442295  66.6344118  30.4400659
  56.1384487  81.5668297  38.5994101  56.7257833  82.1499348  39.0802979
  56.2534571  80.7133102  39.0171456  88.8948822  42.0312643  18.1768429
  88.5382462  42.8774118  18.4471810  89.6023941  42.2520494  17.5711083
  72.3951101  69.6395254  93.1574556  72.5680113  69.1986561  92.3256084
  71.6108942  69.2091990  93.4981283  81.5208817  76.0358191  26.6376734
  81.8387699  75.8909845  27.5288558  81.0545158  76.8705273  26.6824245
  90.6905079  62.4701691  35.3864789  91.6040611  62.2482872  35.5665374
  90.2935123  62.5709438  36.2516212  72.3151255  98.2216358  22.4930358
  71.6864252  98.9113140  22.2801828  72.6884937  98.4887886  23.3329487
 100.6519318  71.6995811   4.1045073 100.7607269  72.6464415   4.0158653
 100.9102058  71.3480139   3.2524931  87.3571491 119.5896149  84.4007310
  87.3957825 119.9512863  83.5153302  87.6767921 118.6922359  84.3070515
  85.6576443  57.0266533  94.4446369  85.9389400  56.7722416  93.5657855
  85.3303909  57.9203081  94.3420609  72.6964140  55.2972794   3.2799223
  73.4717655  55.3695440   2.7232909  72.2462225  54.5142412   2.9630506
  51.2169075 108.6699200  32.4980378  51.1744165 108.6690903  33.4542942
  50.3107834 108.7996292  32.2181368  83.4806824  78.2810831  49.8260927
  82.6582432  77.7914286  49.8340988  83.2551575  79.1341448  50.1971245
  84.6112537  82.0331764  43.0570269  84.1049767  82.2801208  42.2831154
  83.9985561  82.1323299  43.7857199  87.1292686  79.6239471  19.3587005
  87.0915890  79.1118813  20.1665354  88.0295181  79.9470615  19.3217003
  72.7699089  54.6968985  16.6577113  71.9311142  54.2362118  16.6781819
  73.0286026  54.7643757  17.5768185  85.1466942  86.6585636  12.8871620
  84.5663357  85.9201813  12.7022052  85.3758240  86.5575409  13.8110256
  81.5803814  53.1562138  51.0810947  81.9134235  52.5372028  51.7308187
  81.9066429  52.8242159  50.2446938  99.5479488  54.2268848  46.2684059
  99.2132759  54.1887665  45.3724337 100.0936031  53.4450817  46.3537264
  88.4656620 105.6888103  28.7241316  88.6896706 104.7756863  28.9037609
  88.7053680 106.1561203  29.5243764 102.8650761 101.9871235  61.5600443
 103.0206680 101.7988586  62.4855614 103.5380936 102.6275349  61.3294649
  63.8553190  81.7492580  42.9057217  64.7576618  81.6269016  43.2007408
  63.9315271  82.2907639  42.1201038  78.0266619  40.4479027  35.4633427
  78.8742495  40.7450056  35.7943439  77.5259924  40.2289963  36.2492442
 108.8446426  65.1701403  42.0361948 108.5836029  64.2580557  42.1634388
 109.7944164  65.1338673  41.9228888  90.2978039  90.1881409  77.6798391
  89.9209213  91.0580635  77.8118658  91.2423420  90.3218746  77.7585316
  83.2817841  91.2635708  42.8590345  84.0163040  91.7999744  42.5607252
  82.5399494  91.5581894  42.3307323  60.8812857  53.0897522 107.4618239
  60.9794950  52.1627378 107.2444829  60.6334829  53.5045385 106.6355216
  47.0433044 118.0761433   4.8801890  46.1546421 117.7516747   4.7344822
  46.9221401 118.9138031   5.3272563  91.9721413  37.5743866  50.2711153
  91.0871029  37.7707028  50.5783606  91.8570805  36.8495202  49.6566534
 108.8645458  72.7622890 107.4558330 108.3501911  72.9539776 108.2400058
 109.2709637  73.5978413 107.2258063  70.5559301  70.3514004   8.5575885
  71.1816883  70.2178431   9.2695028  69.7227526  70.5165958   8.9988947
  51.6257524  60.5959320 105.4870623  51.9181061  61.3934517 105.9283432
  50.8857870  60.8774137 104.9490558  72.5285959  99.2228508  27.0144725
  71.6161060  99.4351387  26.8181849  72.4904442  98.3595562  27.4261642
  65.4632759  71.4660549  37.4826288  64.9433136  70.8707523  38.0225158
  66.1770105  70.9235620  37.1471930  68.1477833  70.8042765   9.8245108
  67.7141333  71.5401506   9.3924522  67.6089430  70.6280184  10.5957544
  76.5095139  72.0221758  41.2006712  76.6397953  72.8767014  41.6118193
  76.0544586  72.2174072  40.3814983  39.0958500  48.8219357  19.2030907
  39.4917607  47.9889679  18.9468658  38.4502602  49.0006447  18.5193443
  87.6478291 101.5745068  25.4424763  87.2324085 101.4458275  26.2951756
  88.2630157 100.8454609  25.3632927  41.2500668  71.7240334  26.2218308
  41.2819338  72.5683260  26.6717052  40.7937050  71.9072914  25.4006219
  77.9505730  97.1291351   8.0917913  78.6273479  96.5781498   8.4850174
  77.1323633  96.8146515   8.4763271  81.7578602 106.2080574  69.2379674
  81.1745453 105.9850216  68.5125550  81.3006687 105.8941936  70.0181516
  75.2076006 114.1146183  25.6613731  74.3046141 113.8224411  25.5369592
  75.4709005 114.4503880  24.8045421  55.5182886  97.9565811  88.6678728
  55.5249262  98.8348198  89.0485176  54.9406719  97.4517632  89.2403659
 114.0799809  80.4121971   4.0653765 113.6305428  79.8651552   4.7095633
 114.8352814  80.7648373   4.5359120  72.2806883  94.1882515 107.8665943
  72.2710133  94.9747658 108.4120565  71.3571692  94.0051270 107.6939624
  86.1114597  84.7683239  92.7297982  85.4926682  84.4685078  93.3957096
  85.9036827  84.2440224  91.9563850  92.1100235  73.3804703  19.8308754
  92.3154545  74.1786480  19.3441069  91.6488361  72.8273773  19.2002964
  48.4998846 127.2630978  83.6177286  48.0756664 126.4058685  83.5798415
  49.2699337 127.1742916  83.0561503  77.1401262 104.4590282  85.6875094
  77.9610491 104.0675163  85.9859022  76.7978907 104.9136353  86.4572104
  85.4683685  54.9696350 100.7462385  86.2695408  55.1320744 100.2482697
  85.7497311  54.4256020 101.4818313  88.7443638  71.8125677 108.9192239
  89.2945957  71.2236595 108.4028234  89.0435982  71.6912842 109.8203255
  57.1177769  89.3134975  11.2937665  56.7108870  89.8720551  11.9561040
  56.4496517  89.2218494  10.6144738  76.8099260  72.5588703  88.3776053
  76.2056780  72.9833221  88.9866670  77.1734858  73.2778788  87.8608044
  43.1290627  73.9189959 104.9723401  43.5757685  74.5250750 104.3812802
  42.5623608  74.4774246 105.5045431  58.2963181  78.2280493  13.7008274
  57.9722452  78.1100607  14.5937371  59.2390013  78.3585978  13.8034606
  79.5734501 125.7908058  36.2601590  79.5504093 126.3205242  35.4632282
  79.7116566 126.4239025  36.9646621 117.9752922  78.8135576  98.2178959
 117.2194481  78.7918901  97.6309820 118.6864281  79.1614389  97.6798519
  82.3646927  97.9699326  81.7683228  82.0577908  97.2554207  82.3264559
  81.8971920  97.8463173  80.9422477  74.8815632  67.0342445  16.2786376
  74.0806484  66.5169859  16.1937165  74.7175121  67.6086950  17.0265186
  87.0021820  73.7355185  83.3060988  86.7487144  73.4860468  82.4174198
  87.4069405  72.9479980  83.6697062  83.3589458  64.8960209  20.1240134
  84.0512371  65.3910446  19.6859443  82.6043797  64.9712372  19.5398808
  99.5877647  71.7743492  96.3240060  99.9943352  70.9559155  96.6087767
  99.9499512  71.9309568  95.4519244  51.3964081  87.8568745  10.8607054
  51.2135077  86.9599819  10.5807543  51.8396997  87.7590466  11.7034125
  99.2233944  85.7299328  26.1243439  98.5912895  85.1871014  25.6531620
  99.8575020  85.1064682  26.4785123  62.4123430  84.1825867  31.7634630
  62.3064327  84.7999287  31.0396504  61.8895721  84.5544529  32.4738598
  83.3279037  66.9985580   1.7175037  82.4354935  67.0729303   2.0555942
  83.4304619  67.7574110   1.1431766  88.3940792 117.0382118  31.8775344
  89.0367126 116.4918041  31.4251089  88.9160538 117.5872231  32.4626541
  89.1177273  92.5742531  20.3903913  88.4837914  93.2785320  20.5258584
  89.1751385  92.4833584  19.4392478  52.6091337  86.7951965  93.0156537
  52.5710583  87.2535038  92.1761664  51.9588757  86.0971737  92.9371687
 105.4804802  78.4209585  86.6615828 104.9500370  78.4503269  87.4578198
 104.8444557  78.3176279  85.9537491  85.1040459 117.7671528  83.9366039
  84.4053078 118.2773876  83.5271486  85.8024883 118.4020329  84.0957817
 100.4949856  74.9142599   9.6187198 101.4322758  75.0389767   9.4698024
 100.4484844  74.3143654  10.3631639 111.4451218  64.5514202  20.6627584
 111.7278385  64.2999029  21.5419841 111.4145565  65.5078650  20.6854367
  93.2343292  93.0155373   0.4977481  92.8291035  93.7893963   0.1063819
  92.6301670  92.3009777   0.2961805  56.2271166  76.5146065  18.0702138
  55.5177450  75.9061146  18.2769954  56.5461636  76.8093014  18.9232051
 119.0322876  83.6817455   2.8478381 119.6172142  83.5672379   2.0988525
 118.2326603  83.2174015   2.6004443 104.4172192  62.9296589   6.3017970
 105.3650188  62.9413033   6.1684871 104.1373062  63.8246202   6.1096501
  86.6301537  72.2550821  96.0823497  86.1458397  72.4808264  95.2881786
  86.3093758  71.3849258  96.3193139  76.4727020  86.6592979  37.0872593
  76.5973520  87.2866821  37.7993608  77.3489046  86.3140106  36.9161463
  47.6340199  63.6121225 103.5671111  48.0548000  63.8918543 102.7541389
  47.9197025  62.7062225 103.6852678 111.0253811 103.9593410  11.7182159
 111.6587734 104.0778446  11.0104001 111.3645458 104.4950390  12.4353087
 102.8452587 100.6645107  12.9477572 103.4313869 100.3691196  13.6444855
 103.0950451 101.5758228  12.7949333  97.6839447  65.0270319 104.4605526
  97.5325871  65.6572914 103.7562092  97.3674107  65.4682159 105.2488419
  50.0780296  77.5554228   6.2246066  49.7512770  76.9201660   6.8617189
  49.4463778  78.2738829   6.2571716  69.4210005  99.2161083 104.3239840
  69.0493011  98.8535309 105.1281040  68.7312222  99.1046143 103.6697599
  54.3392229 122.1440506 108.5947080  54.3111181 121.1941147 108.4803977
  55.2588558 122.3361206 108.7780649  73.1830692  54.7512817   6.7359722
  73.3000803  54.5077419   5.8176970  73.6925554  54.1032028   7.2224379
  94.6723843 117.2398376  45.5956793  93.8813114 116.8141460  45.9261703
  95.3659153 116.5939426  45.7301044  82.7088833  84.8698425  36.5399551
  83.1315422  84.1559410  37.0173907  82.9170895  84.6998501  35.6212664
  74.4124079  90.7489204 108.8726361  73.6615801  90.1932335 109.0816920
  74.2028856  91.5941143 109.2700911  58.2058811  98.0731678  96.7306038
  58.0849266  99.0181828  96.8231162  57.3177338  97.7242947  96.6549977
  95.0355148  72.6151466   7.1580052  94.8763752  72.8037643   6.2331665
  94.2857552  72.9985189   7.6131046  53.9651632 103.8652325  21.7479777
  53.7445450 103.0583000  21.2827730  54.0929413 104.5136166  21.0555148
  79.7303772  71.1102104  37.7921605  80.5217648  70.5956078  37.6336575
  80.0536728  71.9696045  38.0626249  55.2443123 122.1817970  35.2138329
  55.2467966 121.3632870  35.7100892  55.6506205 121.9558334  34.3771219
  84.6339512  71.7894030  35.4357529  85.1736927  71.5623808  34.6785402
  83.7492275  71.8780804  35.0813031  72.4368382  74.8573112  20.1721001
  72.8827429  75.3824997  20.8366132  73.1453037  74.4545317  19.6700263
  73.1316757  63.9796782  33.3247519  73.0224180  63.7261057  32.4082375
  72.2724819  64.3113279  33.5855651  57.9615641 109.7543144   3.4413677
  58.3380175 109.7910213   4.3206683  58.2732582 110.5520248   3.0138916
  64.9703550  83.2671547   9.0491551  65.0274897  84.1149521   9.4898373
  65.8312368  83.1470871   8.6482847  46.9342232  86.5653419  17.2438192
  47.1997881  86.4308739  16.3340807  47.1022081  87.4933243  17.4077022
  93.2698059 108.4631729  97.1614417  93.3150387 108.0035496  96.3230356
  92.3984337 108.8592434  97.1707436  67.4718571 112.8910732  17.7198040
  67.7075005 112.0336056  18.0740094  67.7337313 113.5114288  18.4001040
  77.5992441  75.4795122   9.8461443  77.3993397  75.2203751   8.9466339
  76.7465305  75.5186462  10.2792466 123.5962296  85.1135921 100.2943488
 123.5786533  84.2901039  99.8067179 124.3579865  85.0356388 100.8687051
  86.2879086  74.9571323  33.9023089  86.7758942  74.1677666  33.6677861
  86.8515110  75.4095221  34.5299387  90.4061985  76.6305733 106.7297768
  90.1734066  75.9895515 107.4014416  90.3091240  76.1575127 105.9033241
  64.3382597  55.7441711  29.1512489  64.8464775  56.5183020  29.3934751
  64.9534416  55.0162697  29.2403674  74.4333410 107.3273087  21.8654156
  74.5973873 106.5365696  22.3792744  74.8334312 108.0316448  22.3753858
  86.3243198  79.0801716  35.6920171  85.5313873  78.5845661  35.4873872
  86.6457367  79.3796492  34.8415852  68.4660006  87.4360752 106.7038303
  68.5960817  88.2216454 106.1726164  69.3269253  87.2575378 107.0822045
  72.6802063 101.7076969   7.2962183  73.2236528 102.0525169   6.5877032
  72.9854774 102.1680164   8.0779779  82.8957939  88.5510063  35.6403470
  83.8061428  88.7920570  35.8117962  82.9402447  87.9747200  34.8773623
  81.1503887  89.8762321   5.1504892  80.3507042  89.4264126   5.4232681
  80.9900665  90.1177120   4.2382288 115.7533550 100.9263325  30.7908726
 114.8762035 101.2648487  30.9704328 116.2284184 101.0436821  31.6135359
  76.2758398  70.6927919  77.2884902  75.4129410  70.8130264  77.6849612
  76.1093473  70.6993198  76.3459047  75.0326347  73.9328146  18.7483764
  74.9696922  72.9904509  18.5927498  75.8181047  74.0348768  19.2858303
  61.1057663 117.0248413   9.1851223  61.4980555 116.4635181   8.5163474
  61.8505716 117.4620152   9.5978832  72.8808403  75.6680489  13.8259947
  72.7951908  74.8381233  13.3568239  73.4534073  75.4667616  14.5661855
 100.5001163  78.3746481  80.8871778 100.6413937  77.4283171  80.8600458
 101.3375378  78.7335110  81.1807235  98.6014748 105.6743050  21.8381095
  97.9338264 105.9004211  22.4856734  99.1367722 105.0077629  22.2687173
  93.3192348  85.8613396  34.9910212  93.8636494  86.3882256  34.4060159
  93.8095093  85.8318424  35.8125997  63.5242796 124.2678356  94.0519615
  63.0404854 123.6003590  93.5654994  63.1553984 124.2353821  94.9346300
  73.2058430  87.3051071 106.1008351  73.0752659  88.1992245 105.7850405
  72.4523115  87.1386623 106.6671529  97.2646523  68.4283543  38.8992953
  97.1014214  67.8314400  39.6295547  96.7416477  69.2038918  39.1023755
  60.5248594  99.3284512 105.3679445  60.0482702  98.9915562 106.1266228
  60.9443569  98.5571194 104.9867635  84.6544456  79.1310692   0.9866527
  83.9834595  79.2622042   1.6565910  84.2537880  78.5271358   0.3613765
  38.5892987 104.9282074 102.8122910  38.5569072 105.4288387 101.9970908
  37.8308535 104.3460846 102.7661654  87.6523209  55.9102011  99.3731173
  88.2082272  55.3471470  98.8344451  88.0132771  55.8291531 100.2559402
 111.1125851  81.2106609  83.3347305 110.1968956  81.4147663  83.5246714
 111.3878155  80.6483459  84.0588101  87.2290230 101.9910717 100.5141517
  86.6964436 101.9663620  99.7191795  87.1783829 101.1015701 100.8641078
 101.9811535 106.5467930  96.0539671 101.2029171 106.9499397  96.4387497
 102.6600266 107.2174644  96.1285182  99.5171356 119.6313381 108.4649115
  98.5962200 119.4260502 108.6261997  99.9788761 119.2718887 109.2224195
  71.0819864  61.0462618  25.2881718  72.0374012  61.1016035  25.3069234
  70.7950306  61.9323874  25.0675535  44.9308968 108.2632446  33.2300329
  44.8247862 107.6131821  32.5354910  44.3351221 108.9721394  32.9876471
  62.0744705  82.7707291  98.1101915  61.8237734  83.4887218  97.5289317
  62.1847820  82.0188046  97.5282296  52.6635695  59.7903824  14.1345239
  52.4614191  59.6865368  13.2046938  53.5112047  59.3596220  14.2449129
  85.8136845  70.2424288  41.5800190  85.6758499  70.9254313  40.9237099
  86.7336845  70.3315115  41.8288279  58.1602573  69.7883701 102.8093722
  58.0078077  70.4189062 103.5132333  57.5963068  70.0855303 102.0953056
  92.8757858  99.4213581  15.8863163  93.2828712  99.7576809  15.0879419
  93.1666183 100.0202465  16.5740550  48.8944292  72.7265644  63.2378920
  49.0295792  72.4716139  64.1505631  49.3430233  73.5680962  63.1553372
  57.7632093  83.9417076  39.3859839  58.4943485  84.5360851  39.2175198
  57.0404816  84.5164585  39.6380830 111.0736465  82.0356846   3.2809037
 110.2250004  81.6994286   3.5689524 111.6879559  81.3252068   3.4654766
  86.7083836  85.6388664 109.2792074  87.0744133  86.4549923 109.6200798
  87.4600506  85.0504971 109.2081777  65.3025436  95.4661655  45.7985067
  66.2331820  95.6862736  45.7573652  65.1811981  95.1014900  46.6751528
  92.3556042  95.7898998  69.9622782  91.7979145  96.3883018  70.4594001
  93.0735779  96.3384247  69.6462830  93.1849098  96.5238953   3.2223400
  92.4133110  97.0139885   3.5063705  93.5560894  97.0506668   2.5145534
  84.1496181  29.8710299 109.5748318  83.5340881  30.3331828 109.0058205
  84.9637508  30.3690743 109.5015661  88.7614155  54.2287827  97.1833488
  89.6575356  53.8951302  97.1401664  88.6020279  54.6001339  96.3156363
  80.0839806  91.3408566  13.0439115  80.0022793  90.3883457  13.0916333
  79.6972179  91.6556549  13.8609505  96.9918537 107.8820801  96.1096486
  96.6171837 108.3366871  95.3552076  96.4705276 107.0834541  96.1911901
 103.3788681  71.4138365 102.1573284 103.9714527  71.9471979 102.6870450
 102.5196171  71.5384626 102.5602862  82.2438145  73.4061909  97.9484054
  81.4419365  72.8842402  97.9766616  82.1239758  73.9889431  97.1985587
  64.5627642  82.1265984   0.6318898  63.6422920  82.3172379   0.4512848
  64.8685741  82.8795910   1.1375660 101.8438339  93.3343983  98.9968928
 101.0743332  93.4360313  98.4367367 101.5806484  93.7119102  99.8362091
  90.9403801  96.2299633  92.4263450  91.8738556  96.3043690  92.6245960
  90.8905125  95.5416107  91.7630776 105.9351254  88.3683777 104.0668603
 106.0610771  88.9943027 103.3537027 106.5108967  87.6359463 103.8471850
 100.6667995 107.1572495  20.5386281 101.3951492 106.7642498  21.0195589
  99.9169636 106.5974331  20.7400727  65.8286667  88.5598373  12.3439705
  65.2947330  88.8304234  11.5970206  66.6908646  88.3796310  11.9693089
  90.0148582  73.7193871  12.2523069  89.6425343  73.2761478  11.4899814
  90.2947712  74.5724297  11.9203472  26.2155294  49.8975420 105.4855790
  25.4083085  49.7736883 105.9848654  26.2246370  50.8307076 105.2726164
 100.2534294  48.6734724  57.6251221 100.4119492  49.3803787  58.2507229
  99.9472904  49.1175938  56.8343878 109.9359703  89.4092083  26.1172509
 110.3768063  90.0320053  25.5393124 110.1919270  89.6785164  26.9993997
  92.0242786  90.8382988 102.5159743  92.6453876  91.5514946 102.6636358
  92.4012566  90.3384590 101.7918965  84.4917297  95.0509262  20.2151728
  84.2310333  95.6504631  20.9143353  83.6744976  94.6372032  19.9373138
 102.6847172  98.7156487 104.5410546 102.8458118  97.7942562 104.7442987
 102.0241356  98.6962223 103.8486042  89.6668148 113.2248306   8.3511198
  89.0895557 113.6984921   7.7522475  89.7742367 113.8149071   9.0971082
  78.7120724  82.1515846  18.0144656  78.5807228  82.1037865  17.0675254
  79.2323256  81.3757896  18.2235622  15.2895319  68.0396366  14.6476102
  15.5172074  68.9653826  14.5616448  15.9582639  67.6817417  15.2315128
  67.1978712  81.4172554  72.4014529  66.8017626  82.2427273  72.1223172
  68.0714512  81.6619587  72.7067550  60.3664589  88.9585018  32.0280385
  60.7659817  89.7033119  32.4773288  59.5295286  89.2936516  31.7063951
  70.4555368  98.5706043  13.9656210  69.9787378  98.7253284  14.7810698
  69.9008274  98.9554882  13.2871008  68.7096262  46.8622971 103.5533925
  68.2115936  46.0594368 103.7070587  69.4782114  46.5765667 103.0595633
  53.0086136 104.9650383   1.3019651  53.3842945 104.1046524   1.4886141
  53.5301304 105.3010845   0.5730447  84.4838810  66.3079977  27.9130411
  85.0307083  65.5285168  28.0111146  85.0893974  66.9904900  27.6235867
  85.4125595  46.7120314  12.1858227  84.9635315  46.8647480  11.3543844
  86.3116169  47.0007372  12.0290530 105.7623291  73.6863756  97.3365315
 104.9144077  73.4771585  97.7283117 106.1790848  74.2737722  97.9670116
  95.8657551  78.7528515  15.0541461  96.1847210  77.8562498  15.1570737
  96.5749741  79.2088461  14.6010375  64.1863155  52.6029062  94.5730003
  64.0424967  51.8526173  93.9962729  65.0257874  52.4223995  94.9960097
 110.5684566  62.0100880  44.2496014 110.9106445  61.1533403  43.9943981
 109.8454094  61.8116570  44.8446226  54.3752527  50.7642317  92.5559970
  54.7606564  51.5781069  92.8804883  54.1436434  50.2769756  93.3466753
  85.2046204 103.6807060  77.8972229  85.6293011 102.9382229  78.3268531
  85.3273201 104.4107723  78.5040077  60.6159735  97.4130154   3.5361505
  60.4664278  98.3477974   3.6777663  60.8230448  97.0692348   4.4051543
  72.9764175 123.8307762  77.3027381  72.7632284 123.2824516  76.5476712
  72.4637127 124.6284199  77.1718844  84.0421963  86.2578869  18.3984005
  84.9129486  86.2492752  18.7958300  83.8754177  85.3441334  18.1671536
  44.4887781 110.0264931  95.1892372  45.3497887 109.9624825  95.6025060
  44.4695044 109.3031788  94.5625993  58.3787394  73.4274912  20.1500821
  58.7926769  72.5860357  19.9581444  57.4404812  73.2380152  20.1517344
  61.8044281 119.7445297  29.9660015  62.0564079 119.2244720  30.7290745
  62.3487711 119.4060421  29.2551184  60.1406860  47.6213312  20.1574612
  59.9553633  47.2409296  21.0160518  61.0607910  47.4122667  19.9964142
  79.4362783  64.8854876   7.9507023  80.3022480  65.2757025   8.0692762
  79.1556692  64.6518326   8.8355160  60.0594378  70.6428432  26.4721441
  59.7699690  71.4598656  26.8782473  59.2611551  70.2605677  26.1076808
  98.3161831  69.9168587  28.7210512  97.5321579  69.9016666  29.2699575
  98.2588005  69.1164351  28.1992674  98.8023281  87.1227551  44.0599012
  98.5074234  86.6347599  43.2910538  99.1645336  87.9342079  43.7041187
  78.3297777  90.8735752  78.8137921  79.2347097  90.6599808  78.5863908
  78.2647181  90.6764603  79.7482141  46.9612503  78.1219292  30.7647800
  47.3839140  77.3925924  30.3112864  47.6419115  78.4741354  31.3382626
  72.9269791 104.5496464 101.3375505  73.7851715 104.5675755 100.9139761
  72.6714420 103.6273193 101.3220372  69.0780544  56.3969183  35.4523087
  69.5491982  56.9102526  34.7960019  68.7153101  57.0493126  36.0514998
 101.2547398  90.9774876  22.6007128 100.3803444  91.3393879  22.7445340
 101.8429756  91.5894032  23.0431700 112.9790211  50.2209520  16.0111475
 113.5463142  49.5680046  16.4211059 112.5610542  49.7544670  15.2873158
  74.2045736  67.6057863 107.2997970  73.5683060  68.1830883 106.8777599
  73.6716175  66.9773817 107.7869306  90.4245758  86.7891312 104.7271689
  91.2468529  87.1808434 105.0215464  90.3231621  86.0080147 105.2710452
  93.2562542  45.3203201 108.3192071  94.0547466  44.8919296 108.0107942
  93.5543823  45.9167862 109.0059245  88.3509445 104.8833179  19.2858386
  88.0847836 105.7655907  19.0270138  88.0468655 104.3224049  18.5722911
  72.0945024  75.0571394 106.6131827  72.8554440  75.6364441 106.5730935
  72.0454979  74.7892618 107.5308263  83.5834026  78.1342602   3.4633249
  84.2446709  77.5028944   3.7467670  82.7707386  77.8263426   3.8645583
 104.0099621  74.3836927  37.8407216 104.9389744  74.3520880  37.6123238
 104.0007019  74.4982481  38.7909985  84.5813465 122.3590851  12.7230120
  84.2921543 123.0469418  12.1234655  83.8510990 122.2496986  13.3321238
  65.6149769  65.2204275  13.5675025  65.2854109  64.3225622  13.6056519
  65.4800797  65.4866409  12.6580155  62.3304892  32.4203205  28.2863808
  63.2271004  32.5488329  28.5959077  61.9064140  33.2676148  28.4223366
  90.0175285  88.9089489  75.2916988  89.9580860  89.2999744  76.1633619
  89.1694164  88.4848213  75.1611146  86.3934994  70.3143787   9.4335723
  85.9989643  69.4422674   9.4353288  86.1295986  70.6983280  10.2697384
  73.6613417  71.1805296  18.5352349  73.3539629  71.6159248  17.7401364
  72.8914881  70.7198906  18.8689530  39.4879484  53.6054564 107.7618923
  39.4994068  54.3651295 107.1796583  40.2271414  53.7459898 108.3535656
  68.2675838  88.3230305   5.4440296  69.1817331  88.4619331   5.6915569
  67.7890491  89.0188789   5.8946198  40.0411940  82.6084709  87.1730074
  39.3490267  82.2372818  86.6258749  39.9966431  83.5505199  87.0092806
  84.3426895 109.4663334   6.9935101  84.9924660 110.0359631   7.4052590
  84.2453003 108.7345409   7.6027948  72.3852777  79.3580389  15.4741073
  73.0503368  79.9231100  15.0808847  72.4261427  79.5553875  16.4098501
 107.8848267  54.8290586  12.7266729 108.4106350  55.5895424  12.4788320
 107.7831650  54.9070311  13.6752594  82.0110035 118.5847378 104.5506670
  81.0686111 118.6182022 104.3863239  82.2925377 119.4989967 104.5174208
  94.7484112  87.6345348  42.6840878  95.0343513  87.3068714  43.5367966
  93.7955761  87.6904297  42.7562094  61.3169289  97.4115276 107.5799074
  60.6434155  97.1613407 106.9474384  60.8274937  97.7493191 108.3299636
 103.2038975  79.7925711  24.7534323 103.8733768  79.7871351  24.0693235
 102.9122543  78.8826609  24.8103786  70.8436203  85.5704117  10.9923434
  71.6956425  85.9892941  10.8705556  70.5905914  85.7978916  11.8870282
  71.1139727  68.1258726  11.3765645  70.2836132  67.9611254  10.9298050
  71.3359118  69.0276527  11.1446881 109.9657631  47.1012783  31.5373421
 109.1725826  47.6303625  31.4527392 110.6817436  47.7152157  31.3739991
  99.6581078  77.3967457  23.7844872  99.1638851  77.9777575  24.3627644
  99.1369343  77.3569536  22.9825974  79.1652822 101.9330311  98.2584127
  79.8053694 102.6446056  98.2452174  79.0619373 101.6867542  97.3392268
  98.7171364  40.9900379  26.1805820  97.9205894  40.4992580  26.3827944
  99.3660450  40.6600475  26.8020749  61.5534592  56.2253284  11.7189133
  61.3005400  55.3035641  11.7700398  62.5036669  56.2197208  11.8342519
 108.7428665  81.0193253   6.8415886 108.4480000  81.5378952   7.5901663
 109.5618153  80.6197834   7.1346956  73.8835478 113.7206173  12.5439227
  73.2699394 113.2119274  12.0138741  74.2749071 113.0802059  13.1380081
  64.4074154  91.1585808  98.1651958  64.9088049  91.0740089  98.9761766
  64.5115757  92.0762920  97.9138061 114.0060234  74.5570421 104.1742649
 113.5078049  74.0696144 104.8303311 114.8327732  74.7669458 104.6086045
  69.6616316  83.5656261  28.3385444  69.6412039  83.3122063  29.2613649
  68.7502098  83.5032463  28.0528045  94.6666718  67.3129797  39.0840030
  95.2747345  66.8483973  39.6590257  93.8124943  66.9259071  39.2758250
  55.8032227 105.5760574  23.6969543  56.1776352 105.1144600  24.4472742
  54.8586321 105.4479408  23.7839413 111.8181992 106.6895008   5.0494611
 110.9518528 107.0455933   4.8523021 112.4207211 107.2268581   4.5352194
  55.2450466 104.3978119   7.2943854  55.1595592 104.5652580   8.2329404
  55.8387327 105.0807381   6.9823480  89.6006393  57.0622063   8.4810883
  88.9361382  57.7457571   8.5672444  90.3355026  57.3746538   9.0089065
  97.7309513 100.6102085 108.0964605  98.1100368  99.7476006 108.2650896
  98.3580017 101.2257671 108.4760969  62.5732470  52.7528667  13.0177919
  62.5682449  52.6377153  12.0675603  61.7206812  52.4245024  13.3033410
  80.4501247  66.6039085  97.5080109  80.9368992  66.4960909  96.6909027
  80.7695675  65.8994293  98.0718327  83.8771725  64.4402266  77.3493719
  83.7680817  64.5380211  76.4034462  84.7139931  64.8644638  77.5390863
 124.1522694   6.6335005  17.7718488 123.8269329   6.5628672  16.8744031
 125.1007462   6.5327555  17.6914064  72.1682930  89.2406559  10.2882901
  72.7144051  88.7512112   9.6731130  72.7829075  89.5717144  10.9431878
 100.3991890  62.1865368  59.0163326 101.1948681  61.7577314  59.3313742
  99.8054028  62.1708298  59.7669363  66.6555214  87.7843475  88.4945107
  66.3833332  88.4783459  87.8940868  67.5536108  88.0132580  88.7338066
  99.6465969  42.7008295  14.6560327  99.8684025  41.8488741  14.2802564
 100.4610252  43.2017517  14.6111718  36.9596529  58.2387018 107.4224377
  37.8101850  58.4571266 107.0414925  37.1578026  57.5821924 108.0902386
  95.0274181  59.4937515 105.9911633  94.9931812  60.3481388 106.4213753
  95.5796528  58.9599180 106.5623951 113.2347012  82.3027706  11.3871900
 113.8131523  83.0576134  11.2783281 112.8188419  82.4404716  12.2382585
 110.7797146  57.2525740  88.0863285 110.4118252  56.7875481  88.8377571
 111.4651394  56.6712093  87.7570248  94.4699097  62.0880175  93.8044739
  95.2602959  61.5883493  93.5999012  93.7708473  61.4343548  93.8208389
  86.0015678  73.9882803  15.8632413  85.8602810  74.6474981  15.1837484
  85.9675694  74.4793701  16.6841546  84.8799324 104.8250103  97.4664593
  84.5425320 105.3364658  96.7310715  85.7189560 105.2343369  97.6779461
 114.1748428 106.6285801  16.9930784 114.9697399 107.1170998  16.7792741
 113.7682629 107.1301365  17.6997415 116.6670513  58.7728977 108.9605522
 117.0541286  58.1345892 108.3614063 115.9939957  59.2120123 108.4405518
 106.2194061  43.9735413   2.2814504 107.1555328  44.1499567   2.3751489
 106.1356735  43.0334806   2.4411622  59.4549847  37.6939178 100.0204659
  60.3502607  37.8783393 100.3045559  59.4275999  36.7426896  99.9172688
 106.7189217  40.0873566   0.1306573 107.4407578  39.9213743  -0.4756697
 106.5179729  39.2293644   0.5044214  89.2957878  23.2047176 101.1531639
  89.2098331  23.2166505 100.1998997  89.9234486  23.9012575 101.3457870
  48.2172632  56.0672855  74.1869545  49.0368557  55.5901480  74.0571833
  47.6069212  55.4090071  74.5191956 116.8617439  57.3015499 106.3131428
 117.0751858  57.9879761 105.6810856 115.9055996  57.2573233 106.3049507
  58.7432194 107.7985954   0.3170530  58.9353752 108.5123825  -0.2910765
  57.8160334 107.9072666   0.5286161 110.5369186  70.1114321  75.3704929
 110.1487637  70.9475946  75.6281614 110.6342602  69.6293783  76.1917019
 105.8535957  58.2559586 105.1305676 106.3454819  57.4810123 104.8590279
 106.1552334  58.9490414 104.5433044  92.1614742  81.7510414  84.1094780
  92.5747490  81.4871883  83.2874012  91.9587898  80.9263706  84.5511436
  96.3676167  69.3930292  14.6003763  95.6409740  69.6174717  14.0191404
  96.6863155  68.5523844  14.2717782  82.7123737  67.7950191  76.4864302
  82.3474407  66.9379044  76.2664175  82.2955799  68.0269289  77.3163319
  83.4704590  61.0283089  12.6139871  83.0365276  61.6897249  12.0750467
  83.0931854  61.1446905  13.4859697  88.2506275  93.1879520   2.9750768
  87.9099655  93.2629299   2.0836965  89.0696144  92.7020168   2.8784028
 100.9975243  51.6316557  25.0076524 100.3839970  51.2155437  24.4021264
 101.3087940  50.9164000  25.5624048  89.4189453  78.6536503  66.5150261
  88.8067150  79.3747425  66.6614485  90.1166153  78.7982607  67.1542215
  84.1956043  61.7679834   5.5129949  84.0376663  62.7119637   5.5264798
  83.4394264  61.3921547   5.9637491  82.0375538  48.0086660  83.3664608
  82.0010090  48.6138821  84.1071415  82.1838379  47.1508121  83.7651157
 107.9978466  50.1563644 106.1314774 107.1091461  50.3320551 105.8223343
 107.9875469  49.2312241 106.3769150  82.3073387  44.5440626  46.5431070
  82.2812939  45.3953934  46.9798946  81.8785667  43.9470577  47.1562719
  42.1047831  72.2804260  22.3848478  42.1477699  71.6540003  21.6623727
  41.1889839  72.5580168  22.4070016  58.1015301  69.7059441  17.4629823
  58.5938549  70.4884195  17.7111474  57.9493141  69.8067284  16.5233556
 111.9444275  32.2889066  75.2523375 112.0219040  32.3134398  74.2985916
 111.4527702  31.4875555  75.4321671  92.9252243  50.7278299   8.5604898
  92.2863770  50.7621622   7.8484956  92.4345970  51.0004520   9.3358556
  73.3883142  51.0261679  12.9921857  73.9540815  51.7812347  12.8309003
  73.5497284  50.7970905  13.9074460  92.9769707  80.2862549   5.0272504
  93.3270168  80.5750465   5.8700506  93.7261486  79.8946333   4.5782605
  78.7995815  38.9051867  84.5605373  78.5508966  38.0554461  84.9243069
  78.0766535  39.4870234  84.7952175  76.1080313  77.9079533  78.8563013
  76.8965054  77.3877001  79.0108204  76.3971567  78.6157942  78.2804537
 116.8134785  68.4182644 101.4187622 116.6947365  69.3680429 101.4111233
 117.2470093  68.2243919 100.5876923  73.3087492  58.9350319  23.7496129
  73.5791874  59.4469309  24.5118848  73.7095022  59.3839264  23.0052224
  82.0442963  28.1119800  18.5050241  81.0882092  28.0672717  18.4929029
  82.3139954  27.3382354  18.9997999 102.2385788  75.3538370 103.7161350
 102.6795197  75.9931087 103.1565475 102.9279137  74.7385740 103.9661312
  99.2309380  77.0579910  10.8702604 100.0141811  76.5934944  10.5753175
  99.4516563  77.3654652  11.7494527  77.1905613  81.6829586  75.1588631
  76.2390327  81.6872978  75.2628040  77.4892759  82.4444675  75.6559706
 120.3198051  86.8955708  88.9030266 120.2409935  86.9949055  89.8517895
 119.5332527  86.4141750  88.6464596  61.7882824  82.4347973 106.6855621
  61.1681700  82.1506596 107.3570919  62.5820875  81.9304848 106.8637943
  89.0573120  93.3202171  72.3716354  88.4552002  93.6847973  73.0203104
  88.5853100  93.3885193  71.5417051  65.1647139  90.7046795  92.3074150
  64.5168066  90.0103188  92.1877861  65.5822325  90.5010700  93.1443501
 102.6257706  65.3983212 108.7090683 102.1762085  66.2306499 108.5629177
 102.1059990  64.9605083 109.3831635  61.7167997  94.8550129  11.1743871
  60.9474802  95.3349495  10.8677141  62.4084520  95.5151463  11.2199537
  73.3156824  70.2446795  81.6784954  73.0289459  70.4641438  82.5649738
  73.4411001  69.2958784  81.6953373  81.4826775  71.5303421   9.7260896
  81.9907093  72.2949982   9.9970666  81.5357685  70.9313297  10.4708043
 113.8373470  59.5584202  85.4535198 114.3861961  58.8886690  85.8614731
 114.1256809  60.3796482  85.8518696 114.2335796  71.7856789   3.7250367
 115.1071835  71.3977671   3.6742536 114.3100357  72.6114321   3.2469980
  66.9878817 106.6642380  91.4394283  66.2851524 106.7023849  90.7906246
  67.3856401 105.8030701  91.3113499  72.5661373  59.4923496 108.7356758
  71.7129087  59.0799427 108.6009216  72.6235771  59.6200323 109.6825790
  45.4271650  69.5378876  82.9218006  44.6772194  69.3732119  82.3502254
  45.5284739  70.4896927  82.9157639  41.4900637  14.7685754  81.5176678
  41.2256861  14.0523207  82.0950031  41.1867857  15.5596638  81.9631290
  84.7731876  33.4252548  26.4258043  84.4191074  32.6035714  26.7659513
  84.5750999  33.4020782  25.4896108  55.4612207  37.8867292 103.5295010
  55.4731464  38.5526204 102.8419781  54.7586584  37.2896075 103.2724285
  33.8019323  56.9053936  67.6174545  34.0388656  55.9947920  67.4416733
  33.1532431  56.8528795  68.3193636  72.4871111  42.0851660  92.1137810
  72.6715040  42.4123335  91.2333393  71.8979025  42.7372360  92.4930859
 103.3680725  78.4146690  85.0634384 102.6067448  78.8680887  85.4254150
 103.7253094  79.0243387  84.4177437  48.5170412  55.6368542   8.6184255
  48.6744165  55.5067301   9.5535890  47.5978661  55.3999710   8.4949914
  87.8578377  62.4507380  66.8116903  86.9618225  62.4814224  66.4763737
  87.8199863  61.8305206  67.5397873  31.1208463  42.2833252  91.2477398
  31.5334415  41.5080500  90.8670330  31.6955447  42.5288534  91.9727707
  87.5854111  62.7723265  92.7053356  86.7423344  62.6557016  92.2673225
  87.4528217  62.4086380  93.5807705  97.9487991  47.1187878   4.0958253
  97.6006126  46.4736462   4.7112886  98.8967419  47.0850992   4.2242948
 100.0340843  69.4036150  94.1911030  99.1454792  69.5047140  93.8499355
 100.2483368  68.4842682  94.0325928  81.0070992 100.5713272 101.0628319
  81.2605286 101.0285759 100.2610016  80.5328846  99.7978306 100.7577896
  66.0395861  51.9904041  78.1785345  66.8738079  52.0154190  78.6472368
  66.1683273  52.5719404  77.4292183  71.3422585  40.2062178  18.8601915
  70.4513407  40.1170015  19.1986409  71.8984127  40.1751661  19.6386281
  97.9049397  42.3821020 108.0850983  98.1369019  41.8229580 107.3436165
  98.3848572  43.1958008 107.9308128  75.5802393  77.8090811 104.1001892
  76.0693359  78.4310579 103.5615253  75.6837702  76.9701338 103.6510944
  84.1350079  77.9093695 101.6004848  84.6414280  78.5783100 102.0612335
  84.6220875  77.0981789 101.7452812  84.9445152  69.0982246  75.2689981
  84.1552639  68.6281633  75.5379725  84.9993610  68.9533615  74.3244123
  64.3515778  47.5035858 106.9954395  64.7448874  46.6817570 107.2889328
  63.8256979  47.2589350 106.2339687  74.6030903  68.8704777  71.2164879
  74.7781467  69.0494633  72.1403646  75.3325891  68.3172035  70.9372950
 102.1857357  21.7771840  32.7947179 101.7781067  22.1614933  32.0185796
 102.0583057  22.4319291  33.4812299  78.7813473  84.5980263 107.8599262
  78.4774017  85.4968548 107.7335739  79.6307278  84.6908379 108.2913971
  67.0635700 102.0435143  10.5842725  67.5780344 101.2723351  10.3458539
  67.1826839 102.6469994   9.8508970  92.2980213  77.0091867  15.6185571
  92.6175690  77.7528429  15.1075784  92.5813389  76.2397718  15.1246301
  88.6491013  54.8281384  86.5153694  88.8602066  54.3461084  85.7157993
  89.1878414  55.6179285  86.4682102  84.7118664  70.0782061 105.8084679
  84.8535919  69.4515610 105.0989151  85.3556633  69.8359632 106.4741039
 111.4410400  72.0018291 109.3636608 110.5949879  71.6090012 109.5783997
 111.7999268  71.4379454 108.6784935 104.0759468  79.6086168   5.4405919
 103.5232449  78.8405800   5.5850927 104.7817612  79.5196819   6.0810129
 116.4007854  87.0694637 107.5516224 115.8777618  87.2039413 106.7613125
 115.7556915  86.9717693 108.2520103 102.4667740 122.1050549  90.8264446
 102.5041485 123.0575371  90.9136581 103.0761242 121.7797661  91.4891052
  57.8974962  60.6041336  93.0945110  58.2538605  61.4831305  93.2233620
  58.1976557  60.1098156  93.8572598  81.3854027  69.7270584 100.9869003
  81.0954762  70.0228167 101.8498611  81.7936611  70.4985332 100.5939865
  57.1404934  49.1690397  85.7118320  57.6012373  48.6266088  86.3519287
  56.3244629  49.4136143  86.1483002  76.6197681  67.1908760  70.6891441
  77.3902035  66.6271210  70.7587433  76.1334276  66.8407583  69.9427366
 108.4611034  42.7882290  69.1162443 109.1100216  42.5367308  68.4590673
 108.9427090  42.7809906  69.9434280  70.3327179  47.7348328  95.0214958
  70.3939629  47.4862242  94.0991688  70.7435656  48.5982990  95.0646019
  68.7064505  95.6019402  76.6618061  68.1727886  96.0548210  76.0088587
  69.2965555  96.2762833  76.9983482  79.4070387  55.9154367  73.1655216
  80.0261211  56.6454744  73.1610918  78.6721802  56.2277651  73.6934042
  82.5968933  76.0227346  92.7080250  81.7166805  75.6879568  92.8794384
  83.0483913  75.2985001  92.2745895  78.6085129  80.1810265  86.4838409
  78.6577225  80.8553314  87.1614265  79.5113611  79.8810577  86.3784313
  75.7808113  95.3915119  98.1966591  76.4087057  94.6809578  98.0658913
  76.2349415  96.0101986  98.7687016  65.9231758  58.8912344 109.5616341
  64.9823380  59.0564632 109.6228790  66.0277271  57.9880810 109.8610020
  75.4457521  27.8463745  89.1546822  75.1034498  27.8213978  90.0482368
  76.1334038  27.1806240  89.1429234  82.5900269  54.1276932  82.4478436
  82.5627422  54.8431778  81.8125725  83.4758854  53.7732029  82.3714256
  48.8402033  58.8725853  85.1944256  48.3852530  59.1556215  85.9876060
  49.2039585  58.0163050  85.4195690  80.0502586  31.8974972  96.4793015
  80.6693745  31.8577671  97.2082424  80.2231026  32.7424312  96.0640335
  60.2709389  76.3931227  15.8258287  59.3781567  76.7013121  15.6703130
  60.2051258  75.8575344  16.6164342  94.9816704  50.4509544 108.0682659
  95.2471733  51.3200521 107.7675915  95.3408718  49.8512173 107.4144173
  81.1637974  76.4473581   9.6667043  80.5627918  77.0889854  10.0453130
  81.5692234  76.0234594  10.4231206 112.7369690  63.2038689  75.4576254
 112.2534084  62.6736832  74.8241377 113.4999847  63.5191488  74.9732256
  80.2212429  67.4225283  37.6884595  80.5242920  66.5421247  37.9104749
  79.6683550  67.6787615  38.4266225  87.8929710  58.9558649  96.0019207
  87.6947021  59.3971920  96.8278503  87.1714115  58.3386707  95.8809185
  67.5131512  57.4933434 103.8347816  66.7917538  56.8743038 103.9470673
  67.1035099  58.2731056 103.4600830  95.2136326  71.7144680  58.0199337
  95.6328583  71.4154959  57.2130251  94.4205952  71.1829090  58.0889893
 118.1556129  71.4693975  91.6176891 119.0093327  71.1852360  91.9442558
 118.3444214  72.2567892  91.1071968  69.1816521  72.5010061  83.5782337
  69.7254038  72.0465517  82.9347801  68.4050131  71.9487715  83.6682606
 118.7678719  73.8185453  20.1902047 118.3084488  73.6173630  19.3749181
 119.5233727  73.2308054  20.1907102  83.1891918  88.9970589  -0.0957354
  83.9596653  88.8944912   0.4629079  82.5531673  89.4536591   0.4549161
  94.6260166  62.2173738 102.0901775  95.3805351  61.6353369 101.9998169
  94.8498440  62.7871847 102.8260136  66.7148542  79.7915268 100.8384323
  67.5958347  79.5320559 100.5686665  66.8435717  80.6050014 101.3261986
  85.0539017  38.1693745  26.4727441  85.6133461  38.9301324  26.6292707
  85.5749512  37.4236131  26.7703668  67.2772551  53.8685274   7.6804582
  66.7531776  53.9196205   6.8810979  67.5891256  54.7626781   7.8199426
  67.4805450  65.7609558  83.3481121  67.5348377  66.4112711  82.6478481
  68.2074881  65.1624680  83.1760693  62.8314590  65.4146957  77.0180845
  62.0141840  65.5394650  77.5005007  62.6078129  65.6211662  76.1105680
  80.3952503 128.3152294  89.9487591  81.1261845 127.7018642  89.8728180
  80.8105278 129.1738319  90.0298500 109.6517754  70.2170229  80.9658337
 108.7874126  69.9396372  81.2694359 110.0514317  70.6337690  81.7292595
  61.6186094  62.9609203 101.5934563  62.2873735  62.5197601 101.0696507
  60.7910633  62.5905514 101.2864971 101.3102722  79.1797113 100.7754135
 100.8721924  79.4975615  99.9859238 101.1225510  79.8447847 101.4377308
  78.1614494  75.1717901 107.1828842  77.4663687  75.2001858 106.5254021
  78.8266468  75.7766724 106.8544674 113.4564400  33.4464574 102.2677517
 113.5853481  34.3941402 102.2288990 113.3010864  33.2636642 103.1944084
  61.5196896  50.3085947 100.0006962  61.9063616  49.4417953 100.1246929
  61.9001198  50.6256104  99.1815472 108.7007713  56.3273668  94.6558189
 107.8386593  55.9373617  94.5112705 108.5187912  57.1473312  95.1149178
  51.9875383  62.7349758 101.7777729  52.4397182  62.4867582 100.9714508
  52.6478720  63.2037592 102.2881031  52.3478413  62.3687029  13.0768529
  51.7343092  62.3872614  12.3423711  52.7710724  61.5124702  13.0138246
  90.6540871  82.1006489  14.9422494  91.0327530  82.3678970  14.1047422
  91.4046192  82.0265961  15.5316964  66.6270781  48.6143875  80.6142616
  66.0401440  48.9238834  79.9243736  66.0720587  48.5542679  81.3918018
  54.6949959  63.4056520   1.1815492  55.0895500  64.0402317   1.7797700
  55.0731897  63.6144543   0.3273813  72.7177143  81.5093040  17.7162401
  73.2160282  82.3099804  17.8800336  73.3588028  80.8047485  17.8102342
  62.7057266  73.8184500  30.9488050  63.1614494  74.4073582  31.5502492
  61.8141317  74.1639423  30.9049074  74.1258240  69.2331266 109.9006462
  74.4473505  68.8932943 109.0655613  74.9174595  69.4724846 110.3825760
  98.2238960  39.8576498  93.0773544  98.8589096  40.1980448  92.4471855
  98.5524750  38.9871454  93.3020496  69.0290737  74.7014189  86.8451500
  69.4571066  74.6382856  85.9913063  69.5692873  75.3183985  87.3388386
  92.0534801  74.3904829  83.3922291  92.1319771  74.8251390  82.5430298
  91.5511894  73.5964441  83.2093525  62.6981878  43.8668394 100.8358383
  62.9064751  44.4386625 100.0970078  61.8448067  43.4930134 100.6162262
  95.0291061  78.6346102 101.3305759  94.2249489  78.9513779 101.7419529
  94.8052692  78.5457373 100.4041672 109.4103050 100.0509930 108.4241295
 109.4751644  99.1594791 108.7665176 108.9295101  99.9573421 107.6017570
  78.8673162  44.7996235   7.0603982  78.8781834  45.7342768   6.8541471
  79.4845676  44.4104528   6.4409009  69.9061489 104.2831135  98.4220886
  70.6422663 103.6997414  98.2375813  69.3188000 104.1713905  97.6745796
  57.3915529  63.2236671 108.1309032  56.8662405  64.0235662 108.1518364
  57.9303169  63.3114529 107.3446083  92.5876141  64.3077946  75.5418539
  92.7442837  63.5531330  76.1094570  91.6606998  64.5121765  75.6655359
  48.0218697  77.6846647  98.5305119  48.0523634  76.7374516  98.6649799
  48.9400291  77.9551458  98.5226727  69.7526169  89.2552567  11.8048898
  70.4628277  89.1780186  11.1678163  68.9809227  88.9255428  11.3444463
  70.1660395  92.2606468  84.7481441  69.8777151  93.0823421  84.3507576
  69.3798971  91.9070530  85.1643085 121.3657093  80.3467846  13.8681547
 120.8585644  79.8963404  13.1927720 122.2087860  80.5288887  13.4530774
  97.0637608  55.4856348  13.4817449  96.1780453  55.1575232  13.3265249
  97.0711040  56.3545132  13.0802099  83.5500622  54.4625854  91.3170147
  83.7877655  54.0345621  90.4945087  83.3156204  53.7426472  91.9026470
  92.2209835  48.9073563  97.4936199  93.0769730  48.5339022  97.7035141
  91.6479683  48.1480408  97.3872089  72.5216484  62.4962282   0.7600728
  72.8180218  61.9004250   1.4481298  73.3267260  62.7859116   0.3309385
 112.3540974  75.6328011   8.6959020 111.5549278  75.1159668   8.5937253
 113.0504131  74.9820757   8.7850515 103.0821705  88.6295223  95.2657700
 102.9951954  89.5646095  95.4508781 103.4505463  88.2597733  96.0681534
  56.6267395  48.7161016  72.2366524  55.9371758  49.2145205  71.7981195
  56.2162066  47.8790808  72.4536562 101.6447258  71.2112808  74.0746927
 101.5436649  70.5746698  73.3670616 102.3306274  71.8040419  73.7674522
 108.9433098  42.9783678  37.9159871 108.0577660  42.6669455  38.1032029
 109.0318108  42.8922701  36.9667856  59.6442270  89.4763279  78.5195637
  59.9787807  89.4015980  77.6258516  60.3571081  89.8872948  79.0085840
  90.3871155  79.7516346   6.0221902  91.2790012  79.8505878   5.6890432
  89.9226856  80.5224228   5.6959573 110.2280426  77.5815105  22.1681348
 110.5539417  78.1646538  21.4825956 110.4796982  78.0096817  22.9864065
  43.8605213  34.0277362  76.4984322  43.3963537  33.2352233  76.7680740
  43.2058907  34.5383310  76.0220051  74.2676878  76.8680525  97.5186157
  74.2979860  76.4217472  98.3648682  75.0080061  76.5071440  97.0308590
 101.8951893  40.0349808   9.1235296 101.1221981  40.0302649   9.6880666
 102.4854565  40.6688833   9.5309488  58.1056976  59.5570993  11.1137239
  58.3799696  59.4349813  10.2048246  58.2780075  60.4812860  11.2937871
  75.4827166  65.8379507   7.0209829  76.3035011  65.4257631   6.7514554
  75.7034683  66.3079119   7.8251211 104.4393253  94.2881584  86.4566803
 105.0757885  94.0225410  87.1204472 103.6477661  93.7953758  86.6730690
  94.1926765  76.3614511   2.7521268  94.0006542  76.6496420   1.8597642
  95.1251888  76.1458921   2.7387658  62.1233559  92.8308201   9.3941633
  62.3812532  93.4853268  10.0432721  61.1848021  92.7086353   9.5370714
 107.7556419  65.7447815  92.0233345 107.0554924  66.0727787  92.5876427
 107.2990990  65.3429747  91.2841702  50.1567364  88.2975197 108.3433056
  50.6480217  87.8535461 109.0345097  49.9100018  89.1388416 108.7273884
  84.0181065  62.1601582  95.7161045  83.4943104  62.9379225  95.9083176
  83.8975620  61.5955210  96.4795685  71.0286760  50.4713917  95.1873875
  71.0409641  50.9740543  96.0018921  71.0340071  51.1341763  94.4968033
  87.2903442  49.9367857 105.9555626  87.2090530  50.7198572 106.5000057
  86.4675808  49.8976135 105.4679680  89.0677834  57.1433067   2.0299569
  88.3956337  57.2123432   2.7079526  89.6083641  57.9243374   2.1482030
  66.3555574  44.0711546  38.7187234  66.5646458  43.5232162  39.4752160
  66.6383457  43.5551357  37.9637471  87.9506588  96.8334484  83.9214134
  88.1912994  96.8294144  84.8478603  87.6101780  97.7144814  83.7662315
  49.8819876  67.2006702  90.1705265  49.9535656  67.8134775  90.9023571
  48.9682341  66.9159317  90.1850605  89.1943455  57.8708220  80.4749775
  89.2537022  57.6406765  79.5477533  88.2681084  58.0683613  80.6139088
  73.9881659  96.9364166  79.9155188  74.0948200  97.7927017  79.5012426
  74.5390749  96.3494873  79.3975925  62.4346399  35.4311371 108.0561352
  62.8591204  34.7715998 107.5074482  62.0627165  36.0566616 107.4343395
  89.4072723  19.9777460  91.8093777  89.9354839  20.5483031  91.2510872
  89.0052700  20.5699611  92.4449158 105.7931137  71.0950279  18.7660543
 105.4343605  70.7668352  19.5905629 105.1524353  70.8329725  18.1049196
  54.4438171  64.3965816  80.9302330  54.4351912  63.5851383  80.4225731
  54.6941900  65.0712967  80.2991199  77.2179794  53.3900452  96.0233688
  77.3037481  53.4676361  96.9735622  76.4634705  52.8147030  95.8971786
  87.8527355  91.9347954  69.8881483  88.1139374  91.3077831  70.5625820
  87.0919609  91.5326309  69.4689703  79.5534897  25.6260681  64.7565746
  78.8911057  24.9550557  64.5915842  79.0566444  26.4413571  64.8250151
  42.7576065  52.3912334 107.4859810  42.1825600  52.9073906 108.0508995
  42.1994400  51.6876554 107.1548271  75.5167770  68.9895296  22.0829622
  74.8150206  68.3560801  22.2330133  75.6941271  68.9325857  21.1440698
  54.5202112  51.3531685  13.1977598  54.0580893  51.0239649  12.4268476
  54.7256517  52.2631598  12.9834024  75.8065319  92.2984505  96.9995213
  76.5934563  92.4630260  97.5190353  76.0426188  92.5733280  96.1135483
  79.5436525  78.3385992  80.6624126  78.7592411  78.3577251  81.2106419
  79.9702311  77.5107098  80.8834553 118.7042618  78.9359474 101.0162735
 118.5947514  79.0182257 100.0689316 117.8213501  78.7682199 101.3457680
  56.1288357  85.9796524  71.0179090  55.2068901  85.7993031  70.8342838
  56.3373852  85.4217911  71.7672586 124.1699600  79.7945881  87.7116966
 124.6980190  80.3874588  88.2463646 123.2739830  79.9263763  88.0216789
 104.7219181 111.6168118 108.6402416 104.6898937 111.7676163 107.6955318
 103.8071251 111.6529369 108.9196873  58.8326216 104.8101425  74.7934437
  58.1567192 105.4668331  74.6257019  58.3659029 103.9747524  74.7703314
  81.0338020  60.6154299 102.9811573  80.8299541  60.2910280 103.8583374
  81.0636997  61.5671730 103.0787182  72.5441647  72.0560312  92.0904160
  72.3649454  71.1397552  92.3014832  72.1260118  72.1921825  91.2402153
  93.0864716  59.7197056  79.7196627  92.4448299  60.0698090  80.3376865
  93.6606312  60.4604816  79.5251608  96.4689255  93.6834240  77.3632383
  95.5899715  93.8309765  77.0141029  96.3440323  93.0431557  78.0637264
  71.5182781  72.8470087 103.0028534  70.6084299  73.1443262 102.9996014
  71.5128374  72.0533943 102.4677086  83.0030823  61.1901855 100.4656792
  82.2022438  60.9182358 100.9139347  83.0076694  62.1443796 100.5413246
  84.9841404  84.0163708   7.4145738  84.6117306  84.8713493   7.6303140
  85.4923058  83.7742138   8.1887666  93.0665874  45.2294779  88.9515400
  92.9272842  45.7040787  88.1320381  92.7082348  44.3572569  88.7870789
  84.1779709  76.6996288  75.6629753  84.7896481  77.4049187  75.4516649
  83.3431053  76.9881392  75.2941990  49.7937012  94.3302059  64.6559143
  50.6159592  94.7436428  64.3928671  49.9307346  93.3975220  64.4898844
  70.3376436  35.6210470 104.8724651  71.0079098  34.9713206 104.6607399
  70.8302689  36.4172649 105.0714397  61.0224819  70.5102110  97.9062366
  60.8213186  70.6252575  96.9775105  61.0277176  71.3988113  98.2620335
  88.8367558  27.1521425  72.6530552  88.3317089  27.0356297  71.8483305
  89.3228245  26.3334298  72.7514315  75.0218153  64.3529463  76.7184973
  74.7213793  64.1912603  75.8241653  75.7244110  63.7171030  76.8537760
  83.4086514  49.6783066  10.1151124  84.2105293  50.0178957  10.5124799
  82.7690029  50.3813791  10.2281133  84.3117332  72.9393959 108.1101322
  83.4147453  73.2415771 107.9675484  84.7585964  73.1166172 107.2824001
  70.6899071  76.3832855  70.9663391  70.8330059  76.3672304  70.0200319
  70.1547003  75.6091070  71.1408091  66.3083267  86.2494469  81.4301968
  66.6240501  86.4936733  82.3001957  66.4341879  85.3015327  81.3871002
  66.4744282  93.2604790  58.6524153  66.0052633  93.4977436  59.4523048
  65.8544111  92.7204704  58.1623125  85.4789066  32.9798460 104.7888947
  85.8527374  33.5203314 105.4848576  86.1811352  32.9014230 104.1431808
  74.4602537  32.4735284 108.8098431  73.9046383  31.8355012 109.2575550
  74.4656420  33.2350707 109.3897247  69.4271612  55.4330635  88.3671570
  70.2774668  55.7889175  88.1091309  68.9684153  55.2853012  87.5401497
  75.3445625 102.2916985  68.5281610  74.8835039 101.6306496  68.0117559
  76.0719299 102.5670815  67.9701900  39.0386200  60.7233191  81.8554688
  39.0559578  60.2444315  81.0268593  39.6725178  61.4306259  81.7366314
  49.3146420  48.9671755  86.9805908  49.5907497  48.9418411  86.0644245
  49.0931511  48.0596161  87.1891785 112.8280354  80.7699490  70.7976055
 113.3019543  81.5968513  70.8863258 113.0288887  80.4728031  69.9101400
 102.1547604  60.5644369  70.4335070 101.3224506  60.4779339  70.8982706
 101.9059563  60.7815409  69.5350647  94.3131733  74.8115921  72.7857161
  94.9592686  75.4646063  72.5166988  94.8093510  73.9954424  72.8484583
  68.4649134  49.3918037  82.9193306  68.0855846  49.6722841  82.0864582
  69.4071150  49.3577766  82.7540112  32.2215652  79.0593910  96.6602898
  31.7188239  78.2578468  96.8052578  32.8604412  78.8230801  95.9878159
   1.1379748  43.0791712  82.6535130   0.5803900  42.3382282  82.8908348
   1.2976771  43.5333872  83.4808064  68.4148502   9.1544580  67.0683002
  68.2038307   9.2782474  67.9937077  69.1832781   9.7061312  66.9219923
  72.4128008  81.7338181  86.1777687  72.2125530  81.2156487  86.9572830
  73.1802082  82.2502041  86.4240646  82.3405933 107.5526810  88.2364178
  82.6453400 108.0350876  89.0049458  81.3876438 107.6391411  88.2616997
 101.6474819 107.1542931 105.6716347 102.1817970 107.8687859 105.3248787
 101.0834026 106.9006824 104.9410629  68.6366177  66.9096279  91.6622448
  69.1531324  66.6690826  90.8930969  67.8248119  67.2677565  91.3031578
  22.2937655  92.7992344  80.0430202  22.2144294  93.5271168  79.4264793
  22.2620678  92.0157719  79.4940042  49.7473001 105.1982021  59.5554733
  49.3238878 104.9750805  58.7265158  50.6705618 105.3118610  59.3298626
  44.2831850  45.7927179  80.3955555  43.4056950  45.7759047  80.7776070
  44.4535208  44.8842573  80.1467228  94.0490532  42.5410986  77.8959560
  94.5113945  43.3479977  77.6692724  93.8671398  42.6241779  78.8320303
  73.7322092  80.8322239  70.8037996  74.6237087  80.4876995  70.7512426
  73.8400173  81.7277813  71.1241007  66.9499302  60.8968306 107.3004627
  66.2355423  60.2602339 107.3254490  66.6592169  61.6057205 107.8742218
  47.0684433  70.6989717  73.9441490  47.4356508  71.4438248  73.4681416
  46.1323977  70.8902550  74.0030050  52.5283766  79.7101974   9.8535100
  52.7439690  79.0139341   9.2330495  51.9313765  79.2981005  10.4780046
  83.9601421  66.8959379  98.2632637  83.1553936  66.6452265  98.7168598
  83.8809681  67.8418875  98.1402111 111.5010929  91.4351368  90.3677845
 111.1323547  90.8072090  89.7465229 111.2854385  91.0755539  91.2282658
  68.9825487  59.7843313 100.4113007  69.0328932  58.8288260 100.3846359
  69.4594431  60.0272512 101.2049007 116.3751221  75.7425356  32.3464203
 116.8358326  74.9326897  32.1270275 115.5689907  75.4515553  32.7726984
 104.2726421  72.1799755  75.3145742 104.5393276  73.0469227  75.0087690
 103.6082745  72.3549938  75.9810734 109.3194580  43.5677433  82.5347900
 109.0438557  42.8790617  81.9298172 109.1823101  44.3815279  82.0498371
  92.7339172  59.5743942  90.7950211  92.9820824  58.6828423  91.0395050
  92.2376728  59.8994112  91.5462494  55.5999660  99.0526676  68.1685734
  56.4408255  98.6847210  67.8969049  55.6622553  99.1143322  69.1217518
  69.7994709 115.7607746  71.3684368  70.2212429 115.0450039  70.8930206
  70.0436163 116.5481091  70.8818817  91.9398403  57.4534702  88.8083935
  92.6516628  56.9221640  89.1651058  92.3298073  58.3172417  88.6740398
  12.5760394  62.0272970  89.0953541  11.6246920  62.1225977  89.1410828
  12.7577334  61.2115526  89.5620251  86.9936657  41.1233854   6.0413305
  86.1744022  41.3741398   5.6145231  86.8376541  40.2324295   6.3545266
 103.6141872  55.1122284  77.6665926 103.0757809  54.3372536  77.5060463
 103.0251503  55.7265234  78.1046724  68.2772732  84.7601032  71.6636181
  67.6269484  84.7222137  70.9622765  68.9465809  84.1269302  71.4040947
  69.0856266  50.1518679  86.8782902  69.5325613  49.3767691  86.5381336
  69.0711403  50.7626724  86.1414433  95.2351475  49.4610310  76.9560909
  94.7123623  48.7093925  77.2353029  95.6817245  49.7509336  77.7515554
  60.2420473  73.6888170  96.3653374  60.4900503  73.4140396  95.4825974
  60.1577091  74.6403933  96.3051510  43.2188845  49.2306995  90.2541542
  42.3769760  49.1937160  90.7080936  42.9976130  49.1189194  89.3296146
  86.6623020  54.5856714  82.3839092  86.5267372  55.4102182  82.8507900
  87.3618126  54.7764683  81.7589951  93.9125919  68.6418581   0.1314393
  94.6599579  68.1959867   0.5300180  94.2337990  69.5228958  -0.0604781
  59.1176462  54.4991302  87.5360584  59.9238586  54.0494490  87.2829819
  58.9410973  54.1919804  88.4252834  36.9601893  67.1914005  84.7731972
  36.4839911  67.3347425  85.5910683  36.4095354  67.5940323  84.1017056
  70.4957533  69.2387009  72.8625536  69.6792030  69.5513153  72.4730015
  71.0632515  69.0548325  72.1139717  72.6177311  84.2416573  69.1382837
  73.4065962  83.7011242  69.0965414  72.4337816  84.4677448  68.2265377
  80.3293419  61.4682055  68.1370926  79.5516729  61.0904217  68.5478783
  80.2297592  61.2680244  67.2063732  51.5730047  53.0680466  89.4503117
  51.4114380  54.0111208  89.4231319  51.3151598  52.7557755  88.5829926
  80.6403542  78.8967180  72.4737263  80.0830841  79.6748781  72.4613237
  80.0329876  78.1653595  72.3621607 122.6629925  71.7225933 108.3553982
 123.1930923  71.1680508 107.7829456 122.4268341  72.4730730 107.8102112
  54.5234013  88.4954548 101.0312748  54.8373938  89.0077591 101.7763710
  54.0121126  89.1162491 100.5122089  71.4309359  42.8212547  78.6324072
  72.0773792  43.4776735  78.3726931  71.4514923  42.8303623  79.5893431
  95.4245281  70.7276869 100.7617283  96.2080669  70.1954126 100.6239796
  95.2274990  71.0917234  99.8986626  58.7421799  70.7645512  84.0915489
  59.5455933  70.8691216  83.5818195  59.0439653  70.5258846  84.9680138
  81.2135792  85.2693844  92.6047230  82.0718861  85.6205845  92.3676586
  81.3834286  84.7161388  93.3671665  74.8416805  49.4290733  83.1319332
  73.9349318  49.6205568  82.8923988  75.3332520  50.1978111  82.8427410
  73.8070107  56.8687677  97.7224064  74.7199965  57.0253801  97.4812412
  73.3364582  57.6319981  97.3873043  38.3144379  45.0612211   2.4915925
  38.5602689  45.0144386   1.5676824  38.8803172  45.7419109   2.8558389
 101.8758106  67.1811056  69.6414757 102.7803898  66.8913651  69.5230436
 101.4885712  66.5260506  70.2221537  60.4315519  75.9111404  94.1092682
  59.5288658  76.1575699  93.9076233  60.9632111  76.4457798  93.5195732
 101.0905170  47.4780893  78.1716633 101.0560513  47.6682186  79.1091585
 100.6094074  46.6561127  78.0761337  67.2508717  51.7775679  81.5819740
  67.2772074  52.6030731  82.0658016  67.7952433  51.9346571  80.8104706
  74.8221922  47.9744768 100.4115868  75.0540781  48.4317493  99.6032810
  75.6139231  47.4919319 100.6493664  77.6443863  86.3740826  80.7575798
  77.8670311  85.7903290  81.4827633  77.3032761  87.1621132  81.1805153
  88.8593674  43.5461235  91.8903542  88.4188557  43.2810545  91.0829353
  88.1612015  43.5792017  92.5443459 108.1184292 109.9720383  95.9438801
 107.4896145 110.0213242  96.6638756 107.5789547 109.8499680  95.1626587
  39.7057104  59.0675068  74.2126608  39.1824937  58.8489342  73.4414959
  40.3587770  59.6888828  73.8907480  66.6383553  71.5190792  67.2664642
  67.5279903  71.6436434  67.5970125  66.6725540  70.6871080  66.7943621
  90.9970474  90.9396172  52.8174782  90.7018089  90.0808334  53.1200457
  90.1926613  91.3965034  52.5716257 103.2016659  80.3990936  80.9397888
 103.9288521  79.7937393  80.7949352 103.5197449  80.9983253  81.6150570
  53.4014750  87.8589153 105.4705143  52.5482035  87.7554131 105.0492668
  53.6414623  88.7705708 105.3046513  96.5010643  75.8897305  71.8253136
  96.6974068  74.9995184  71.5334034  97.2560596  76.4062166  71.5434170
  83.9372921  74.9386120  88.7909603  84.6753311  75.2380133  89.3218994
  83.9567280  73.9848757  88.8699627  80.1058674  84.0511608  90.1681519
  79.9269915  84.9905491  90.1259232  80.5693626  83.9326382  90.9972191
  86.3810158  38.6842275  84.4337273  85.7380486  38.3697414  83.7981796
  86.9482613  37.9300117  84.5937920 116.5698433  60.9383583  87.2714043
 115.9792995  61.6264534  86.9647884 116.1719036  60.1251650  86.9606209
  79.6136332  98.4451199  94.5176029  79.3196774  99.3508720  94.4204712
  79.9036312  98.1921291  93.6411762  91.9607067  33.0315590  60.2513027
  92.6552677  33.6514878  60.4737997  92.3514557  32.1705222  60.4001713
  55.3641939  84.9306965  67.0448112  54.5521784  84.4614506  67.2363186
  56.0503483  84.3935394  67.4409056  89.9709415  54.9366140  92.6454067
  89.2203522  54.6059465  92.1519375  90.7337570  54.6299887  92.1551800
  90.6493187  84.2821217  22.6621556  90.6371403  83.4290028  23.0960655
  90.2011395  84.8676682  23.2724738  75.0304222  95.0560570  90.8547115
  74.7092581  94.8301029  89.9817657  75.9795618  94.9466324  90.7964706
  99.7879410  70.0210905  70.6181955  99.4143105  70.8131170  70.2317715
 100.2269650  69.5830154  69.8890972 104.3665504  46.5021849 107.9509163
 104.7629166  47.3695898 108.0329609 104.9828053  45.9148788 108.3885670
  65.2822351  96.1260128  81.8481255  65.9053946  96.6924381  82.3031616
  64.7207165  95.7812500  82.5424385  79.1284370  38.1791067  59.9984360
  78.4272814  38.7993383  60.1982450  79.6525240  38.1441402  60.7986498
  68.4433460  56.0843945  93.8027382  68.4719610  55.1298904  93.7369061
  67.8173351  56.3522100  93.1299686  89.2221069  62.7461243  76.8032503
  89.7873402  62.2658014  77.4082518  89.5711613  63.6374044  76.8057966
  74.6611309  73.7702370  77.0689487  74.4502544  74.6927929  76.9252110
  75.1667023  73.5169649  76.2966251  91.7495728  41.1796856 106.5754318
  92.0522404  41.9388247 106.0770988  91.1831093  40.7044840 105.9675407
 111.8417740  66.9458342  74.2875862 112.4656010  67.6446438  74.0907764
 111.7950153  66.9287109  75.2434874  70.5730772  61.4579868  88.4395695
  71.4502430  61.5079021  88.8194752  70.1577520  60.7235193  88.8915634
  65.6522655  49.5719862  89.7765350  65.4605770  49.9332047  88.9110756
  65.2708292  48.6942339  89.7595692 113.9635563  73.9310122  96.5237045
 114.3916130  74.3520117  97.2692013 113.0769825  73.7427330  96.8315601
  77.4709749  72.7999449  91.7340279  76.7243814  72.3764658  91.3103676
  77.9297924  73.2451439  91.0216236  66.1933899  79.5393944  92.5646973
  67.1499729  79.5077276  92.5779819  65.9232855  78.8939238  93.2178783
  65.9693480  71.5350676  98.4527493  66.1337423  70.6057930  98.2925606
  65.0662374  71.5676212  98.7682724 109.9147511  74.3370628  78.0547619
 110.3411198  74.2097950  77.2072697 110.5645084  74.0482235  78.6955500
  82.0504093  67.7401543 103.8775349  82.2802544  67.0798397 104.5312786
  82.1480846  68.5749102 104.3356514  94.9417305  41.9633198  91.6731262
  95.8183289  42.3095131  91.8403625  94.4911957  42.6672745  91.2065411
  84.2226696  94.7407627  89.5136642  83.8315201  93.9140701  89.2311382
  84.7113419  94.5162487  90.3055096  61.8514013  78.1400919 105.4240894
  61.2485313  78.5176134 104.7835732  61.4222383  77.3339701 105.7108307
  89.3986511  27.3697829  81.7928600  89.5021343  27.0653629  80.8912754
  88.6230564  26.9095182  82.1135426  77.7714872  65.0669098  86.6938400
  78.3151054  65.5505180  87.3157978  77.3957491  64.3528843  87.2088432
 112.7952671  48.2209158  79.9734735 113.5871506  47.7310896  79.7516012
 113.0433846  49.1390514  79.8653507  87.6977825  46.6497374 101.1068916
  88.5065174  46.5919495 100.5981350  87.1103287  46.0156345 100.6957340
 116.3893700  65.7524586  66.2168074 116.6804600  65.1233101  66.8768597
 115.5479145  66.0706425  66.5438461  35.6002283  56.5777969  82.6084900
  36.1056399  57.2952938  82.9905891  35.1758504  56.1585569  83.3570766
  72.9323053  73.2422256  74.3481970  72.4355125  72.9796600  73.5732841
  73.1052065  74.1745377  74.2173052  90.4815292  73.3935785  89.7900391
  89.5783901  73.0800772  89.8377419  90.8541965  73.1815052  90.6458282
  94.6077251  73.2095098   4.2557851  94.8833847  74.1260910   4.2667619
  94.5910168  72.9755259   3.3277742  78.7740326  17.9569757  15.6344739
  79.0834188  17.1276152  15.2702276  77.8851986  18.0521548  15.2922002
  65.0154161  29.4660020  82.0021915  65.2417421  28.7600589  81.3966751
  64.0601778  29.5154691  81.9661045  92.2291946  35.3689933  17.1503965
  91.6345882  34.6507239  17.3666517  91.6518688  36.1050987  16.9477407
  83.4940529  68.6503887 108.6540604  82.7201176  68.1065130 108.5076046
  83.1976128  69.3310499 109.2582607  75.0317097  36.6270566  88.9769936
  74.1341162  36.4233851  89.2398167  75.5773973  36.0943484  89.5555019
  83.5301399  62.3654842  80.8595657  82.9565525  63.0913067  80.6137562
  82.9319954  61.6661072  81.1228657 103.8778210  84.4362926 100.4194736
 103.2000065  84.9705124 100.8334827 103.5247993  83.5467148 100.4356194
  70.4733801  69.8898554  66.7967558  69.7127771  69.3436527  66.9951820
  70.1623631  70.4996157  66.1276579  81.6490746  56.2743521  99.7385406
  82.2748947  56.8987894  99.3715763  80.8194733  56.7513466  99.7601509
  82.2138786  19.4461322  84.8492432  83.0794430  19.1477287  85.1285076
  82.3388958  19.7294378  83.9435196  67.7134323  98.9312935  96.8805027
  67.2334719  98.1199837  97.0467663  68.1758213  98.7717247  96.0577202
  67.6873541  31.9662952  95.3591633  68.3696508  31.4188147  94.9706173
  67.5146580  31.5652847  96.2109852  75.3286314 118.8294601  71.3607264
  75.2746630 117.9527473  70.9803343  76.2102365 119.1315174  71.1421776
  68.8122177  54.6860790  85.5868626  68.9593506  53.7532043  85.4308605
  69.5441341  55.1205111  85.1489162  63.2626152  93.3661366  90.3254604
  63.8437653  93.2641315  91.0791779  62.8651905  92.5029087  90.2109051
  74.0487194  56.9347525 103.1890774  74.2521286  56.2841702 103.8610935
  74.9033213  57.2434092 102.8880596  26.9326949  71.3445520  73.3330345
  27.7878284  71.6076088  72.9927731  26.9670486  71.5652895  74.2638016
  78.1069708  68.1623173  93.7851143  79.0507174  68.1756115  93.9444923
  77.7518368  68.8083267  94.3956757  87.8653908  36.7230582  76.0278463
  88.0385303  36.0070682  76.6390848  87.0371151  36.4865947  75.6103945
  65.2765989  82.7840900  80.5355930  66.1619806  82.4526024  80.6854057
  64.7092581  82.0276451  80.6844234  66.9188023  27.8998995  75.5597353
  67.0898247  26.9681931  75.6972265  66.0725260  28.0526590  75.9801149
   7.4533778  87.2340775  89.2286968   8.0159884  87.7104187  89.8392773
   6.7496138  86.8839073  89.7748852  80.8357048  50.2521420  23.4797040
  80.5559921  50.2056122  24.3939439  80.1219654  50.7081747  23.0337755
  99.6919060  45.0376987  66.8379641 100.3031826  45.3646183  67.4980450
 100.1720715  45.1050234  66.0126495  67.0385933  55.5177593  73.9649487
  66.3794708  56.1537218  73.6868477  67.4217558  55.1973104  73.1484127
  93.8127995  67.8554058  67.4279451  94.0624142  67.0367765  67.8566408
  94.0243053  68.5350800  68.0678988 113.8602543  48.7980556  63.9340591
 113.2108021  48.4246254  63.3382463 114.4686222  49.2662382  63.3622837
 102.0604515  38.9848709   6.5530340 101.8603802  39.1874099   7.4669114
 102.2272110  38.0423260   6.5475694  55.9516287  88.9894581   4.1095678
  56.7139721  88.5202885   3.7705270  56.2950420  89.5128155   4.8337117
  76.1712503  58.4609079  11.8395177  75.4435682  57.9469538  12.1896020
  75.7562685  59.0997553  11.2599508  87.9370880  15.3251958  94.5116806
  87.3227692  15.2856529  93.7786865  87.8503513  16.2167621  94.8490524
 101.4666557  30.6553793  97.8376484 101.4347935  30.3815889  98.7543011
 100.6406021  30.3455782  97.4663067  76.7849779  91.2739849  89.2649269
  77.4591398  91.9511223  89.2082596  77.2223902  90.4752445  88.9700890
  71.1222744  58.2714939  92.5141144  71.3055849  58.3673477  91.5795326
  70.7342529  59.1085243  92.7691650  80.4961395  31.8434548 105.2908707
  80.5959129  31.9782972 106.2332630  80.9177876  31.0005713 105.1235580
  85.6329918  75.7494926   0.3740064  85.1235867  76.5370893   0.5648748
  84.9959373  75.0362873   0.4156343  80.8685207 100.8631706 105.5768490
  80.0634289 101.3671875 105.6952667  80.6299782 100.1725388 104.9584961
  80.3373432  56.3975811  84.9933338  81.1145973  55.8464575  84.9018288
  79.7771883  55.9217644  85.6065655  85.9479618  69.7491741  89.9818134
  85.8203888  68.8440895  89.6976089  86.7451382  69.7239208  90.5110741
  73.6195421  42.8203535  18.1566182  74.4704008  43.0336332  17.7735082
  73.8017464  42.0978594  18.7574807  62.7028942  71.6268349  72.8316164
  62.7588272  71.4970016  73.7783194  62.3270607  70.8114195  72.4998283
  51.4650774  48.5981226   1.2559358  50.6127834  48.5033131   1.6811887
  51.3827848  48.1022644   0.4413263  88.0191708  49.5230103  48.2697153
  88.0017471  50.4798603  48.2505655  88.9231586  49.3043995  48.4961128
  81.7708206  85.6768513  73.6347580  81.0305500  86.0186100  73.1333351
  81.4668369  85.6792736  74.5424032  79.3097687 122.2454739  77.0858192
  79.6229076 123.1434727  76.9773245  78.5365295 122.3272514  77.6440716
  71.2685776  55.9959364  75.0449038  71.1041069  55.2688599  74.4444561
  70.4688025  56.5207195  75.0103283 113.2421303  78.2283068  84.0301895
 113.2726383  78.0859041  83.0841255 112.3084354  78.2796001  84.2346859
  67.6655149  42.8779697 101.8124962  67.9918003  43.6862755 101.4170074
  66.7673826  42.7995300 101.4908791 123.0800533  25.9076381   9.0105382
 123.9248848  26.3484645   8.9201776 122.5092316  26.5635753   9.4107000
 111.7050552  60.7939291  58.3773661 111.2061977  61.4855146  57.9425383
 111.0397053  60.1907492  58.7085915  87.2433376  62.4789095  89.3064404
  86.5801430  61.8099308  89.4763470  87.9360962  62.2960329  89.9411678
  58.5326767  96.7894077  76.8113708  58.0747271  96.5937424  77.6288223
  58.4669638  95.9823418  76.3009214  60.2996588  78.7219906  98.1033134
  60.0902367  79.6512318  98.0090332  61.0832119  78.5975266  97.5677967
  71.5274763  93.9521313  77.2954035  70.9762955  94.6996212  77.0636892
  72.3356104  94.0879822  76.8007374  87.1677303  66.7192078  72.6748466
  86.4822197  67.3597908  72.4852228  87.6869583  66.6792202  71.8717098
 110.2500057  51.8593025  90.9729481 110.6325722  50.9868479  91.0662079
 110.9621429  52.4583149  91.1971569 104.3478203  67.6652384  91.0303020
 103.8135052  66.8813086  91.1575699 104.9432182  67.6735449  91.7797470
  68.4729195  14.2817950  76.6760492  67.8843498  13.7882161  76.1049080
  68.6005688  13.7143648  77.4362850  69.2856741  70.6435156  91.2286758
  69.2473364  70.0627661  91.9886017  68.7525463  71.3986635  91.4771843
 106.2613487  50.9465694  67.8982162 106.1815453  51.6228580  68.5708952
 106.0827351  51.4038420  67.0764875  98.6293602  78.1743622  94.0870762
  99.5599270  77.9549360  94.0410042  98.5075283  78.8438511  93.4138870
  95.5195332  64.7359133  85.1117516  95.7656097  63.9673233  84.5970154
  94.6206379  64.9261522  84.8433590  74.2459726  88.3282757 102.5612164
  74.6619987  88.9508057 103.1575394  74.2530823  88.7691021 101.7115974
  48.3402014  45.3277016  78.1052637  48.0584240  44.8830080  77.3058414
  48.2567596  46.2595797  77.9030800  52.6150227  87.7968502  90.2867317
  52.4377108  87.4042892  89.4319344  52.0228481  88.5474586  90.3330517
  75.3967381  59.6500015  77.2186708  75.5818748  59.6807528  78.1572914
  74.8196411  60.3977871  77.0637465  72.5027514 120.0197697  94.0837383
  72.1810627 120.4360771  93.2840919  72.0207405 119.1943550  94.1346264
  64.4973326  31.4487791 100.4382896  64.0572500  31.9986606  99.7900677
  63.8452339  31.3224602 101.1275291  84.0729427  66.7576170  81.7571640
  84.6266365  65.9801531  81.6851044  83.9315414  66.8646145  82.6977921
  94.1639709  38.8233829  69.1086674  93.7043953  38.6295605  69.9256468
  95.0728798  38.9655328  69.3730640 116.3584614  66.1222124  42.6286030
 117.0631695  65.6945610  43.1151533 116.7956924  66.8141270  42.1322918
  92.5690365  67.8454924  70.4669857  91.7488384  68.0600739  70.9113407
  93.2240295  68.3983755  70.8930588  97.8963661  40.8232832  56.0083437
  97.4091434  41.6440725  56.0801220  98.8042831  41.0947180  55.8732986
  91.6584206  45.6035709  78.9396286  91.2611961  45.0742102  78.2480955
  91.0767651  46.3587046  79.0272284 117.5096226  92.9463387  69.4373417
 116.9093800  93.3301640  68.7981081 118.3810997  93.1819344  69.1191339
  88.7718201  48.5697937  33.4207749  89.4784641  48.6122894  32.7765107
  88.3667183  47.7147245  33.2758999 102.0838451  51.8215466  73.7547922
 101.2160397  51.4376354  73.6292505 102.0099735  52.3194408  74.5689678
 110.0586891  19.2442405  87.3640537 109.5171642  18.5340011  87.7083397
 110.5076313  19.5971262  88.1322765  83.2102203  81.4543819  69.6935177
  84.1348839  81.3044643  69.8903704  82.9539108  80.7021332  69.1599894
  92.9584408  49.1155720  72.6105165  93.5563564  48.6315536  73.1801271
  93.2494354  48.9046574  71.7233515  63.8754559  69.6574545 101.3591957
  63.4843349  70.1805639 102.0589161  64.8190594  69.7409725 101.4965534
  88.6384201  57.3800993  64.1070080  88.2225704  56.8968487  63.3930254
  88.3305550  56.9448709  64.9020052  70.2490473  16.3482630  99.6327782
  70.9370518  16.6233850 100.2387428  69.7935772  15.6426156 100.0919533
  82.5699043  46.1967945  73.6275387  81.6129780  46.2096548  73.6466980
  82.8092003  45.4208088  74.1343069 103.5055923  61.0432816  72.5894642
 103.8921547  61.9103718  72.4671650 102.9494858  60.9183359  71.8204641
  67.3101330  92.1263123  77.8281307  67.3983288  91.4211655  77.1868706
  66.3869667  92.3755264  77.7846336   1.8087988  72.7240324  68.8651228
   1.7379313  72.7349043  67.9106140   2.6053458  72.2230339  69.0404654
  66.4966202  69.2135906  97.0877457  65.8034325  69.1302538  96.4329338
  66.2690163  68.5718346  97.7604771  90.6429958  45.5806875  37.1724749
  90.5599213  44.8135900  37.7389431  89.8191261  45.6095505  36.6860104
  91.7286873  31.0021687  50.0807190  91.1524677  31.3579369  49.4042397
  91.1459064  30.8113718  50.8156919  87.2942162  98.7133980  63.3700323
  86.4388752  98.6386967  62.9469061  87.1733284  99.3893433  64.0369034
  84.5505333  40.0311279  66.1604691  84.8775482  39.5532966  65.3982592
  84.3054676  39.3478751  66.7844439  81.8642998  14.7912097  70.2913189
  81.0207653  14.7909951  69.8389053  81.6417027  14.6613526  71.2131739
  80.6065464  41.8691921  36.6780066  80.3545570  42.3772144  37.4491382
  80.8061981  42.5273991  36.0123205  83.8397312  49.9380922  77.4912405
  83.3129978  49.8230028  76.7003345  83.2710361  50.4229927  78.0893040
  82.2099113  57.8507853  68.7904501  82.1639252  56.8947029  68.7863302
  82.0867062  58.1004524  67.8746319  79.7995520  84.0635014  86.3381290
  79.6572733  83.3156490  86.9184017  78.9784908  84.1505146  85.8538628
  89.7911739  67.0888567  27.9246545  89.7161865  68.0250883  27.7400661
  88.8912106  66.7648029  27.8886724  91.6226864  30.2345634  24.5267773
  92.2269726  29.6368146  24.9669790  90.8791637  30.3071547  25.1252127
 106.6608334  59.3512058  40.6079054 107.1655846  58.8972330  39.9330974
 107.0275497  59.0360260  41.4339876  97.9697990  83.0276871  61.5673208
  98.8336658  82.9158306  61.9641113  97.4704266  83.5231876  62.2164297
  73.3298540  68.6620617 104.8855495  73.9357233  69.3662643 105.1163101
  73.3164072  68.6617041 103.9284420 112.0248508  81.1595631  45.1516199
 112.1687126  80.7342434  44.3062592 111.4972210  80.5337906  45.6478691
  95.0364685  86.2536144  48.8555241  94.4930744  86.8713665  49.3447399
  94.5050716  85.4594421  48.7994766  97.3480606  55.8351517  46.9282818
  98.0657959  55.2216053  46.7713070  97.4581432  56.1042833  47.8402472
 115.8774567  32.4358249  39.5610905 116.8180847  32.5133848  39.4015980
 115.5076408  32.2098827  38.7076187  71.8568802  67.1490574  65.3765488
  72.6712704  66.7271519  65.6503868  71.2622976  67.0249128  66.1163378
 117.4046326  62.6982212  92.4877739 117.0244312  63.5559940  92.2982979
 118.3363724  62.8011608  92.2941303 117.5061607  74.6808720  48.7879944
 118.2627583  75.1112604  49.1862011 117.1275997  75.3458118  48.2128572
  60.3179979  33.2885885  40.8068609  59.8422432  32.6469779  40.2793884
  61.2130833  32.9514623  40.8442593  94.1002178  54.0806055  50.6088543
  93.1958008  54.0026283  50.3052473  94.3877697  54.9352980  50.2878475
 102.6014614  87.7934647  58.2585526 102.1577072  88.5278988  58.6827230
 102.3794746  87.0351505  58.7988377 108.7301350  31.3122153  58.4373569
 108.5139847  30.3912592  58.5834932 108.7283516  31.7004061  59.3123055
 106.2977600  62.2482491  83.2321358 105.5790901  61.9612122  82.6688004
 105.8798218  62.4507046  84.0691376  90.7144642  62.1627998  32.7724504
  89.8681927  61.9281530  32.3916721  90.5653286  62.1437025  33.7177682
 107.2460651  60.2689028  66.8409491 107.7447224  60.0065517  66.0671616
 106.3408184  60.0385284  66.6319656  75.3475046  44.9707508  98.4103870
  75.8644581  44.2067909  98.1547546  75.7443094  45.2650118  99.2302608
  82.2569942  68.1706572  80.0933743  81.5486526  67.6213741  79.7575665
  82.8738785  67.5527287  80.4856110  86.5129089  55.1922846  64.4656754
  86.9424820  54.8179436  65.2348089  86.8011093  54.6408796  63.7382603
  88.6011028  72.9894447 105.1576138  88.7847900  72.6540470 104.2801189
  88.0750084  72.3046255 105.5705070  79.9892330  22.7380514  39.5461178
  80.2323532  22.7662778  38.6207366  80.4872513  23.4507561  39.9464464
  11.2779551  37.2643876  86.7354488  11.2551909  36.7709947  85.9155178
  10.4642706  37.7685189  86.7342949 115.5176830  37.6384687  95.3913021
 114.6443367  38.0073237  95.2591896 115.5801964  36.9339514  94.7463417
  84.5149326  29.2684126  88.7944984  85.1827526  29.8772287  88.4789181
  84.1720772  28.8567519  88.0012703  93.5619450  66.8316555 100.2691746
  94.2249489  67.0657635  99.6196747  93.5182381  65.8761358 100.2331257
  87.8274059  76.2058687  81.7816448  88.0151176  75.4245806  82.3018360
  87.4051666  75.8711243  80.9905148  70.8114529  43.1786394  17.8881180
  71.7366219  43.0798721  17.6633048  70.5066252  42.2851181  18.0459869
  82.0108891  14.1032934  35.7141519  81.9240665  13.8279963  34.8015165
  81.7523479  13.3341908  36.2219572  67.2487831   8.2326335  74.4653511
  68.0360174   8.2706976  73.9221764  67.4465418   8.7959874  75.2135181
  71.5296936  73.9859009  79.5575523  72.4307871  74.2997885  79.6332788
  71.2000418  73.9850760  80.4561996 105.6927204  55.0864601 103.6844826
 105.1133251  55.7630634 103.3341312 105.3414249  54.8973417 104.5545673
 116.7961884  67.7310753  49.9332905 117.3554897  68.3810329  50.3586960
 117.3405075  66.9455910  49.8788357  27.2102308  43.2474947  44.3901157
  27.8491259  43.6395454  44.9853802  27.3103070  43.7381935  43.5743761
  90.1428795  53.7135696  73.4290886  89.2110252  53.5005903  73.4793663
  90.5501747  52.9239082  73.0730295 109.4523430  78.9453983  39.4826388
 110.0961494  78.5073566  40.0392914 109.1550636  78.2646704  38.8789296
  84.5633316  19.9194288  56.7203474  84.0351677  20.0592113  57.5063086
  84.9313831  20.7806778  56.5228128  73.0184698  82.6273632  37.3317695
  72.3072338  82.5395489  37.9663253  73.3327150  83.5241604  37.4468112
  96.3314533  70.6946898  50.4810429  96.5672398  71.2978840  51.1858749
  97.1567726  70.5208921  50.0284147  89.6428776  64.8520136  54.6987391
  90.3690243  65.4393530  54.4890070  89.7416401  64.6735287  55.6339502
  78.1477976  91.1684418  21.0131478  77.4801731  91.6719818  20.5473614
  77.7476072  90.9644318  21.8584061  90.6908321  61.4473152  49.5722675
  89.7460651  61.5584755  49.4659853  90.8996964  60.6678295  49.0574789
  95.8210754  52.6913691  52.7888393  95.2414417  53.1583929  52.1870565
  95.2681923  52.4855947  53.5426378  57.1006632  72.8893948  14.1296816
  56.8976116  73.5311413  14.8102415  57.7472591  73.3253622  13.5746300
  91.5236187  57.0161247  59.4035721  90.7548428  56.8920183  58.8469744
  91.2924194  56.5912247  60.2295494 114.6335793  75.4354429  82.3215389
 114.9069691  75.1090431  81.4642525 113.9695168  76.0963774  82.1255589
  89.1027164  64.8417330  62.1123981  89.1337967  64.0875244  62.7009869
  88.9603138  64.4628906  61.2449694 115.2655220  55.5390978  71.2667131
 116.0293674  55.5383587  70.6898546 114.6842098  54.8755312  70.8952427
  78.1386805  50.4518843  40.6196737  78.8177109  51.1091900  40.7716465
  77.8299427  50.6275415  39.7308254  70.9338760  71.7038298  81.6134834
  71.8796253  71.7307615  81.4683437  70.6207561  71.0167170  81.0252094
  81.6750717  95.8714962  65.1593113  81.4349747  95.1034164  65.6776237
  81.3289642  95.6887150  64.2857981  78.7134075  70.2482557  74.8109388
  77.7912426  70.2185535  75.0658131  78.7013865  70.5522108  73.9033556
 105.8957195  49.6892405  36.1349487 105.6389046  50.5376053  36.4962769
 106.0092735  49.8521900  35.1985812 116.6583729   2.8415468  50.8165455
 116.5744781   2.4397109  49.9518347 117.4943256   3.3067259  50.7843971
  97.7254391  60.0411987  24.8843002  98.4564400  59.5064354  25.1939797
  96.9835663  59.4371986  24.8521948  68.1828213  47.2080517  61.8890381
  68.4677553  47.7320528  62.6376820  67.8191996  47.8458071  61.2748051
  81.6876030  51.2148809  48.8002586  81.4709854  50.5562544  49.4602013
  82.5153446  50.9146023  48.4248829  86.9024086  55.1154709  75.4474211
  85.9567070  55.0925159  75.5935526  87.1053314  56.0444641  75.3377819
  88.6377621  76.5942001  23.6790466  87.8460312  76.4914560  24.2071056
  89.1517925  77.2543383  24.1440368  91.7820549  71.1177206  43.2193184
  91.6741467  72.0467567  43.0156612  90.9894562  70.8848763  43.7028360
  70.1272488  69.0464926  28.6715078  69.1830826  69.1216373  28.5331607
  70.4636669  69.9282503  28.5116339  78.9693260  60.1204205  44.0838146
  79.5018625  59.4155788  44.4523859  78.7897730  60.6979752  44.8257160
 109.1649246  35.9716225  42.2901297 109.5355034  36.6427302  42.8632975
 108.9477825  36.4388776  41.4834404  96.8850613 101.5384388  63.6784887
  97.6456356 102.1111202  63.5795021  97.0078278 101.1225700  64.5318413
  97.6409435  51.4942884 105.2060952  98.3786774  50.9235954 104.9909245
  96.9329739  50.8933258 105.4381629  97.1906757  81.9277191  65.2638435
  97.9517460  81.3531303  65.1809883  96.8692207  82.0301056  64.3680668
  87.0537376  79.0019751  48.4223175  86.1796284  78.8317060  48.0713558
  87.4954510  79.4994259  47.7340841  86.2661934  65.7086658  37.7540946
  85.9184170  66.0136318  36.9160724  85.7720184  64.9108219  37.9424071
  59.2767715  23.5556984  43.7276363  59.2762280  24.3109560  43.1395721
  60.0394058  23.6906767  44.2901373  90.2087021  83.3498287  33.2227254
  89.6121311  83.1150723  32.5119352  90.1882553  82.5954628  33.8115811
 104.4921684  75.2533770  66.4256525 104.6753216  76.0804272  66.8713808
 105.3123665  75.0322866  65.9845018  81.9476128  71.6155195  42.3129129
  82.4050045  71.1728048  41.5980434  81.2680340  72.1315670  41.8792200
  89.4150829  54.1407251  68.2040167  89.1937542  53.3355236  68.6718845
  89.0812969  54.8421717  68.7632990  82.8356934  48.4540892  45.5957890
  83.4849739  49.1174507  45.8294916  82.5147915  48.1265640  46.4360189
  71.3494396  37.7300382  50.7834339  70.9244871  38.1725049  50.0486755
  70.7338858  37.0424104  51.0373878  86.4798260  68.8204193  64.7240973
  87.1078300  68.1560707  64.4403934  86.0876465  68.4559441  65.5175591
  85.5719566  70.7791567  50.4622078  86.2038803  70.0724363  50.5943441
  85.9631443  71.3259506  49.7808695  90.9173584  48.5269928  39.2048931
  91.0337353  49.4770861  39.2008519  90.5127716  48.3316517  38.3596802
 108.8658047  69.9711370  78.1120825 108.8966846  70.0642538  79.0642405
 108.5269928  70.8102894  77.8002214  88.6277580  66.4699602  47.6923418
  88.2146263  67.0522022  48.3299589  88.9946175  65.7598114  48.2189608
  97.5213146  61.4019918  38.0565977  97.4313068  62.0011806  37.3155856
  97.2711372  61.9243050  38.8187218  78.8310623  61.8594742  52.6202154
  77.9753399  62.1028185  52.2670031  79.3610620  62.6515341  52.5309610
  87.8215027  60.6659031  58.3491325  87.4792004  60.6476974  57.4554110
  87.0483494  60.7919121  58.8992119  86.6964912  59.1368294  22.8232479
  86.9022655  58.7918758  23.6920953  86.6338634  58.3609581  22.2661710
  92.1009254  66.9951439  47.3109865  92.7402020  67.6681137  47.5448036
  91.6308784  66.8178940  48.1257725  89.2696095  82.7574158  60.0438404
  89.0291023  81.9366455  59.6140337  90.1811504  82.9024029  59.7902918
  72.7831078  51.8228054  30.9816551  73.2002401  52.6516485  30.7465911
  73.2705402  51.1615515  30.4903460  73.5518646  62.6213169  43.2098055
  72.6277161  62.6481342  42.9618883  73.8344765  63.5353565  43.1799507
 118.2294464  42.5208616  70.0209665 117.9205036  42.1589565  69.1904163
 117.6890278  43.2987547  70.1590538  64.9462891  29.6202374  52.6588058
  64.7706079  28.7090349  52.8934908  65.7190609  29.8551488  53.1724882
  72.0233011  43.0188990  12.4109101  71.9580841  42.6392746  13.2871878
  72.9085970  42.7998114  12.1202517  91.3877583  81.6461468  21.6808748
  91.3413239  82.5913048  21.5368247  91.3190937  81.5448952  22.6302266
  63.0319786  61.9556904  21.1208797  63.2998228  62.5473833  20.4177499
  63.7413025  61.3155508  21.1784577  94.3396187  41.8233824  33.6926556
  95.2547264  42.0529795  33.8542008  93.9187431  42.6551819  33.4754014
  85.2224255  73.9686632  23.0736113  85.6735325  74.4864511  22.4068069
  85.3209400  74.4768906  23.8787365  82.8940201  47.0550108  16.6879737
  83.2900333  47.7765656  17.1766126  82.6226807  47.4479818  15.8584094
  61.5188932  61.2172937  38.1662416  61.5819073  61.1265850  37.2154355
  60.8034849  60.6323481  38.4157562  88.0463028  55.2754784 101.8477299
  87.4755001  55.2535486 102.6158031  88.9151287  55.0633478 102.1888634
  68.7233305  68.4966993  15.2279198  68.1672573  69.2081785  14.9104106
  68.2069874  67.7045488  15.0792181  81.0456276   7.1890140  26.2575603
  81.8256664   7.2942007  25.7128477  80.3236485   7.1255571  25.6323028
  76.5019274  62.5767469   8.4430134  75.8132887  62.5638199   7.7783060
  77.1168613  61.8983221   8.1640381  70.3351307  56.5828657  32.2724533
  70.7037449  57.1943188  31.6348982  69.5446825  57.0178318  32.5921917
  67.5287533  57.0724916  52.3032999  67.7433729  56.9134426  51.3841295
  66.5742159  57.1424103  52.3177433  64.4356918  50.3629971  53.1555176
  64.4540405  51.0319614  53.8398981  63.9421892  49.6391916  53.5412550
  71.2207127  84.2362690   2.3424751  71.3210154  83.4927082   2.9368466
  70.5497599  83.9563656   1.7198122  92.4244499  72.7631903  22.5421619
  92.6906967  72.6914358  21.6255379  92.7670765  71.9699001  22.9538965
  63.0893087  60.8100939  52.3022223  63.0032587  60.9045076  53.2508612
  63.1523895  61.7081022  51.9769001  96.2138844  49.4646454  46.1204863
  96.5088654  50.1764774  46.6883898  95.7734394  48.8537502  46.7112827
 112.5087738  89.9874783  47.8601551 112.9289246  89.1952801  48.1950188
 111.9439602  89.6779919  47.1520329  88.4558201  57.1859550  44.2516136
  88.5235977  56.8295145  45.1373816  89.3610477  57.2399044  43.9452267
  73.2071829  59.6113586  14.4419885  73.8604975  60.1019049  14.9407673
  73.4527683  58.6941147  14.5627677  59.0069818  92.8232193  54.3096924
  59.3013144  92.3079491  53.5586262  58.4565020  92.2221375  54.8115921
  94.7091389  69.3477964  37.0337224  94.5771027  68.7679768  37.7837944
  94.3713570  70.1951885  37.3236632  86.0650444  80.2905750  16.9438744
  86.7233086  80.8249569  16.4996278  86.4807415  80.0337315  17.7669537
  80.2813339  49.5164537  53.4095478  80.7521152  48.6830425  53.4140444
  79.7152138  49.4675922  52.6392555 104.3257236  79.9487305  42.6657057
 103.9703274  80.5219078  43.3449650 104.7426510  80.5447006  42.0434380
  89.5530033  37.8299785  10.5447900  89.5624065  36.9835234  10.0979602
  88.6743736  37.8933883  10.9192610  99.9098682  68.8693333  40.3340578
  99.3587112  69.2770243  39.6660352  99.3986797  68.9372921  41.1404753
  66.3659954  90.4989910 107.9361428  66.9729996  91.2257576 107.7962307
  66.3587666  90.3722191 108.8848833  77.8266954  85.8312988   7.3250449
  78.5374641  85.2514744   7.5986189  77.0573997  85.5034065   7.7907813
 101.1673737  96.3545036  17.6448703 101.2576008  97.1477413  17.1167874
 102.0446205  95.9716320  17.6537788  68.4931087  43.2119656  52.8749466
  69.3498659  43.1052256  53.2882261  68.2540035  44.1219616  53.0509233
  87.5294781  58.3469105 101.7502292  86.5726852  58.3269501 101.7696544
  87.7906227  57.4342442 101.8729945  94.2584229  35.1042509  53.2970142
  93.9508915  35.1483679  54.2023897  94.1566944  35.9965253  52.9657602
  87.6980495 100.2498913  15.6447637  87.1005917 100.2498245  16.3926125
  88.4412098  99.7193050  15.9318638  74.0903044  58.1554985  42.1797419
  74.1769886  57.7028322  41.3408089  73.6102295  57.5410748  42.7349424
  66.2930965  86.7362881  18.5591030  66.8204165  87.4677181  18.8803113
  66.6072464  85.9792423  19.0535021  68.5906744  54.0308237  22.3862910
  68.9981937  54.1458225  21.5278411  68.1503057  54.8636246  22.5558662
  90.0912380  19.6260977  17.9895031  89.4620037  19.4477117  18.6884081
  90.0675392  18.8425899  17.4401522  76.7811918  69.7462654  17.2094882
  76.9578028  70.3323841  16.4736176  76.9900656  70.2663755  17.9854333
  69.4610071 104.4526863  13.4383738  68.5615492 104.2119503  13.6603260
  69.4395924 105.4057693  13.3524048  97.9322433  81.9807625  41.8209028
  97.0695114  81.6335964  42.0476294  97.9398537  81.9972134  40.8638763
  60.0569868  57.6094580  13.9278257  59.7994471  56.8003559  14.3697071
  60.0567055  57.3847437  12.9973757  95.9209442  36.7869949  31.6292524
  96.7253780  36.3424349  31.8966055  95.9691048  37.6442719  32.0523238
  66.9224548  97.1003532  25.6092143  66.0085869  96.9649410  25.3587365
  67.4259901  96.6519356  24.9298000  59.3732357  79.5334053  42.7320671
  59.2551565  80.2036190  43.4051991  60.2993059  79.5907450  42.4968386
  98.5119152  33.9995456  76.0612059  98.3564472  34.7326398  76.6567183
  97.8994465  34.1430020  75.3397274  87.4370670  68.1766653  49.7325134
  86.8474483  67.4836540  50.0296974  87.7917671  68.5514355  50.5387211
  71.5644836  77.2898960  39.3367457  71.7037725  76.7123175  38.5862541
  70.8989716  76.8447351  39.8613048  44.3576097  36.8967557  16.4854419
  44.0922451  37.7791452  16.7446709  44.9075270  36.5904641  17.2065592
  86.1566448 108.5676765   9.9892992  86.8490982 109.0068913  10.4830968
  86.4404011 108.6241627   9.0768713  85.4923344  26.0681152  14.2855930
  85.0311565  25.3536224  14.7249579  85.5263615  25.8020043  13.3667564
  76.8933773  89.7406292  31.6800094  76.7525005  88.9731312  31.1256385
  77.8150845  89.6875954  31.9327593  80.8257866  58.1903934   3.6154899
  81.0193348  57.5640821   4.3129870  81.2483978  59.0015030   3.8978559
  74.1325855  49.6850204  15.5580211  74.1363335  49.6987438  16.5151155
  73.2266140  49.4822311  15.3249419   8.2758551  45.9654713  31.6732621
   7.8412467  45.2713394  32.1687746   8.7077742  46.5006208  32.3390651
 106.6631889  68.0156612  21.2809634 106.6038132  68.3265257  22.1843290
 107.3554325  68.5482883  20.8893895 104.4026947  38.1060243  51.0904169
 105.3214073  38.3407450  51.2211657 104.4123936  37.1559334  50.9743881
  64.0984583  86.4142895  17.1299720  64.7982454  86.4081764  17.7830327
  64.3858242  87.0524311  16.4769590  74.6000051  72.3551035  31.3178968
  74.2580032  72.2779322  30.4272175  75.5124378  72.0740557  31.2492919
  99.0523243  51.4412737   5.9600282  99.0982056  50.4922152   6.0758489
  99.9073601  51.7595148   6.2496275 108.2323360  49.0114689  44.1798687
 108.9169025  48.5641527  43.6823702 108.0782223  48.4462452  44.9368429
  86.3764000  61.7572737  35.7798648  85.8382416  61.3317823  36.4473796
  87.2697544  61.4759254  35.9773088  76.4481211  39.9011469  40.5418491
  75.7090855  39.3071914  40.4104042  76.7024803  39.7685480  41.4550591
  73.1090117  34.4229078  28.9063072  72.4710608  34.6604204  29.5792413
  73.9443684  34.7467661  29.2432427  95.2033234  54.4066095  41.5827751
  94.9689579  54.2908049  40.6619596  95.5592060  55.2939606  41.6295815
  93.1795788  70.1672554  58.5161304  92.7548313  69.8799658  59.3243885
  92.4895859  70.6193209  58.0305624  70.0729275  19.5893610  64.7006273
  69.8209047  20.3893685  65.1618290  69.2460012  19.2228365  64.3874407
  92.0162201  41.6033459  42.9859877  92.4794674  41.5552759  43.8222456
  92.7083683  41.5624332  42.3260736  57.5261402 120.3569221  18.7021911
  57.3237371 120.9906673  19.3903995  56.6747904 120.1285648  18.3289683
  92.2331715  45.9198570  66.9980860  91.4148045  46.4015865  66.8778896
  92.8762817  46.4082575  66.4841747  90.5844402  74.7739792  36.2998724
  91.2922096  75.3711891  36.5420341  90.0510693  75.2730417  35.6812620
  28.6096454  33.2521176  35.9831548  29.5414948  33.4181261  36.1257386
  28.2701826  33.0315900  36.8505454  75.7238865  99.2653847  17.9063797
  75.3706980  99.1494083  18.7884462  76.6733027  99.2747307  18.0278480
  67.0112038  81.9145489  40.9897995  67.1319532  81.1975670  41.6123581
  67.8290653  82.4099541  41.0334587  87.4080276  46.5364361  49.1909742
  87.9195595  46.9207764  49.9029160  87.2748184  47.2573185  48.5754967
  63.5765076  57.5500059  17.2325587  63.1278229  57.3317719  16.4156818
  63.9229870  56.7146111  17.5460839  61.7579126  69.3880558  11.9092941
  61.1982298  69.2589998  11.1435699  61.5860367  70.2892113  12.1824467
  70.0718975  58.3770132  17.1832252  69.6377277  57.6185703  16.7927217
  69.7850513  59.1181803  16.6497231  99.6728802  65.5426645   6.1199981
  99.6507740  66.4976740   6.0591328  98.7965298  65.3014469   6.4201099
  69.1141415  57.7831125  24.9500751  68.7724352  58.0091572  25.8151603
  68.4429169  57.2179556  24.5676017  82.8654861  76.0589361  20.9284067
  83.0685329  76.5982962  20.1641464  83.3263969  75.2351999  20.7695055
 100.9638500  75.3315973  92.3569533 100.6277084  75.6528902  91.5202864
 101.3013363  76.1127186  92.7953395  75.1184464  29.8587656  50.5957985
  76.0322618  30.0551724  50.3894186  74.7849083  29.4206214  49.8128414
  64.0281820  97.1009350  33.1985331  64.9692011  97.2473907  33.1022358
  63.7502432  97.7477741  33.8470531  95.4730511  75.9257221 102.3573109
  95.9453678  76.6823912 102.0100238  94.9429607  76.2810612 103.0707344
  92.3467159  44.7706032  63.3730459  92.2612381  45.7178497  63.4809780
  91.5594578  44.5121479  62.8938103 103.9781189  64.5758629  97.8036710
 103.7000942  65.1891136  97.1233352 103.6559772  64.9603796  98.6189016
  80.9515953  48.8090324  11.8850708  80.6703472  48.2834530  12.6340044
  80.7549858  49.7110033  12.1381009 116.9143009  72.1302652  48.4849119
 116.5705299  71.7813206  49.3072796 117.2126675  73.0126762  48.7052774
  59.6780825  83.7166023  85.9657940  60.3467226  84.2940044  85.5973443
  60.0090885  83.4909821  86.8351396  95.0091648  40.0210953  44.7439051
  95.0318050  40.8770943  45.1716709  94.6151161  39.4390082  45.3936195
  97.0653248  75.6740046   2.5410998  97.2937965  74.9311924   1.9822989
  97.3409939  75.4076242   3.4181854  81.3982201  39.3578100  47.2772312
  82.1045685  38.8114882  46.9325161  81.0833263  39.8490858  46.5184689
 110.3019905  90.6575489   5.2288765 110.2355194  90.4293251   6.1560917
 109.4537830  90.4109764   4.8601225  83.0415249  82.7696419  24.4450569
  83.9703941  82.9991245  24.4171524  82.8375530  82.4877834  23.5533261
  95.6644058  61.6942978  20.8353138  96.4119434  61.6397619  21.4306688
  96.0182858  62.0981121  20.0428891  40.6366014  62.1159124  86.0487541
  40.1407814  62.9043150  86.2696918  41.2598801  62.4039888  85.3818473
  72.4138165  84.9603271  30.2615833  73.1708717  85.5012512  30.4863048
  72.0686197  85.3527546  29.4596672  87.2151184  69.6571207  44.7993040
  87.2107506  68.8482428  44.2875147  88.0410480  69.6304464  45.2823734
 118.0337811  47.5984764  17.4928749 117.7634811  46.8650532  18.0453825
 117.6162434  48.3633327  17.8889632  56.6741943  76.7410898  11.4576173
  56.7587805  76.9167662  12.3947489  56.0878754  77.4265957  11.1373937
  88.0362892  39.2505741  23.2915068  87.3333836  39.8303175  23.5848522
  88.6463737  39.8274040  22.8318405  68.8356972  74.6755171  24.0171671
  68.1519938  74.3841934  23.4139132  68.5540533  74.3517208  24.8727751
  88.9468479  65.3031063  38.2176614  88.5616302  66.1148405  37.8876328
  88.2099628  64.6950579  38.2769084  89.1986275  70.7582903  39.0699410
  89.0726948  70.5020285  39.9835587  88.4468842  70.3841639  38.6104393
  43.4562683  61.2208080  37.5524378  44.0309238  61.9186640  37.8670907
  43.3328199  61.4130592  36.6229033 111.6636086  38.2401729   7.0628458
 112.4722099  38.6960912   7.2963905 111.9568348  37.4127507   6.6812360
  86.3662434  35.2920055  53.5318232  86.4583302  34.9447465  54.4190407
  87.2638607  35.4649711  53.2479429  89.4212818  80.7441330  19.8636019
  89.7530842  80.4153347  19.0281224  90.2016449  80.8429718  20.4090285
  87.0791721  46.8787432  22.6861930  86.6051865  47.2395372  21.9369268
  87.8481102  47.4415588  22.7767539  87.3662567  57.4743557  41.3455057
  88.3138752  57.5985527  41.2924242  87.1384335  57.7466106  42.2344446
 103.8800907 101.0348225  87.9309090 103.6911774 101.4240646  87.0770749
 103.9493656 100.0962543  87.7562174 102.2363758  81.9557858  32.7654362
 101.9848061  81.1653709  33.2431364 102.7798653  81.6372776  32.0447373
 112.5547600  79.3655157  62.0222139 112.8589249  78.5206604  62.3537827
 111.6034222  79.2737532  61.9696569 109.4172382  89.1897297  51.0008430
 108.8519669  89.1434765  51.7719221 109.8109818  90.0611115  51.0444403
  53.0607224  92.5158119 108.1607417  52.6436234  92.7846718 108.9792638
  52.4385357  91.9062424 107.7638231  78.4246254  61.0944319  46.5395927
  78.8562489  60.5915880  47.2303009  78.4276724  61.9957256  46.8619156
  66.6714859  74.0986586   5.5077440  66.0712719  73.6213827   4.9348712
  67.4672890  73.5668325   5.5172342 106.9503593  67.3390388  36.1332989
 107.8058910  67.4440861  36.5495443 106.9898510  67.9010963  35.3594995
  93.1574726  45.1364756  23.8517141  93.1449890  44.8248339  22.9467535
  93.4746742  44.3887377  24.3581748  69.3265200  42.1544027  15.6783712
  69.0102625  42.6768589  14.9413157  69.5277452  42.7970552  16.3586199
  83.6056519  89.0597153  23.0909038  83.1620216  89.4983959  22.3649693
  82.9574776  89.0469551  23.7951255  50.6944942  65.0585318  16.9559872
  50.4537058  65.7448816  16.3337505  51.1494064  64.4038248  16.4262283
 114.2590714  99.3846607  34.0652370 114.9422932  99.8118687  34.5819068
 113.6238289 100.0783825  33.8879275  83.9148617  73.7720966  33.2283211
  84.6760464  74.2648602  33.5349512  83.2771301  73.8504791  33.9378119
 117.2802734  81.3317108  28.8633704 116.4126778  81.4925957  28.4923792
 117.6614094  80.6594944  28.2984996 100.2705765  72.2735214  28.6298871
 100.6228352  72.8158331  27.9241657  99.5178509  71.8303251  28.2384562
  51.3665962  88.3296967  17.2856271  52.0858860  88.7761688  17.7323020
  51.2529421  87.5129890  17.7717328  43.8345432  53.1265783  23.9347315
  44.5290709  52.7976084  23.3640862  44.0349817  52.7558565  24.7941613
  66.3134336  59.6482658   4.2794168  65.7934904  59.0329981   3.7623718
  67.1962833  59.5803642   3.9158252  80.8251858  53.1540918  65.8756208
  81.2176991  53.1458235  65.0026417  80.7242393  54.0828514  66.0840559
  94.8955917  67.8204107  32.2727895  94.7416878  68.7200499  31.9843554
  94.8134041  67.8570414  33.2257509  93.0447483  43.0806541  45.0668144
  93.9868736  43.1577826  45.2173996  92.8199673  43.8565159  44.5532513
  77.7873850  70.7178593  35.7130408  78.0667973  69.8673010  35.3743482
  78.4533215  70.9481907  36.3608885  47.4720669  73.7631321  19.2178714
  47.3260498  72.8805399  19.5583832  46.9903517  73.7835598  18.3909702
 105.1183414  39.7008991  78.2017088 104.4397545  39.4621539  77.5702429
 105.4727077  38.8634443  78.5005808  55.3928185   7.3619235  60.1655960
  54.5816135   6.9361210  59.8883486  56.0763836   6.9335592  59.6503496
  55.6441736  16.8193746  40.3786039  55.7466173  16.2131143  41.1122179
  55.9112263  16.3137627  39.6109629  83.7673855  70.6589270  20.0438666
  84.0971279  70.1144123  20.7587075  84.2038155  70.3188467  19.2627776
  72.9287815  36.2074900   8.7567377  72.8508472  36.2675524   9.7088671
  73.8505983  36.3948631   8.5795832  60.2986336 106.5869331  21.4253187
  60.0438643 105.8151150  21.9309068  59.4698429 106.9649315  21.1312747
  79.1484737  46.3913107  28.7168312  79.5682335  46.4559650  27.8590131
  78.7305164  45.5301809  28.7146664  83.5318947  80.8847904  20.1960754
  84.1026115  80.2621937  20.6464982  84.0696430  81.6695881  20.0904989
  93.1648540  74.9528074  17.6104236  93.7991428  75.3531885  18.2050705
  93.2900906  75.4137659  16.7809260  86.1419296  68.7341166 108.3156148
  86.1053848  69.5814800 108.7593130  85.2349949  68.4280777 108.3086901
  80.7029819  64.2840195  13.8100922  81.4124489  63.6991978  14.0763140
  80.8467007  65.0819826  14.3188453   0.6849986  95.0373650   9.3609631
  -0.2184266  94.8676777   9.6279061   1.0328513  94.1756248   9.1315812
  99.3084145  71.8707705  25.5243015  99.7675610  71.0934305  25.2062464
  99.3512440  72.4893618  24.7950912  70.7268810  82.3872948  20.4556012
  71.3470697  81.6916370  20.6738925  69.8694324  82.0195770  20.6696057
  98.7172318  65.7951880  34.6479869  97.9593945  65.6770325  34.0753126
  98.4100056  66.3899565  35.3321648  76.5560865  65.9480810  30.9741497
  75.7038212  66.3614893  31.1118674  76.3704634  65.0090694  30.9794617
 111.7483807  68.9442348  32.5219798 112.1736813  68.1470633  32.2059679
 111.5223122  69.4264984  31.7266512  84.9148560   6.6838008  93.5802575
  85.4629803   7.1848118  92.9762849  84.4931507   7.3467010  94.1270300
  75.1523447  34.7402573  42.7978373  74.4516182  35.3437114  42.5507355
  75.7968903  35.2908349  43.2424307  63.2597637  56.7613602  32.9518723
  63.9736891  56.2038565  32.6424575  62.5345182  56.1567163  33.1088877
  94.5016861  51.3628817  50.1525879  94.3495846  52.2910976  50.3301191
  94.3415356  50.9293270  50.9908104  58.8395452  79.8510265  24.9299741
  59.3957710  79.3854046  24.3054438  58.2077312  80.3198814  24.3847966
  70.1793385  76.4956188  18.0326414  70.9637356  76.9808435  18.2885969
  69.6931028  77.1031857  17.4752641  62.9081774  40.2669334  35.6625009
  63.4709740  39.7239208  35.1105690  62.4669504  39.6444035  36.2404323
  91.2890625  39.6143341   6.8966132  91.7042351  39.5058608   7.7522433
  91.8924141  39.1954613   6.2828124  60.6197166  76.8206596   6.9773501
  59.9004316  77.1429968   7.5204539  61.1793852  77.5854015   6.8425637
  85.0276661  69.5902967  17.8760433  84.9903202  70.2048922  17.1431637
  85.8829403  69.1688108  17.7918160  64.9021339  49.5276213   9.7253466
  65.1007223  50.0862694   8.9738774  65.5195475  48.7997961   9.6525216
  96.5155315  21.7024851  25.4611897  96.6989136  22.3550177  24.7853160
  95.9419537  22.1538019  26.0805011  75.4108810  68.5359049  13.9889777
  75.5592394  68.1786728  14.8645377  74.6457815  69.1025257  14.0879595
  90.2510262  44.1055346  49.7414923  90.8736229  44.6982622  49.3204546
  90.2203941  44.3979788  50.6524134  84.8220444  82.9586506   2.2114745
  85.6198692  82.5133705   1.9261229  84.7521877  82.7512074   3.1433108
  91.6872406  40.6359243  45.7917309  90.9743786  41.2678957  45.8848953
  92.4343872  41.0526323  46.2210894  80.1427555  65.9849787 104.5224949
  81.0634804  66.1704826 104.3378385  79.8541689  66.7199993 105.0635045
 101.5131378 100.7473183  22.4107742 102.0047760 100.6153774  21.6001463
 101.3146019  99.8624897  22.7172065  65.0558376  24.2851090  26.4361477
  64.6697330  23.4196448  26.5707755  64.3309307  24.8948359  26.5738988
  76.6308880  72.9920864  34.2123437  76.9158745  73.0769777  33.3025026
  76.7395210  72.0621777  34.4115853  83.9456463  47.5410175  38.2690382
  83.1597900  47.2587109  38.7369728  83.8269806  48.4831142  38.1481838
  92.9520130  68.5005522   9.3505228  92.7319336  68.2501936  10.2478051
  92.1056652  68.5906029   8.9125544  85.2879906  62.6477146  44.4988823
  86.1295605  62.4932241  44.0697908  85.4159927  63.4577179  44.9925900
  83.1547642  96.3755894  25.8346081  82.6725388  95.6067753  26.1389422
  82.7062607  96.6367245  25.0303197  49.2225647  46.9250631  45.6774664
  48.7024450  46.5501881  44.9667072  50.0989723  46.5617847  45.5502892
  82.7808094  64.9279737  33.9756680  82.3586845  64.2640495  34.5208740
  82.1955109  65.6839180  34.0225554  67.8220177  89.6957302  17.5559986
  68.7256336  89.5435715  17.2793031  67.2934771  89.1980076  16.9321799
 101.7808819  71.2070227   1.4595968 101.5763283  71.0660982   0.5351893
 102.7230549  71.3754082   1.4734495  39.4000864  93.3401966  42.5040531
  39.1823649  92.5644970  41.9872093  39.0792656  93.1399059  43.3833694
  77.7843523  48.2941580  30.3413844  78.3665037  47.7972031  29.7666073
  78.3703899  48.7125874  30.9720278  78.7958717  42.4286366  22.2712159
  79.2776918  42.1406937  23.0465674  79.0611029  43.3402348  22.1492505
  80.6352806  65.6931973  30.7796311  81.5036106  65.9052515  30.4371691
  80.7793617  64.9337244  31.3441420 100.8533764  60.6968260  51.3509321
 101.7683506  60.4157114  51.3468981 100.4574585  60.2133512  52.0760059
  72.7164364  91.3756084  95.8765622  72.3128462  91.9134426  95.1953264
  73.6533928  91.5560150  95.8004352  87.9351044  47.0842123  30.8242178
  87.5449657  46.5902805  30.1030684  87.9529858  47.9891157  30.5126715
 119.0180874  52.1585512  42.3215961 118.8796139  53.1030798  42.3917580
 118.2406998  51.8357086  41.8658829 113.9558601  70.0500250  43.9245892
 114.8823643  70.2661800  43.8191986 113.9532280  69.1307878  44.1914749
  49.4277000  52.2674894  16.3001192  49.5460367  52.9386044  16.9723010
  49.8982096  52.6059103  15.5383301  72.4250937  45.7576847  17.2426462
  73.3043528  46.0045385  17.5293469  72.4367571  44.8006248  17.2312760
  74.0064812  54.5536947  42.0011902  73.4081984  55.0478077  42.5616741
  73.9768362  55.0085640  41.1594963 100.8119202  61.4767885  34.9572659
 100.4015446  60.9048033  34.3086863 100.5557632  62.3605394  34.6934462
  55.1027822  50.7294989  31.6285896  54.9150324  50.8373308  32.5609827
  56.0123873  51.0119009  31.5332055 108.7898636  50.8112144  50.3600645
 109.6068096  50.9559870  50.8374166 108.4025669  50.0410986  50.7761812
  59.6784496  69.1517353 108.8192548  60.0745678  68.3352470 108.5148428
  60.4137850  69.7591972 108.8999215  62.7449512 100.3015041 106.6988670
  61.9949389  99.8416042 106.3217684  62.7927876  99.9829197 107.6002256
  85.4141045  46.0582542  17.8835535  85.2365589  45.3528833  17.2613287
  84.9818420  46.8245983  17.5065947  71.9636250  71.3990736  78.2487774
  72.0071173  72.3235464  78.4930849  71.2527943  71.0435534  78.7822199
 109.7647858  54.1176558  24.1442966 109.7738552  54.5602894  24.9929571
 109.3864250  54.7595453  23.5434127  66.1337328  65.3308249  19.2224514
  66.3372326  66.1123085  18.7085438  65.7407856  64.7259712  18.5931814
  64.0945292  69.1795015  96.1036833  63.7419128  70.0125360  95.7907196
  63.5553360  68.5149527  95.6748673  72.9110003  85.3510189  40.1507187
  73.8593674  85.4412270  40.0575018  72.5584126  86.1788273  39.8241496
  67.5068474  66.9652987  29.7101474  66.5545607  67.0620155  29.7154617
  67.7827263  67.2635841  30.5768347  80.8926678  68.3567858   2.2494185
  81.1868954  69.0508509   1.6595560  80.4365730  67.7364826   1.6807041
  26.1588454  37.0098829  19.4690716  25.7188058  37.6371264  20.0427985
  25.5830312  36.2452650  19.4637752  74.3901491  57.8135681  30.2328348
  74.0830660  57.5717878  29.3590641  74.5164728  58.7613583  30.1885629
  71.9604158  68.5085726  24.1939402  71.0281324  68.6245394  24.3773270
  72.2254086  69.3267012  23.7736034  97.7286053  73.7406540   7.2388804
  96.8211746  73.5672760   7.4893522  98.1596279  73.9886379   8.0567759
  11.9921523  61.6717529  50.2400303  12.6489859  61.2071466  49.7214270
  12.4708682  62.3999119  50.6360674  52.3251629  85.8387661   4.8071060
  51.5491676  86.1522102   4.3425441  52.6938295  85.1680470   4.2322555
  70.3537035  80.2737522  37.4257374  71.1763096  80.2215958  37.9123926
  70.5076313  79.7514868  36.6384792  80.0178146  38.7893319  19.2224932
  80.0991344  37.8556800  19.0277791  80.9208012  39.1023564  19.2760658
  72.9059696  33.4499907  24.1510487  73.3204508  34.1351962  24.6753883
  73.0985069  33.6921096  23.2452130  91.3100338  56.6383696   0.1670323
  91.3830090  55.7102633  -0.0555050  90.9817696  56.6439867   1.0661665
  87.1947956  80.1856041  12.1081448  87.2894192  79.5346689  11.4127612
  88.0163097  80.6765556  12.0900548  80.0929832  45.6153297 102.5401946
  80.5214119  46.0919476 103.2511952  79.2493963  46.0544443 102.4317064
  84.5374870  59.1321564  27.9209089  84.3781185  59.5213318  28.7807775
  83.8636971  58.4577703  27.8346276 102.6885986  78.1639290  11.6225398
 103.6233711  78.2344818  11.8160927 102.6488876  78.0434608  10.6737816
  47.4065638  65.4281950   9.1598505  48.2252312  65.8516169   8.9015228
  47.0613384  65.0584555   8.3472371  87.2173119  36.0700226   5.1063615
  87.5944042  36.5216064   4.3513095  87.9132652  36.0798693   5.7634646
  64.5375061  73.2574987 102.3961022  63.7438393  72.7729559 102.6231345
  64.2607832  74.1735601 102.3740258  79.3842840  50.4587507  34.3590522
  79.7294188  50.2839851  35.2345920  79.7444820  49.7581148  33.8153625
 103.8433647  45.1146841 105.3889691 103.9862919  45.8524704 105.9818205
 103.7839794  44.3525457 105.9650358 109.1839695  57.2823524  12.3514247
 109.7639847  57.0499372  11.6263068 109.5193768  58.1215191  12.6669157
  85.9028530 108.8680744  19.7347128  85.2443886 109.5428753  19.5694888
  86.7399597 109.3116570  19.5978820  95.3362274  44.0133381  95.5101153
  95.9529591  44.5252609  96.0333809  95.8889675  43.4229851  94.9980673
   6.1097460  49.2988014  34.1659832   6.5902453  49.7764063  33.4897804
   6.7151194  48.6147356  34.4520211  38.1764913  99.4293976   6.4806730
  38.1402373  99.0988636   5.5830836  38.8987589 100.0575161   6.4756185
  85.0593376  44.6396780  34.9038315  84.7867489  45.2101374  34.1851521
  84.4634056  44.8563719  35.6208706  96.2914371  45.9293365  84.9610408
  96.0627270  46.5913343  84.3085989  97.2476006  45.8909273  84.9382814
  78.6929035  69.1442728  85.6677350  78.6571932  69.3688393  86.5975341
  78.7322187  69.9887085  85.2187236  67.5900221  57.0763111  30.7137847
  68.3067894  56.4438534  30.7634926  66.8765736  56.6688442  31.2048984
   8.5530692  37.3316598  88.6770614   8.7067156  36.9912553  87.7957305
   8.5234767  36.5528917  89.2328247  82.7783775  50.3472328  15.8388627
  83.5155773  49.8622370  16.2097394  82.7102947  50.0282812  14.9389386
  87.7060413  59.9834299  92.0843013  87.4347782  60.1038551  91.1742755
  86.9251919  60.1930428  92.5967213  78.1707001  81.4589500  24.7336078
  77.2955465  81.8247795  24.6051121  78.4847784  81.2728214  23.8487697
  93.3101940  84.9362278  16.9522166  92.5677586  85.3862286  17.3553610
  93.8310623  84.6234608  17.6918828  81.6886044  70.3677082 105.5620515
  82.5277615  70.4662704 106.0118573  81.0383701  70.3721046 106.2644821
 101.4867878  98.4567451  16.2786365 101.0947418  99.2982864  16.0455394
 101.5087032  97.9668331  15.4566026  92.0155048  81.3287354  50.5918550
  91.7532921  81.9595242  49.9213457  92.2088146  81.8638611  51.3615990
  58.8048029  72.9645348  27.1822238  58.1176567  73.0654955  27.8409100
  59.3433809  73.7503147  27.2755742  85.3954792  92.8579140  16.5677154
  85.3155708  93.2837296  15.7141781  86.2566757  93.1250668  16.8889666
 118.5517025  53.7815809  31.5469146 119.4087219  53.7946749  31.1207938
 118.5423279  54.5695400  32.0902920  55.0922871  69.4884253  20.1879787
  54.5344877  69.5523977  19.4127357  55.8688641  69.0172434  19.8860717
  66.9776392  76.6774035   6.1163408  66.3685560  77.1371555   5.5385196
  66.8475246  75.7510948   5.9132308  80.2470398  35.3942871  38.0235648
  80.1090622  36.1784124  37.4922085  79.4733095  35.3462362  38.5850453
 108.9625072  64.1783810  16.5758860 109.6593761  63.8829517  17.1618259
 108.1569672  64.0450764  17.0754516  63.9283991  76.7123318  12.3733318
  63.8820362  76.5872383  13.3211887  63.7788248  75.8399105  12.0090008
  82.5000381  60.3752518   3.0435997  82.8794956  60.5107164   2.1753292
  83.1855202  59.9247122   3.5369217  75.8786535  57.8632545  20.3798819
  75.4503775  58.6336088  20.0065637  76.3352776  57.4613571  19.6408236
  72.6258945  62.2971392  27.8382134  72.0804358  62.9908848  27.4675059
  73.4277010  62.3179388  27.3158097  89.0801525  47.5070763  51.0450268
  89.7157955  47.8017569  50.3928328  89.5725155  46.9072485  51.6053963
  73.3023977  36.9203711  91.5875026  72.9026890  36.6741395  92.4216684
  72.6470709  36.6873598  90.9298679 104.2672634  27.8559017 107.9988455
 105.1940441  27.7293396 108.2020357 103.9872456  27.0195913 107.6268119
 114.1257191  29.3451929  26.4222598 113.6807060  30.1829791  26.2945724
 113.6990738  28.9616966  27.1885037  83.2070637  57.3867893  92.2879907
  83.8872623  56.8345022  91.9025763  82.4395847  56.8175316  92.3440822
  89.1192818  36.0664725 108.1888949  89.7431469  35.6723952 107.5792088
  89.0359306  35.4248857 108.8943386  64.0000868  65.2545547  92.5272855
  63.9045811  64.4345093  93.0116781  64.7687340  65.6733799  92.9145845
  58.0949736  17.0298707 105.2283438  57.8008747  17.9288256 105.0813132
  57.2949886  16.5060508 105.1851239  86.0475731  56.4180851  27.5306392
  85.1879978  56.8335819  27.5994253  86.5823841  56.8640041  28.1874204
  56.0069418  52.5652599   0.7253907  55.7553911  52.9380178  -0.1195993
  55.8474731  53.2688046   1.3545395  85.1093102  36.1021137  46.0335636
  85.6310940  36.9036055  46.0732651  85.4199600  35.6527591  45.2475595
  95.2274895  56.1944056 109.2580362  95.4222584  55.2575207 109.2346758
  95.0490856  56.4247561 108.3462562  48.8365841  49.2455006  40.7573271
  49.5422983  49.8911762  40.7933760  49.0136766  48.7411976  39.9632573
  42.6159286 102.4644089   5.7280499  42.5461578 103.0795670   4.9980181
  43.5576153 102.3620129   5.8658016  87.2164059  50.3923130   7.5504845
  86.7434597  49.6607447   7.9471642  87.9212761  50.5852270   8.1686968
  65.2974749  78.3532572 108.1635339  64.7539711  79.1352320 108.0668267
  65.3400517  77.9807520 107.2828197 113.4855270  38.9402461  65.1415110
 114.2774010  38.6693954  65.6060648 113.5900021  39.8839521  65.0201273
  62.2697592 119.2171192   5.9031153  63.1276894 119.3031788   6.3187808
  61.6766739 119.7047043   6.4747345  63.7320948  52.8763390  86.1556133
  64.0473986  53.4786892  85.4818257  63.5569048  52.0612907  85.6852587
   2.0105963  75.8634710  34.1668296   2.0406371  76.6725063  33.6561537
   2.0277148  76.1548805  35.0784326  83.5436726  29.0283608  38.0456519
  83.3454037  29.9569321  38.1668019  84.1969776  28.8333011  38.7175012
  98.3075237  74.6923685  90.8782836  97.8251743  73.8877869  90.6879708
  98.2968807  75.1786900  90.0538989  92.7989101  77.4278784  34.8209548
  92.6535606  76.7077398  34.2073560  92.2913074  78.1552696  34.4611382
  91.8177319  70.1773119  20.1331878  91.2476826  69.4287872  19.9571383
  91.7137527  70.7427740  19.3678927  92.4651718  83.3061028  35.4092312
  92.8402805  84.1633320  35.6109285  91.5719128  83.3492374  35.7504940
 101.5960693  60.4538536   0.5897973 100.7132530  60.3305244   0.9385860
 102.1334839  59.8239374   1.0700194  75.7100821  77.8305626  13.0243933
  75.5342102  77.1557045  12.3687518  74.9495125  78.4101534  12.9815078
  95.5743885  77.4342537   5.6528819  96.0551167  77.8492069   6.3690853
  95.4982376  78.1182384   4.9876013 103.7751675  54.3686390  13.9961374
 103.1491089  54.5588017  13.2974815 103.5464573  54.9805403  14.6957803
  94.9829578 103.3506584  81.8478354  94.6707916 104.0669441  81.2949141
  94.1850376 102.9260731  82.1629223  94.5530891  60.1102638 109.1541806
  95.2142715  59.5120955 108.8059609  93.7177372  59.7187471 108.8989730
  69.3445826  79.2077875  82.8179105  68.5682249  79.5277452  82.3584231
  69.4446182  78.3041143  82.5185736  92.5306034  71.6837502  15.1996446
  92.0173550  72.4746132  15.3650045  92.7892590  71.7538595  14.2807233
  18.5943973  52.8686953  92.5034770  18.2864082  52.3731327  91.7446693
  17.8895569  53.4901237  92.6858517  64.1337538  77.4338818  36.3486290
  63.9168072  77.3464823  37.2768116  63.2864666  77.5201130  35.9117079
  56.4905691  93.0602169 109.3685775  55.5872440  93.3713818 109.3102045
  56.5631580  92.6999569 110.2524202  74.1752291  74.0023279  92.5396141
  74.7818041  73.7391901  93.2317551  73.5886526  73.2528353  92.4375018
  91.5210152  61.0972691 107.0040109  90.6942368  61.2600613 106.5499424
  91.2627602  60.8659029 107.8962020  88.2232666  80.8339024  14.9096477
  89.1745377  80.7323742  14.9413061  87.9178238  80.0751114  14.4124925
  97.2705078  55.9729481  26.1608219  96.4830017  56.3778496  26.5243006
  97.0564079  55.8158684  25.2411914 110.5904675  67.7101660   5.2793527
 110.5392075  66.8999147   4.7723046 111.2995434  67.5573969   5.9039390
 101.7799187  69.0666056  96.9736859 101.8475246  68.9669609  96.0240897
 101.3112640  68.2840586  97.2638711 120.7205296  83.6154270  86.0229500
 121.1435890  82.7601719  85.9468039 121.0170841  83.9550018  86.8673309
  93.4186649  63.3107519  31.3704634  93.1565380  64.1080379  31.8307376
  93.4233570  63.5584974  30.4458928  67.6667309  46.9829178 108.7088297
  67.0032787  46.4468050 109.1431642  67.6380968  46.7044163 107.7934884
 101.5731239  76.3467693  15.9005213 101.4723206  76.2662268  16.8489850
 102.5105190  76.4904928  15.7706344  94.1487694  20.0312567  35.5087328
  94.1065216  19.8260033  34.5747519  93.4749126  19.4795442  35.9059238
  84.9595261  58.3717394  89.4191345  84.2534256  58.4939337  88.7845286
  84.5625687  58.5861015  90.2633544  93.0593395 145.6158204 104.5530327
  93.5599518 146.3862789 104.2846879  93.7177658 144.9307680 104.6688350
 100.1285076  80.3602505  98.5247286  99.1745567  80.2958775  98.4794446
 100.3710747  80.8706188  97.7521177  66.1356544  94.3715954  34.2229605
  66.6736269  93.7164783  34.6675110  65.8084106  94.9308872  34.9274755
  77.4960518  49.1217852  20.3035021  76.8551397  49.8129845  20.1370525
  77.7037001  49.2067242  21.2340403  80.7075500  61.8098736  85.1391181
  80.6557369  61.8901587  86.0915383  80.5888844  60.8751011  84.9707445
  88.7930298  67.1780300   4.1351986  89.1566944  66.3398838   4.4206721
  88.2496548  66.9580698   3.3784992 120.5798912  47.0627165  12.7055275
 120.3365517  46.6758490  13.5465682 119.7445107  47.2508526  12.2777724
 104.8243332  52.9059887 106.2826767 105.3082275  53.2100821 107.0505341
 104.1578960  53.5776901 106.1380764  46.8420744  39.9215770  16.5345681
  46.2827587  39.5670986  17.2257590  47.6261902  40.2242231  16.9926023
  98.5491467  87.7837849  19.5630026  99.1259670  88.2520199  20.1665425
  98.2351017  88.4578609  18.9603209  92.3701668  47.3492289 100.8308294
  93.2600498  47.3513603 100.4782321  92.0748615  48.2553196 100.7412341
  64.0872288  87.4367809 107.8687663  64.3228531  88.2050705 107.3487225
  64.3495369  86.6918468 107.3279315  82.3331165  53.4698677  10.8919990
  81.6311932  54.0072203  10.5248559  82.6261520  52.9262972  10.1606357
  87.8884983  47.8987503  39.5885539  88.3810425  47.4682713  40.2873516
  88.4912586  48.5557699  39.2403626  39.5144224  79.3908644   0.5998196
  40.3867197  79.1643047   0.2773280  39.6089649  79.4112539   1.5521210
  54.0080595  59.8584366  82.8156170  53.5323763  59.3811607  83.4954437
  54.9233103  59.6092463  82.9438528   3.0989390  77.8933096 108.7661797
   2.6835852  78.2586288 107.9849895   2.8130656  78.4647655 109.4788864
  80.8374310  79.8727512  12.4138761  81.3809490  79.0863991  12.3640525
  80.1074028  79.6237993  12.9807115  57.8854322  94.9931622  27.1007395
  57.7653408  94.1008568  26.7757678  56.9961262  95.3296566  27.2109270
  44.7664165  72.0312119  40.9170341  44.7255278  71.2832737  40.3210926
  43.8520384  72.2798157  41.0524654  64.9488735  58.1691027  29.8586321
  65.7723475  58.6113310  30.0649238  64.2917776  58.8648415  29.8788333
  96.0255909  60.4232168  99.1559192  95.2563953  60.2108479  99.6845742
  96.7228794  60.5688477  99.7953042  79.0878630  62.7879238  30.5367494
  79.6249962  62.0577765  30.2291751  79.6083355  63.1924391  31.2307978
  96.6833210  61.3164711  15.3901684  96.0534191  61.1251831  16.0850453
  96.1934566  61.1814070  14.5789862  70.1397657 121.4602852  23.0145550
  69.6170330 120.6816483  23.2061601  70.6243610 121.6282654  23.8227510
  95.9705162  77.9162216  27.8577328  95.1022816  77.7131081  28.2057929
  95.9676743  77.5451088  26.9754076  94.2582798  62.4809456  38.8781500
  94.8380661  62.7112341  39.6041274  94.5612240  63.0218267  38.1488347
 105.0013256  53.1887722  19.3410587 104.7581291  52.6933241  18.5590005
 104.1951942  53.2359266  19.8550236 106.1690807  93.5620022  22.7992177
 106.6219711  92.7913094  23.1414938 105.5110455  93.7676907  23.4632349
 105.1048660  35.0381136  28.8565302 104.5607185  35.3077364  28.1166434
 104.5876884  34.3672538  29.3022871  64.6770144  79.0881824  99.0933737
  65.2199602  79.5921707  99.6995410  64.7714520  79.5400715  98.2548567
  34.1783929  61.9259596   5.6693631  34.7614312  61.7398071   6.4053291
  33.3247113  61.5970755   5.9509587  72.4487448  61.2908220  21.6808844
  72.8592348  61.9656658  22.2215486  71.6856527  61.0104465  22.1861696
  85.6910515  54.8698235   7.9880846  86.6459560  54.9196482   8.0316806
  85.4317665  54.4995070   8.8318086  85.0419235  51.7994070   3.1400165
  85.6031704  51.7286587   3.9121753  84.1648102  51.9462061   3.4940863
  67.7509451  52.0071507   2.7359426  68.5265970  52.0870066   2.1807681
  67.5875711  51.0652828   2.7851593  91.2817001  85.5020428  43.0371094
  90.4517174  85.5356026  42.5614643  91.9043827  85.1395226  42.4069786
  60.3591919  56.3769197  16.6826224  60.7691574  56.1074352  17.5045311
  61.0921097  56.6277218  16.1203384  43.0034113  44.2443180 107.2297108
  43.6264372  43.5375261 107.0608597  43.2071209  44.5359612 108.1183503
  94.6859360  87.5895214  22.1850896  93.9436626  87.1103477  21.8167901
  94.4556618  87.7173805  23.1053400  59.7286701  52.5840521   6.3927925
  59.4020605  52.1966362   5.5807161  60.6704903  52.4138498   6.3775146
  90.0052452  57.4419069  12.1653759  89.7313404  58.1374931  12.7631819
  89.7019482  56.6351032  12.5816774 100.6337261  20.8228993   1.9985363
 100.2334309  21.6407371   1.7033349 100.7236767  20.2992201   1.2023588
  71.7727852  58.1857920  77.3113545  71.8131161  57.2455406  77.4860748
  72.3779249  58.5731030  77.9438313  71.7460823  48.2371664   6.1784720
  70.9117746  48.1835985   6.6446191  72.4083376  48.1040192   6.8566483
  90.0074005  50.2255630  87.2407087  90.1840973  51.1343861  87.4837264
  89.0879250  50.2232170  86.9746360  78.0112648  93.3252811   1.0893101
  78.4441471  94.0510273   1.5389073  78.2635689  93.4273911   0.1716247
 101.4497280  74.0351391  26.5760517 100.7537270  74.0515518  25.9191298
 102.2596073  74.0844774  26.0682201 100.0553703  66.7164421  93.2465120
  99.7553635  66.1538982  93.9604934  99.2980289  66.7909765  92.6659068
  55.0176620  90.8589363 102.5557049  55.8095074  91.3253689 102.2880163
  55.1874495  90.5987835 103.4610894  90.3723717  70.3391647  13.7896895
  89.7656155  70.2390146  14.5232081  90.8318424  71.1594677  13.9692032
  89.5334816  73.6651611  29.3358707  88.9596653  73.0265284  29.7590852
  89.0347099  73.9700031  28.5778999  63.6419630  48.1992865  76.6127356
  63.0911112  47.4169111  76.6389235  63.5462523  48.5298109  75.7195243
  74.9417305  46.5134859 105.8273523  74.4641924  46.5531397 104.9987283
  75.8487225  46.7072630 105.5906018  76.0694551 112.3611546  37.7382183
  76.7457390 112.1695709  37.0884752  76.4328861 113.0781174  38.2579374
 112.5375843  68.2046127  12.6176596 112.1967983  67.4691200  12.1085966
 112.0136166  68.9543533  12.3355591  89.9228764 115.6800747  42.1344948
  90.6308937 115.5507374  41.5034580  89.4617367 114.8414707  42.1522999
  74.4716358  43.7994766  31.4303422  74.9913168  43.1136513  31.8496418
  74.5186377  44.5394659  32.0356846  97.2208977  58.2989550   3.0215815
  96.4542007  57.8792906   2.6313463  97.4549580  57.7333546   3.7574780
  90.0729561  58.5695791  18.7498748  90.6321716  57.9794455  19.2551064
  90.6085587  58.8215923  17.9976428 115.1450443  26.4949441  20.9659338
 114.5052147  26.7743945  21.6207337 115.5462265  25.7115316  21.3421607
 100.2231598  71.3153315  18.7601149 100.5308723  70.4199409  18.6193383
  99.4044495  71.2136936  19.2455089  70.2485561  51.0723257  32.1999907
  69.7986507  50.3076172  31.8407798  71.0848427  51.0985136  31.7350507
 105.2327728  60.4977512   0.1024706 104.8094559  59.9567986   0.7691085
 105.3656197  61.3439894   0.5296207  86.5913486  70.5135298   5.0693518
  85.9997654  69.7674227   5.1672560  86.0187244  71.2796736   5.1062125
 104.9033642  45.4834747  29.7242951 105.2067280  46.3480759  29.4474101
 105.3620338  45.3213787  30.5486655  76.3224697  82.1148014   4.9796307
  77.2168159  81.9964504   5.2995801  76.1141777  81.2902832   4.5402953
  80.4368877  38.3383036  26.5458202  79.9474812  38.1088805  25.7558346
  81.3405895  38.0929565  26.3474274  48.5863209  58.2961035  40.6112385
  47.7672577  57.8246784  40.7633257  48.4482384  59.1527176  41.0154390
  77.4258232  53.2712030   4.1514435  78.0128527  54.0146112   4.0136948
  77.9391956  52.5082159   3.8858703  68.1667900  74.0275621  26.4851761
  68.5928202  74.8433447  26.7482948  67.3739004  73.9881134  27.0199680
  91.0888386  86.8895531  37.5989175  91.6282177  86.1474323  37.3258471
  90.1883888  86.5796089  37.5021958  85.9699249  32.5696731  45.0536346
  86.4673042  33.3420753  45.3224230  86.6191864  31.8672395  45.0178194
  82.7753830  39.6551442 109.3898751  83.2299900  39.4544625 108.5717704
  83.1995201  39.0979552 110.0424708  68.9993477  79.9190474   2.5313595
  68.8616705  79.0471888   2.1610427  68.3577061  80.4724503   2.0860812
  85.4446602  60.6164694  33.1238866  85.9866905  61.1105967  32.5088549
  85.4076290  61.1668158  33.9061737 115.4576397  39.6764565  23.4308147
 115.0503922  40.1902676  22.7334094 115.3976822  38.7706614  23.1272173
  91.9767189  52.9211617 104.8313653  92.8816414  52.7583742 105.0975140
  91.7270088  53.7149096 105.3044858  80.4121399  62.5264072  38.5306931
  80.9025860  63.3366251  38.6693716  80.1324272  62.5692749  37.6162767
 105.7702255  65.9428167   7.4291366 105.8916759  66.8651962   7.6542974
 104.8785591  65.8958578   7.0842397  89.1927052  73.6296749  25.1052594
  89.3419552  73.7538433  24.1679549  89.8509789  74.1814041  25.5277610
  58.3301878  88.7168789   7.6315629  58.0844641  89.5404911   7.2102338
  58.0638552  88.0404949   7.0088309  93.4931087  74.3284082 106.6881722
  94.3853188  73.9878988 106.6229352  93.4689808  75.0572538 106.0681471
  92.2872353  75.3542471 108.8296021  92.3449707  74.9157476 107.9807108
  92.1381950  74.6456146 109.4555865  68.9950943  82.2769451  85.1410636
  69.5773935  81.7454338  84.5982417  69.2250443  83.1806850  84.9251827
  97.5343609  88.7027645   6.8450236  98.3197021  88.1933880   7.0450217
  97.8411865  89.6083546   6.8003297 107.8615379  19.7336340 104.2221292
 107.2042942  19.3343174 103.6522087 108.2108402  19.0035081 104.7331484
  64.4302988  63.3493996  38.6795902  64.2528677  63.6533689  37.7894497
  63.5854530  63.4083462  39.1256762  98.6668301  65.2903175  83.0919489
  98.3884048  65.1228333  83.9923152  99.1545868  66.1124516  83.1410845
  50.0688791  51.9865274  46.4130020  49.8425770  51.0671377  46.2724924
  49.4064426  52.3052502  47.0260525  49.1974878  71.2261677  20.5017829
  48.3239794  71.5835810  20.6613898  49.0578747  70.2834272  20.4124117
  75.0903988  45.7368231  33.2447410  74.4410372  46.1475420  33.8155913
  75.8252668  45.5353117  33.8240504 100.7708359  93.9752293 108.3233842
 100.5225658  93.0824661 108.5633195 100.9978867  94.3922615 109.1545085
  68.2498407 106.9659615 108.4517706  68.3214998 106.0130119 108.3972479
  68.6063194 107.1840763 109.3129230  85.9329510  64.8143959  88.1490525
  86.5878582  64.4299746  88.7317618  85.7536983  64.1292572  87.5050934
 121.9294357  30.9553981  93.7314793 120.9844208  30.8864903  93.5956653
 122.0249367  31.6109347  94.4224080  81.5100384  74.8549414  42.4409819
  81.0980892  74.2097473  41.8662977  80.8202171  75.1021719  43.0568218
 108.7181473  22.3697305  17.7886128 109.5379829  22.8154659  17.5754654
 108.5332584  21.8284416  17.0211136  56.8766069  92.8095436  25.4384232
  57.6476336  92.2626781  25.2877951  56.4099026  92.8009415  24.6027517
  69.8088789  40.0500059   7.1836702  69.7294569  40.2530575   6.2516252
  70.0528669  40.8816147   7.5900213  93.5866642  30.8310962  10.2603189
  93.2333565  31.4143801  10.9320203  94.1765213  30.2468014  10.7366506
  36.3154006  85.7189369  65.9422922  36.1115789  84.8086929  66.1571360
  35.7049847  85.9415817  65.2394056  93.1042004  61.8761444  77.3554373
  93.4379005  61.2254858  76.7377663  93.8786030  62.1705246  77.8348827
  31.5651155  24.0384316  98.3065510  31.1131310  23.4691215  97.6837921
  32.4860549  23.9906144  98.0500031  66.8891382  37.5060916  86.9506264
  66.8595791  36.7697001  86.3398170  67.6943302  37.3707199  87.4501991
  25.3631568  15.3612077  99.2059040  25.0585055  15.9223449  99.9190331
  25.5773711  14.5301747  99.6298504  92.7530479  76.5478373 104.5776749
  92.0269489  75.9270811 104.6383476  92.4531078  77.2068024 103.9515495
  59.6372032  43.3209324   4.2826406  58.9143276  42.8263569   3.8965360
  59.2273378  44.1140985   4.6277944  79.0267801  71.2918806  93.4465027
  78.5431480  71.8811750  92.8676605  78.5426807  71.3162994  94.2718983
  93.5690594  39.4090652  55.6158447  94.1682625  39.2547226  54.8855257
  93.0001068  40.1169014  55.3133678  65.0643063  53.6671019   5.7433454
  64.3656254  54.3130255   5.6391088  65.8052015  54.0359783   5.2624742
  89.6360493  52.8563404  88.1232071  89.1143894  53.5184765  87.6696968
  90.4003906  53.3335066  88.4462070  64.7517586  61.5164661  91.1416435
  65.0808716  60.8547497  91.7499638  65.4271603  62.1947289  91.1371613
  64.5718336  39.9554133  53.2264654  64.4644260  40.6746101  52.6040021
  65.2582216  40.2550507  53.8225499  90.4704189  67.3785496  60.3119564
  90.8558369  66.5034819  60.2679110  89.5719337  67.2603178  60.0037909
  56.3593006  53.3679008  94.3291187  56.8960953  53.0286837  95.0453663
  55.6403017  53.8256645  94.7646809  75.0911140  18.4870958  89.7080612
  74.2447329  18.1865788  90.0390625  75.6105471  18.6534452  90.4946709
  78.8740778  37.2033191  29.7067300  78.3595371  37.8147221  29.1797963
  79.6176815  36.9738054  29.1494123  91.4775562  33.8367367  76.4414501
  90.7267952  34.3850756  76.6692972  91.2899876  32.9918838  76.8504381
  79.5137835  52.1333408 103.3205795  79.0330696  52.7618647 103.8591957
  79.9331999  51.5485287 103.9517021  79.6107006  64.3526411  94.9369431
  80.0882053  65.0398874  94.4722748  78.8671446  64.1514826  94.3687057
  65.9760141  19.9786103   0.1284639  65.1397753  20.4214334   0.2728216
  66.5962458  20.4511476   0.6836740 110.0506210  62.8680897  95.2997971
 109.3797112  63.5501480  95.2695847 110.8720684  63.3329105  95.1404285
  78.7447071  19.7084475 108.3595085  79.4918203  19.4869161 107.8036499
  78.5725260  20.6313229 108.1727314 106.6733074  65.3382969  76.5332842
 106.9089985  64.4843864  76.8959427 106.8653965  65.2628326  75.5985975
  93.3630848  98.9874172  10.2440397  94.0059090  98.4874535  10.7470838
  92.5864983  98.4281540  10.2248517  81.7151928  65.8548403  11.3839952
  82.3041534  66.1599302  12.0741216  80.8893108  66.3068151  11.5568010
 102.5107098  25.8139849  98.2069206 101.6919041  26.2686467  98.4045982
 102.4960518  25.6963086  97.2570896  77.9888535  46.6553926  91.7321777
  78.7674904  47.2075319  91.8036079  77.8937483  46.4957666  90.7931900
 114.7461510  28.3016443 100.6569862 113.8291550  28.5759068 100.6459332
 114.8238373  27.7570295 101.4403057  79.6706629  33.0762935  21.7161123
  80.2104664  32.2949982  21.8361989  79.2098713  32.9245305  20.8909646
  75.0427961  47.4809313  77.9500198  75.1929426  48.3214903  78.3826303
  75.4583120  47.5751114  77.0928669  41.0657263  51.5639687  93.1306744
  41.4272976  52.3238420  92.6745033  41.2506533  50.8257389  92.5501156
  67.3859978  44.5770931 103.9611435  66.5800810  44.2443419 104.3561172
  67.5283718  44.0161991 103.1986713  94.2381287  41.4668512  18.1389657
  93.4066963  41.0577250  18.3788816  94.7729874  40.7456923  17.8071729
 102.7785492  68.9168739  93.9686012 102.0483685  69.2255449  93.4321499
 103.2566166  69.7123384  94.2029572 113.0572128  34.1305780   3.9381067
 112.4171543  34.1166043   3.2265226 113.0911255  35.0471902   4.2117921
  47.7626419  21.3264680  32.3306314  46.9509983  20.9576297  32.6790944
  47.4776506  21.9139028  31.6306821  92.6763821  50.8825731  78.4392118
  93.0340672  49.9986553  78.3556461  92.3563385  50.9272528  79.3402147
  98.9763069  69.5052671 104.4590855  98.0325317  69.6025562 104.5858097
  99.1328239  69.8246670 103.5704231  73.7137270  22.3493218 101.7851639
  73.1792307  22.2243834 102.5693417  74.5898867  22.5396848 102.1203327
  64.8996878  73.4287262  86.2009048  64.9881315  74.1530418  85.5814075
  63.9647150  73.4000492  86.4039707  85.1265049  10.0995541  14.8224679
  85.1075363  10.9989560  14.4954339  84.7819901   9.5746696  14.0999452
  80.5425167  65.6583643  76.2672329  80.0974655  66.4188051  75.8932161
  81.0731316  65.3140688  75.5488014  70.7844114  52.8347778  74.0178299
  70.2841711  53.2229948  74.7356606  71.5478992  52.4433422  74.4422102
  65.6122255  41.7838430  76.2400866  65.3629065  41.7989349  75.3160477
  66.2861347  41.1063242  76.2952948  96.9602489  39.7435856  14.5203058
  97.2253227  39.3620348  15.3571931  97.3453140  39.1661406  13.8611261
  84.3047333  24.9725437  98.6902618  84.6555042  25.7633400  98.2805920
  84.1996384  24.3545151  97.9669189 108.1682777  67.7258062  95.9599018
 108.4006786  66.8466711  95.6609917 108.5853958  68.3116341  95.3281975
  88.1434250  14.6001172  36.7927400  88.6127663  14.1365600  37.4863283
  87.2266579  14.3556035  36.9191305 110.5727863  62.2060442 106.3493061
 110.6296730  61.9500446 105.4287243 109.9466610  62.9300022 106.3583279
  61.5840483  65.2817059  91.1210442  61.5956879  64.3247271  91.1042690
  62.3831463  65.5227804  91.5896130 104.7011852 132.7850790   9.9930993
 104.4357395 133.6682481   9.7366182 105.0202084 132.8819484  10.8903543
  51.1845541  48.5091209   4.4297448  52.1117020  48.7249231   4.5300237
  51.0043955  48.6524868   3.5006467  98.1292629  52.7307606  84.3410110
  98.9647007  52.5785112  84.7827148  97.5023651  52.8608990  85.0525570
  64.4300175  44.5908880 108.0852222  63.7767410  43.8914585 108.1013966
  64.9274063  44.4355392 107.2822857  85.2489662  67.9639721  10.2324525
  85.0766373  67.5023937  11.0531083  84.4441509  68.4521294  10.0586549
 104.8386955  51.7434931  76.6733694 103.9893246  52.0277548  76.3357544
 104.7523880  51.8086529  77.6244402 111.7061424  13.9739084 101.9674683
 111.3169289  13.1304312 102.1983242 110.9787750  14.4836879 101.6106796
 105.3145504  53.3414745  96.5366554 105.3839684  52.4422503  96.2160206
 106.1558628  53.5100985  96.9609070  70.3645515  27.7506232  78.7775803
  70.0264931  26.8566442  78.7251616  70.2845049  28.0896235  77.8860092
  73.5816288  86.7445183  11.0642568  73.6017370  87.3616314  10.3328172
  74.4098043  86.2689781  10.9992448  89.6835423  23.6431026 108.0415916
  90.2658272  23.2444954 107.3948479  88.8022995  23.4433746 107.7257729
 121.5340137  41.7745399   3.5477773 122.3616600  41.5338373   3.9640657
 121.7606544  42.5000286   2.9659501  44.5449018  43.6577559  35.0105707
  44.3359661  43.4153605  35.9126893  43.9325714  44.3639946  34.8043863
  61.6434908  30.1070547  59.4473783  61.4394903  30.1692200  58.5142270
  62.5384665  30.4387879  59.5194951  69.7331238  17.2052336   7.6044408
  69.4980812  17.5563526   6.7455522  70.5256319  17.6827407   7.8496972
  62.6600218  48.4425116   6.5843335  62.0794535  48.7529373   5.8894864
  62.5891209  47.4886560   6.5473787  75.7830048  38.8764334 107.7000713
  76.6787958  38.6988401 107.9868793  75.8847618  39.3248200 106.8605328
  49.4249010  57.1495867 103.3977222  49.5043135  56.2495470 103.7137127
  49.8734283  57.1470022 102.5521088  68.2892084  54.1473436 102.3454666
  68.6655569  54.4845057 103.1584358  68.4549665  53.2051468 102.3774815
  56.6684866  44.7304964   5.5881063  56.3983345  45.6408596   5.7084600
  57.3607254  44.5984507   6.2358800  56.2074661   0.8500230  87.9435921
  55.8562994   0.8582315  88.8340092  57.1520519   0.7473956  88.0595875
  89.9197006  28.7832522  16.6223089  89.8400211  29.5980287  17.1183149
  89.2445564  28.2124805  16.9892255  26.2476540  35.1668453  89.8760033
  26.8906999  35.7696366  89.5026875  25.9540868  35.5970597  90.6791019
  86.3514233  22.4090052 103.4591579  85.5993557  23.0010581 103.4495831
  85.9821796  21.5564537 103.6894703  48.2982206  40.3510046  80.1668072
  47.5932932  40.7220459  80.6974983  48.7906027  41.1112642  79.8572969
  77.9352713  45.8214569   0.9273092  78.5374737  45.3155041   0.3817884
  78.4722996  46.5288210   1.2843362  61.7291069  33.4590697  72.2730684
  61.7252684  33.6434603  73.2123327  61.2532568  32.6327705  72.1892500
  67.9505253 145.7577628   1.9034044  68.4967899 145.5651144   2.6654569
  68.5063791 146.2964063   1.3402692  71.3492107  43.7703705 101.7819881
  71.9529343  44.4469976 101.4755249  71.0686684  43.3208132 100.9848499
  59.9956656  61.7866755  11.4810506  60.8284330  62.2402668  11.6113893
  59.8410177  61.3278913  12.3067895  58.9080858  44.2145872   7.7676240
  59.1423988  43.3103561   7.5585882  59.5290947  44.4714880   8.4492246
  85.8069038  62.7018213   1.0405866  84.8625088  62.5792885   1.1371270
  85.9068775  63.6275864   0.8187715  85.9500313  52.1858644  70.7619905
  85.5748558  52.9250956  71.2405443  86.6152859  51.8314409  71.3519430
  59.6822548  91.9809341  73.5446692  58.8236713  92.1350384  73.9387751
  60.2855730  91.9552517  74.2873526  66.4715576  32.6346922  89.8237228
  66.2471914  32.0856214  89.0724468  67.3835278  32.8840947  89.6742535
  92.6776981  72.9807806  64.1626167  92.1028423  72.2185993  64.2323446
  92.6280975  73.3976793  65.0228310  73.0608416  30.5917311 101.0662079
  73.3946133  31.0797572 101.8189812  73.3655357  29.6954131 101.2076473
 121.9905567  35.5756474   0.9364168 121.9145393  36.4790678   1.2434808
 121.9673061  35.0484824   1.7350332  81.6183949  59.8541737  95.3796959
  81.7956924  58.9808846  95.0301743  80.9492779  59.7128010  96.0494232
  88.6873817  39.2528939   7.6841394  88.8561344  38.3225489   7.8331796
  89.5518684  39.6299148   7.5205556  59.0785074  54.8643494   3.9894143
  58.5832262  54.3525982   3.3498517  59.2605925  54.2487621   4.6994344
  65.9460068  51.5562057  99.5022964  66.3922405  52.2494364  99.0159416
  66.3915873  50.7519341  99.2361355  61.6107130  53.6980677  99.9492931
  61.8868303  53.5790539 100.8580399  61.4345312  54.6358442  99.8733616
  96.4976406  49.2731810  14.1172448  95.8482552  49.6239328  13.5077325
  96.5046692  48.3317900  13.9441530  53.9921665  66.4645958  89.4479275
  53.9729738  66.9818592  88.6427498  53.6200619  65.6187916  89.1981602
  62.8832817 102.7637672   2.8716031  62.9801226 103.5898399   3.3453695
  62.3026562 102.9737854   2.1401731  85.9123898  11.0974979  80.9463692
  85.1093674  10.5782855  80.9887505  86.3175297  10.9826207  81.8059540
 102.5091171  27.5058007 100.9480476 103.0401134  27.3091984 100.1762772
 103.0598927  28.0829000 101.4770412  59.4516516  89.9615288  10.1065484
  58.7236977  89.6440506  10.6408922  59.1881657  89.7721577   9.2060224
  56.1876011  44.3955803 104.9887180  56.9777393  44.8811817 104.7518444
  55.8293343  44.8717976 105.7377815 106.9124508  31.4600110  14.7112695
 107.2399807  30.8448958  15.3674547 107.6456928  31.5792108  14.1076318
  28.8989305  50.6519127  39.2341939  29.2272258  51.3060999  39.8510400
  29.6801710  50.1775265  38.9498464  68.3656597  43.8581324 107.5284863
  68.4775114  44.7504187 107.2005367  68.8339996  43.8492870 108.3632374
  68.6318111  54.1711664   0.4726735  69.4161701  54.6130323   0.1474706
  68.9537954  53.3433771   0.8295003  84.9417305  37.0895553 103.8992500
  85.1909733  36.3426900 104.4435787  85.3772068  37.8385019 104.3062687
  97.7816868  98.9523125   5.2765886  97.0701885  99.4994354   4.9439374
  98.0439854  99.3724060   6.0957090  87.6887894  62.7577257  97.8777981
  88.5192680  63.1412220  97.5959015  87.4434280  63.2616377  98.6537552
   1.4927893  48.1502485   8.9845220   0.6781321  48.1922436   8.4837095
   1.3204699  47.5029945   9.6683255  31.8912840  39.1158986  99.6292114
  32.2460151  38.9998674  98.7477684  32.2834659  39.9319959  99.9397087
 103.0647755  21.8815732  97.3045254 103.4814644  21.6592646  96.4719486
 102.1303558  21.9231439  97.1011257  78.5956335  77.0435905  88.2270622
  79.4133472  77.3650169  87.8472424  77.9144526  77.3657465  87.6367760
  75.9321547  38.4722519  87.2360992  75.0797272  38.7709379  86.9192791
  75.7268286  37.9148889  87.9867172  97.2937012  16.3853967   5.0203554
  97.6031113  15.9748697   4.2129079  98.0886078  16.7082882   5.4447309
  98.5464478  31.6827035  94.7535706  99.0432930  31.9884634  93.9947033
  98.2249451  32.4834871  95.1678371  66.5817738  21.5638471   3.7021486
  65.9092331  22.0509982   3.2261220  66.4295626  20.6495476   3.4631482
 103.4181118  20.1030779  59.4348478 102.4763584  20.1968217  59.2915535
 103.4903336  19.4571531  60.1375580  90.0815678  16.7922378  13.7852708
  90.5310535  16.2154496  13.1676046  90.5891895  17.6035714  13.7682096
  97.8888416  75.7039165 108.1952381  97.5358677  76.3263988 108.8309765
  97.8759861  74.8624849 108.6513710  58.8591146  56.9754171 102.1263599
  58.0397034  56.6169024 102.4673271  59.0043879  57.7705288 102.6391220
  92.6440144  37.9888415  78.6231041  92.2848415  38.7903666  78.2426023
  92.0855904  37.2904444  78.2815886 116.8310165  37.6993275  12.3259012
 116.1342621  37.6203299  11.6743413 116.3700962  37.7775335  13.1611673
 100.2430439  66.8814278  99.1929531 100.2558231  66.9312525 100.1487732
  99.3208218  66.7510128  98.9722252  75.7425117  67.0600843  27.7905790
  74.8740482  67.0088148  28.1897966  75.7875204  66.2957907  27.2160665
  95.8624554  38.3441353  98.4232998  95.4722309  37.8577399  97.6970959
  95.1746655  38.9475942  98.7043953  97.1106720  70.5478239   6.1689607
  96.3249493  70.7631826   6.6714422  97.8333855  70.8851385   6.6982404
  62.6213121  19.7863841  18.8326017  63.5159349  19.7599173  19.1719858
  62.1065331  20.1677513  19.5437948  84.0167809  37.8661084  39.3953649
  84.1685390  38.6252141  39.9583570  84.3060875  38.1494999  38.5280553
  69.3188906  31.7603421   2.2081033  69.0337563  31.5166092   3.0887452
  68.6259317  32.3347473   1.8823854  97.0541096   0.5426680   2.9618017
  96.1495399   0.7689512   2.7455179  97.3023796   1.1705178   3.6403219
  71.1846304  43.9298105  95.6999016  71.0166836  43.0352020  95.9960461
  72.1134233  44.0721369  95.8824348  63.5939550  49.3932629  97.1460819
  63.7390375  50.2763367  97.4857330  62.6642132  49.3736172  96.9192982
  45.6711197  36.4151645  36.2871782  45.3384209  37.3020768  36.1496011
  45.8430433  36.3670373  37.2275773  77.6467991  45.2277136  88.9400959
  78.5213900  44.8669291  88.7946415  77.2481680  44.6385860  89.5806122
  93.4786510  42.2473478  62.4241734  93.4625435  43.1883240  62.5989103
  93.7085915  41.8515348  63.2648230 103.1716919  35.8970547   6.3696901
 103.5173798  35.0183010   6.2130872 102.9888916  35.9186316   7.3090307
  83.6253834  73.8490152   0.7781354  83.8456821  73.4786272  -0.0765666
  82.6800537  73.9943552   0.7397214  95.2624035  44.0825653  98.8579559
  95.2889824  43.3721876  98.2169533  94.3298817  44.2620707  98.9780140
  64.0954113  46.1061716   9.9107496  63.7977982  46.8256903  10.4674760
  63.9004278  45.3164721  10.4153100  67.2961807  77.6952791 109.8449993
  66.3822937  77.9319715 109.6868229  67.7969170  78.2796907 109.2758274
  56.0836887  19.1794395   9.9637071  55.3861809  19.8319185   9.9006120
  55.6265259  18.3385146   9.9550287  70.8107328  19.2433023 104.9292469
  71.1430693  18.3610666 105.0949097  69.8768044  19.1195440 104.7598267
  86.7140865  49.9544811  97.7260303  87.6712322  49.9547148  97.7154636
  86.4832115  50.4358625  98.5205173  61.1460304  17.6412320  62.8112841
  61.7732573  16.9185495  62.7878094  60.6735754  17.5216568  63.6351299
  42.8894424  50.3362370  22.8828470  42.6856899  51.2413311  23.1184808
  43.1421041  49.9246645  23.7092916  63.5938883  35.2194262  13.9017049
  63.7690592  34.4984484  14.5064679  63.0674887  34.8258233  13.2058469
 113.5052776  73.6071253  15.6707231 114.1431141  72.9141521  15.4998723
 112.9604721  73.2621098  16.3781015  66.4442682  24.8577547  76.2781858
  66.9679689  24.1389108  76.6320753  66.2275267  25.3941917  77.0407438
  75.0750732  86.5429974   5.2125303  75.0369310  85.5950546   5.3396837
  75.5918455  86.8632317   5.9518758  70.9972715  52.3414516  93.3433914
  70.2360964  52.7481079  93.7574959  70.7582617  52.2714567  92.4191666
  83.2415676  74.9304247  80.3638840  82.9919720  75.0285530  79.4450235
  82.5797749  75.4261541  80.8460903  97.3549938  26.8644428  32.1705285
  97.5851917  27.5142646  31.5064660  96.7174530  27.3086834  32.7294866
  84.5447445  44.6272087  88.3921528  84.1458607  43.9291620  88.9116287
  85.3710651  44.8147964  88.8373756  59.4616413  28.7249684  78.3044004
  59.5140505  28.4449911  77.3905611  60.1832008  28.2680821  78.7366390
  66.7312431  68.6028862   0.2714006  66.6118574  67.7441406  -0.1342353
  67.6679659  68.7801600   0.1855985 108.0822277  61.3632631  96.1922741
 107.3476791  61.7612219  95.7250404 108.8511753  61.8405724  95.8806133
  62.9521465  33.4370518  86.2122059  62.9654026  32.6839018  86.8028164
  63.1782293  33.0739284  85.3559017  96.3807201  53.9902163  91.8046761
  96.2378883  54.3093443  90.9136200  96.6861248  53.0902338  91.6906929
 121.9826698  32.2414613  23.6470548 121.3751602  32.7311277  23.0926267
 121.4227009  31.6568041  24.1577760  74.8698854  29.1417217  80.4623795
  75.2751732  30.0080657  80.5000973  74.2331505  29.2059541  79.7505665
 123.9338589  47.8120613   4.7482148 123.8108540  48.2249403   3.8934461
 123.9382458  46.8731070   4.5622484  61.4305210  22.8946853   4.8798600
  60.7685566  22.7126813   4.2128412  61.9826460  23.5728145   4.4905893
  92.7361679  69.4153738 101.2129498  92.5987720  69.9633789 100.4402637
  92.9240322  68.5458565 100.8595657  44.4148493  40.5113077  83.4731579
  44.7047329  41.2257433  84.0404129  43.4756374  40.4371834  83.6423111
  73.7871075  39.5482397  82.8545284  74.0664101  39.4153142  81.9486809
  73.9739370  40.4705048  83.0298901  92.1965981  40.6378937   3.3569471
  92.4015427  41.2461948   2.6468793  91.2441635  40.6811142   3.4419576
  87.3204517  45.5745888  76.5575361  86.5790653  45.9367847  77.0427227
  87.2133636  44.6261215  76.6294241  26.7530823  39.7997999  88.6565971
  27.3984790  39.7924781  87.9497433  26.0950971  40.4347706  88.3735847
 102.4957848  30.5588007  94.1574574 101.9326019  30.8338356  93.4339905
 102.2727108  29.6386600  94.2982006  90.1663685  15.3449607  83.1894779
  89.3948555  15.6762636  83.6490822  90.6600857  16.1302745  82.9533482
  62.2660446   3.4868467  21.7407743  63.1273127   3.6930540  22.1039907
  62.3669386   2.6112452  21.3674394  79.6920586  48.5646868  94.8926830
  79.6691370  49.0645123  94.0766621  80.5147934  48.8225126  95.3084373
  69.9843359 140.6326027 109.0855122  70.1823568 141.5625531 109.1960239
  69.0369797 140.5731423 109.2088318  97.4786091  27.2297931   5.9106675
  96.7616272  26.6208196   5.7336656  98.0542755  27.1495390   5.1501504
  85.8994484  45.3039503  92.1457005  86.0432053  44.5351315  92.6974964
  85.7873344  46.0254335  92.7646637  86.8215370  17.8764665  95.8604336
  85.9876537  18.3298802  95.7367992  87.2221088  17.8704941  94.9911022
  76.6533184  40.3963852  85.5401993  75.8581257  40.7269287  85.1222992
  76.3375759  39.7885561  86.2088394  47.3288822  48.1423426 105.6845284
  46.7793417  47.8879261 106.4258194  48.0255556  48.6712742 106.0732555
 111.7111492  34.4620037   1.4440481 111.8525124  35.3911662   1.6254560
 112.3745918  34.2420030   0.7900754  57.1031189   7.9180783 103.8602829
  57.9325151   7.4410331 103.8879013  56.6689873   7.6914817 104.6827316
 107.8598404  34.1205716  98.1587601 107.1274090  33.8404489  98.7076759
 107.4909019  34.8016453  97.5963974  82.3148155  28.5631037 105.0076580
  81.5625286  28.3544016 105.5615044  82.1069622  28.1661797 104.1618061
 100.1216888  39.0477896 106.1973381  99.4839954  39.7464585 106.0509014
 100.7713032  39.1673660 105.5045700  93.6224651 141.6830713  79.3128633
  93.1464100 141.0797406  78.7422514  94.1173840 141.1145610  79.9028444
  74.1496801  54.7639465  36.1281720  73.2040977  54.6211624  36.0867635
  74.2430353  55.6495094  36.4793149  99.3763733  65.2216291 107.6618195
 100.0847530  64.6448040 107.3759842  99.1212749  65.6974745 106.8714142
  92.4883270  35.2940083  93.8229370  92.0426273  36.1324906  93.7023926
  93.0405807  35.2025199  93.0464840  84.9228096  35.0388861  81.8429470
  84.9701977  34.1665721  82.2341728  85.7768250  35.4303551  82.0263577
 107.1114159  17.4387765  35.9587518 107.4725056  17.8629363  36.7371599
 106.1632156  17.4740493  36.0848562  99.8613071  63.6621284  67.8911781
 100.7499409  64.0163326  67.8578424  99.9595356  62.8080606  68.3120728
  68.6323786  41.9929361  88.2515049  68.2472229  41.5853405  87.4757862
  69.5764065  41.9563913  88.0975342  30.5635548  37.8628850  71.8544626
  31.2499356  38.3955598  71.4527559  30.2646828  37.2869253  71.1507750
  87.1602249  58.3956289  66.6403103  86.7580414  58.1249809  67.4656773
  86.5035534  58.1896925  65.9750319  95.2313423  25.5308914  81.6168308
  95.2118301  25.4503274  80.6632233  95.5482769  24.6810007  81.9225597
  74.3841505  31.8432474 103.1927109  74.9424028  31.5993571 103.9310265
  74.8704147  32.5341153 102.7427387 120.4638004  43.5841465  89.7756195
 120.7614422  44.3195915  89.2401218 119.7044849  43.2381964  89.3065834
  99.4142818  33.1215668  79.3882513  99.7495174  33.5837960  78.6200142
 100.1852894  32.9788971  79.9372768  58.8966560 134.2709560  68.6349773
  59.0423775 135.0292594  68.0693197  59.2170620 134.5474846  69.4935274
  64.6317101  42.8131628  95.7936478  64.7243977  42.5584793  96.7116737
  65.2729702  43.5135746  95.6734848 101.6295433  55.5236578  32.1733705
 101.8083286  54.7785044  31.5997831 102.4541664  55.6732035  32.6358262
  53.2400608  59.4303465  93.9510155  53.5522699  59.1398096  93.0940723
  52.2891235  59.4819212  93.8546085  59.2935658  61.2789154  85.0621986
  59.0953970  62.1866131  84.8318768  59.4547367  61.3008833  86.0054779
  75.4488802  52.4203062  81.7101765  74.7332287  52.8915119  82.1368408
  75.2754068  52.5180578  80.7739162  79.8203659  73.8067150 102.6045990
  80.5815125  74.3819046 102.5267887  80.0919247  73.1331348 103.2281208
 100.1121616  33.0157876  73.0693245 100.1483536  33.5665226  72.2872686
  99.3759727  32.4245739  72.9120588  72.1953344  54.3547916  95.4166698
  72.4647093  53.7959528  94.6877193  71.9076777  53.7427568  96.0940838
  53.8021803  84.6640015  75.8856773  54.3781519  85.2866268  76.3293362
  54.2510605  83.8225174  75.9671068  59.4256306  66.7679882  96.6387558
  58.5376406  66.7946148  96.9951248  59.3224859  67.0156574  95.7199287
  74.9124622  20.8221936 105.9567928  74.3065834  21.3803816 105.4693794
  74.4511557  20.6219292 106.7712402  89.0373802  49.7314024  76.2292433
  88.6355591  50.4155540  76.7646980  88.3065987  49.3444204  75.7471275
  84.4158459  72.7422953  81.4519024  83.9124966  73.4582949  81.0643387
  84.1181374  71.9607639  80.9862709  83.8722515  41.6338539  95.5160713
  84.0805912  42.3269224  94.8895836  83.4922981  42.0938730  96.2645721
 122.3156261  27.8712177  94.0671730 122.6913452  28.7509036  94.1020966
 122.2143745  27.6174355  94.9845505 106.4019489   7.6789296  49.8549938
 106.3395309   6.9953656  50.5221367 107.3289204   7.9172432  49.8422527
 109.5975590  49.0168571  93.5519409 109.8473740  48.9826393  92.6285458
 108.9466858  48.3218765  93.6498928  61.9286585  47.3519421  71.2002277
  62.1807623  47.1347046  72.0977116  61.7609978  46.5050316  70.7868767
  72.8583956  69.1126585  77.1321821  72.5693417  69.9229050  77.5519180
  72.6367807  69.2292356  76.2083197  86.0868835  27.0853949  58.8195086
  86.8604279  26.5852189  59.0796709  85.7514763  26.6249323  58.0502844
  27.2010260  56.8178988  88.5040474  28.0387908  57.2729158  88.4183979
  26.7616683  57.2597599  89.2306614  54.1716909  59.6638489  77.3784351
  53.3676147  59.4721127  76.8958092  53.9027309  59.6753359  78.2969999
  86.2110806  39.4365025 104.9439049  86.8803501  39.7618127 104.3418407
  86.6951561  39.2002702 105.7351685 108.6003304  25.5050921 106.8718338
 109.0632725  24.6707702 106.9481850 108.1730080  25.4644775 106.0162735
  60.3076220  18.1781042 106.3023472  60.7365608  17.4802005 106.7975044
  59.4049931  17.8773248 106.1973286  85.1356316  30.2008390  43.4557915
  84.9745083  30.7234669  44.2413712  84.5547390  30.5770564  42.7945328
  85.0532246  72.1216106  88.8531685  85.1996136  71.3541222  89.4061279
  84.5699692  71.7846155  88.0987644  82.2088051  61.7066288  64.8255968
  82.7941513  60.9691715  64.6531153  81.5136719  61.6182756  64.1735029
  71.9940567  55.6176233  78.3152914  72.7063131  55.3392935  77.7395725
  72.4163675  55.7754421  79.1596746  88.0603504  16.0026848 108.1782722
  87.4570370  15.8160245 108.8975811  88.7275696  15.3193033 108.2418346
  78.6654615  91.8588638  82.7216530  79.6000624  91.8046379  82.9211903
  78.4910679  91.0889435  82.1803093  82.9288578  38.3661056  80.0309372
  82.5735188  38.8209558  80.7945251  82.5794601  38.8477874  79.2811775
  46.8943644  70.1512814  97.9437256  46.4723921  69.4956350  98.4989738
  46.6742373  69.8863125  97.0506573 103.4943104  67.6832104  63.3004951
 103.1667137  67.6775122  62.4011183 103.1088638  66.9038057  63.7007380
  78.0490923  50.7796669  75.6358337  78.5801172  51.1640406  74.9383354
  78.6775446  50.5670738  76.3258219 104.1018677  48.4678602   7.1175138
 104.9233246  47.9787731   7.0702115 104.3576527  49.3361282   7.4288217
  71.8151331  44.3329334  30.6780092  72.7186775  44.0169954  30.6826059
  71.8688679  45.2175331  31.0397092  87.6755428  21.9209075  93.2926273
  86.9562149  21.5604305  93.8111401  87.3174286  22.7222681  92.9107761
  96.0207653  62.9732752  90.0014877  96.0569477  62.0576477  90.2781487
  95.4509258  62.9687643  89.2324066  59.7482300  74.1323996  17.5069467
  59.2734528  74.2019415  18.3351842  59.5599556  73.2467031  17.1965829
  82.7260208  82.1952438  77.1494627  83.2203484  82.9998207  77.3061037
  83.2647896  81.5042591  77.5348091  91.5894985  70.9037209   6.2379209
  91.5410137  70.7398748   7.1797410  91.1432457  70.1555061   5.8413545
  95.8040524  50.1126623  96.3409328  96.1826897  49.9553204  97.2058582
  96.1852074  49.4327688  95.7853317   0.0065356  38.1224132  94.2350769
   0.6711417  38.7309074  93.9121723  -0.2793188  37.6446629  93.4564400
  62.7004766  58.1170464  82.2531319  63.2571793  57.5077915  82.7380276
  62.4303913  58.7646914  82.9041672  63.4868717  63.1650209  94.2128944
  63.2892036  63.5567045  95.0636292  64.4366837  63.0464506  94.2186928
  62.2990990  22.4924731  98.3135319  63.1223965  22.0388174  98.4941101
  61.9910431  22.7807736  99.1727257  89.5537853  59.9976397  51.8174028
  89.8125076  60.7516766  51.2875652  90.3756142  59.5452499  52.0075846
  78.8955355  49.0788794  79.8091793  79.7789288  49.1546440  79.4484806
  79.0172672  48.6388493  80.6504822  87.4709225  35.5432010  56.2913990
  87.4630070  35.8868289  57.1847534  88.3623600  35.2170467  56.1681175
  38.3671498  44.5744419   8.0122224  39.2898536  44.4482946   7.7910081
  38.1434488  45.4236031   7.6312867  75.1253557  24.4164491  87.6028919
  74.3687725  24.9840093  87.4556065  75.2403831  23.9508724  86.7744923
  91.6896629  55.5468273  75.3925371  91.0928726  54.9649096  74.9219561
  92.5603294  55.3002071  75.0805235  83.3899593  27.1128297  41.4634800
  83.4537125  26.3265228  40.9213591  84.2984009  27.3469019  41.6536856
  79.6860266  50.5489540  62.0380211  79.1647339  50.7336664  62.8192806
  80.3662014  51.2224483  62.0391798  71.6633654  36.3089347  84.1415691
  71.0479736  35.5956602  84.3111706  72.1756649  36.3798738  84.9470139
 119.8437309  65.3774357  95.7454872 120.2987099  65.1901531  96.5665531
 118.9271736  65.4864168  95.9990120  81.9204712  78.4976292  74.9472427
  81.7305946  78.5678768  74.0116978  81.2371159  79.0177202  75.3700447
  84.0388966  10.5324256  91.2252426  84.5227432  11.2810218  90.8763409
  83.4307957  10.9142268  91.8582249  73.2009983  36.5014672  86.4812088
  73.2765150  37.4320054  86.2699604  72.7905655  36.4846754  87.3457813
  80.7053852  70.7560396  79.5434189  80.1148796  70.6787491  78.7940454
  81.2803078  69.9937963  79.4749355  54.9666739 131.4459891 100.2493763
  55.2765560 131.1709232 101.1122417  55.5704212 132.1414752  99.9885654
  35.2044106  53.1706095 102.3567295  34.6747947  53.3961105 101.5919495
  35.8706188  52.5721693 102.0186996  94.7389412  38.0952716  84.2393398
  95.0393581  37.6872587  83.4272385  94.1355228  37.4566913  84.6192551
  98.8369179  32.6558399  52.7029228  98.6915779  32.9196453  53.6114979
  98.9773846  31.7100620  52.7476692  68.7353373  36.0381651 102.6628780
  69.0696669  35.3955770 102.0371437  69.3960762  36.0648108 103.3549404
  68.6259460  69.6489811   4.2523805  68.5226488  70.0365734   5.1214734
  68.0065107  70.1275969   3.7015096  84.1436386  79.3865347   9.7049180
  84.3015862  78.7995577  10.4443399  84.8920345  79.2474318   9.1245786
  43.0708742  59.7076559   7.6260129  43.6607265  59.0484333   7.9917089
  42.6805401  59.2825556   6.8623678  97.4639034  52.8159618  96.0837269
  96.8337059  52.0965338  96.1225700  98.1199265  52.5257540  95.4499722
  31.0792279  50.4440498  86.7826748  31.3470364  50.3194237  85.8721924
  31.0578251  51.3940191  86.8981457  77.1304321  48.7685823  69.9026060
  77.2726774  48.7587929  70.8491278  77.6753616  49.4890118  69.5859528
  40.8309793  32.4722624  92.1595001  41.1633492  33.3455968  91.9520187
  39.9090672  32.6119924  92.3757935  61.3342428  56.2921381 101.3688660
  60.4177570  56.1525202 101.6071796  61.3216782  57.0737219 100.8164215
 124.5365524  62.6322460  98.8824844 123.6977577  62.1827888  98.7793064
 125.1052952  62.2318840  98.2248497  80.3637123  36.4532542  80.3317738
  79.8950624  36.5859985  79.5077705  81.1690712  36.0017586  80.0792122
  72.5499058  46.7620707  96.7337322  73.1609392  46.0565519  96.9461250
  72.5003529  46.7563486  95.7778358  79.5354176  48.9879799  56.4212608
  79.6053982  49.8830891  56.7531061  79.5521498  49.0835810  55.4689932
  75.0136089  46.6624689  91.2718487  74.7431421  47.5583458  91.4730549
  75.9347153  46.6267204  91.5297604  92.3846912   9.0977305  82.9143715
  92.2184467  10.0154960  82.6991940  92.6632214   9.1130608  83.8300228
  93.6896896  31.0615826  56.9738293  94.1493607  30.4066253  57.4991512
  94.3875122  31.5794945  56.5725231  68.8575649  65.3372669  86.6842270
  69.3582535  65.2674341  85.8714104  67.9474211  65.2098560  86.4165878
  99.6333504  38.6584210  71.0753584 100.0791454  37.8264356  70.9163094
 100.0897121  39.0346289  71.8279791  82.2682571  64.2016888  79.4003630
  82.3085117  65.0128031  79.9070311  82.7497768  64.3972588  78.5965395
  64.4705105  67.3691034  15.4649965  63.5417747  67.4279451  15.2409021
  64.7468710  66.5201616  15.1198140  50.8220387  47.1663523  99.2222977
  50.9966850  47.0431852 100.1553345  51.4652491  46.6101789  98.7827682
  81.5472412  34.0880299  93.9573288  82.3368740  34.2806053  93.4517288
  80.8349895  34.1459751  93.3204842 103.4254074   2.7832040  62.7939939
 103.7229919   3.0599153  61.9273329 103.1525326   1.8735525  62.6743984
  75.6860447  76.3429117  73.3954954  75.0268316  76.3479042  72.7014875
  75.5178404  77.1441841  73.8913774 121.0156059  70.5825377  83.6194992
 120.2379990  70.7348394  83.0824947 121.3052750  71.4582539  83.8753223
  59.3110228  27.3456335  85.8844471  59.7092676  28.1621599  85.5829239
  59.4787407  27.3310184  86.8267250 101.3759136  48.8172722  61.0409212
 101.3290405  47.8993320  60.7736683 101.9835186  49.2171574  60.4187155
  59.9366999  48.9911604   1.5158883  59.6688890  49.9083424   1.4586011
  60.8919477  49.0233707   1.5678445  76.5370035  63.1430769  66.3528824
  76.0086107  63.9210701  66.1746693  77.4332762  63.4724188  66.4196634
  72.8281593  62.1022797  76.9940472  72.1540546  62.7812099  77.0235825
  73.5499573  62.5023651  76.5091038  39.5256639  19.9562907  36.5242481
  40.3242874  20.1952720  36.9946980  39.3201399  19.0741909  36.8339109
  92.3393822  47.7746534  63.1704855  91.9534683  48.5121679  62.6978636
  93.0564308  47.4794006  62.6093340  94.2228889  56.6407919  61.1517859
  93.3249187  56.5745211  61.4765835  94.3758011  55.8112144  60.6994009
  87.9237175  39.7935820  68.2292843  88.6947441  40.1866484  68.6382389
  87.2865868  39.7207546  68.9399099  26.9011712  66.9029284  75.0239658
  26.1451888  66.5390778  75.4847670  27.5983024  66.9151402  75.6797838
  79.8501301  39.9951410  44.2583895  80.5294895  39.3265772  44.1704941
  79.5856190  40.1875401  43.3588076  59.0269423  48.1546307  75.7958889
  58.1212330  47.8449869  75.7898283  59.5396709  47.3901653  76.0584307
  91.4884853  37.3360276  63.7869835  91.8838215  36.7683554  63.1254005
  90.8641911  37.8733754  63.2993841  63.2474089  22.3331547 101.3235092
  64.0420008  22.8251624 101.1166763  63.5491753  21.4339328 101.4522171
  94.6718502  46.7730570  61.3556147  95.4712677  46.5530634  61.8339014
  94.7017956  47.7254200  61.2642765  43.1633377  30.4319954  49.2190552
  43.2450867  31.3018823  48.8281012  43.9615726  29.9746275  48.9547205
 101.8614578  75.8615398  98.5322952 102.5590038  75.2104092  98.4568787
 101.0814953  75.4164648  98.2009315  75.8909941 139.7287650  98.0614567
  75.2134275 140.4041083  98.0291176  75.4236031 138.9324416  98.3137417
  58.4839725  35.7169962  57.9286051  59.1804266  35.6530356  58.5821295
  58.0565596  34.8607731  57.9494858  61.9866133  95.8510113  90.2829361
  62.7100515  96.4243126  90.0295544  62.3418617  94.9660778  90.1997566
  93.9159203  14.8876762  67.3819113  94.7497749  15.2055800  67.0357037
  94.0450191  14.8603570  68.3299732 109.7478867  65.6519651   0.2871076
 110.0099373  65.2549887   1.1177484 109.1008663  65.0461721  -0.0742968
  95.2950954  27.0035529 104.5092773  96.0799503  27.5456619 104.5890617
  95.0571918  27.0612574 103.5839176  73.9181900  64.3624830  94.8957443
  73.5555220  64.2153263  94.0222168  74.5189810  65.0993204  94.7846317
 103.3649921  23.8280988  90.5138016 103.4885311  22.9243588  90.8040047
 104.0554237  24.3191838  90.9591866 102.1853828  77.6830053   2.1585313
 101.9754696  77.1549177   1.3882772 102.4530506  77.0453930   2.8203813
  83.2640076  69.6860838  97.9016209  83.3848381  70.3789186  98.5509396
  82.4260521  69.8903751  97.4864864  83.7233448  57.2639513 102.1740055
  84.3819427  56.7194653 101.7427254  83.7032413  58.0696917 101.6576576
 108.4126377  58.4266090  68.4123135 109.3034077  58.6568069  68.6764431
 108.1939316  59.0606213  67.7293587 103.9512348  53.1079912  46.6211748
 103.5041618  52.2653627  46.7007542 103.5685444  53.5094357  45.8410358
  70.4299068  56.3971329  95.4014015  70.8987331  55.5871964  95.2003098
  69.8395920  56.5229511  94.6584797 101.3977814  58.2696772  95.1515579
 102.2676659  58.3000040  94.7532940 101.3782501  59.0228987  95.7419014
  78.6683321  28.3692241  56.7449760  79.0985155  28.0211806  55.9639263
  78.1322241  29.0928960  56.4207554  58.4506655  40.0982189  99.9463558
  57.7607679  40.1098251 100.6097889  58.7956810  39.2058277  99.9751759
  82.0299911  45.7970238 107.5584221  82.2450733  45.0531101 108.1210613
  82.0973206  45.4514694 106.6683197  86.1618900  18.2398438 104.9722672
  87.0903873  18.4625387 104.9049854  86.1008167  17.3557127 104.6105862
  62.6024055  57.8181410 106.7666721  62.8078270  57.3933029 105.9338760
  61.6652346  58.0059385 106.7149925 111.1794281  85.4498482  51.8597460
 110.3641129  85.8614159  51.5732241 111.6740894  86.1588192  52.2707176
  69.3454504  48.7479925  76.0513067  70.2661085  48.8040495  75.7954073
  69.3539524  48.8586473  77.0020485  78.7075949  71.1730814  81.3617992
  79.5017576  70.8560467  80.9316540  78.0785418  70.4588556  81.2597942
  92.2629452  39.3655157  99.1755009  92.8894997  40.0527525  98.9488411
  91.5094566  39.8363233  99.5316219  65.0642157  48.7259007   0.3918687
  65.2204895  49.5128345  -0.1301917  64.8263407  48.0563307  -0.2494677
 104.3806267  56.6645241  86.0578346 104.3460941  56.3815355  86.9715977
 104.2111015  55.8685017  85.5540085  51.1568117  21.2505269  11.6887037
  51.3402605  22.1763492  11.5292398  51.7166376  20.7849455  11.0673658
  85.2336788  50.2934694 104.3013191  84.2937946  50.1122999 104.3070984
  85.6307220  49.4884872 103.9687729 102.5067520  22.1343112  87.1695995
 101.7560101  21.9925332  86.5929413 102.6193523  23.0847049  87.1868992
  91.7410660  83.0522251 102.1022129  91.7017841  82.6132584 101.2525082
  91.2496376  82.4792099 102.6907635  68.6921787  23.3037019  93.8253784
  68.1658125  22.9719019  94.5527554  69.5176077  22.8231478  93.8883018
  52.7837276  63.0960703  89.1503048  52.2914886  63.3160210  89.9412251
  53.6802912  62.9593706  89.4564438  69.2841816  42.2209501  65.7841444
  69.0826225  42.7610111  66.5482998  70.1920795  41.9480991  65.9164286
 124.4856167  40.8565521  83.5956860 124.6812439  39.9200130  83.5664082
 123.5649395  40.9009743  83.8537598 110.1401711  14.4788980  83.3715820
 110.3250885  15.0811136  84.0922546 109.3771839  13.9810646  83.6652374
  53.9524937  58.4457111  91.4971542  53.3458138  58.5189009  90.7604027
  54.8105049  58.3263922  91.0899544  90.2929592  48.1737089  78.4697914
  89.9170399  48.6741209  79.1940117  89.7881413  48.4455967  77.7033281
  70.2019835  59.5489168 103.2043839  69.8602390  59.4739294 104.0953541
  70.3016949  60.4905844 103.0645657  82.7187443  68.3941698  86.7732143
  82.0585251  68.5180616  86.0913086  82.9033947  67.4550390  86.7600155
  92.3745632  52.5609875  83.6629009  92.3024464  52.1478653  82.8024578
  93.0092621  53.2664347  83.5374355   5.3134471  74.6857309  74.7118950
   4.6875315  74.8733425  75.4113722   5.9180861  74.0505505  75.0955534
  79.0932274  43.6954641   9.7998563  79.9061584  43.7994480  10.2943841
  79.0813446  44.4405890   9.1991178  94.2848873  47.4197817   0.2608529
  93.6456680  47.8541851   0.8255903  95.0716686  47.9606152   0.3294221
  46.6155243  63.9965343  69.7626114  46.2225723  64.8382187  69.9936819
  46.6371775  63.9969778  68.8056564  69.9823570  20.5810666  26.4485836
  70.5231857  20.3493381  25.6935763  70.6111002  20.7582545  27.1482396
  87.9791069  31.1952400  97.7543354  88.5688114  31.4267039  97.0367718
  88.4910679  30.6008840  98.3028507  10.1771288  37.8299022  95.9070206
   9.7833853  38.2136297  95.1234722   9.5566779  38.0280828  96.6084480
 104.8652363  20.9267592  87.0180130 104.8485661  20.1848865  87.6226425
 104.1193008  21.4662528  87.2802162  74.3862295  48.7663460  11.6133348
  73.9208889  47.9742384  11.8821374  74.1260719  49.4265985  12.2556917
  89.9994278  41.8995810  75.9100008  89.8781776  41.6368055  74.9975967
  89.2662811  41.4962959  76.3748503  63.6168718  55.8160591  94.8127079
  63.1035042  55.0085449  94.8372459  64.0467978  55.8526087  95.6671429
  68.8158703  58.1581640  85.6630898  68.5060883  58.9468193  85.2177906
  69.5892715  57.8908539  85.1664734  84.8269463  54.5476770 106.4365673
  84.7473145  55.3741598 105.9603119  83.9803886  54.1180849 106.3139915
  91.7705441  35.1813126  45.2635908  92.4070168  34.5197010  45.5345154
  92.0701599  35.4619813  44.3989038  91.0796738  28.4979582  86.6277599
  90.5005455  28.1917691  87.3256779  91.0721684  27.7907348  85.9827709
 121.6031647  52.9864359  93.5327721 121.8160439  52.2620773  94.1211700
 121.1316395  53.6115789  94.0833092  19.1588145  70.8437967  76.7209435
  19.4902735  69.9469995  76.6749144  19.7452384  71.2846279  77.3357677
  90.3759098  40.4855299  69.2586803  90.9936142  40.3683281  68.5369205
  90.4872131  41.3986683  69.5233011  66.4071751  14.5926702  99.0905094
  65.6519413  14.7988820  99.6412563  66.0589409  14.5868027  98.1989193
 118.7286186  35.6990933  94.1198730 118.5323429  34.9230671  94.6447468
 118.9836502  35.3518844  93.2650948  75.0573444  64.4504261 107.4663448
  75.2213907  64.6706676 106.5493870  74.1782141  64.7869349 107.6399136
 119.2596531  50.1365757  72.1018600 118.4705353  50.3759527  71.6158342
 119.8604679  50.8677578  71.9582176  75.5067825  12.7595019  60.3324938
  74.9362898  13.2350254  59.7286320  76.3501358  13.2076859  60.2683353
 121.8827629  32.9221964  53.1833792 121.9039154  31.9719648  53.0700493
 121.0198879  33.1826854  52.8611612  97.9665375  20.1986957  96.1356735
  98.7062454  20.6776357  96.5094185  97.2426319  20.3674388  96.7387676
  76.9585896  56.5979290 105.3457165  76.0209465  56.6022348 105.5381870
  77.1790838  55.6714582 105.2494621  62.0041513  20.8730125   8.8928453
  62.2617197  19.9982429   9.1838304  61.6981506  20.7462668   7.9947797
  71.1780548  36.8810487  17.8772584  71.9970989  36.4425850  18.1077901
  71.0774946  36.7225742  16.9386331  75.1588011  29.6789527  56.6889143
  75.8619165  29.9579144  56.1023617  75.2123928  28.7232542  56.6894913
 124.5452881  50.2010155 104.8479271 125.1487541  50.6932449 105.4045010
 124.0793419  49.6231747 105.4522610  83.6215591   2.4903937 105.3685856
  83.1742764   2.9368073 104.6496391  83.8503933   3.1905511 105.9798527
  74.1617727  74.5503616 102.1754074  74.8965216  74.0782070 102.5671291
  73.3841944  74.1383839 102.5520706  78.9712048  78.4104967  75.8178663
  79.1617775  77.5095701  76.0791016  78.4905863  78.3245754  74.9945450
  77.2763968  60.9306240 102.4378872  76.8223953  61.6447020 101.9904423
  77.3400784  61.2203217 103.3479691  45.3889894  61.8424463  96.9220448
  44.9342299  62.2903824  97.6353264  45.5105400  60.9477997  97.2399521
  88.8917923  79.8850346  46.5730286  89.6314812  80.4335594  46.3118792
  89.2580223  79.2805386  47.2185421  71.9915485  48.8732100  98.2011032
  72.1886587  47.9454470  98.0721188  72.3849583  49.3090105  97.4450970
  88.3510971  34.1071844  69.1390038  87.8822803  34.8678446  68.7957382
  89.2748928  34.3065882  68.9870739  97.0138073  20.2496433  36.5728092
  96.8626022  20.0629735  35.6462431  96.5983105  21.0998607  36.7167568
  94.3743801  60.1431370  75.6648922  94.5146942  60.8528566  75.0381184
  93.9114761  59.4704962  75.1653862  52.1325684  65.9603262  86.5229321
  52.9491091  66.4586020  86.4880466  51.4647579  66.6099548  86.7425728
  82.1591091  59.7204828  76.3782644  81.8268013  60.5281782  76.7699671
  82.5772285  59.2568016  77.1038103  95.8066273  54.2185783  78.6861181
  95.6679630  53.6216688  77.9507923  95.9282589  53.6436319  79.4416809
  85.3298664  32.0031953  82.6245880  85.1854229  31.8691635  83.5612774
  84.6392345  31.4939094  82.2004509 100.8285522  47.1326447  75.4950714
 100.8077526  47.4839401  76.3852358 100.4417229  47.8226948  74.9561644
  93.7712669  70.3549957  90.7657623  94.3424416  70.1417446  90.0278568
  93.2738686  69.5525026  90.9233570  74.1897058  41.4201641 104.1703033
  73.7773275  41.9309521 104.8669147  74.9859285  41.0696507 104.5695591
  72.8968143  69.0559530  90.5674553  73.3721209  69.8005724  90.1988697
  72.0655203  69.0438747  90.0930786  86.5584850  52.8822279  84.5927525
  87.0906925  53.3112812  85.2627563  86.8526554  53.2700300  83.7685585
 115.3824711  15.1396191 104.8270226 115.6298351  15.1150227 103.9026642
 114.8044014  15.8990395 104.9001408  61.5976715  63.3623552  80.1302719
  61.7112684  64.1829252  80.6098461  62.4894047  63.0575657  79.9625063
 103.3290863  68.2141209  86.4239597 103.5009861  67.6179743  85.6950665
 103.5865974  69.0752983  86.0948753  81.0714626  56.7937613  61.9989634
  80.5678272  57.3135138  62.6254129  80.6191635  56.9197559  61.1648321
  90.9824944  65.9382105  84.4429207  90.5178738  66.6448975  84.8912048
  91.4337349  66.3704348  83.7178135  69.9769783  18.5970736  91.8854046
  69.3779945  19.2749286  91.5724182  69.9570417  18.6814070  92.8386784
  54.0347624  44.1129827  76.2527466  53.5441351  44.4775629  76.9893646
  54.3654966  43.2751083  76.5764952  80.8732414  40.8029938   1.4533178
  80.6333923  41.7241907   1.5537969  81.5074348  40.7974482   0.7363836
  71.1749077  21.9008183  94.0997791  70.9728909  21.0761428  94.5417404
  71.8049002  22.3333931  94.6761608  75.7655144  64.6674633  97.1022034
  76.0604668  63.7884855  97.3401642  75.1633024  64.5283318  96.3712978
  38.4994459  63.4071445  77.7716589  38.2021141  63.9623022  77.0508051
  39.1821051  62.8584146  77.3855162  91.1264515  28.6636448   9.5219175
  91.5128231  28.2991481  10.3182164  91.7558956  28.4530759   8.8322107
  40.2656317  23.9123678  91.2321758  40.8926582  23.1914759  91.2903881
  40.6508207  24.6084166  91.7645073  67.9492950  73.2153940  97.0079231
  68.6980820  72.6507807  97.1996689  67.2090435  72.6134872  96.9306755
  65.2305365  50.2639532  93.5663509  65.2820396  50.6163311  92.6778603
  66.0330009  49.7521257  93.6679077  91.7130089  72.2034216  71.4656115
  91.1253071  71.9672012  70.7479572  91.1660004  72.1533346  72.2495174
  94.9952602  33.2844973  89.3216228  95.8037663  32.7859855  89.4400692
  94.5138550  32.8036547  88.6483765  91.4118195  57.2740221   6.2516252
  91.0705280  57.8248453   5.5471078  90.6815720  57.1894455   6.8646661
  82.4775219  41.5427542  51.5121126  82.1175480  41.0076237  50.8048010
  83.3755875  41.7290401  51.2382460 109.2843819  44.4356060  92.3260593
 109.9328899  44.6893263  91.6693306 108.6322594  43.9335823  91.8372440
  68.1583691  29.6695209  86.9123554  69.1018105  29.6204901  86.7582417
  67.8584051  28.7625289  86.8522167  76.3601112  32.0709658  45.9257793
  76.0354805  32.8572297  46.3646746  75.5928183  31.5033817  45.8526897
  75.5316305  78.7230253  75.3318310  74.9011326  78.9654064  74.6536350
  76.0788727  79.5009995  75.4391623  74.2931938  28.9579082  39.5373654
  74.1338825  28.5939217  38.6665225  73.4586000  29.3541694  39.7876811
  32.4760962  55.7567406  25.9963274  31.5557194  55.5182648  26.1070824
  32.7587581  56.0321999  26.8683696  86.4241123  59.3845654  56.2383366
  85.5898666  59.3059635  56.7010212  86.2927818  58.8995409  55.4236364
  49.0999031  39.6957278  57.5889158  49.3152046  39.5283175  56.6713905
  48.1447840  39.7571230  57.6034594  85.5801010  34.4857955  37.2265816
  84.7808266  33.9921069  37.4100471  85.2702332  35.3393841  36.9239259
  66.8284607  48.9261627  56.6967773  66.7580032  49.8770571  56.6127205
  67.7702332  48.7573576  56.7252302  67.2016144  48.8287067  69.5828104
  67.8609324  49.4377089  69.2501688  66.4160681  49.3640089  69.6950531
  72.3752880  60.7080603  79.1660690  73.2696342  60.6695461  79.5050287
  72.4496126  61.2023497  78.3497429  71.1521053  57.2044277  84.8285961
  71.6351080  57.9952240  84.5886326  71.2108755  56.6438627  84.0549374
  65.9284639  59.3196201  51.6971636  66.6989851  59.8371887  51.9309425
  65.1862621  59.8848820  51.9112921 108.9756966 138.4848405  45.6464148
 108.2006836 139.0100915  45.8456612 108.9195728 138.3227713  44.7047043
  89.1090393  43.9914846  88.8239479  89.1860771  43.6277580  87.9419041
  88.2067680  43.8036442  89.0825272  69.4403076  70.4235935  75.3492355
  70.0494289  71.1613226  75.3802586  68.7486792  70.6578684  75.9681082
  80.2041817  58.5886335  70.6872606  80.3293705  59.2776775  71.3397789
  80.9778976  58.6462212  70.1266623  95.2213001  40.4690361  76.2671566
  95.1995945  41.2706614  76.7897987  94.4059467  40.4876661  75.7660675
  84.3378162  35.8990788  64.6737289  84.5225620  35.1452684  64.1134882
  83.7711620  35.5522132  65.3627968  85.4955864  65.8405495  62.4226904
  85.3600216  66.4680290  61.7126703  84.6167660  65.6670809  62.7600718
  88.7950516  53.1058788  65.4685259  88.9348412  53.3185196  66.3912773
  89.3149662  52.3153925  65.3234625  91.5715885  49.3979216  53.0658579
  92.0332050  49.1018200  53.8503790  90.7219505  48.9590740  53.1079197
  75.8240080  49.9565077  61.3221645  76.0262346  50.8909750  61.2762642
  74.8935556  49.9234438  61.5444231 106.8176842  49.1849661  70.3030157
 107.5613594  49.0501833  69.7156334 106.3831902  49.9674511  69.9636602
  94.7617245  65.8329678  70.7722473  93.9097214  65.6274748  70.3874063
  94.8490429  65.2197981  71.5020657  53.6114550  40.1508284  94.8942757
  54.5547819  40.2912426  94.8127651  53.4327364  39.3944240  94.3355751
  71.6528320  46.4735222  81.6211510  72.5681591  46.6528749  81.4061260
  71.2372208  46.3029909  80.7759190  81.2213421  46.4846992  59.6084356
  80.5415249  46.7846775  60.2118444  80.8145809  45.7629061  59.1290665
  88.0117321  36.7639899  85.4526424  87.8886986  37.2752738  86.2524509
  88.9170361  36.4569473  85.5015373  95.1214600  52.4853325  76.7842865
  94.7405148  52.2583151  75.9360075  94.6963596  51.8925714  77.4040890
  98.0745888   7.4473631  44.5550537  98.6103249   7.9498833  45.1688099
  98.7077713   7.0253944  43.9743185  76.3227272  34.6450758  64.5267439
  75.4625320  34.2562032  64.6850824  76.8230867  34.4504952  65.3192186
 109.7702217  84.7097301  46.8800449 110.1155376  85.1048279  47.6805973
 110.5410862  84.3580055  46.4347458  78.8861561  43.8824844  38.1212473
  78.0145121  43.4906721  38.1755924  78.7722731  44.6416616  37.5494909
  68.1149006  55.0195694  71.2455893  68.7835932  54.3521690  71.3993883
  67.9643250  54.9944544  70.3006411  73.9705038  23.9286613  56.2483454
  73.4609985  23.3585835  56.8242359  74.8474598  23.5450339  56.2463570
  76.6023731  15.9290469  62.1020555  76.2719917  16.3810122  61.3256502
  75.8165550  15.6992745  62.5979662  51.2792301  55.7462788  89.0888023
  51.9536400  56.2310982  88.6130333  51.2926531  56.1195803  89.9701023
  92.9433441  34.9337387  67.9344845  93.3596134  35.5204439  67.3030376
  92.0363903  35.2362847  67.9807711 109.2492199  37.1166563  83.2090092
 108.3417130  37.1944833  83.5033226 109.4123077  36.1738324  83.1822395
  66.5455675  37.7858996  54.5813131  65.7164478  37.9108047  54.1195822
  66.9114876  38.6669660  54.6590996  90.5963802  57.1426582  40.9383106
  90.3475380  56.8574524  41.8174982  91.3754272  57.6822472  41.0730791
  93.1037426  23.7947774  44.0997744  93.6569500  23.6193848  44.8609829
  93.7162399  24.0656304  43.4158754 105.7811832  88.1177998  44.1027403
 105.7222462  87.6589489  44.9407244 106.4408588  88.7962055  44.2470264
  96.0360813  48.5256910  86.1019993  95.8924866  48.4439945  87.0448303
  95.6433773  47.7357149  85.7305813  85.0035286  57.8555584  33.2585192
  85.7322407  57.5911045  32.6970339  84.9693680  58.8083839  33.1737280
  65.9719515  43.1263208  60.7973671  66.8194962  43.4882450  61.0560369
  65.4397440  43.1714821  61.5916872  75.8681965  55.2460957  73.0540514
  75.5593681  55.3814268  72.1582031  75.4300880  55.9275007  73.5639286
  64.0177822  86.3548279  65.3093719  63.7788439  85.4321289  65.2212620
  64.1708231  86.4741611  66.2466908  87.7910328  12.6819146  83.9555168
  87.8193665  11.7463529  84.1559029  88.5233116  13.0543494  84.4467354
  78.3938551  20.9452748  38.4572816  79.1517210  20.3761721  38.3231306
  78.7695265  21.8121362  38.6110926 102.5694942  43.6363745  56.9352341
 102.9418278  43.8655853  56.0837317 102.5314331  44.4660044  57.4111557
  85.7070923  78.8028717  75.1015949  85.0220490  78.9376831  74.4467878
  86.4483738  78.4564352  74.6048784  17.9285937  66.7719460  81.1740780
  17.0922309  67.0839977  80.8286095  17.7365237  66.5235376  82.0783043
  60.8817911  56.4573574  84.3084526  61.3507700  56.1632824  85.0893497
  60.7616186  57.3976707  84.4411469  58.3767509  40.9318447  56.2527466
  59.0124893  41.2907553  55.6336784  58.5833406  41.3600779  57.0835066
  75.3572750  31.2170577  73.9373207  75.5029249  30.6247592  73.1996202
  74.4486713  31.5019870  73.8399363  81.7254734  28.8893437  60.7362986
  82.6498699  29.0235877  60.5272722  81.3439274  29.7668004  60.7092953
  97.5045300  79.5458698  69.4534254  97.7420521  78.7090206  69.0540504
  98.3416080  79.9836159  69.6080685  87.7677536  29.4644880  86.5331364
  88.0525208  28.6244273  86.8929100  87.0258522  29.7205782  87.0810699
  66.3903999  42.2643089  57.6889229  66.6310549  43.1282759  58.0234051
  66.8925619  41.6512346  58.2257748   1.8227416  73.6684608  58.6307573
   2.6988822  73.8733387  58.3042240   1.8408232  72.7246332  58.7891769
  75.7644844  63.3703804  72.0026350  75.4593229  62.6417828  71.4620304
  75.0986528  63.4578037  72.6847363  60.0511932  54.8916769 105.2448368
  60.6671476  55.4355907 104.7539330  59.7566271  54.2345858 104.6142006
  77.6560879  27.5616217  92.0952511  76.8140221  28.0154920  92.0612621
  77.5909615  26.8851876  91.4211369  54.9415779  43.6972046  79.1643095
  55.7756376  44.0683985  78.8765621  55.1653957  43.1725264  79.9329758
 102.1645164  31.2488461  76.9033623 101.2632084  31.0928321  76.6213655
 102.6561451  30.5041194  76.5570688  81.3151646  47.2092628  30.2225733
  81.9925404  47.1664238  29.5476222  80.5773735  46.7245054  29.8525691
  67.2927380  39.8351550  58.9361906  67.1229506  40.0509834  59.8531532
  67.9808283  39.1706085  58.9699936 113.2647133  45.9171391  73.6420393
 114.2047024  45.8025360  73.5023069 113.1242847  46.8607712  73.5641718
 100.6044579  61.8498945  55.9956408  99.7541714  62.1683836  56.2986422
 100.9219837  61.2978888  56.7102718  82.2363281  36.6501331  30.5874658
  82.9961205  36.0679436  30.5868006  82.4374199  37.3071218  29.9210119
  52.3979187  49.5450163  85.3808784  52.9759550  48.8015509  85.5522251
  51.7366076  49.2008448  84.7805023  79.9552822  44.1556692  98.5266876
  79.6976233  44.7573853  97.8282738  79.1274834  43.8249207  98.8753796
  11.5674906  53.9932871  20.4333758  12.0477896  53.7675619  21.2299895
  11.1821299  53.1663847  20.1436162  74.1486168  36.7671943  50.8848953
  73.9742136  37.1159482  51.7590714  73.2921124  36.7520332  50.4578066
 100.3141689  38.3577013  64.1729116  99.3961906  38.6289072  64.1743135
 100.4485607  37.9717159  63.3073568  80.1053905  59.5491266 107.7510071
  79.2288780  59.2014456 107.5864792  80.6387901  58.7761879 107.9361725
  82.8431225  59.4130707  52.3225212  81.9003201  59.4303942  52.4869680
  82.9636288  59.9785614  51.5596771  90.4444599  30.7076049  64.7703981
  91.3837719  30.6465006  64.9441385  90.3701210  30.6159019  63.8205051
  84.2499542  49.5489597  90.5076122  83.4315586  49.0943527  90.7071209
  84.8404789  49.3026161  91.2195301  80.0267792  41.2511826  64.6764660
  79.4107389  41.1211872  63.9554739  80.6926441  41.8389320  64.3195391
  71.3414764  25.3594565  51.4765787  71.9003916  24.5856142  51.5473795
  70.6482458  25.2139306  52.1203852  87.5746536  50.8834934  78.2668352
  86.7040157  50.7736826  77.8845119  87.6716232  51.8297338  78.3738852
  89.6915913  68.3532572  85.3907776  88.9819050  67.9980516  84.8555946
  89.2473221  68.8118601  86.1038971  93.4459305  23.9358377  66.5096569
  93.3143902  24.8836422  66.4852381  94.0398788  23.7576008  65.7804871
  89.3032074  31.6444492  54.9783230  89.4716454  32.5100660  55.3505754
  88.7583542  31.8159270  54.2102337  70.9124947  50.3417540  81.8282318
  71.3650608  49.9844694  81.0641956  71.6088295  50.7251740  82.3614597
 105.5931568  33.0942583  57.7021027 106.4462185  33.1884146  57.2782469
 105.6314945  33.6878824  58.4520149  66.5466309  45.9243345  75.5425215
  65.6250668  46.1595058  75.6504583  66.8800259  45.8457184  76.4363337
  80.4522419  56.4757681  42.0620060  80.6059837  55.5311823  42.0431662
  80.1151752  56.6460752  42.9415607 108.2162094  14.4888449  61.5888262
 108.8010025  14.2068434  60.8854628 107.3584461  14.1448581  61.3395214
  95.1262760  48.4243917  74.2587709  95.9585953  48.0287743  73.9999771
  94.9015236  47.9920816  75.0826788 118.9868450  49.5398331  94.0753269
 119.6215439  49.7302675  94.7660732 119.0353012  50.2959871  93.4904289
  76.3373566  46.4001179  44.2440367  76.8414545  46.1994314  43.4554672
  76.9098949  46.1420870  44.9664307  93.5808563  26.6033411  69.0089083
  93.3897495  26.6900969  68.0749989  92.8443813  27.0319748  69.4449186
  61.7397022  26.2121034  15.2897847  61.8222380  27.0590925  15.7279980
  61.0278988  26.3356709  14.6618521 101.3784218  61.7066765  88.3660126
 100.5337238  62.0050716  88.7031746 101.8665218  61.4398861  89.1450024
  93.4086514  37.7108550  87.1585178  92.6035404  37.2416306  87.3772526
  94.1102028  37.1497464  87.4889946  84.6418190  54.1110420  72.2593212
  83.9655972  54.6429968  71.8398094  84.2964935  53.9306021  73.1336355
  71.4547443  63.2623148  79.8160744  72.2726345  63.7349129  79.6613741
  71.0616970  63.1732178  78.9478540  56.2627411  10.5512464  81.8701172
  56.3279390   9.6200615  82.0819569  56.7981005  10.6559992  81.0835743
  80.3432083  59.5854378  66.4043045  80.1700115  59.1519070  65.5686712
  81.2613869  59.8506069  66.3507843 114.2755985  78.4324074  43.3806944
 114.1216183  77.8308439  44.1091490 113.4535599  78.9144039  43.2902527
  62.0917320   5.1556283  57.2660589  62.2122383   5.9862453  56.8058586
  62.9771662   4.8869002  57.5110579  96.9492531  39.3546295  71.3542700
  97.8663731  39.0847659  71.4021778  96.4979172  38.7801290  71.9727182
  78.6499023   5.3147954  62.0976639  78.7811947   5.2007055  61.1564016
  77.7339602   5.5799109  62.1813345  94.2309666  50.9084940  44.5083046
  94.9944210  50.4567194  44.8678398  94.5928955  51.5089846  43.8566542
  74.7897100  55.9996080  70.4114056  74.7692776  56.9431448  70.5712557
  75.0911093  55.9164238  69.5067120  18.2457762  21.7583513  72.9149628
  17.5293475  21.3311386  73.3844852  18.4533721  22.5284696  73.4441662
  76.8540096  23.1498575  75.1274920  76.6769791  22.2234273  75.2906513
  77.7702808  23.1736422  74.8515940  25.6925130  55.3515530  94.6757412
  25.0969505  55.0206566  94.0034008  26.2255096  54.5940876  94.9173927
 108.4340763  38.4640694  56.0961580 109.0906429  38.6672449  56.7623997
 107.6729774  38.9900637  56.3416910  86.8131638  45.3892136  57.8789520
  86.1844635  45.2059984  58.5770941  86.2964821  45.3472757  57.0742702
  89.6692467  31.2804794  33.0626321  90.4312420  31.1829782  33.6336660
  89.6181107  30.4509616  32.5877452  58.0674505  59.5019531  87.7805138
  58.4874296  58.6667442  87.5749207  57.1623802  59.2701006  87.9886723
  96.5690136  52.5492239  57.6842880  95.7922077  51.9901609  57.7002001
  96.6874886  52.7683830  56.7600775  75.4505205  66.4942026  94.7042465
  75.5547857  67.1549129  94.0195465  76.3359451  66.3561583  95.0407028
  83.6000824  57.5115395  74.0201139  82.6514816  57.6199293  73.9520168
  83.7217808  56.9356775  74.7749662 112.7190399  44.9039412  68.2063913
 112.1773720  44.5322275  68.9025545 113.1554794  45.6511354  68.6156130
  64.9195337  16.2290049  59.3930244  65.7062864  16.0064161  59.8907280
  65.1181507  17.0780325  58.9981365  86.1506176  41.2591648  54.9045324
  85.7405567  41.3873100  55.7599068  86.8813992  40.6651592  55.0758314
  76.4790154  62.2813511  58.6476326  75.5406475  62.1001625  58.5940838
  76.5563917  62.9427195  59.3352652  77.8947163  42.7239084  76.0929155
  77.2411776  42.9364967  76.7591906  77.6474905  43.2559347  75.3365707
 119.9183273  49.8332977  60.4582739 119.4872761  50.1157951  61.2648869
 120.8510590  49.9692345  60.6248903 111.0428333  69.8486900  18.3189241
 111.0018730  69.2963028  17.5382749 110.7235718  70.7020473  18.0255262
  59.8174238  42.9077244  57.7302933  60.3066254  43.6458683  57.3668957
  60.1203585  42.8422213  58.6359262 103.6306095  46.6924095  77.1957350
 102.7479362  46.9570351  76.9366932 103.8302040  47.2371292  77.9570961
  78.5267639  42.7305174  52.8649569  78.7426949  43.6264181  52.6061678
  78.6040211  42.7315855  53.8190317 110.1091766  35.2004504  58.4577703
 110.4045105  35.9719086  57.9741764 109.1778088  35.3572989  58.6132860
  59.9119139  71.2145090  77.7888489  60.4279566  71.8891573  78.2301903
  59.5782375  70.6656599  78.4985352  91.7459393  49.8000717  44.5617771
  91.4128876  49.9021578  43.6702061  92.6576424  50.0872421  44.5112324
  94.0330696  37.6061797  91.7370224  93.9003181  38.4525371  92.1639729
  94.5134449  37.8148246  90.9358120 111.2003231  47.4372625  82.9089928
 111.5301800  47.2124672  83.7789917 111.7819309  46.9749260  82.3054981
  93.6051178  52.0713854  88.7776279  93.2663536  51.1770535  88.7370968
  92.8702736  52.5913429  89.1030121  73.9927721  65.3050995   1.8180600
  73.9777184  66.1428738   2.2808114  74.3854475  64.6941137   2.4415437
  84.1830254  40.5245781  41.1667156  84.7866154  41.0790491  40.6722689
  83.3179379  40.8929873  40.9874725  54.3708754  46.2198639  53.9156675
  54.7653294  46.4066029  53.0637503  53.7676907  45.4960585  53.7468386
  79.3010044  77.0350313  84.5965767  78.7981415  77.2818947  85.3727436
  79.9973202  77.6897240  84.5441055  81.6507530  35.7571959  43.1084061
  82.0205975  35.0811958  43.6762714  82.3151112  35.8921623  42.4326515
  93.4185886  59.9467659  97.9767704  93.2685471  59.0017605  97.9505348
  93.6808300  60.1226425  98.8803959  49.1930628  30.5913591  62.5891876
  49.7124624  31.2507725  62.1291542  48.5727167  30.2743506  61.9327545
  93.4626484  69.3674946  64.8884726  93.4963989  68.7189484  65.5916691
  93.5256195  68.8522577  64.0842342  62.6525164  43.1491709  57.6282644
  62.2492695  42.4601698  57.1001577  63.0860376  42.6811934  58.3419085
  66.2251043  18.6590135  43.4071541  65.4183483  18.6064577  42.8946924
  66.9257021  18.5822845  42.7594566  97.7587223  91.1394215  67.8424072
  97.9787636  91.2183952  68.7706184  97.3325062  90.2854919  67.7691078
  80.8663940  35.4335546  48.3656406  81.4310837  35.9113598  48.9731455
  79.9891138  35.7780385  48.5327816 123.9597988  29.2367291  78.7699461
 123.4008694  28.8786173  78.0803156 123.3604431  29.7243667  79.3349314
  73.5390711  33.6600375  68.9926910  74.1059923  32.8887939  68.9893246
  72.7724171  33.3959746  68.4840202 118.2641029  59.1889477  74.1268492
 117.6967335  58.5193253  73.7448454 118.8664150  58.7007475  74.6882010
  95.4438210  42.4999666  39.3377209  95.2221012  43.4184408  39.4909739
  95.5146503  42.4262571  38.3859944 103.1483746  31.3327885  66.6172886
 102.9727745  30.5745077  66.0601473 104.0518475  31.2114024  66.9092321
 105.0731659  72.8949785  64.7495174 105.3750134  72.1781635  64.1915751
 105.8376122  73.4632635  64.8438740  82.5244236  51.5857220  59.1750240
  83.3436966  51.2682152  58.7952614  82.6513958  51.5047598  60.1203060
  81.8375206  26.9028711  47.3495340  82.6659679  27.0453906  47.8073502
  81.5215302  27.7833009  47.1464968  82.4271202  53.8042927  76.9466639
  83.2607174  53.6504269  77.3912811  81.7684364  53.4472847  77.5424147
  73.8813210  55.8634663  64.0128708  73.8414574  55.8509254  63.0565834
  73.3326149  55.1279211  64.2851257 119.2762184  19.7189653  56.9183922
 119.5361328  19.4583690  56.0347891 119.1665363  20.6683922  56.8655825
  71.0173178  43.4062481  72.2176838  70.3219128  42.8696871  72.5981379
  71.5670109  42.7836657  71.7418051 114.1156292  73.7535143  77.5802183
 114.8982239  73.6701632  77.0353985 113.7959099  72.8567123  77.6789618
  52.6865196  26.4992785  53.3414459  52.3899794  27.2459817  52.8211308
  52.7328682  26.8345594  54.2368078 106.4245605  60.4602385  54.8068762
 107.1553612  60.5797720  54.2003489 106.8157101  60.0415325  55.5736399
  69.8734617  30.4846025  21.4174485  69.6885109  31.2387919  20.8577871
  69.2268372  29.8286939  21.1568880  46.3529873  47.5992393  53.5385609
  45.7845497  48.3096600  53.2412195  46.3520241  47.6751280  54.4927454
  61.5225601  44.6802187  70.9397268  61.6015959  44.4347715  70.0179148
  61.0985661  43.9277983  71.3524246  78.2040167  41.5138245  92.7159119
  78.7633514  40.8191824  92.3682785  77.3372269  41.1130762  92.7815247
  75.9274197  41.1049938  61.9150305  75.4341745  41.8079662  61.4922094
  75.2818346  40.4134226  62.0605659  97.3817158  28.2099795  52.7777100
  97.5702763  28.5061264  53.6682034  98.0998516  28.5613418  52.2513437
 103.9241791   5.2044922 108.0886555 103.8594437   6.1589837 108.0572414
 103.2042694   4.9342331 108.6586666  77.8677273  38.3392644  75.9747362
  77.9855680  37.7793932  75.2073431  78.7242079  38.7450504  76.1089516
 109.2770958  16.2801516  38.6801982 109.7637177  16.4099824  39.4941854
 108.8653374  17.1272516  38.5095978  86.8638515  32.8498220  65.9499025
  87.6429749  33.2523775  65.5663013  87.2071743  32.1912909  66.5538073
  83.0892754  10.7419050  81.8887520  82.5242043  10.3523672  81.2215233
  83.2074165  10.0479960  82.5374126  83.5366726  22.9300451  49.7267294
  84.0130329  22.1748352  50.0716448  83.4556103  23.5234928  50.4733753
  65.3230238  64.9364758 102.8501606  64.3737698  65.0515366 102.8064442
  65.5050802  64.2164803 102.2462559  79.7745752  50.5567694  72.6870441
  80.4560089  50.5438995  72.0149517  80.1136875  51.1461973  73.3607006
  75.7189846   6.2244010  72.2521544  76.3552570   6.7558998  71.7737198
  75.4930210   6.7526853  73.0177164  95.6086159  62.1492910  69.6944427
  95.9815598  62.9914331  69.4337940  96.3608646  61.5595531  69.7449541
  80.0458622  90.2884579  88.2011890  80.4638958  89.8885632  88.9637852
  79.8254061  89.5496178  87.6339626  73.4700441  60.4036283 100.0033855
  73.2368279  59.7418880 100.6544876  73.2909393  61.2386227 100.4357529
   3.0425578  25.1768231  85.1820183   2.1495944  24.8341298  85.1443863
   3.0111819  25.8532906  85.8585072  93.9286327  72.6971006  32.3370481
  93.4586716  73.1469154  31.6348815  94.1596603  71.8464136  31.9639659
  62.0492125  55.7748604  80.6507683  62.9375601  55.4296970  80.5616951
  62.1601582  56.6050196  81.1141968  69.7455406  37.7079582  35.0571227
  70.1582336  38.3553076  35.6288338  69.9917269  37.9781508  34.1724634
   1.1593466  19.0557492  54.7391701   0.2453356  18.8053584  54.6045494
   1.6628390  18.3150601  54.4013643  61.0155344  40.9406662  76.2298393
  60.4050970  41.4373302  75.6849384  61.6118956  41.6004181  76.5838385
  70.9028530  25.0320530  67.7817488  70.3745365  25.8011436  67.9953241
  70.6928539  24.3990326  68.4683466  95.9958553  61.8145132  65.5913401
  95.7400608  61.1307621  66.2104416  95.4037476  62.5424623  65.7803488
  78.6638403  40.9877968  39.2532110  78.0185127  40.4907560  39.7559333
  78.8534689  40.4356384  38.4946656  84.8893356  53.4457302  47.5067997
  84.5543766  54.0464401  48.1725168  85.7566929  53.7877893  47.2901726
  65.3951502  67.3638773 106.6848183  66.2874222  67.5181150 106.3745117
  65.0557232  68.2369709 106.8815994  80.6153774  55.7308245  38.0618453
  81.1419582  55.2521467  38.7020135  80.1153088  55.0525331  37.6078749
  65.1876640  19.4567072  61.3938141  64.5446444  19.4123566  60.6861448
  64.7380066  19.9253082  62.0969868  71.3441372  34.6728563  31.2752461
  71.4701605  34.4375730  32.1944809  70.5285597  35.1738334  31.2658787
 103.0493164  42.9870319  42.6640129 103.9185715  43.2953167  42.4078989
 103.1710339  42.0564175  42.8520966  74.3416977  39.1626835  43.5450506
  73.8983345  39.8451591  43.0411816  75.2729273  39.3089700  43.3787823
  61.3335466  56.0363722  65.0281858  60.6276941  55.4140949  65.2036238
  61.8376493  55.6336451  64.3211317  65.3412247  47.9653025  72.7145624
  64.8052788  48.4781981  73.3194876  66.0879564  48.5308504  72.5176430
  84.0859604 141.5105797  88.5663986  83.2718086 141.0324491  88.4089661
  84.5611286 141.4539302  87.7374077   0.6174975  26.5979338  69.9208021
   0.7239085  26.9880199  69.0531969   0.4117232  25.6794429  69.7468472
 101.8821526  10.9783900  44.7137690 101.6609955  10.8274496  45.6327581
 101.5981674  11.8764889  44.5434666  84.2646790  41.3069963  36.9309831
  83.7991619  41.6832876  37.6779294  83.6545849  40.6654978  36.5669942
 124.1454315  36.3986707  71.7055559 124.1712952  35.4488444  71.8212843
 123.2538223  36.6456723  71.9510126  56.0762453  20.5656934  54.1376734
  56.6437006  21.0930181  54.6999502  55.2427673  20.5276108  54.6068144
  60.8417606  38.8331652  42.7630186  60.2659559  39.4719219  43.1833410
  60.4144621  37.9899740  42.9135990  94.5209503  66.1772585  13.5179234
  94.0326214  66.7781830  14.0806460  95.4399681  66.3561773  13.7169731
  86.5975094  54.7768307  35.1471972  87.4542522  54.3522596  35.1914430
  86.3345337  54.8814392  36.0616016  87.6867294  83.4322548  26.9027710
  87.1395874  83.6784935  27.6485825  88.5803986  83.6221886  27.1882772
  66.3524485  44.4277859  50.6017113  66.5942144  45.1220894  49.9887466
  66.5111828  44.8058939  51.4666176  83.1777859  25.2889276  22.7671623
  83.0215931  25.4179144  23.7026834  83.1871510  24.3384004  22.6547194
  93.3911324  54.3928003  34.4336224  93.4876633  55.3131247  34.1888285
  93.8605404  54.3153906  35.2642226  74.3163443  44.4627762  55.8469772
  73.4766865  44.4225216  56.3047838  74.9591160  44.6190405  56.5388298
  84.9164391  22.9694581  38.4208822  84.7101021  22.1178770  38.0355692
  85.6328106  23.3080816  37.8838754  91.2385082  52.2720671  69.5415688
  92.1321487  51.9357586  69.6089506  90.8324814  51.7380619  68.8587713
  55.9097862  27.2544599  59.2232037  56.3936996  27.1829724  58.4004354
  55.9514761  28.1845427  59.4455576  91.6989994  64.6182299  42.3681593
  91.4617729  63.9794111  41.6959524  91.4993382  65.4669428  41.9731188
  97.6209259  67.7893639  26.9462657  98.2658863  67.0977259  26.7982888
  96.8340206  67.3257494  27.2327256  88.7717056  51.7100382  51.7618275
  88.8670444  52.5611448  52.1893311  88.4207058  51.9152498  50.8952713
  98.0951500  44.8344374  52.7128601  97.9972649  45.1387358  51.8106079
  98.6464405  44.0549469  52.6442528  99.4297409  34.2521882  16.3074183
 100.3296852  33.9580417  16.4481819  99.5094776  34.9811172  15.6921649
  56.0003996  52.0625448  36.2339902  55.3247356  52.3738337  36.8363309
  56.6651869  51.6717386  36.8010521  99.2822647  28.7220263  37.5670695
 100.0692844  28.7063217  37.0224738  98.5717869  28.9161515  36.9557047
  82.8940392  54.5444775  57.2775936  82.0717049  54.3800783  57.7390814
  83.2010078  55.3815079  57.6259899 113.1889439  27.4508691  44.8512030
 113.2143879  26.8084812  44.1420317 112.6891136  27.0215011  45.5454922
  54.8377132  16.9950211  52.5000238  54.5079660  16.1121786  52.3324299
  54.2708588  17.3349988  53.1923580  94.4924927  19.3205976  45.4109716
  93.6882401  19.7510254  45.7010460  95.1793289  19.7035265  45.9567213
   9.3838721  51.3269377  46.1416674   9.2961054  51.1080503  47.0693588
  10.1398783  51.9128466  46.1043072  84.3592739  45.0574970  43.5148525
  83.6939716  44.9078274  44.1865778  84.2492676  45.9760952  43.2692766
  85.8438587  27.6676488  50.6042910  86.7441940  27.8439140  50.3312302
  85.3087616  27.9526281  49.8635530  85.5621624  13.4816635  36.9762993
  85.2199459  12.6952958  36.5511584  84.9933910  14.1872537  36.6682863
  98.0975151  58.1628942  45.3582335  97.7979374  59.0583515  45.5151892
  97.2978306  57.6728678  45.1668930  73.0778122  29.2030382  52.6276636
  73.6902285  29.6898222  52.0761013  72.4735641  28.7918901  52.0095444
  85.1511097  47.4500275  41.9731951  85.5799770  48.0291891  42.6031685
  85.7718563  47.3837852  41.2475824  71.3538694  54.7323370  63.7880802
  70.4671335  54.6844578  63.4308147  71.2297535  54.7371435  64.7371912
  94.0032196  30.3940487  33.8292265  93.1626511  30.7228065  34.1479564
  94.4600010  31.1728311  33.5112810  74.2463875  26.6876173  60.3221178
  73.5920906  25.9895086  60.2944899  74.1792870  27.1127486  59.4671392
  71.5585995 122.2479863  33.0142379  71.3568687 122.6970310  33.8351512
  71.7999887 122.9501791  32.4101782  70.0306273  44.6283197  38.1385970
  70.1305723  44.6453524  37.1867824  70.7864141  44.1302204  38.4499073
  95.8609581  39.7382379  50.2052212  95.4855061  40.4388285  49.6718931
  96.5752316  39.3883586  49.6726513  59.9423075  57.5513887  44.6997738
  59.1846561  57.4385500  44.1257858  60.6341505  57.8743792  44.1224813
  85.4620171  54.1297245  32.4496269  85.8145714  54.5172501  33.2507253
  85.9214497  54.5823336  31.7423081   4.7066432  54.5518446  51.4726591
   4.6097785  55.0219584  52.3008156   3.8092738  54.4110060  51.1708117
  82.0418739  57.5451088  49.0650606  82.8050423  57.3842239  49.6199656
  82.0550537  58.4891558  48.9074945  82.0513344  55.1820183  71.4497995
  81.2565327  54.6649933  71.3186407  81.8977165  55.6539631  72.2682714
   4.8584014  49.5252800  58.3131599   5.5784827  49.2345428  57.7535295
   5.2805167  49.7800493  59.1336107  54.6374989  15.9720194  62.3409462
  54.0747881  15.7522976  61.5984440  55.3578901  15.3438199  62.2896576
  44.3040848  36.4201117  48.2739258  44.6082211  35.6046319  47.8755188
  43.4412098  36.5684438  47.8870487  96.4245033  53.7059784   0.1901628
  97.2764778  54.0565300   0.4499301  96.1204910  53.2219076   0.9579398
 101.3857365   2.5662723  14.8484385 101.6696262   2.8095713  13.9672768
 102.1973228   2.4986474  15.3514183  91.7950726  38.3793163  44.4301224
  91.2421799  38.5071278  43.6592770  91.8989563  39.2566681  44.7984934
 122.8944016  63.8045549  47.1498156 122.9586315  63.6237574  48.0875874
 123.7924576  63.7244368  46.8283892  88.5575199  42.7831364  58.5935926
  88.3852482  43.6391640  58.2014561  87.7975273  42.6179790  59.1515875
  91.4841270  78.2814932  27.2338891  92.3213673  77.8993464  27.4969983
  90.8426666  77.8792763  27.8195310 116.3519669  29.1329551  76.2308884
 116.3035583  28.5225439  75.4951668 116.9206429  29.8375750  75.9204817
  64.4876385  39.0947700  45.5105972  63.5522890  39.1740346  45.3233242
  64.8150730  38.4910369  44.8438692  64.2151594  50.4766703  43.9580202
  64.1662836  51.2748146  43.4318876  64.7479439  49.8774433  43.4352398
  91.6965103  35.4448295  34.1556907  90.9046650  35.8549809  33.8078427
  91.4135075  35.0310850  34.9711394  99.2289639  41.9728518  74.4006300
  98.8748932  41.7807913  75.2689505 100.0279617  41.4485455  74.3464422
  66.9830322  22.5938320   9.9423647  67.6582336  23.1391549   9.5386803
  67.1667767  21.7100954   9.6238106  96.0649395  65.6351042  56.0379457
  96.8917370  66.0387039  55.7738543  95.4922962  66.3742447  56.2428570
  66.8399286  56.9854879  58.4329891  67.6571941  56.5063190  58.5697508
  66.7435360  57.0279980  57.4816036  98.8879108  59.1202116  56.5087032
  98.5084438  58.2780647  56.2576580  99.7949028  58.9158821  56.7363977
  55.7392454  48.0544186  26.5355134  55.1647186  47.4278069  26.9754052
  56.5468216  47.5665522  26.3741350  97.5468826  36.8382764  57.0916557
  96.8737316  37.4966502  57.2638464  97.3834991  36.5585780  56.1909294
  88.5635471  61.5322971  31.1167789  88.3253288  60.9037018  30.4353476
  87.7951527  62.0968199  31.2010908  99.1505527  32.1310306  28.5834002
  99.0482521  32.7143788  29.3353796  98.6595440  31.3446856  28.8217378
  88.1388569  25.2852416  85.0238514  88.8451767  25.9218168  85.1339436
  87.6717377  25.5786848  84.2416000  45.6126070  75.4867363  64.7889614
  46.3144827  75.9532118  64.3350935  44.8666573  76.0856581  64.7560883
  84.9152088  36.6091275  56.0776043  84.9293232  37.3523140  55.4745197
  85.7509041  36.1659598  55.9311962  28.4121585  31.1004448  61.2678671
  28.4039259  30.9950089  60.3165293  28.2120156  32.0259356  61.4080143
  53.9361763  28.4373713  37.5131321  54.3125582  27.5720835  37.3523688
  53.5725975  28.3800125  38.3967328 103.8408279  23.7066746  42.1729422
 103.4311485  23.8958955  43.0170918 103.1552982  23.2712960  41.6662550
  93.5844231  44.2725849  48.1064367  94.5023823  44.5357656  48.0406332
  93.5926056  43.3305550  47.9369211 105.7862091  20.2265978  28.5858297
 106.4660740  19.5790195  28.7720156 106.1888695  20.8214664  27.9531932
  72.9229975  34.4057631  40.1750517  73.0958891  33.5438251  40.5537319
  72.0089579  34.5852160  40.3954172  68.8967419  51.7328739  52.5630808
  68.2377481  51.1816263  52.9850817  69.7337389  51.3705826  52.8536081
 105.2041340  61.5415049  39.7421432 105.8288479  60.8370018  39.9143219
 104.4163132  61.2855577  40.2218008  69.0484667  51.1829996  34.9708271
  68.3546352  50.5262995  35.0306010  69.3732119  51.1073351  34.0735841
 101.9695950  36.9194436  47.0596457 101.5672493  36.4870691  46.3063860
 101.4738846  36.5985394  47.8129864  75.0118923  51.1969614  74.6643925
  75.9470129  51.1523676  74.8638868  74.7723579  50.2985096  74.4371557
 119.4247246  41.8128824  32.4002576 119.5624542  40.9698153  31.9684029
 119.3347359  41.5949106  33.3279562  98.9706230  29.5354819  58.5617447
  99.4213200  29.5789051  59.4050789  99.5809841  29.0729356  57.9875135
  73.2176447  51.3122082 105.4590607  72.4820137  51.6537094 104.9506760
  73.2397556  51.8583250 106.2448788  80.2059746  41.4133072  41.5184689
  79.7267771  41.5342569  40.6987286  80.8546352  40.7381725  41.3193417
  76.3269377  57.1396637  38.6565280  76.4515591  57.4999332  37.7785158
  77.1360588  57.3544979  39.1206384  43.8003206 139.6927977  71.5923548
  43.2314730 139.2595942  72.2287321  44.6442986 139.7679175  72.0376444
  51.9786692  15.9873354  34.4946504  52.2918177  16.7752779  34.9388528
  51.6944551  15.4098952  35.2031827  74.4357300  45.7961941  39.2094374
  75.2334118  46.3024521  39.3631959  73.7340975  46.3402128  39.5671916
  56.5085268  40.9815979  45.6816912  56.7044497  41.5017033  46.4610100
  55.7037687  40.5128193  45.9026814 105.7145214  53.9675379  10.3999066
 105.7783985  54.6613312  11.0562599 105.6613827  54.4321203   9.5646995
 106.6600704  39.3908167  33.9337516 106.9839859  39.3830824  34.8344469
 107.4364567  39.5644784  33.4014940 113.5993004  67.3419046  31.7294335
 114.2616367  67.5739002  32.3803711 114.0710545  66.8137455  31.0854435
  89.1148281  44.5965624  61.3094521  89.9559212  44.2315865  61.0345173
  88.7100315  43.9012337  61.8280029  74.2013693  40.5969048  47.6207829
  74.6314287  41.4361906  47.7847385  73.3039999  40.8300447  47.3828554
  93.5006905  48.1223202  65.5662346  92.9265785  48.0277205  64.8061800
  94.2524624  48.6159801  65.2385712  93.5556412  52.5386333  54.4230366
  93.0048752  52.4943638  53.6414146  93.4820938  51.6695499  54.8174000
  70.1791906  23.7020087  57.6023149  69.8840714  23.0031848  57.0185471
  70.9233475  23.3242297  58.0710793  95.9704971  52.5603199  43.2399845
  96.8524933  52.8164673  43.5096121  95.6558704  53.2982874  42.7178240
  77.0855045  38.7495136  47.4834871  76.2121773  38.3583331  47.4609756
  77.3980141  38.5866737  48.3734608  94.8364925  68.8279915  42.6686239
  93.9548874  68.7153244  43.0240393  94.7344494  69.4829512  41.9780827
  76.5756130   6.9726682  66.4569807  75.6249046   6.9015074  66.3714266
  76.7707062   7.8781533  66.2155962  38.3241367  29.3786168  32.6100779
  37.8875113  30.2020836  32.3921537  37.7169633  28.9350033  33.2023430
  83.5251808  32.2797203  37.0107913  84.0242577  32.0262218  37.7872539
  82.6182461  32.3256326  37.3134494  93.6436939  17.1179688  47.0762491
  93.2140827  17.6513398  46.4075327  94.5571995  17.4034226  47.0598888
  76.2547970  32.0087075  32.9547262  76.2837410  31.1866617  32.4652004
  75.3328514  32.1157527  33.1887913 113.4755707  49.5847988  70.9838533
 112.7367115  49.8295403  71.5410089 113.8700867  50.4188967  70.7291460
  85.6577206  48.2000494  56.8516684  84.8974228  48.3096075  57.4227858
  85.7142353  47.2555876  56.7066622 110.3413677  33.6666942  29.9083781
 109.4381523  33.4726429  29.6578217 110.2834129  34.4883776  30.3959322
  99.1942024  60.7241774  74.7841644  99.6078873  60.4205370  75.5921888
  99.6190739  60.2170992  74.0923643  83.3153629  58.5039377   5.1289654
  82.9134655  58.8201809   5.9381008  83.9665318  57.8650141   5.4187769
  94.3694878  38.1568837  63.7176228  93.6015224  38.3171010  64.2660666
  94.1198540  37.4149275  63.1667900 105.3789711  76.7524672  25.0174737
 106.2666512  76.5261173  24.7399497 105.3990173  77.7024794  25.1328421
  54.0100574  34.8872447  33.3973455  53.8181591  35.7044816  33.8572717
  54.9627829  34.8823738  33.3050370  81.6455936  28.8347292  40.4848194
  82.3205185  28.2642651  40.8526087  81.4644623  28.4651470  39.6206236
  59.0088987  16.9787002  84.1918278  58.8003016  17.3197627  85.0615406
  58.2932949  16.3747287  83.9934444  94.8736000  40.8338785  99.2631193
  94.2449951  41.5556192  99.2765196  95.2287483  40.8090496 100.1516482
  70.6271219  65.0506496  29.2821026  71.0415459  65.7959414  29.7168779
  70.2145910  65.4261875  28.5042715  95.1931286  83.1145763  73.8615274
  95.0090313  82.4834251  73.1658316  94.6525002  83.8742161  73.6449718
  84.2494202  54.7997141  44.9968100  83.9757824  55.5504036  45.5239010
  83.9699554  54.0369558  45.5031013  78.3317852  33.6583281  68.6219406
  77.5301886  33.9827204  68.2115221  78.0510092  33.3460402  69.4820976
  92.7604866   8.7742645  18.5701883  92.5322056   8.2590699  19.3439424
  93.7098694   8.8827115  18.6261976 106.7598438  16.1202216  52.3994446
 106.6098976  15.3534424  51.8464518 105.9213543  16.5819108  52.4012089
 103.1396675  59.7718287  46.6316700 102.3121262  59.7931719  47.1122456
 103.5279083  58.9273930  46.8606567 118.4902382  55.5912352  20.1185083
 119.4359303  55.6400108  19.9788153 118.1580067  55.1288223  19.3490720
 103.3125019  26.2150860  46.4164448 102.8542042  26.9950676  46.1036730
 102.6602077  25.7468057  46.9374514  82.4838829  48.2434416  56.1986446
  81.5505123  48.0610943  56.3072395  82.9206562  47.5912952  56.7465162
  62.8316069  59.0797663  48.3925486  63.6204815  58.5409117  48.4521246
  62.5827742  59.2415524  49.3025684  99.0157604  84.4562721  67.4854994
  98.8725948  84.0176678  68.3241606  99.6241665  85.1670361  67.6877117
  62.4814224  51.0970879  35.9064412  62.3075485  50.5111599  35.1697683
  62.5396824  51.9672108  35.5118251  95.6319523  28.3533001  33.6677408
  95.1140976  27.8446269  34.2916894  95.1786041  29.1943312  33.6096907
  80.7613182  51.1280870  29.8999763  81.4920902  51.6003180  30.2989864
  80.6819534  50.3273630  30.4184127  74.7276974  23.9029169  20.1523352
  75.6207943  23.6132431  19.9660647  74.7053003  24.0141487  21.1027861
  77.0544720  55.9494352  44.5256615  76.7301464  55.1992178  44.0274477
  77.8896189  55.6534719  44.8878288  99.1373158  59.8394918  15.4274011
  98.3292484  60.3133392  15.6242073  99.6682835  60.4655790  14.9351394
  95.7599163  65.2437115  27.5113678  95.2892017  64.7241306  26.8596768
  96.6208839  64.8297501  27.5713372  93.9550781  35.5527234  74.6187544
  93.9668751  35.6509089  75.5708313  93.0647755  35.2635837  74.4188023
  96.1191273  46.9820118  41.8448019  97.0638847  46.8686008  41.9487429
  95.7957840  46.1083412  41.6248655 104.8763657  63.4034824  47.9213953
 105.0105476  64.0220165  47.2033119 103.9597225  63.5211277  48.1707191
  81.3662148  60.5524588  32.6857209  80.4488564  60.3923225  32.9071808
  81.7015743  59.6960831  32.4204183  84.6982670  31.5490580  39.4562197
  84.4916439  31.0382843  40.2389383  85.6547546  31.5549636  39.4196725
 106.8990898  27.0330310  38.6193442 107.6464939  27.1913767  39.1960120
 107.1336746  27.4664021  37.7987409 110.9518242  77.2810125  40.8558035
 110.5720043  76.4136410  40.9959555 111.6652298  77.1326351  40.2351093
  86.8060017  45.0528383  51.7131948  85.9064293  45.3646851  51.8119717
  87.1609306  45.5704403  50.9904575 101.2589169  17.4984550  75.9713888
 102.0318317  17.0480633  75.6308270 101.5950966  18.0506206  76.6773129
  74.8254967  22.6460314  41.7647886  75.4940510  22.9782891  41.1657286
  75.2398300  22.6770902  42.6271105  87.5746250  30.2787232  83.7616158
  87.8333855  29.9434066  84.6200085  86.7490196  29.8340082  83.5696888
  88.2004929  20.4240942  82.1025753  87.9130650  19.5111847  82.0877552
  87.4798965  20.9086299  81.6998196  98.2028389  48.4718943  51.6810369
  98.4553814  49.3931198  51.7427063  97.7390766  48.4060431  50.8462858
  33.7302709   1.7920673  16.4893103  34.0105605   2.6863900  16.6838741
  34.2751241   1.2424152  17.0525587  68.2661295  26.8454099  15.0573194
  67.3863792  26.5876579  14.7819376  68.1307411  27.6312017  15.5868745
  88.0602646  61.6444445  49.1434383  87.6428986  60.8604670  48.7864828
  87.4549961  61.9518423  49.8182631  65.9575033  45.1844454  12.3702812
  65.1723289  44.7132683  12.0914960  65.6354284  46.0402060  12.6534212
  84.9547577  29.9372745  14.3495727  84.8520756  28.9997435  14.5130467
  84.4937038  30.0884366  13.5244584 108.2755852  51.7077875  31.1439824
 107.8452301  51.8988848  30.3106141 108.9079762  51.0203314  30.9348702
  81.6621590  46.9914484  66.7659855  81.4133644  47.0559931  67.6880312
  82.3341942  47.6634073  66.6516399  83.8454533  41.2919378  75.7812929
  84.7044563  41.6107702  76.0582209  83.9743900  40.3553057  75.6318426
  50.5156374   9.7260535  59.7158575  50.6853676   8.8437378  60.0459242
  51.1731720   9.8567945  59.0326357 116.2813187  49.9976301  35.2733183
 115.9455013  50.8463955  35.5614948 116.9614792  49.7801971  35.9107709
  94.8110962 135.1488526  38.4099579  95.3280640 135.0357825  39.2075729
  95.3603935 134.7860415  37.7150679 116.8559647  47.7328253  55.4300928
 117.0169735  48.6051750  55.7896948 117.4498272  47.6687336  54.6821308
  63.3312416  37.8280473  52.3573446  63.8970852  37.4209237  51.7013741
  63.8101768  38.6087680  52.6354265  68.2008743  39.9511337  64.3021154
  68.6624908  40.7002735  64.6788502  67.4686193  40.3377771  63.8219643
  62.2904491  27.2353601  63.7514114  62.8234959  27.4749374  64.5094967
  62.4576712  26.3011742  63.6266375 100.4292297  51.0950327  69.9102163
 100.5923557  50.4744911  69.1998959 100.5553722  51.9554663  69.5102549
  91.9465351  37.6053023  27.7310348  92.2158813  36.6932535  27.8398752
  91.9724464  37.7514791  26.7854166  78.9946651  24.5645618  55.1327229
  79.7208500  24.5618749  55.7563257  78.2623768  24.9428201  55.6194544
  78.4189510  13.6870396  27.4393368  78.0875635  12.7893019  27.4174142
  77.7846241  14.1890633  26.9276381  81.0697937  30.7669139  30.1353049
  81.1859417  30.9320688  31.0709667  80.5303955  29.9771070  30.0966477
  77.2103405  38.0925536  67.0126295  77.8616858  37.3968244  67.1017647
  77.7051353  38.9017892  67.1412659  86.1998558  59.5960045  13.7493896
  85.4668140  60.1911306  13.5921979  86.2533569  59.0665197  12.9537666
  80.8651161  40.6265020  49.6383142  81.3514900  40.1953363  48.9356279
  80.3242016  39.9328518  50.0157976  78.7879992  59.3044519  77.0345068
  78.6825752  60.0761795  77.5908852  79.0279245  59.6577501  76.1778593
  87.5152874  36.4160514  67.8774405  87.1855640  36.7957306  67.0629740
  87.5130749  37.1438885  68.4991169  79.5643187  74.5741606  35.8128977
  79.2509127  75.3611517  35.3671837  78.8126469  74.2723751  36.3229442
  94.8087215  22.6875019  22.9848981  94.4838047  21.8105888  22.7807331
  95.6331348  22.7556038  22.5032926  84.9474239  78.5163116  15.1649451
  85.2860355  79.0655613  15.8719814  84.4523239  79.1187525  14.6098065
  61.6414928  31.2011337  38.1195498  61.7052174  30.4877090  37.4845719
  61.1492586  30.8277845  38.8506770  69.8611784  20.9611893   8.1980038
  69.9048519  21.8935513   8.4101975  68.9351225  20.7375383   8.2908839
  88.0879879  45.8673906  35.9186029  87.5634289  45.7560778  35.1257157
  87.5399113  46.3991833  36.4956951 114.0207958  96.5581036  22.6852083
 114.2254257  97.3358727  23.2042861 113.4283066  96.0496426  23.2389641
  97.0924282  27.3406744  79.7889280  96.1368370  27.3925710  79.7689581
  97.2888756  26.4405012  79.5294571  60.0819016  53.8423443  11.8971276
  59.2675304  53.8805103  12.3987031  60.1103115  52.9491568  11.5541434
  45.9564209  32.6063323  44.3667603  46.6152239  31.9778013  44.0715361
  45.4757309  32.8402019  43.5727358  72.1658278  39.6320224  69.3255138
  71.2445116  39.8903894  69.3509769  72.1597815  38.7625647  68.9252138
  93.4352207  58.2986307  54.5495367  93.9051914  57.4662638  54.4993734
  92.9196835  58.2345247  55.3534985  71.0767269  63.0975342  17.8552639
  70.6646299  63.2397842  17.0031059  71.9932032  62.9124403  17.6502037
  54.8871517  69.5968723  35.0755286  54.2316771  69.3540478  35.7294583
  55.6446886  69.8780394  35.5886674  82.8292751  52.0283270  21.2969518
  82.7618217  51.4009190  22.0167041  83.5437584  52.6113224  21.5535831
  92.6563072 104.3456364  45.5713892  92.4331665 104.6038342  44.6770906
  93.4712315 104.8114491  45.7588911  79.2729712  55.9307289  31.6645551
  78.8267231  55.0952482  31.8026710  78.7290335  56.5714025  32.1227050
  49.8951054  18.2100332  48.1292677  50.8168983  18.0779958  47.9076910
  49.4175959  17.6711118  47.4985743  80.4996777  20.0032616  24.0400076
  79.9582005  19.5733833  24.7020006  80.0730991  20.8474398  23.8929486
 104.8084450  34.2158008  39.1974998 104.7690105  33.5995770  38.4661031
 103.9021015  34.2917871  39.4958091  74.0181160  15.8585191  13.5242164
  74.3407345  15.6499958  12.6474798  73.2740593  15.2700365  13.6518800
 107.6119709  14.9160814  15.9603572 107.7924252  14.1657364  16.5266168
 108.4728813  15.1899564  15.6440413  48.2799244   5.4818720  12.9187667
  48.6841154   4.7804534  12.4080098  48.7120867   6.2797171  12.6139498
  82.8596973  30.8913565  41.7941380  82.4197769  30.1080680  41.4637327
  82.1555328  31.5282226  41.9157505  75.6051493  42.1969795  35.3556085
  76.1922169  41.4901686  35.6239486  75.3543377  41.9727993  34.4594669
  77.1126366  47.1936512   5.7873881  76.4685202  46.7370987   5.2461785
  76.9688988  46.8522930   6.6700238  88.1209660  55.1412010  22.5289416
  88.1775379  54.7811604  23.4140396  89.0300465  55.3067398  22.2791481
   7.5639086  39.6495128  66.9288397   6.6807395  39.2894030  66.8477821
   7.5099116  40.2514791  67.6711035  87.3880959  49.6796179  16.6341305
  87.8856850  49.2374277  15.9463120  88.0146790  49.7910166  17.3491251
  76.0159349  51.9456291  30.4607821  75.7548285  51.0724592  30.1681638
  75.3443766  52.5280046  30.1056981  71.0607195   7.3542154  64.9185991
  70.9773159   7.1975535  63.9779997  70.7090664   8.2352048  65.0467873
  60.2861547  23.5362506   1.1933481  60.5139971  24.3037868   0.6687415
  59.8702526  22.9372287   0.5733246 103.0994797  34.1375351  63.2290888
 102.8908539  34.8637247  63.8167572 103.3233166  34.5580244  62.3988342
  92.0807266  47.6354694  12.4853134  91.9447517  47.7950621  11.5513587
  92.1478081  46.6834164  12.5583351  48.6060381  46.7955923  25.3380585
  48.9510632  47.6840162  25.4269099  48.3915281  46.5313721  26.2327099
  77.0420742  30.1662731  41.0710526  76.4158154  29.6799254  41.6072416
  76.9522238  31.0738325  41.3617325  79.3007946  36.0252953  24.5502687
  79.3720531  36.7955661  23.9864993  80.1797581  35.9107876  24.9115729
  95.2946472  25.4791856  42.5726032  96.1546421  25.8415532  42.7855206
  94.6728992  26.0861540  42.9741621  76.4874744  64.7631836  17.8132951
  76.9308186  65.2180290  18.5293889  75.6324053  65.1890182  17.7520478
  69.4431591  76.0755491  40.4305220  68.9635897  76.7840862  40.0013113
  69.1518164  75.2823734  39.9808335  78.7765694  59.1732407  13.7902045
  78.1777096  59.2800570  13.0511582  78.3321238  58.5560179  14.3713510
  67.8470612  36.8681359   6.4120561  68.5312843  37.1594739   5.8093989
  68.3224869  36.5634537   7.1849537  98.2079792  71.1070442  15.8590293
  97.6201630  70.4439640  15.4970419  97.7019405  71.5191031  16.5592921
  55.6396914  71.8601561  33.7677097  56.0689211  72.0440149  34.6032882
  55.2073431  71.0166311  33.9010358 102.3219013  34.5196080  92.8441604
 102.6021576  35.3154230  92.3920914 102.8670692  33.8272500  92.4704524
  84.7407532  52.3971796  50.4220438  84.6808434  52.8262615  51.2755871
  84.7662544  53.1180716  49.7928429  89.3931580  64.3294716  49.4176865
  89.7667408  63.4701824  49.2220116  89.2068005  64.3015480  50.3561544
  89.1916466  27.3391747  28.0683160  89.5725822  26.4753747  28.2263446
  88.4946442  27.4163961  28.7198162 111.3315296  45.5391121  14.1969454
 111.8462372  44.7864914  13.9056218 111.6545296  46.2690926  13.6687124
  87.3671722  57.7472162   3.9826715  87.1553993  58.6734104   4.0991002
  86.5381622  57.2917128   4.1292903  50.1772785  64.9015236  11.7605579
  49.3072653  64.8735428  12.1587157  50.4207420  63.9821720  11.6521394
 102.9399490  52.0625782  53.0710459 102.1268368  51.6923428  52.7275181
 103.1420803  51.5264320  53.8378096  79.4259977  71.8666649  21.6164947
  79.2103386  70.9637308  21.8498087  79.7682858  72.2477531  22.4250984
  92.0887756  56.9165802  15.6440735  92.0247746  57.8683376  15.7234025
  92.9690361  56.7087746  15.9574091  70.8232832  26.4354920  64.3953276
  69.8781586  26.2841654  64.3871212  71.1161900  26.0757208  65.2325916
 123.5731220  36.4095020   8.3450198 123.4126472  36.3471985   9.2866123
 123.2847595  37.2916579   8.1107599  74.5584393  13.3199596  30.2561784
  74.9859381  14.0373087  29.7883248  75.1043081  13.1796455  31.0298514
  97.0060158  56.3630104  42.6755381  96.8807411  57.2546530  42.3507166
  96.5362072  56.3436031  43.5092831  71.8283749  13.9466536  51.5998936
  71.2224388  13.4235692  52.1247339  71.8179655  13.5316229  50.7374144
  87.9627705  42.0705843  24.6477509  87.4053955  42.7342367  24.2413998
  88.8506794  42.3061514  24.3787551  75.9925842  64.1247702  13.1568992
  75.4571009  64.0354681  13.9452589  76.1412001  63.2253075  12.8651536
  70.5828285  43.1955099  54.3782663  70.8566475  42.2799397  54.4329119
  70.8779049  43.5833311  55.2021360  71.8831301  40.1317453  10.8924937
  71.5131521  40.8643770  11.3850343  71.4954996  40.2091455  10.0207233
  64.2331266  78.0938673  22.0086479  65.1874304  78.1346035  21.9463730
  63.9228487  78.6818552  21.3200045  91.6198921  65.0830793  14.6562779
  90.8244514  65.6131077  14.6055579  92.3344135  65.7179260  14.6047366
  94.4239616  86.3554764  14.8066807  94.6510696  87.2782516  14.9213195
  94.2329216  86.0441303  15.6914413 112.7901936  68.0767202  25.9395909
 112.9178238  68.0095053  24.9933219 113.0487823  67.2193575  26.2776494
  79.5131159  47.5259113  38.5348773  79.5763874  46.8477726  37.8623009
  80.3780746  47.5382471  38.9446759  65.6240225  78.5258198  38.5745573
  66.5742016  78.4108019  38.5617781  65.4285288  78.9942217  37.7630043
  46.8831158  10.7576811  53.8784361  46.6924572  10.2560902  54.6710777
  47.5441408  10.2389598  53.4199524  66.8979883  26.9636655  36.6698742
  67.6067495  26.3917303  36.9644523  66.1380816  26.6864109  37.1816444
  89.5724678  53.4668112   9.9469388  89.0957355  53.8248062   9.1980749
  88.9578438  53.5360670  10.6774664  60.4005718  67.8269625  18.0994046
  60.2113152  68.1207943  18.9905143  60.1923132  68.5818720  17.5489759
  67.7803326  20.2715468   5.7914674  67.3912382  20.8842993   5.1674736
  67.4447441  19.4149971   5.5270189 107.4636745  54.5024204  90.2229067
 107.2487164  53.5894728  90.0317284 107.2834206  54.9671125  89.4057139
  69.3417931  76.6502953  26.8523073  68.6456490  76.8753338  27.4695396
  69.1687536  77.1974707  26.0862207 102.7210522  47.4584579   9.2966962
 103.0778503  46.5744019   9.3825966 103.2151413  47.8470516   8.5748160
 116.7284775  56.6961145  14.4228053 116.5564156  55.7655716  14.5667374
 116.0785389  57.1461439  14.9625146  69.7348309  35.5452108  51.5101099
  69.7651196  34.6101522  51.3076735  69.8387241  35.5879641  52.4606943
  76.0297918  39.6960926  37.3524404  75.6472445  38.8880491  37.0104504
  76.5925598  39.4090366  38.0715513  57.0817804   3.6027440  41.2868214
  57.9041576   3.3014715  40.9006023  57.3384476   4.3176731  41.8692589
  78.7480688  94.0462399 108.1895880  79.0118551  93.1872082 107.8598658
  78.8238192  94.6269894 107.4324729  60.7493305  47.2431040   8.9658570
  60.0926161  47.7846909   9.4036251  60.5858946  46.3580942   9.2918670
  72.0794344  40.2181101 102.7988347  72.8394318  40.6338739 103.2059916
  71.3269806  40.5977345 103.2526305  98.6012077  53.9102554  23.9888978
  99.5214558  53.7236977  24.1748643  98.6218739  54.4609356  23.2062387
 114.4177914  10.8810067  54.6139908 113.5035896  10.7871115  54.3463135
 114.4691372  11.7613339  54.9863100  53.4316254 145.9662424   4.8163173
  52.9326200 146.7143586   5.1442617  54.2221403 145.9505762   5.3558296
 101.7821980  44.6791506  15.3174460 101.5704441  45.5572557  15.6341851
 102.3836994  44.3265533  15.9732723 103.5606956  22.7850866   6.1804360
 102.9742241  22.5027609   5.4785991 104.3561077  23.0673170   5.7288939
  96.0068989  31.3933063  36.2804484  95.9913826  32.3394346  36.4247799
  95.1442432  31.0931730  36.5667653  75.9266853  98.3757973   6.7837858
  76.5804720  97.9503727   7.3385900  75.7285786  99.1970825   7.2337633
  53.4107113  60.0122261  31.0567784  52.6059532  60.3962708  30.7087684
  53.7823820  59.5267296  30.3203106  62.0430279  44.3335724  49.6859694
  62.1917582  43.5591221  50.2285051  61.4566135  44.8820305  50.2070618
 101.2778950  63.5180330   0.8589210 101.7417336  62.7404928   0.5482572
 100.3539181  63.3253098   0.6996784  91.3446808  77.4986506  19.6651399
  90.9839535  77.1238422  18.8616323  90.8679199  77.0593929  20.3694010
 101.1030674  68.6182833   2.6271537 100.8609486  68.9735460   3.4823698
 101.0084629  69.3567467   2.0255312  91.5723419  35.0894594  52.2031927
  92.0251846  34.3362570  51.8239021  92.2616291  35.5862927  52.6439571
  89.9416351  33.2326317  28.9303851  90.5509567  32.8183103  29.5413637
  89.3746281  33.7690949  29.4844127  81.4802647  10.9227681  28.7338161
  81.3948727  11.5570593  28.0220485  80.9379864  11.2783813  29.4378781
  92.3212814  67.9178143  43.2435560  92.6698971  67.0352316  43.3690548
  92.3587132  68.3160210  44.1131878  74.1343117  63.9845181  29.9219012
  74.9249697  63.6554623  30.3494644  73.7613678  63.2184076  29.4857526
  62.6542187  52.1321201  54.5657158  61.9519520  51.5044546  54.3951702
  62.6571274  52.7029133  53.7973261   9.1729957  26.5974283  24.0141273
   9.9239516  26.0638976  23.7540483   9.4468379  27.4978018  23.8392806
  66.2415743  76.2045479  27.1407151  66.2135935  76.4503431  26.2160373
  65.3257608  76.0578871  27.3773766  71.8779898  37.7388501  20.7992625
  72.0044851  36.8942285  20.3670073  72.4264574  38.3464074  20.3029847
  78.5341311  49.7085381  45.1143885  78.6594725  49.0444756  45.7922840
  79.4154549  49.8829937  44.7841358  95.2440262  61.6955233  27.7657557
  94.5368767  61.5227699  27.1442032  95.5282402  60.8276272  28.0524659
  54.2003202  60.9283257  23.6921191  53.3466053  61.3110638  23.4898353
  54.3807554  60.3430223  22.9565263  61.5002632  48.9310074  37.5710320
  61.8230247  49.7169924  37.1302557  61.0730696  49.2585993  38.3625007
  84.9848747  49.7728491  50.9977102  84.8319054  50.7109594  50.8846569
  85.5510712  49.7135115  51.7672110  62.3024321  41.6203547  30.6956387
  62.1760273  40.9722567  30.0026584  62.1103144  41.1464024  31.5047717
 102.2230244  28.2466674   0.3283211 102.8081894  28.1905508   1.0837439
 102.7604675  27.9659271  -0.4123351 105.4458523  47.5207138  34.3998718
 105.6918430  48.0589819  35.1521969 104.5971870  47.8674126  34.1245699
 114.3537426  60.5383301   7.2555834 114.1412449  59.6056604   7.2903073
 114.0924549  60.8755732   8.1124520  73.4347248  53.8942003  45.5663300
  72.6404715  53.4898806  45.9154892  73.9891148  53.1553745  45.3152847
  82.7718067  25.4361057  36.7635894  82.4661922  25.5167890  37.6670933
  82.6686478  26.3140941  36.3965416  79.6234322  43.5482311  31.0662293
  79.1688251  42.7991104  31.4514327  79.7602510  43.3009815  30.1516914
  78.2684135  53.0343294  29.1414881  79.0493393  52.4904680  29.2444491
  77.6390505  52.6700020  29.7639036  70.0914764  65.0224447  33.0845618
  69.6965504  65.3075266  33.9085698  69.5592070  65.4393578  32.4069905
   1.8952494  44.8900795  41.9054890   1.3915759  45.4668617  41.3311481
   2.4157649  44.3526268  41.3084602  30.5180478  60.1606941  94.5985004
  29.6872735  60.0765657  95.0664433  30.7765412  61.0726881  94.7314485
  87.6707840  50.1357603  57.3152590  87.0776463  49.3949223  57.1904421
  88.2121658  49.8856354  58.0639744  81.5208054  65.0864840  38.7219119
  82.3961926  65.4580307  38.6129308  81.2666035  65.3294802  39.6121740
  65.6269217  25.7499647  21.0714006  64.9872208  25.2603579  21.5884137
  65.5852365  26.6405463  21.4197636  75.1584625  61.0227966  22.8714585
  75.8653593  60.8035994  23.4784818  75.3974628  60.5817986  22.0562100
  83.8573360  14.9763715  15.9665549  83.4159470  15.5439579  15.3346908
  84.2634773  15.5803621  16.5882289 119.9807835  48.2427931  31.3080072
 119.2708874  48.8815546  31.3732648 120.4922962  48.5296488  30.5515051
  90.6219006  41.9030905  37.4162483  91.3168716  41.9540501  36.7600083
  89.8376465  41.6745138  36.9173145  62.6338387  49.5570946  45.8414221
  62.9635096  49.8229694  46.6998291  63.2025528  50.0069666  45.2165937
  76.5847158  31.1328983  28.3916211  76.8510437  30.5206561  27.7057195
  77.1953392  31.8654037  28.3091235 122.4548912  51.5136480  30.3832173
 122.7697182  51.2650871  31.2523174 122.1235847  50.6985331  30.0063157
  29.4854498 100.8507633 107.5627422  29.1458631 100.1425266 108.1098382
  28.7240791 101.1607265 107.0723649  58.5411835  69.4671345  29.4943070
  59.4424295  69.1606236  29.3941259  58.4872484  69.7590828  30.4043007
  83.6984158  32.1835518   5.3026319  83.0798244  32.8202271   5.6607163
  83.8812828  31.5910268   6.0318112  85.0759029  22.9018164  62.6683283
  85.7343102  23.3351278  63.2114458  85.2530861  21.9674420  62.7768755
  73.8733912  54.6997786  24.7739840  73.6774969  53.8126087  24.4726706
  73.0585194  55.1837206  24.6397376  72.6807547  12.9485607   4.9577680
  72.6907158  13.1683385   5.8893418  73.3902121  12.3144734   4.8536745
  78.7934971  58.9096069  31.1577892  78.8332605  59.5540762  31.8644094
  78.0987215  58.3066702  31.4223433  57.2672987  56.2126780  31.2265563
  57.8766108  56.1587048  30.4903102  57.8017616  56.0123110  31.9949555
  75.2877474  92.9178333  19.5721340  76.1218119  93.2648468  19.8886061
  74.6899366  93.0184746  20.3128934  45.4405546  25.3759861  62.0366240
  45.7754755  26.1356473  62.5130367  44.9211645  24.8978090  62.6830053
  86.3961697  38.4808540   1.3851729  86.9376945  38.1765342   2.1134382
  86.7324734  39.3544722   1.1853573  53.4225845  57.7979660  45.0073099
  53.4331322  58.2509375  44.1641378  52.7599478  57.1149778  44.9040079
  97.0675564  52.9951382  60.4048777  96.9283390  52.9077053  59.4619036
  97.6935673  52.3036194  60.6196976  74.6912193  79.5034885  17.8707671
  74.9327946  79.7964764  18.7494206  75.3011799  78.7909698  17.6797342
  77.2839880  20.1231956  12.1869946  76.8682384  19.7704220  12.9737175
  77.3201656  21.0676837  12.3382163  90.7992744  37.3251581  59.9443150
  91.3995266  37.7803063  59.3537474  90.4700279  36.5881515  59.4298697
  51.5100670  32.5481057  25.0068688  51.4912605  31.7925143  24.4195342
  51.1503506  32.2198987  25.8309555  80.4558468  79.6434307  39.9995136
  80.0084782  78.9385796  39.5312476  80.9037590  79.2041302  40.7224417
 114.5585537 106.7515564  28.6912131 114.2363930 107.1673584  29.4909310
 115.4478550 106.4717770  28.9082527  68.5158300  35.4191875  34.6661472
  68.9241648  36.2845993  34.6425176  67.8076315  35.4709005  34.0242648
  76.4305305  48.5982037  14.4010901  77.1096563  49.0453291  14.9061656
  75.6154823  49.0249634  14.6652997  85.6995869  59.8483419   8.0865765
  85.5270863  60.3729439   7.3047382  86.6502190  59.8826456   8.1930929
 121.7577744  26.0634089  46.5009117 121.6750717  26.4134049  45.6138372
 120.9709835  25.5321217  46.6230917  87.5137615  43.7785769   6.1535180
  88.4069633  43.8221455   5.8121610  87.2992516  42.8457642   6.1447805
  66.6744947  20.4874372  38.3483052  67.4060535  20.6821847  38.9340734
  65.9184217  20.9028435  38.7630630  62.0529366  48.8345671  26.2436891
  62.9142284  48.5973740  26.5874052  61.6083145  47.9970551  26.1128688
  95.3834438  58.9511395  51.1242437  96.1829281  59.4654942  51.2360096
  94.7832012  59.2946100  51.7860413  34.4313669  58.3325624  16.0822856
  34.7845459  58.3102703  16.9716668  35.0802851  58.8244915  15.5791509
  51.4805079  43.1078053  54.3477345  52.3001957  42.9304743  54.8091412
  50.8159018  43.1206560  55.0364780  39.9409795  38.7025261  93.9461085
  39.5182896  39.4980431  93.6225065  40.5555677  38.4592581  93.2537671
  62.2611618  17.5846183  43.6914206  62.3499632  16.9041836  44.3587685
  63.1611824  17.8378296  43.4862947  80.7583427  52.2905636   8.2490069
  80.2316856  51.5770340   7.8888053  80.1633930  52.7530432   8.8392377
  61.9522190  36.6193557  92.3344024  61.4844179  36.2959528  91.5644642
  62.0789957  35.8437967  92.8809043  73.4274197  66.6307259  29.1182280
  72.6298571  66.7909479  29.6226573  73.7446117  65.7846165  29.4340110
  41.7916059  50.2107859  28.5168076  42.0657921  50.7858849  27.8024435
  42.1222305  50.6368399  29.3076301  53.6332846  18.2750261  46.1405087
  53.2830811  18.1757498  47.0257998  53.7293339  17.3785651  45.8190107
  83.4319496  78.6272573  40.1176262  83.6024857  77.7204132  39.8631024
  82.7527332  78.5638714  40.7891035  61.7293930  27.6156235   3.9306569
  62.1367311  28.0505562   4.6797520  62.1161079  26.7400551   3.9226907
  52.8415585  52.5221109  41.7621708  53.3172083  53.0022240  42.4400234
  53.4079933  52.5706768  40.9920883  93.1532288  54.3637562  20.1423502
  93.4101200  53.5617208  19.6873915  93.8902855  54.5570469  20.7216811
  83.9163971  73.8732338   3.4315100  83.8187599  74.0937710   2.5051934
  83.0648613  73.5161924   3.6837631  18.8312650  41.7705965  96.6539749
  19.6731639  41.6489410  96.2150701  19.0613091  42.0491695  97.5403770
 112.1680164  51.6182566  42.6736450 111.7334080  51.4954567  41.8296909
 111.6000366  52.2241068  43.1496382  86.6373539  62.2454405  95.1395961
  86.8877888  62.6036978  95.9911629  85.7004166  62.0672035  95.2209004
 122.4425030  89.2871666  45.9331656 123.0196095  88.8383579  45.3153038
 121.8482018  88.6046219  46.2448978  80.6885147  56.8882561  29.3812442
  79.9943352  57.0696068  28.7476444  80.2386570  56.4731503  30.1171422
  92.6108074  78.9936066  10.4356086  92.7984810  79.9272966  10.3395033
  92.8178501  78.6183548   9.5797169  75.5623007  32.2481251  82.2494602
  76.0941839  32.8464198  81.7247009  76.1743498  31.8795395  82.8864670
  70.5187130   5.3910965  45.2632809  70.7389164   4.5829082  45.7265043
  71.3654995   5.7797390  45.0438833  63.7641048   4.8349452  79.5483049
  64.2355967   4.7024429  80.3707226  63.2052135   5.5945277  79.7123297
  89.0302753  46.7121649   6.0112405  89.4989204  45.8817530   5.9274489
  89.5706940  47.2333097   6.6050327  64.2798948  11.3911748  25.1594830
  63.3429432  11.2328517  25.0442266  64.4852924  11.0041440  26.0105133
  99.8947239  46.8259239  21.3070226  99.2953110  46.1457157  21.0000086
  99.6712017  46.9431925  22.2303438   6.2333518  43.8037252  46.6656017
   6.0952979  42.9228067  47.0136738   6.3494425  44.3523073  47.4413633
  76.0612106  20.0222683   1.3910945  75.9216928  20.8663154   0.9617308
  75.2077866  19.7984123   1.7622939  41.2370872  12.0286322   8.2541680
  40.5006409  12.5001323   7.8648543  40.8939314  11.1528277   8.4314901
  62.2635412 136.8625040  14.6581137  62.7580357 136.0755188  14.4292843
  61.5754747 136.9143773  13.9947081  96.5524483  56.0292006  18.7208354
  97.0408535  56.6726398  19.2343342  97.1348000  55.8117628  17.9929447
 105.0393295  38.7142968  18.7448132 104.1798306  39.0868640  18.5481405
 104.9292088  37.7732015  18.6090124  92.2453499   4.6288010  20.0289512
  92.7038479   3.8167733  19.8130369  92.1884918   5.1000482  19.1977310
  99.6095657  30.2951407   6.1540711  99.2623901  29.9310875   6.9684213
  99.2799473  31.1935663   6.1336595  62.5679302  14.8735571  59.1738081
  62.6853800  14.3915033  59.9923801  63.2877922  15.5043423  59.1619110
  85.8942890  35.5492401  43.4189796  86.2097549  36.4372396  43.5868025
  85.0745106  35.6727290  42.9404879  83.7500191 134.9769623  53.9957571
  84.6824837 135.0773341  53.8042736  83.5667324 135.6486709  54.6526051
  80.9435368  43.6512566  34.5138216  80.7791138  44.5294237  34.1702747
  80.6418133  43.0629253  33.8216782  82.3420143  66.0062313  26.0047364
  81.5651798  66.5592718  25.9216118  82.6500702  66.1586809  26.8980956
  92.1171379  43.4659338  40.1404905  91.4273453  43.3926058  40.8000708
  92.4993038  42.5895071  40.0951433  91.4272499  68.8378763  11.7045546
  90.8685970  68.3156252  11.1288857  90.8146477  69.3457460  12.2365546
  85.2564621  46.3464355  24.8928928  85.6399536  47.0867968  25.3630328
  85.5821228  46.4367819  23.9973402  60.7431841  48.1950760  56.2124586
  60.5702782  48.3023024  57.1477842  60.2558851  47.4084759  55.9674454
  92.2035694  75.4127073  32.7715755  91.8485069  74.7587919  32.1694517
  92.4498844  76.1472178  32.2093892  82.2640038  50.6179142  32.8212118
  82.5385475  51.2772608  33.4584880  82.5359249  50.9743834  31.9755030
  55.7194996  19.8170257  24.4929671  56.1907530  19.5160460  23.7160730
  55.0704813  20.4342461  24.1552591  54.1672134  23.9441872  42.7005148
  53.5096455  23.9441943  43.3961010  54.7998857  23.2779598  42.9690218
  80.3293800   9.5674413  60.3579712  79.6205521   9.6901590  59.7265196
  81.1111832   9.4444966  59.8195457   3.5758906  71.0259724  56.0385609
   3.4128028  71.8289137  55.5436611   2.8750449  70.9996080  56.6899872
  49.0330648  30.6056952  46.7440891  49.9656487  30.8074617  46.6678715
  48.8355494  30.7329082  47.6720095  61.4125347  10.9131467   2.4470718
  60.9225321  10.2920985   2.9859856  62.3249817  10.6369305   2.5329804
 104.0471077 142.0088772  10.6574810 103.7947369 142.6938028  10.0382757
 103.2169914 141.6807319  11.0030973  50.0238657  16.6508245  28.9618611
  50.8470678  16.2082624  29.1685224  50.2609444  17.3010838  28.3006597
  85.5915737  68.1967640  86.0083016  85.9635830  68.0703545  86.8811473
  84.7244453  68.5688591  86.1691078  65.0509024  33.8972282  39.3394232
  65.0388527  32.9434395  39.2595792  64.4141769  34.0879798  40.0282097
  65.9885740  37.5734305  43.3770847  66.7567205  37.0504308  43.6065483
  65.2790260  36.9356489  43.2995987 121.9474125  30.7028770  42.7734470
 121.8545151  31.0443354  41.8840599 122.8461552  30.9203243  43.0208302
  95.6451797  32.9417777 105.5705720  94.8310852  32.8013492 106.0540643
  95.9486198  33.8030791 105.8574789  44.7674704  74.0434456  12.7322626
  45.6400156  73.7186098  12.9544842  44.7244310  74.9100828  13.1363928
  53.1563616  75.6378222  37.6503253  52.3812342  75.2621031  38.0677557
  52.9074764  75.7410097  36.7318273  78.2124710  31.8698263  15.8128202
  78.4874868  32.7109742  16.1776030  78.0684090  32.0474577  14.8833454
  74.4687510  52.6425934  79.3634033  75.0643110  52.7678680  78.6245918
  74.2647982  51.7074585  79.3507433  49.8856831  71.9141531  32.9633927
  50.1604557  71.0851336  32.5716567  50.7043600  72.3515224  33.1972909
  82.1888828  52.3627138  45.1157713  82.8771782  51.9256973  45.6172705
  81.7086887  52.8763437  45.7652569  85.3829479  57.2129297  98.0189499
  86.2038612  56.7761087  98.2459530  85.4120541  58.0412722  98.4977289
  60.1173735  61.7656422  99.2922958  59.3868876  61.6458035  99.8991408
  59.8468590  62.4935293  98.7326201  72.6354933  15.0056994  61.0906982
  72.9481459  15.9002948  60.9558725  73.3780622  14.4531405  60.8467674
  74.5753622  52.2307062  58.2871819  75.1794338  51.4881945  58.2893324
  73.7858057  51.8958902  57.8620577  84.4664001  16.0758924   9.3276405
  84.5615387  15.5581641  10.1271009  84.5820713  15.4440808   8.6179465
  76.8916655  35.8267450  44.5797110  76.7213917  36.4907169  45.2478313
  77.6998520  35.4009652  44.8656797  77.5663328  60.3882790   5.9609050
  78.3722734  60.4565763   5.4490161  77.2636318  59.4923830   5.8126557
  72.3677206  34.3639040  33.9838076  72.0316410  34.3521523  34.8799920
  72.7270699  35.2443027  33.8742948  89.7418404  64.5269060   6.0029233
  89.0953636  63.8529205   6.2127906  90.0980473  64.2613935   5.1550710
  75.1240969  18.6831343  72.3030981  74.3328905  18.3675766  72.7397331
  75.2793646  19.5474362  72.6840266  64.3820667  32.8447914  14.8969293
  65.1870871  32.3329043  14.9753392  63.6829805  32.1911001  14.8829365
 121.6504478  45.2865601  19.7221005 121.1132622  46.0680914  19.5922208
 122.5158310  45.5338860  19.3962634  58.9031553  65.8951521   9.2127150
  58.7084484  65.4194069  10.0201726  59.7629690  66.2865877   9.3667483
  68.2312584  18.7933123 105.9564170  67.3721361  18.9926970 106.3284265
  68.2174444  17.8466237 105.8156287  99.3098164  63.6242151  12.3425269
  98.9602470  63.2342815  11.5412831  98.7777233  63.2482290  13.0437720
  67.2358561  34.1628695  93.5844215  68.1125069  33.9560795  93.2604536
  66.9650126  33.3777642  94.0603265  85.7167339  66.9871235  12.7976251
  84.8290062  67.1663284  13.1075621  85.9088230  66.1057281  13.1177413
  72.0322418  33.9809513 103.6560919  72.9424572  33.7704897 103.8645264
  71.6327572  33.1363797 103.4478977  57.3941898  16.6655385  45.8706617
  57.3693943  17.6206243  45.8121204  58.1987906  16.4759660  46.3532734
  82.9702377  67.2342253  16.2564111  82.1435165  67.0304632  15.8190942
  82.7127075  67.7117729  17.0449913  60.0281000  42.6032782 103.2082709
  59.5338392  41.8759918 103.5864129  59.5201015  42.8643751 102.4401578
  91.6771793   8.6411768  93.8593193  90.9565926   8.0512381  93.6380681
  92.1977329   8.1543291  94.4982501  63.4198380  38.3201385  42.1384144
  64.0541220  38.9247561  42.5235748  62.5754356  38.6033893  42.4891043
 119.3408680  49.3709087   2.3147283 118.9451599  50.1598167   1.9442330
 120.2408504  49.6266508   2.5168663  67.2989368  16.2049425 105.8310168
  67.4534988  15.3285813 106.1836257  66.3898230  16.3982821 106.0598531
  62.5542545  73.5249233  90.4257806  62.9331541  73.1732559  89.6201762
  61.9372559  72.8521919  90.7138356  66.1926174   4.7679144  91.3592216
  66.2699795   4.8161250  90.4063710  65.3090048   5.0861144  91.5441867
  71.3315916  46.0540628   9.0894002  71.0276985  45.7235289   9.9347568
  70.5375576  46.3642120   8.6540252  74.3625879  40.3987646   7.7443963
  74.1948938  40.8215094   8.5866535  73.5284042  39.9918199   7.5103688
  74.5987225  34.3682408  95.8516940  74.5877552  34.3361139  96.8082913
  73.8995457  34.9812794  95.6246051 109.4224644  80.4120064  98.5027322
 109.7163200  79.5503712  98.2069751 110.0076771  81.0286522  98.0628570
  70.3547525  45.1836967  23.3867764  70.9256983  45.3767872  24.1303945
  70.9286737  45.2412176  22.6228809  68.6932611  27.2973585  11.9823039
  67.9786491  26.8886137  12.4706519  68.7152529  28.1998801  12.3004258
  94.7317410  42.1594286  11.6664028  94.9391842  42.0408010  10.7395124
  94.0157700  41.5460777  11.8320024 106.5015221  23.3816147  15.5814278
 105.9222507  23.0203199  14.9105024 105.9430885  23.4792972  16.3526845
  88.9308643  30.6668735  22.0726776  89.0515137  29.8064375  21.6710281
  88.2120895  31.0626292  21.5797639  98.9843273  27.0640707   8.0278975
  98.3915901  27.0949197   7.2769344  99.5753288  26.3357687   7.8367907
  92.3445702  44.2746973  18.4701133  93.0548573  43.6870241  18.2125068
  91.6898727  44.1765785  17.7787542 102.8441429  62.5933933   8.6167204
 103.4594822  62.8352737   9.3088776 103.3988190  62.3880911   7.8641164
  73.9245319  51.2739944  22.8475642  74.2923784  50.8125687  23.6012292
  73.1588078  50.7557964  22.5998378  82.9926300  52.2935581  27.4406958
  82.0639420  52.4840879  27.5729299  83.2002258  52.6895475  26.5943360
  91.3790417  72.5019932  34.1541481  92.0780563  72.3367643  33.5214472
  91.7487526  73.1476688  34.7563505  98.2645130  44.4032192  12.5100875
  98.6099720  44.0674400  13.3372176  98.9094162  45.0512838  12.2266459
  81.8601418  68.9806557  23.0761027  82.4503613  69.6369076  23.4465194
  81.3322067  68.6870241  23.8185954  85.6128120  51.6241503   0.5280547
  85.4120922  51.9328880   1.4115828  85.9780025  50.7488585   0.6573977
  69.9458122  75.5143499   1.6063297  69.9157381  75.6260872   2.5565103
  69.0791512  75.7875299   1.3054955  89.4771004  48.4120083  44.4514799
  88.5788918  48.6774731  44.6489286  90.0204849  49.0962601  44.8423243
  95.5560970  62.8213882  78.5337433  95.7198143  63.0388927  79.4514140
  95.5854511  63.6632395  78.0791434  67.9219341  79.6222401  19.6921229
  67.2790861  79.1841555  19.1343951  68.7052965  79.6908712  19.1463530
  57.0662355  53.2344198   7.3126823  57.0445871  52.3286438   7.0039159
  57.9614258  53.5253811   7.1388853 107.4597549  39.0079927  16.0271752
 106.9588661  38.2417512  15.7474875 107.8536129  38.7459898  16.8593168
  77.3862171  56.0601425  18.7722600  77.6366901  55.5198860  18.0228460
  78.1576109  56.5991163  18.9474511   7.1849661  58.2742405  40.1654863
   7.9745131  57.7371073  40.0996399   7.0167571  58.3385611  41.1055899
  78.0918646  70.0157690  29.8685932  77.5210667  69.9748325  29.1012955
  78.3733273  69.1112995  30.0062561  94.8995304  54.2004347  70.3590250
  94.0261459  54.5856094  70.4301119  95.2649784  54.2711115  71.2408924
  88.4070301  74.4180870 107.3971113  88.6511326  74.0726614 106.5384340
  88.4959412  73.6716223 107.9896625  79.1632700  49.7548199  84.4973692
  78.9740610  50.3666115  83.7859329  79.0472746  48.8890457  84.1059526
 115.3927040  71.7579031  92.9740807 116.2172508  71.8582249  92.4983820
 114.8387527  72.4658394  92.6451405  78.5088921  52.9002094  22.2535920
  78.0217743  53.0472040  21.4428258  77.9547071  53.2762241  22.9374957
  98.7086296  45.9266901  31.0464215  98.5029316  45.8237743  30.1172686
  99.2595005  45.1721334  31.2547851  87.3940468  62.8497267   6.2823856
  87.0576096  63.3534098   5.5412078  87.0408344  63.2933712   7.0535237
 108.2839108  53.6373377  71.2974501 107.9989910  53.8398027  72.1885490
 108.5792828  54.4764090  70.9439707  25.7269507  61.7829943  31.6064239
  24.9117308  61.3809109  31.3064504  25.5063372  62.7057266  31.7334175
  72.0487881  29.4508386 107.3339587  71.6268778  28.6386395 107.6142376
  71.8519497  29.5128107 106.3992678 107.2944832   5.8399600  58.6609372
 107.1042442   5.5568004  57.7665862 108.1050873   6.3433981  58.5854634
  62.1894264  66.6500330  29.0473342  61.8775702  67.5459623  29.1749811
  61.4393711  66.1860704  28.6753249  45.9405518  59.0636063  90.7733234
  45.6899929  59.7976112  91.3342961  45.6000757  58.2907295  91.2238403
  70.5523348  82.0845604  15.3873825  70.3385782  83.0171204  15.3578091
  71.3974428  82.0183372  14.9428129  80.2486038   9.9125141  33.2867837
  79.9332619   9.0566278  33.5770440  80.9166718   9.7119325  32.6312828
  69.9465275  31.1954522  12.8704047  69.2689133  31.2754416  12.1990848
  69.6590614  30.4624510  13.4147394  91.5571880  43.8981724  60.3238249
  91.9354248  44.6930265  59.9478197  91.5349197  43.2762861  59.5965052
  61.5644789  19.8314857  29.5437288  62.0654345  20.4785609  29.0471697
  60.6957817  20.2222204  29.6382117  87.7925682  34.7176051  38.8592601
  87.5500488  35.0088477  39.7382307  86.9568825  34.5553851  38.4216022
  37.5581193 146.2075341  16.7547584  38.5129309 146.1416752  16.7699134
  37.2654510 145.3653956  16.4063621  62.6752996  91.8766022 105.5789869
  61.9555902  92.2554779 106.0836669  62.4996185  92.1407413 104.6758833
 119.2780495  31.1775041   3.6583742 120.0089836  30.5824828   3.4913152
 119.2591190  31.7540145   2.8944972  74.9630070  36.3745236 107.0449963
  74.6310711  36.0987616 107.8994011  75.3100681  37.2538352 107.1953001
  85.4146576  47.2062159 108.5458817  86.1011314  47.1727562 109.2121188
  85.5119324  46.3870192 108.0604037  71.4033031  18.7354505  69.3481454
  71.0086203  18.0047071  69.8240360  70.6596851  19.2036235  68.9685639
  56.4451075  81.9260788   9.6890295  57.3856926  81.7741680   9.7809899
  56.0407734  81.1098576   9.9831861  63.8064575  62.1524572 100.0528016
  64.2635107  61.5323687  99.4846245  64.0217829  63.0121899  99.6912380
  90.1274014  59.0640545   4.3790209  90.3476429  58.9568186   3.4536967
  89.1705799  59.0845728   4.3966639 116.8740749  53.7881136  18.7505364
 116.0483932  53.9048767  19.2204750 117.2785759  53.0249166  19.1630173
  88.4572983  25.5989337  15.2234113  88.3813858  25.5818558  16.1774433
  87.9068089  24.8744130  14.9263287 103.2819366  49.3197536  11.2442827
 103.1580353  48.7120581  10.5151820 103.0223370  50.1714611  10.8929586
  78.8317728  54.8714972 100.4935118  78.7765932  54.3332005 101.2830838
  78.9612055  55.7621574 100.8194079 113.5358524  85.0664139  25.0809574
 113.9202213  85.8588886  24.7061634 112.6664162  85.3379631  25.3751779
  69.1653681  42.3246622   4.7525695  69.7722483  42.8604317   5.2633303
  69.1818619  42.7122736   3.8775173  40.8661366  51.8850946  40.7179594
  40.8490849  52.7595043  41.1069870  40.4579210  51.9969082  39.8594213
  68.4151936  94.6146965   9.3142849  68.8775635  95.4526424   9.3315333
  67.4985552  94.8437309   9.4677567  30.5140877  76.6750717  23.0737853
  30.4388857  75.7397509  22.8847075  30.7841969  76.7129898  23.9913011
  68.4392405  37.4536467 106.4128136  69.3030357  37.0477629 106.3397100
  68.2531023  37.7808571 105.5327468  72.7710676  39.7201586  96.4532431
  72.9434013  39.5279217  95.5315169  73.5634136  40.1624393  96.7578753
  89.0743351  46.7478132  41.8546820  89.3484879  45.8374786  41.9658804
  89.0434265  47.0990515  42.7445745  90.2105141  97.5570107  18.4059620
  89.3128395  97.4416065  18.7175441  90.7563877  97.2386360  19.1249180
 111.3100719  13.7604713  90.3696760 111.4374161  13.2469285  89.5719989
 112.0613384  14.3530667  90.3955086  36.4978909  55.8086967  96.7198678
  36.2459564  55.2085495  97.4217137  36.0811114  56.6382694  96.9529673
  62.6768780  74.4397402  82.4239167  62.0325851  75.1174831  82.2195061
  62.6861334  74.3986845  83.3801922 103.7144852  58.5477304   5.4513043
 103.7331963  58.1889391   6.3385201 102.8307533  58.9026976   5.3550816
  91.2482357  22.5750995 104.1256734  90.3081322  22.5633478 104.3053945
  91.3272762  23.0424070 103.2940432  83.3959484  85.2020931  33.8087749
  83.5039234  85.1663303  32.8583574  84.2338181  84.8968410  34.1566682
  42.4193192  23.4649801  35.9731913  42.7588606  23.2610583  35.1017761
  41.5968418  22.9785919  36.0296273 111.3777733  13.1687129   7.4708283
 110.6507683  12.7039886   7.8852260 112.0118999  13.2987905   8.1759512
 115.7630539  43.8333416 104.8205384 115.8112717  42.9612446 105.2121367
 115.7664871  43.6727047 103.8769200  77.9347897  84.1603756   4.1863820
  78.2055759  83.8660526   5.0560266  76.9959879  83.9766312   4.1528907
  71.4134502  40.5081749  54.3925238  72.0555925  40.0349569  54.9216270
  71.6949272  40.3643942  53.4890127  75.6223965  72.1310282  27.0589995
  76.1531162  71.3702202  27.2950840  75.9167862  72.3645496  26.1786413
  55.5581856  81.6104889  98.3473285  54.8102713  81.3587379  97.8055962
  55.3149700  82.4620247  98.7105867  70.9197950  74.9957561  37.7934480
  70.5648851  74.9904823  36.9044924  70.1779985  74.7561646  38.3489275
  52.7171135  58.0466080 105.0292980  52.1735430  58.8104010 105.2226397
  52.2140121  57.3038816 105.3631850  61.2641239  35.3792572  97.1947905
  61.6944599  36.2188506  97.3564287  61.0011053  35.4180360  96.2752529
 104.1930580  41.5683174  10.8151150 104.7771072  42.2043657  11.2281024
 104.4874001  41.5284300   9.9051660  70.8172035  19.5207870   4.0841958
  69.9486923  19.1366911   3.9642453  71.4236784  18.8281751   3.8220716
  81.1705208  72.3598957  15.3186131  81.5867996  71.6770983  14.7925568
  81.2847137  72.0683765  16.2231624  90.5819225  50.6280994   2.1475436
  90.0472641  51.1823559   1.5790696  89.9499321  50.1871252   2.7153024
  68.0620623  48.6594343  37.8489947  68.2332850  47.8993416  38.4050274
  67.1752024  48.9328051  38.0834723  99.0869904  55.0763512   3.8250586
  99.8981380  55.5813932   3.7684414  98.7954235  55.1920795   4.7293946
  86.6985798  59.9759817 106.2891068  85.9103966  60.4714823 106.0666701
  86.7704201  60.0546026 107.2403636 107.6290894  52.9986238  73.9838076
 107.1151924  53.1781864  74.7711420 107.1172619  52.3447418  73.5076761
  58.5874557  36.2840581 107.2323569  58.5754108  36.1069226 108.1729468
  59.2816830  36.9333696 107.1197876  93.5202789  54.5328903  97.1112045
  94.3396759  54.8851728  96.7637523  92.8625011  54.7658682  96.4560136
 105.3807831  57.3405933 100.2357485 105.3884792  57.2567701  99.2822560
 104.5214081  57.7111578 100.4366817  73.1691551  89.6995831 104.8413565
  73.9577055  89.9229527 104.3468615  72.6876736  89.1033363 104.2678555
  87.8419495  69.2957830   7.5543422  87.3456097  69.6939850   8.2694024
  87.6973343  69.8784924   6.8088442  60.9779167  51.7815828  33.4232068
  60.9977102  52.6329708  32.9861975  60.1039886  51.7313910  33.8104534
  91.8660164  47.4036455  41.5080452  91.1572170  47.5065136  42.1430635
  91.5108109  47.7584171  40.6930637  77.6060295  77.7340364  24.7967649
  77.2210693  77.9933786  25.6338930  78.3166695  77.1383572  25.0342298
  81.1757088  52.5455189  16.2717521  81.6841793  51.7510891  16.4347434
  81.1375523  52.6139545  15.3177655  59.7634506  44.6360588  90.2168783
  59.2698336  45.4209328  90.4546698  59.4905233  43.9784765  90.8566662
  40.4266214  61.7845392   5.9193617  41.0113907  61.0523415   5.7240045
  41.0038519  62.5468206   5.9637070  91.9511700  65.6216812 107.2155609
  92.0203018  65.9631920 108.1070896  92.3016930  64.7327423 107.2717466
 113.6005402  38.2011580  37.4198246 114.0590763  38.8991547  36.9520879
 113.2762432  38.6200023  38.2170892  77.4049330  41.3671780 106.9224303
  76.8413639  42.0772743 107.2296520  78.2432652  41.7901039 106.7364963
  96.1098480  40.8041096 101.8702456  96.5974903  41.5134621 102.2888865
  95.5467987  40.4590416 102.5631579  38.9734626   3.2404792  13.6433530
  38.1648898   3.7430778  13.5441744  38.8124084   2.4299148  13.1603646
  40.4565859  72.4438381  10.4116178  40.4466772  71.5106964  10.1985908
  41.2941027  72.5794601  10.8547890  53.9499760  27.9225755  21.9978452
  54.4405365  27.7760458  21.1890745  53.5746288  28.7971115  21.8952036
 103.4558392  39.7981620  26.3925362 103.1358528  40.5850554  26.8337202
 103.2116890  39.9217987  25.4752922  59.8689413  29.1385579  19.1231644
  59.4015741  28.4801722  18.6090350  60.2199221  28.6541128  19.8703992
  85.5149174 114.1739559  12.7106130  85.7878017 114.0510845  11.8014002
  84.5608425 114.1006088  12.6863337 113.9171314  61.6006374   9.7953916
 113.2277298  62.0894432  10.2448678 114.7201538  61.8375492  10.2593541
  87.8178883  42.2215271  13.4473979  87.1435833  42.5330496  12.8436601
  88.4194279  42.9607248  13.5367012  82.0602131  76.6246128 104.2177477
  82.0905018  76.3314915 103.3070364  82.9113197  76.3754654 104.5779797
  82.7657986  50.6467152 107.8728422  83.1287670  49.8714924 107.4444541
  83.5003853  51.2583113 107.9236458  86.9022083  69.5826912  38.2852387
  86.7157936  68.8681412  38.8942575  87.5656891  69.2267084  37.6942158
 116.6113853  31.2022400   3.8530284 116.4573097  30.2859712   3.6229360
 117.5590420  31.3125587   3.7755120  78.6247683  65.4083395  19.9879026
  79.2874861  64.8674011  19.5584631  78.9417648  65.5078697  20.8855867
  87.1377850  95.0743866  77.1760567  86.2713718  94.7397518  76.9446024
  86.9888973  95.6025600  77.9603299  33.3802962  67.2946596  39.9968529
  33.8067603  67.7730227  39.2858458  32.4443102  67.3811150  39.8160601
 106.1149883  55.6818676  94.0551945 105.7639980  56.4346838  94.5309123
 105.8068275  54.9217939  94.5487055  36.4435339  65.6481838 109.8011489
  37.0772409  65.1993036 110.3607520  36.8251348  65.6046200 108.9243853
  55.4644156  72.8473425  25.3346872  54.9649143  72.6854801  26.1350179
  54.9883032  72.3707390  24.6546888  98.9660263  40.5618000  62.4785519
  99.8306370  40.4113483  62.0963907  98.3603764  40.1235819  61.8807411
  60.3915405  84.1250420 101.7196091  60.7443047  83.9793301 102.5974234
  61.1285257  84.4775391 101.2207802  87.8918362  44.9364758  18.1814969
  87.0792675  45.4413176  18.2146060  88.4730530  45.4543734  17.6245344
  83.1180096  35.1987386  37.7434921  82.4288845  35.8629990  37.7332282
  82.9356575  34.6765041  38.5246778 118.6710453  81.4865685  19.1864634
 119.2751694  80.7637119  19.3560231 117.9454803  81.3396740  19.7932601
  73.9892673  70.1573181   3.6370897  74.2813349  70.5022812   2.7933317
  73.1647778  70.6120539   3.8093197  84.7324657  39.4125009 101.8278917
  84.2197132  39.8246551 102.5231924  84.0786362  39.0299463 101.2427535
  72.1906090  42.7408981   2.7124619  72.0205259  42.3445415   3.5669822
  73.0499506  42.4040127   2.4589527 104.0287685  33.2332468 104.1262796
 104.3473339  33.7893701 104.8372474 103.2977962  33.7224579 103.7486859
  42.7768517  19.7327304  47.0405769  42.8112411  19.1173208  47.7729177
  42.6046181  20.5812740  47.4486732  91.0104752  59.2308283  48.0634594
  91.1549377  59.7021866  47.2429800  91.2701225  58.3298445  47.8709936
  57.5884914  67.7429438   2.5205564  57.9083920  67.0682669   3.1194812
  58.1442976  68.5021973   2.6961857  95.0107193  33.7909722  27.0878124
  95.5513096  34.1646409  26.3918543  94.4717312  34.5216441  27.3908710
 111.2576008  42.1388912  22.7117324 111.2607098  41.5668583  23.4791970
 110.9551525  42.9840279  23.0441546  46.5411806  21.2118983  40.4833126
  46.7438889  21.8575907  41.1602354  47.2181988  20.5422640  40.5806351
  82.9788303  63.2612467 107.5071164  82.5743675  62.7399063 108.2005476
  83.5328102  63.8887644 107.9714040   2.7802115  15.3381169  31.9209695
   3.3515101  15.8579874  31.3556504   2.4246340  14.6614218  31.3448811
  88.1797314  49.5863247  19.2870235  87.9697609  50.5166435  19.3686068
  89.0820026  49.5161915  19.5988226  70.5847216  47.9676580 109.2018549
  71.0371161  48.0298233 108.3606016  69.8601151  48.5890293 109.1306294
  81.3661385  41.5681458 105.9647852  81.1352444  40.6415987 105.8982631
  82.2680378  41.6136217 105.6473731  58.6284924   9.3017846  29.5824099
  58.3778572   8.3948636  29.7582102  57.8335953   9.8072129  29.7524333
  44.9459219  39.9950266  12.8169143  44.4195890  40.6667423  12.3833239
  45.7900190  40.0243902  12.3664999  84.4213676  71.2726688   2.2667187
  84.0836430  72.1406651   2.4875407  85.0874805  71.4374924   1.5993658
  77.4123049  56.1238384  11.5176404  78.0714560  56.5370941  10.9599900
  76.8335533  56.8410778  11.7761862  95.6946850  61.4365005  62.6298380
  95.8097458  61.5284061  63.5756445  94.7505760  61.5174866  62.4944258
  88.9563751  93.8671684  23.5571480  88.6650753  93.1611443  24.1341281
  89.0938187  93.4429932  22.7101469  69.2378759  68.0334139  18.2457507
  69.0888596  67.6251268  19.0985835  68.6603355  67.5581074  17.6484585
  91.8660164  66.2662029  96.8108472  92.2216129  65.3789282  96.8610188
  92.5743675  66.8264246  97.1280440  55.3215742  56.2985754  33.9775610
  55.8896112  56.6591597  33.2967234  55.9150219  55.8186102  34.5552206
 114.8179150  27.8474426   8.6744779 115.0129223  26.9152117   8.5788232
 115.1930904  28.2521009   7.8923458  99.4831371  99.6507359  19.1414928
  98.5659695  99.8410511  18.9445174  99.8470497  99.3413162  18.3119977
  75.8883810  59.6040392   8.0361438  76.7138100  59.4332743   8.4897268
  76.1494064  60.0006866   7.2050190  64.9754906  72.0242119 108.0745975
  65.7837486  72.5367641 108.0900004  64.4116306  72.4847651 107.4531586
  58.4336185  45.9497023 104.5406791  58.9353800  46.0419512 103.7307658
  58.9876413  46.3474941 105.2122846  75.6008720  43.3995914 107.1082585
  75.5262423  43.9811993 107.8648286  74.6961546  43.1850481 106.8809148
  52.8397417  43.7912941  39.5711255  53.2862473  44.1309595  38.7955666
  52.2495508  44.4968319  39.8359442  87.7733326  31.0148239  13.3575535
  87.2721767  31.1312079  12.5503778  87.2043133  30.4882407  13.9189434
  65.9003353  51.0087729 108.7129123  66.6039991  51.6282177 108.5195794
  65.1682663  51.5578747 108.9936160  61.9959164  40.9421921   8.7025726
  62.5484371  41.6754770   8.4319222  61.1237717  41.1670828   8.3785093
 112.5612164   4.6267331  16.2395775 111.6532707   4.3240547  16.2556505
 112.9065895   4.3039635  15.4072511  94.6641445  61.2960243  24.9724913
  95.6176376  61.2564087  25.0467730  94.4003868  60.3940058  24.7907758
  11.9056731  15.3564620   2.8587091  11.4389353  15.0370955   2.0864479
  12.6393061  14.7504985   2.9627776  70.9372902  79.4269037  97.1948012
  71.1320972  78.9405107  96.3937374  71.4350653  80.2399158  97.1084019
  63.5196114   8.5856646 102.2445049  63.8922787   7.7551889 102.5405838
  64.2337132   9.2159796 102.3393425  85.1889706  19.9074650  94.9298807
  84.9575329  20.2984166  95.7723924  84.6917343  20.4127479  94.2867061
  76.5790129  48.3888578 109.2274131  75.9844828  47.6392221 109.1988894
  77.4256659  48.0139780 109.4700614 100.5788994  55.0926065  13.2572079
  99.9572945  54.4167280  12.9869676 100.5823326  55.0463772  14.2132843
 103.7420177  53.7849808  93.4415301 104.5545769  53.3308697  93.2184442
 103.1447506  53.5735941  92.7240225  70.6341791  60.9540892  13.0490804
  70.7997274  60.3167295  13.7437737  69.6851635  60.9330797  12.9259419
  70.8328724  32.0519495  18.4171748  69.9573278  32.4387884  18.4143198
  70.6954622  31.1462522  18.1395698  70.6982660  71.8551970  27.5491500
  71.2645531  71.6380453  26.8086123  70.7865381  72.8031492  27.6482606
  68.8904190  34.5277381  17.3019421  69.6125317  34.7551417  16.7162204
  69.1152716  34.9460912  18.1329978  89.6887684  47.6518631  82.5157547
  90.6095505  47.6528358  82.7772522  89.2378426  48.1097889  83.2251263
  79.1182756  22.1109891  87.7486610  78.4454679  22.1319342  87.0681286
  79.9007320  21.7877054  87.3020172  84.6593380  65.0134134 108.9670944
  85.5728245  64.8458958 108.7353230  84.4770813  65.8825159 108.6097717
  67.9725742  60.7370234  12.5763742  68.0306244  60.9385633  11.6424409
  67.1770239  60.2111769  12.6589338  50.3866482  41.2750483  89.5673275
  50.5976820  41.6428328  88.7091732  49.4772196  40.9872913  89.4875145
  76.0364342  28.1704664 103.8263607  75.8219099  27.3944950 104.3441296
  75.8264399  28.9070392 104.4004726  49.9952412   7.1151912   6.3421480
  50.0224495   7.7908272   7.0196477  50.2037668   7.5800490   5.5318013
  71.8431902  21.6672873  97.5101280  72.0620728  22.4203205  96.9612503
  72.5345278  21.0303354  97.3296452  84.6142673 145.4364982 102.4135017
  85.5334377 145.6768864 102.5300217  84.6281338 144.7559721 101.7405033
  68.4867907  27.4552655 107.0919514  69.2832327  27.1131635 106.6859055
  68.7107134  27.5475860 108.0180073  47.4933004  19.5314908 107.0346355
  46.9364214  20.1869249 106.6144848  48.0135441  20.0284386 107.6659966
  48.3096552 143.5905854  69.5253181  48.8435555 144.3570132  69.7345400
  47.8444386 143.3935911  70.3383350  72.2091055   5.1230538  69.0486813
  72.0010281   5.3437167  68.1408024  72.8760958   4.4397223  68.9822483
  66.7336655  23.3268642  96.0980415  66.4578724  24.1781235  96.4379311
  66.1821461  23.1861353  95.3284645  92.4722672  44.5095348  96.1339855
  93.3595848  44.2256403  95.9141731  91.9156361  44.0804815  95.4841423
  86.5993214  36.8945765 101.4410973  86.5153980  36.4635873 102.2916508
  85.8113194  37.4328327 101.3665485  66.5667486  27.9515028  22.4546472
  67.0577621  27.9236960  23.2758466  65.8992910  28.6226130  22.5972883
  75.2999640  50.7109690  67.0788336  75.0168419  49.9680424  66.5457916
  74.5578194  50.8875608  67.6569939  66.4467573  28.9332104  16.1571637
  66.3049459  29.7465897  15.6728784  66.5589619  29.2120123  17.0659677
  73.6530113  42.8618479  89.9880695  74.6026754  42.7419901  89.9868011
  73.4573698  43.2336426  89.1279984  89.3691730  56.4185429 104.3424511
  90.2593708  56.5920973 104.6484852  88.8063240  56.8444633 104.9889851
  62.1597672 139.9679203  24.8435441  61.8289661 140.7400478  24.3846074
  62.2089243 140.2372337  25.7607595  69.7916222  12.4891508  93.0095005
  70.7092571  12.3443854  93.2402039  69.6712255  12.0064545  92.1917343
 105.6459904   3.9557177   0.6551305 105.0530815   4.7069147   0.6750146
 105.9755421   3.9344200  -0.2432975  72.0649099  23.6113119  99.6464825
  72.4944210  23.0913448 100.3257370  71.9066906  22.9914236  98.9344883
  96.4231300 140.3400803   2.5501291  96.8824100 139.7625096   1.9404546
  96.0247231 139.7474081   3.1875078  97.3123264   8.1393391 100.9462261
  97.4162579   7.7563953 100.0751495  97.9322815   7.6586533 101.4947033
  75.0711823  36.3706970  83.0227661  74.7467756  37.2615123  82.8907108
  74.3029737  35.8144403  82.8936768  69.5401287  12.2726011 100.6295681
  69.8384714  11.6928184 101.3303375  70.2381086  12.2366655  99.9755287
  62.8556013   8.6733675  63.7732935  62.0095348   8.9396650  63.4134483
  62.6902485   8.5501927  64.7080231  79.4630289  11.7616332  16.6893331
  78.7172413  12.3381293  16.5229455  80.2024555  12.1985483  16.2667409
  81.1809254  39.2994380   9.1908304  80.6979275  40.0586271   8.8643590
  82.1015739  39.5493555   9.1121999 106.0199070  21.1380029  65.1008606
 105.1674843  21.4951968  64.8518372 106.2065983  20.4769373  64.4342470
  97.7172375   4.7054005 103.4650326  98.3232975   5.3688389 103.7948322
  96.8559837   5.1195377 103.5194969  91.8406200  32.1419191   8.1266729
  92.7836227  31.9780898   8.1386415  91.5120220  31.7073846   8.9137117
  89.6009731  57.2788954  86.3642406  90.5366135  57.3899031  86.1954689
  89.3358994  58.0944204  86.7895412 119.2177105 133.8413412 107.1398640
 119.9126339 134.2005820 106.5882778 119.4460201 134.1221482 108.0260181
  85.1010704 144.6256445  14.8309461  85.9137058 144.4001413  15.2837220
  84.9277782 145.5315834  15.0868264  57.2873926  19.1103029 101.0463524
  56.8110704  18.7167466 101.7774200  57.9428530  19.6708393 101.4615726
  91.2060356  27.3425841  70.5103683  90.9908867  26.6992807  71.1857271
  91.5893459  28.0759192  70.9915400  64.9322605  20.2063251 101.5899849
  65.1505518  19.4497716 101.0457325  65.0820160  19.9073565 102.4868774
  67.2427797 134.2708440  74.6656036  66.4916897 133.6890156  74.7820902
  66.8956089 135.1467974  74.8341465  78.6195421  10.1552618  22.7374498
  78.7562704  11.0270023  22.3664991  79.4790745   9.7368300  22.6889840
 120.9014034   9.6970671  30.6605569 121.1032200   8.9091718  31.1652509
 120.2835751   9.4014555  29.9918786  69.8655796  10.9646893  30.7873384
  70.2900696  10.1754856  30.4508916  70.4460287  11.6792011  30.5250684
  65.2163792  38.6748958  72.3372984  65.1239538  37.8180408  72.7538204
  64.7913361  38.5742736  71.4855719  84.4093895  51.1468410  84.1096878
  84.4618320  50.8191442  85.0075150  84.9073124  51.9642210  84.1235828
  13.7082987  23.4023237  92.4523354  14.5317393  23.5471463  91.9862747
  13.4094649  22.5447750  92.1497822 106.6431332  12.1121526 107.9479313
 107.5875950  12.1717465 108.0917168 106.3454533  13.0217457 107.9317665
  63.3250952  49.3409443  74.0913200  62.4708128  49.6425438  73.7823391
  63.6932945  50.0951862  74.5515251  60.2313662  24.7509241  85.5430412
  60.2865171  25.7045078  85.6052303  59.3268585  24.5472932  85.7810211
  94.5015144   4.0187719   9.2119829  93.6230183   4.0927571   9.5848218
  94.3695259   3.5751852   8.3741037 108.5175419  43.2268286  98.1174564
 108.4258747  43.5506344  97.2213650 109.0103149  42.4110889  98.0281162
  81.4505672  41.8505049   6.4204542  81.0460758  42.5198603   5.8685628
  82.1343422  41.4678812   5.8706514  51.3673115  41.0317707 100.3536129
  50.4843950  41.2337875 100.6632519  51.8088341  41.8803358 100.3185558
  73.4952259  31.9489455  27.6766340  73.4136152  32.8043294  28.0984060
  74.4372749  31.7804480  27.6570741 116.3987732  27.2970319  80.7480717
 117.2015190  27.6884699  81.0924625 115.6935883  27.7558708  81.2045860
 105.8993244  60.3977489   9.4089166 105.8797836  59.4921398   9.0995351
 106.1539841  60.9080362   8.6401502  49.2977285  21.4464784 104.7495651
  48.9315557  21.2634850 105.6148148  49.3119764  20.5959129 104.3107414
  58.1484127  36.3188267  93.3040810  58.6840487  35.7429576  93.8497066
  57.2487640  36.0368705  93.4694958  34.8542094 140.0193752  72.7960634
  34.2821932 140.6711520  73.2012987  34.6996188 140.1161838  71.8564034
  80.7150269  81.0212708  75.7364702  81.5228462  81.3184071  76.1552477
  80.2331161  80.5768490  76.4339590  88.1938839  12.3463714 100.3539753
  88.3744907  12.8421247  99.5553207  88.9897346  11.8362367 100.5043507
  62.2149897  12.7454555  98.7309647  61.7384720  12.0932436  98.2173634
  63.0815506  12.3606002  98.8620758  53.1199837  22.7332950   3.4732286
  53.0201530  22.8451872   4.4186155  52.9551983  23.6035681   3.1103174
 101.8744469  64.9549675  71.3926029 102.5884914  64.3175364  71.3996887
 101.1297131  64.4845486  71.7671824  35.6004190  18.0665123   5.8063451
  36.3390851  17.6515973   5.3608648  34.8301578  17.7648079   5.3247777
  45.6473541  33.1546831  78.9468098  45.6614733  34.0382481  79.3147039
  44.7429752  33.0293369  78.6593819  59.5015049  30.1283360  34.5641652
  59.8303127  29.9307251  35.4411260  59.2817831  31.0594678  34.5949403
  42.4321461  -0.0078989   1.1247674  42.7027559   0.8251455   0.7387105
  41.7004728   0.2203103   1.6981832  85.2628899  12.4908984  98.9846706
  84.7521305  11.9482422  99.5853996  85.7967567  13.0431736  99.5558262
  82.8618336  23.6974859   5.2945463  83.8161278  23.7172484   5.2226964
  82.5775528  23.1534696   4.5600644  56.6673708   7.1827275  79.7925043
  56.7421341   7.3941398  80.7230663  57.2070265   6.4001191  79.6805811
  96.5690804   8.1954527   4.9443570  96.4160252   7.9767299   4.0251390
  96.2693024   9.1006136   5.0283090  52.0847940  15.0444865 106.5808105
  51.9789600  14.6737397 107.4569225  52.3743391  15.9437788 106.7346573
  50.2165747  71.0526180   9.9670736  50.6865311  70.8066940   9.1702787
  50.5764246  70.4794025  10.6439534  88.5211658   6.0395771  91.4963818
  88.4506702   6.6096449  92.2620773  89.3100739   6.3405561  91.0455132
  80.9583855   4.2909253   4.3626348  81.6685772   4.9299783   4.3036310
  80.7228374   4.2795965   5.2903310  51.9623470  36.5004539 107.0942688
  51.4182091  36.6737247 106.3260746  52.8488779  36.7313719 106.8168354
  94.1464615  70.1533079   4.4971219  94.9639320  70.6396008   4.3899289
  93.8028908  70.4454994   5.3414003 124.0826035  28.6063576   5.3367750
 123.7211990  29.4671845   5.5479566 124.9782276  28.6334467   5.6734601
  89.0970039 132.3967881  96.6904831  88.9412785 133.2606632  97.0721912
  89.4255161 132.5795777  95.8101940  92.7465916  27.5302887  11.4161054
  93.6889935  27.6418042  11.2909166  92.6669407  26.7296267  11.9345895
  59.8644686  25.4170275  92.6865292  58.9860582  25.6178188  92.3635578
  59.8891878  24.4613767  92.7350140  88.8489914  36.0046554 104.9693680
  89.2260456  36.6216350 104.3421555  89.6002102  35.6760979 105.4632854
  63.3959723  11.4049900  55.2966976  63.3864260  12.1631753  54.7124958
  63.1943464  10.6618929  54.7280312  34.8852301 123.8227982  94.6516418
  34.6345782 124.6104927  94.1689968  35.2210617 123.2278270  93.9812183
  75.2394629  50.7513571  20.4634229  74.6949339  51.1813736  21.1228219
  74.8020363  50.9380865  19.6327535  69.8289442  21.1487389 101.3169384
  70.5368137  20.9498310 101.9297886  69.3675852  21.8867803 101.7152691
  56.6118622  15.1269090   9.6011106  55.9769917  15.8265519   9.4472734
  56.6245699  14.6307838   8.7826196  97.3309422  63.3975983  61.6929579
  98.1499767  62.9286814  61.5331602  96.6772079  62.7071381  61.8030834
  57.8314114  23.5249996  85.9493923  57.2424603  24.0086389  85.3701973
  57.2608662  23.1766391  86.6344833 113.1874752  38.4768057  74.2570877
 112.3422050  38.6895752  74.6526718 113.5794640  37.8418803  74.8566198
  95.3934193  50.9612846   7.3086110  94.5402527  51.1718607   7.6880781
  96.0256577  51.3743544   7.8967229  53.0653620   4.9579650  94.3117237
  53.5208797   5.5222279  94.9365044  53.5322571   4.1236323  94.3578911
  71.9591761  64.4058323  14.4707719  71.7403173  64.6089935  13.5613386
  71.1386633  64.5295048  14.9479524  63.1517553  26.4047551  96.3334274
  62.9313517  27.0394492  97.0152092  62.4768877  25.7299614  96.4071846
  82.9120731  46.4335966  80.3136158  82.7507210  45.6695366  80.8671570
  83.7880611  46.7287254  80.5621433  93.7322521  18.8661075   7.0056478
  94.6466160  18.7169588   7.2463170  93.5709190  19.7817135   7.2333947
  99.2744350  49.2342377  74.4206905  99.3232059  49.7659063  73.6262226
  98.9444542  49.8335934  75.0901031  58.3178139  30.8538556  92.0730114
  58.4043360  31.2018824  92.9605007  59.1514826  30.4142213  91.9058228
  47.6239729  63.5694265  92.0666981  47.5837231  64.3391609  92.6342487
  47.5350428  63.9203024  91.1805725 101.9708920 138.7320001  14.1975156
 102.2716141 137.8280754  14.1041318 101.3144207 138.6953689  14.8931733
  56.3382435  17.8112960  73.4164143  57.1597862  18.2085943  73.7052965
  55.7815361  17.8192687  74.1950321  44.9028063  44.1322994  97.9686928
  45.6532478  43.8044453  97.4731350  45.2884769  44.5519829  98.7376976
  64.1521120  60.1030159 101.8682480  64.0486526  60.8677959 101.3019943
  65.0663137  59.8429823 101.7548847 100.8053017  63.8667393  97.4053001
 101.5523624  63.2782269  97.2967339 100.9694672  64.3112707  98.2369709
  55.6583643  30.8967400 104.6675777  54.7269726  30.7431436 104.8261642
  55.8938646  31.5936589 105.2800083 110.7258320 108.8416714   7.3798219
 110.6506729 108.4213705   8.2365171 111.3026810 108.2643885   6.8796007
  80.4831505  26.2363839   3.9062539  80.5322456  26.7749023   3.1164304
  79.7314644  25.6624746   3.7584821  78.8405657  58.4109688   7.7504293
  79.2837524  57.6684856   7.3398916  78.7300205  59.0453529   7.0422117
  83.9035416  33.8908982 100.9914017  82.9479790  33.8672328 101.0421753
  84.1858196  33.0772996 101.4092636  62.5995588  38.2005262   8.6999170
  62.2564554  39.0941072   8.6946336  63.4236479  38.2575250   8.2163278
  60.4788923  40.5366611 108.1328678  59.8909569  41.2843227 108.2403851
  61.2544680  40.9012222 107.7064705  98.5855103  45.3316975  87.9140568
  97.7574062  45.7228374  88.1924152  99.1651344  45.4356956  88.6686707
  82.1036339  15.0962222  93.1328583  82.3925114  14.8745489  92.2476292
  81.3703537  15.6973982  93.0020142  95.5190086  20.0070477  77.2449923
  96.3516998  19.8913467  77.7026701  94.8547363  19.7753358  77.8940582
  73.8645315  43.9392471  95.6353664  74.2731428  44.4023752  94.9040794
  74.1044855  43.0222321  95.5021954  64.2318058  17.9230487  15.6840555
  64.9471140  18.1741548  16.2684480  64.6672773  17.5309110  14.9272100
 100.0511742  14.6971369  83.0860615  99.6561146  15.4232836  83.5686398
 100.8409500  15.0708675  82.6951599  80.3376770  56.1858606   6.6468183
  81.0525036  55.5536413   6.7213098  79.5545721  55.6916046   6.8890802
  89.5991039  17.0196676  99.9893570  88.7700653  17.0792711 100.4641056
  89.9272442  16.1430311 100.1895142  34.5272279  31.5485001  78.2179165
  35.3633237  31.6349387  77.7599812  33.9268088  32.1107721  77.7284479
  53.0783987  70.2951097  40.6662313  53.7793922  69.6815681  40.4462091
  52.2719717  69.8133039  40.4824582  77.0050573 143.2103855   0.9562150
  77.3340082 144.0224678   0.5707971  77.1708441 142.5442941   0.2890817
  83.9575195  47.2160864  98.4672165  84.3622112  46.5399837  99.0106678
  84.1713524  48.0380344  98.9086914  57.8416872  36.8573546   7.9526655
  58.3679152  36.3707948   7.3181764  58.4683323  37.4307156   8.3940355
  47.8809881  20.2536058  82.0879459  48.5362101  20.2177238  82.7848148
  48.2582855  20.8426213  81.4345360  73.5282373  19.5636630   2.2318498
  72.8689241  19.4242322   1.5520803  73.4372377  18.8080442   2.8123609
  84.4102383  40.6948805  13.8863603  84.1966152  41.5349245  14.2924730
  83.9119148  40.6903267  13.0691186  84.6373272  11.3705683  94.6550465
  85.1067066  11.8048906  93.9428139  83.9055252  11.9555140  94.8513603
  53.4641409  11.4737475   1.8779508  52.9516983  10.7710183   2.2777120
  54.3528891  11.1221504   1.8256608  78.3840942  23.6348653  96.2183762
  77.6459265  24.2314744  96.3424778  78.9893961  24.1167450  95.6547928
  63.5909367  52.7758121  42.5808469  63.4688616  53.6835670  42.8589097
  62.7669239  52.5435877  42.1527139 104.7929764  26.0499287  34.8912565
 104.3517113  26.4057398  35.6625692 104.9506187  25.1310372  35.1081029
  49.5895052  43.9901495 104.4070816  49.0136337  43.3160305 104.0462875
  50.4238844  43.8584232 103.9568710  66.9630432  34.8305058  99.6473026
  67.1932507  33.9940047 100.0516605  67.4537754  34.8424053  98.8255501
 102.4986553  20.4232264  18.9121476 101.9647217  19.7114098  19.2649404
 103.0631447  20.6827736  19.6403161  84.5055008  37.3587036   8.2808152
  83.7748528  36.7439532   8.3476678  85.2121353  36.9457626   8.7771932
  58.4632111  68.7415504  78.3790445  58.7299538  68.4106541  79.2367077
  57.6788473  69.2608547  78.5560369  51.7922831   8.9287055   1.3395730
  51.2567091   8.6111730   2.0666066  51.6729927   8.2748270   0.6507818
  64.3582582  32.1567845  96.7268085  64.3686914  33.1132650  96.7624187
  63.7533569  31.8978095  97.4219704  82.1092701   9.5910025  85.2599335
  82.7795792   9.8496157  85.8924103  82.5768757   9.0511864  84.6226120
  86.2364578   8.7517858   8.9277021  86.4410019   9.4537526   8.3099309
  86.9170189   8.0954611   8.7783662  95.5827618   1.2691338  73.4274483
  96.2513447   1.9024408  73.1663799  94.9372578   1.2974626  72.7212286
  64.4955349  20.2727652  81.8694687  64.2484331  19.4629252  82.3159313
  64.5120525  20.9328628  82.5624561  56.7016649  40.7036400  37.6427976
  56.5156412  39.7875333  37.4369565  55.8500719  41.0750580  37.8731672
  72.6986599  31.6797066  79.5058632  71.8130350  31.5425658  79.8421621
  72.9767466  30.8150148  79.2038584  89.6141052  18.7195337  74.8762560
  89.2291832  19.5275342  75.2156734  89.5122719  18.7861168  73.9268208
 101.6786861  45.7291222  97.3351002 101.6735268  46.6133833  97.7015495
 101.1782742  45.8036661  96.5225315  50.5240965  40.8980942  95.8053875
  51.4082575  40.5942583  96.0107613  50.6143379  41.3471317  94.9648762
  57.1858025  18.8918757  78.7239599  57.6295519  19.0726352  79.5525980
  56.4894676  18.2768428  78.9543486  48.1766558  28.2547164  93.4480000
  47.2434807  28.4363723  93.5594559  48.3111000  27.4144220  93.8862514
 104.5930290  71.5037584   1.0691968 105.1817894  70.9096909   1.5346757
 104.5122337  71.1240435   0.1942579 117.8144741  16.6972554  83.4219456
 117.4858570  17.2245586  82.6937962 118.7604904  16.8429577  83.4153652
  59.3973112 143.4615309  89.7641754  59.1624308 144.2693419  90.2208042
  60.2072382 143.6751000  89.3008900  53.5269117 130.6799550  97.7008724
  53.7360573 131.0160107  98.5723972  54.3743896 130.4367847  97.3282051
  72.2807980  54.7530270  98.6414909  72.8834629  55.3569174  98.2075024
  72.3494291  54.9726248  99.5706272  70.2661419  11.8384707  97.6433277
  70.9008360  12.0858622  98.3157825  70.0501585  12.6608515  97.2037029
  98.0051517  43.4806919  57.7248526  97.6052856  43.7263823  56.8906021
  98.2331657  44.3145132  58.1359339  70.1162338  75.9011126  97.7312565
  69.4811392  76.5004063  98.1233406  69.9540091  75.0631618  98.1645584
  61.0822725   4.0594751  24.2679349  61.5799093   4.8601073  24.4340078
  61.2828016   3.8370582  23.3587877  69.6307993  21.4313126  12.7291147
  69.2209339  22.1736884  13.1730977  69.1992998  21.3947940  11.8754712
 101.4857388  33.0098987   5.9670011 100.8127594  33.6206698   6.2674848
 101.4289284  33.0417514   5.0120202  94.3496227 122.8046746  88.0520344
  94.0036678 123.6968226  88.0768394  93.6709785 122.2729678  88.4679222
  23.2533836  12.8695190   6.4080755  23.7246919  13.2825136   5.6845132
  23.0064011  12.0078683   6.0722295  79.4095373   1.4083236  96.2445164
  79.8973894   1.9148907  95.5951881  78.5558081   1.8385984  96.2918472
  66.7749882  70.3238535  86.7510700  66.4235973  70.8916235  87.4369240
  66.9606543  70.9156609  86.0220146  82.1035576  17.2897601  99.9321270
  82.4975109  17.8391421 100.6097794  82.8379250  16.7961192  99.5670891
  48.0060911  15.0121474  99.0772724  48.0623245  14.5769405  99.9279594
  47.6314592  15.8711922  99.2720222  98.9234447  46.0149288  85.1636314
  98.9402580  45.5283785  85.9877872  99.8432350  46.2048054  84.9787903
  54.0549946  16.7994034  88.5599709  53.8630438  16.7260039  87.6250839
  53.2006311  16.7303658  88.9860344  81.3513565 132.2685105  92.2963428
  81.4384174 131.3431163  92.0676613  81.2257290 132.2699399  93.2452679
  74.6081829  34.9503732  98.4845448  75.2274370  35.6410861  98.7205029
  73.7628508  35.2678418  98.8021374  81.4774799  22.1119833  77.0188951
  81.8499088  21.6314054  76.2795925  81.1525631  21.4310503  77.6079559
  96.2739563  53.0280066  86.6730690  95.6344986  53.3878517  87.2877598
  96.1275291  52.0824957  86.7012882  98.9369583  34.7195578  91.0610485
  98.9408875  34.0921593  90.3381443  99.3900967  34.2676473  91.7728615
  92.4174118  32.9135203  11.8627111  91.4976788  32.6484609  11.8546811
  92.5345802  33.3462739  12.7084199  99.8159981  16.4650583 106.6817570
  99.8069096  16.2667370 105.7453728  98.9703655  16.8822038 106.8464470
  82.7217007  43.2680559 108.2136059  82.0633602  43.0387211 107.5576782
  83.2181644  42.4606419 108.3471489 112.4088287  20.8704376 101.2772846
 112.4134731  19.9148989 101.3334656 111.4809513  21.1046743 101.2571430
  67.6947069  40.7088470  12.0831720  66.8158960  40.4457569  12.3564950
  68.0224037  39.9632144  11.5802995  65.7611132 133.5192234  14.7983209
  66.6057348 133.3264274  14.3912927  65.9173489 133.4119827  15.7365743
  88.1628895  34.8167729  78.1213236  87.8003120  34.0879679  77.6177263
  88.6319542  34.3989253  78.8435507 111.7894745   1.8118736  25.6086866
 111.1312866   2.2633505  25.0802938 112.1471786   2.4926183  26.1786500
  57.3722076 132.7938671  99.0161705  57.4264145 132.2290404  98.2452869
  56.8058062 133.5161168  98.7445545  79.0586185  32.6709151 108.5126877
  78.7942982  33.5908508 108.5034180  78.2921553  32.2048426 108.8466644
  48.9292574  51.2875175   3.9705793  49.5869207  51.9578838   4.1558400
  48.1242609  51.7797613   3.8096086 118.2804871  28.9875889 108.0744171
 117.3547363  29.1081238 108.2858372 118.5043240  28.1380820 108.4545040
  62.7126884  59.4237089 109.3707275  62.5021410  58.8611841 108.6254311
  62.4554491  58.9116859 110.1374626  77.5345755  21.5147257  85.1807690
  77.9938984  21.2720704  84.3768024  77.6656199  22.4599624  85.2555084
  86.5530777  45.8074808   4.2701474  86.4393616  44.9419403   4.6627466
  87.2540665  46.2120676   4.7811929 111.3131142  34.4162464  83.2711601
 110.8223724  33.6995244  83.6732960 111.5567112  34.9808908  84.0046883
  73.8402557  10.8602881  67.3830032  73.8897228  10.6358671  68.3122063
  74.6826601  10.5814254  67.0240784  78.9057255  36.5740728  94.9569511
  79.6503735  36.4412355  95.5435467  78.1468487  36.6154838  95.5388641
 112.4382687  24.5747447  96.0913181 113.0391312  24.7075558  96.8245029
 111.7437744  24.0210009  96.4480782  68.2915449 137.4018193  97.8878212
  69.0724945 137.3123676  97.3416042  67.8206587 136.5769119  97.7693939
 115.9743690 146.0750109  85.8940315 116.4183521 145.2270059  85.8949375
 115.3756237 146.0326862  86.6396523  71.2954092  49.7875690  69.8274803
  71.2146854  50.0977993  70.7294083  71.4512730  48.8468266  69.9108219
  91.1336517 143.7826351  24.4574586  90.6877232 143.3412800  25.1803533
  90.4300976 144.0303014  23.8575307  43.6548758  24.1496158  98.5512733
  42.7588511  23.8728189  98.7430096  44.1336346  23.9917064  99.3649578
 122.2441959  13.3952570   3.3239023 122.4361134  13.3441949   2.3875276
 121.2884808  13.4190392   3.3715574 114.2106438  14.8672998  77.1203709
 114.0126419  14.6378779  76.2124109 114.0157509  14.0721250  77.6163006
  92.3180771   8.9242625  77.8511667  93.0812073   9.5020425  77.8571939
  91.8223095   9.1741478  78.6309099  63.1310511  20.8031678  87.3396683
  62.5063753  21.2309217  86.7539692  63.9887285  21.0161448  86.9718838
   1.8377333  16.7089963  53.3391476   2.7557402  16.6414785  53.0765963
   1.7453509  16.0768139  54.0519190  75.1725912  13.8173020  95.2818775
  75.0916147  14.4550991  94.5727348  76.0414886  13.4342360  95.1614285
  68.9564133   7.1898019  95.8925629  69.3585634   7.6445407  95.1524830
  68.3752728   7.8405058  96.2863827 123.9133072  45.6960964  94.2183113
 123.6474705  46.0089636  95.0829887 124.8633099  45.8122301  94.2032051
  64.8300982  18.2480812  91.8131351  64.3989420  18.4717584  90.9883308
  64.7203207  19.0263116  92.3595238  53.5979128  33.9838409 103.0439091
  54.5267248  34.0628982 103.2613659  53.3071995  34.8849869 102.9037189
  88.4676933  51.5494013  71.6975021  89.3367767  51.4027357  72.0708895
  87.9559326  51.9158745  72.4186277  82.3121643  12.1042228  89.5156860
  82.9503632  11.5686834  89.0443707  82.7990341  12.8878045  89.7710037
  59.3446159  -0.0726165  68.2301950  59.4164991   0.5996651  67.5526237
  60.2473068  -0.2328398  68.5053444  68.1675291  38.1442261  92.4432850
  67.9617977  38.5448122  93.2879353  68.6529827  38.8197351  91.9697380
  94.0764809  17.9404509  78.6368370  94.0976524  17.7131522  77.7072573
  94.2825508  17.1219468  79.0882969  84.4269943   4.6255067 106.9892025
  85.0716591   4.1534504 107.5162697  84.7008228   5.5413210 107.0395279
  82.1071339 141.1574287  73.7731600  81.9214916 142.0872105  73.6417246
  81.4885426 140.7061482  73.1987667  76.1160851  25.5107355  46.9832945
  76.5461302  25.2339411  46.1741734  75.6516743  24.7306585  47.2866678
  47.4355459  77.1409130  87.5825691  47.5475073  78.0761242  87.7530861
  47.8366661  77.0042372  86.7242813  86.0031223  23.5427618  91.2699890
  85.2192688  23.0521679  91.0227585  85.7349586  24.0536427  92.0337486
  75.3640890  44.7144127   5.7578126  75.5408382  44.1507816   6.5110151
  74.7505188  45.3705263   6.0883848  86.5696335  45.5107355  70.2053118
  85.9109306  45.4641724  70.8982611  86.4778137  44.6840382  69.7316360
 104.1621494  22.4718213 104.7013760 104.0842819  22.1981788 105.6153202
 105.0891685  22.6842785 104.5931244  56.4562845  36.9228482  88.6764908
  56.5384626  36.0364246  88.3247375  56.9766617  36.9109607  89.4797993
 110.3339005  31.1083388  90.1076508 110.4663944  31.3185954  89.1832733
 110.1803207  30.1636052  90.1187611  71.1525202  25.7973075  94.6979237
  71.2054729  26.4488125  93.9986610  70.3640461  25.2933407  94.4965363
   1.8670397  35.2074385  91.0822487   2.5388079  34.7928309  91.6236019
   2.0718985  34.9274707  90.1901245  90.8970165  20.3424954  98.5499096
  90.4733849  21.1992502  98.4975624  90.4579830  19.8169470  97.8811264
  83.1564617  12.9335010  54.4902229  83.0992889  13.1091642  55.4294300
  83.9079380  12.3472834  54.4015121  95.3917599 119.1120524   6.2818281
  94.5088005 119.4326491   6.4657537  95.9682560 119.8206515   6.5677873
  95.0119114  18.3485031  73.4937954  94.1040897  18.5065854  73.7528515
  95.2040195  17.4688935  73.8187742 124.6649075  38.0753493  75.4574871
 124.1192722  38.8277698  75.6863451 124.1536236  37.5988102  74.8034763
  79.3480587  16.9126344  74.4842958  80.2448940  17.1499336  74.7201252
  78.9855909  16.5248120  75.2808189  89.6941853 139.0193529  84.8891068
  89.6040058 139.8083145  84.3546581  90.2254486 139.2954154  85.6359577
  58.6276674  44.9735785   0.0684301  57.8078318  45.4626703  -0.0015124
  58.9114952  45.1098585   0.9723703 100.9732437   3.3536750  51.1303329
 100.6064701   2.5753030  50.7109976 100.4097176   3.5049629  51.8891335
  62.0711660   7.1035808  79.7222662  61.4589787   7.3673666  80.4092026
  62.7462339   7.7821517  79.7295666  40.2366114   7.8196561  82.4124146
  40.0997925   8.7298703  82.6751328  40.6608295   7.4133968  83.1682110
  80.0578976  79.9051046  78.0077648  79.9538660  80.1879692  78.9162779
  80.3955555  79.0117598  78.0722189  95.1497078  26.8098092  85.9276581
  94.8630524  25.9336448  86.1853313  94.6595287  26.9963455  85.1269245
  76.5580320  68.2332563  74.9697447  76.4171553  68.0068398  75.8890486
  75.7061577  68.0948830  74.5557404  68.7335873  18.6469197  96.7150497
  68.8252020  19.0960503  97.5553608  69.4869661  18.0578160  96.6749477
  63.4357166  51.8149042  98.3078480  62.9430485  52.5778866  98.6101246
  64.2196274  51.8030500  98.8570118  95.2328014  34.0129662  78.8725138
  94.8653793  33.7417030  79.7137308  96.0194397  33.4771609  78.7707853
  83.4698009  62.5204134  83.9372444  83.1424332  63.1244659  83.2707787
  82.8738594  61.7724848  83.8960743  83.5669327  60.1592398  45.0763369
  83.7092590  59.2127275  45.0861454  84.3010330  60.5170155  45.5756617
  59.7112036  42.5985384  80.8626366  59.7251987  42.5349426  81.8176174
  59.4726944  43.5086918  80.6866741  72.8101969  25.4092813  38.8131380
  73.3956194  25.4584050  39.5688510  73.1673050  24.6995759  38.2792616
  81.1288643  79.3018389  89.2346382  82.0349789  79.5070171  89.4650459
  80.8107376  78.7701035  89.9642086  82.6049709  39.2951775  96.5159035
  83.1926060  39.7740579  95.9314442  81.7375755  39.6553826  96.3311958
  85.5748177  38.1766748  17.1103231  85.8582592  39.0808868  17.2456113
  86.3254452  37.7496004  16.6975347  72.2120333  93.8409805  69.9513769
  71.5428400  94.3675995  70.3885078  71.9178629  93.7865639  69.0421247
  71.3377523  57.2006226 105.6398487  70.4620123  57.5048065 105.8781338
  71.8071604  57.9958153 105.3877544  61.4149570  52.8188562  87.3205662
  60.7506800  52.4087143  86.7667198  62.2371435  52.6816034  86.8500328
  94.1919518  78.8981009  98.5643768  94.1436863  79.6095705  97.9258537
  94.3572235  78.1153727  98.0387878  66.1368275  40.0236082  90.5703163
  65.2394056  39.8043728  90.8209229  66.5191078  39.1902351  90.2953911
  97.4899292  41.9966221  70.5910540  98.4146214  42.1093321  70.3708839
  97.3766327  41.0495806  70.6717157  68.9953709  40.1888847  99.3807125
  69.6346092  39.6830702  98.8789558  68.2355881  39.6110821  99.4521427
  67.7428246  44.7413397  88.2900047  68.3846569  44.0313625  88.3048534
  67.8766203  45.1674986  87.4434185  82.4666977  36.5896082 106.4621639
  83.0106544  35.8050013 106.3933372  81.5824986  36.2555480 106.6132927
  84.2434406  43.4713984  99.4925690  83.3952808  43.5922670  99.9194717
  84.0391350  43.0062199  98.6813354  82.2150421  18.0655026  66.0844088
  81.4881706  18.4280622  66.5908194  82.5681496  18.8136315  65.6029034
  63.2835388  13.1487560   7.8587858  64.1453075  12.7841866   7.6571122
  63.1383038  12.9256856   8.7782327  87.0178890  18.5033286  57.2947359
  86.5370178  18.5200286  58.1222105  86.3598824  18.2697308  56.6399956
  57.7584505  50.5987358 100.2360916  58.2831812  51.1290741  99.6364021
  58.1334066  49.7205257 100.1698303  76.0289001  21.0205340  64.7763968
  75.9839010  20.1140571  64.4722462  76.9257259  21.1219573  65.0952196
 102.4686050  32.4913907  96.2331772 102.0451260  31.8837643  96.8395615
 102.5847435  31.9852877  95.4290676  60.0985289 135.3842575  83.6638641
  59.5393705 134.6091957  83.7172699  59.8295879 135.9252436  84.4063187
 104.8840046   2.6178750  77.7911711 105.4496002   2.7115044  78.5577011
 105.3792000   3.0201182  77.0775700  67.0938969   5.9415978  81.3211155
  67.0222521   6.6814518  80.7180214  67.9343700   5.5374038  81.1055565
  84.1035175  32.8802037  76.5025520  85.0543690  32.8067422  76.5845585
  83.8954067  33.7331080  76.8839645  64.7389412   9.2265582  80.2721882
  65.4276419   9.4106418  80.9109592  65.0823402   8.4997690  79.7524834
  46.9889975  28.0532289  84.0038109  47.7045965  28.0942941  83.3694077
  47.2716093  27.3977518  84.6415520  59.2605352   3.6458683  98.9767361
  59.0908194   3.2497919  98.1220150  59.8379421   4.3854976  98.7875748
  99.9641418  22.7377915  99.7409534 100.0440121  23.6766100  99.9096966
  99.7249603  22.3616838 100.5880451  94.9191189  68.5366869  76.4031267
  95.6214619  68.9406061  75.8934402  94.7091484  67.7333212  75.9269428
 109.2331409  23.8391829  94.1308403 108.7972736  24.0461254  93.3041477
 108.5701656  24.0086937  94.8001480  73.1274843  14.1580939  97.2804832
  73.9335442  14.1966879  96.7656898  72.4260473  14.2222691  96.6323376
  68.0061483 138.3883871  78.3705187  68.1855488 137.8743697  79.1578102
  68.6611605 138.0938120  77.7377319 101.8747997  23.1136131  83.7503719
 102.6867104  22.6066518  83.7541771 102.1119881  23.9425778  83.3346844
  74.5441437  21.1501431  73.6893749  75.0666809  20.9684777  74.4705153
  73.6429834  20.9692693  73.9566374   7.7203017  30.9039831  76.3610220
   6.9998580  31.1436439  75.7781458   8.5016947  31.2524700  75.9318209
 101.2757015  11.9213569  97.5994110 100.7752895  12.0415986  98.4064865
 100.8345890  11.2009823  97.1491718  77.5533485  15.6958103  85.0748253
  77.1830845  14.8758471  85.4016209  78.4081745  15.4487848  84.7220039
  80.3617859  59.6602249  53.1794930  80.2165890  59.5999575  54.1236973
  79.7761631  60.3603888  52.8913164  70.8443022  40.4902840  85.0951004
  70.4652834  39.8823643  85.7299232  70.9067583  39.9831963  84.2856598
  66.3755417  52.9211044  90.1948547  66.0565472  52.3485565  90.8924675
  66.5312862  52.3336744  89.4553280  57.9875040  21.9063950   8.8193933
  58.8670015  22.2838426   8.8352910  57.7157831  21.8934822   9.7371332
  80.4998302  31.3298655  59.6190310  81.0727692  31.6564822  58.9252710
  79.9025106  30.7291579  59.1733932  78.7938833  22.0865679   5.9537164
  78.7018538  21.3099742   6.5056840  78.1969833  21.9321179   5.2215425
 101.1692905  42.5233746  64.1845417 101.7604065  43.0781603  64.6934891
 100.3900909  42.4365950  64.7336674 112.6048660  59.4264650  95.2707577
 111.9008350  59.6984482  94.6820354 112.5330830  58.4725857  95.3053379
  53.7643003  32.6563787 106.4764786  54.2864704  33.4253764 106.2479782
  52.9242945  32.7990294 106.0402775  74.3910027  17.9041898  94.1728783
  74.0403128  17.8432882  95.0614452  74.5091248  16.9946039  93.8991451
  59.1028690 136.0868437  55.4170418  58.7394667 136.9697852  55.3493166
  59.7335768 136.0317094  54.6991301  54.0188217  34.0883970  64.1110849
  53.3859587  34.7974968  64.2246437  54.8558283  34.4696379  64.3762445
  96.6563606  36.8435240  18.6778203  97.3414898  36.1918831  18.8268033
  95.9411812  36.3512707  18.2747880  59.7612619  17.1633840  56.2928343
  60.1598835  16.2987280  56.3913250  58.8189793  16.9970882  56.3189173
  76.4422560  63.1394196  90.7959080  76.1303616  62.5812626  91.5082359
  77.0182657  63.7734413  91.2230682  32.1089816  43.8308811  76.7117405
  31.1968160  43.8247299  76.4216614  32.6140547  43.6565399  75.9175539
  73.6640167  49.4852924  95.2176666  73.0739832  49.8777723  94.5741940
  74.0287018  48.7201738  94.7728729  66.0740185  46.5811014  93.1068707
  65.1241970  46.6676521  93.1879902  66.2120056  46.2919331  92.2048855
  52.6407099  11.8406034  14.8522130  52.0691109  11.3148689  15.4117719
  53.2728577  11.2142110  14.4997159  78.8385153  11.4846635 109.4163609
  78.2714415  12.1264708 109.8438454  78.2725239  11.0541189 108.7756443
  95.1781750  56.9882727  76.1455774  95.7304573  57.7698183  76.1653805
  94.9389839  56.8407726  77.0605993  90.7291889  61.4726973  78.5618210
  90.8277225  61.3997173  79.5111322  91.6247940  61.5520430  78.2334566
  79.3371868  25.3679013  87.9953671  79.0255404  24.5671654  87.5735474
  79.9727345  25.0651860  88.6439610  87.4417496  37.6031566  90.7248497
  88.0395699  38.3043242  90.9840775  86.5684414  37.9745460  90.8499050
  76.4636707  48.4110308  75.9482241  76.9807005  47.7651024  75.4668760
  76.9752979  49.2180109  75.8911657  70.2292252  24.6918511 103.5715866
  69.5014763  24.1875482 103.9353085  69.9981833  24.8159242 102.6510143
 110.5393887  34.8461890  20.8076000 111.1946774  35.4951239  20.5512595
 111.0473442  34.1320372  21.1925626  72.5921392  50.0790405  77.1224165
  72.6672316  49.3946457  76.4574385  72.5474262  50.8943892  76.6229725
  80.0839710  37.4924755  70.4967165  79.1904068  37.8303695  70.5566692
  80.5388546  38.1171441  69.9318218  83.6566544  31.3420749  68.0877399
  84.1755104  31.0373378  67.3433208  83.9789486  32.2271490  68.2580376
  66.4541388  25.2540231  84.3865871  66.1420250  24.4760799  84.8487854
  65.9952641  25.9819365  84.8058891  67.8094721  50.0139713  66.1654902
  66.9481516  50.4207563  66.0712671  68.0520582  50.1752186  67.0772934
 100.8108807  42.7881050  91.7038536 100.6577301  42.4703836  92.5936985
 100.6548977  42.0253229  91.1470127  74.2857504   1.0314715  73.6785936
  74.6851730   1.8695980  73.9114809  74.9619818   0.3820616  73.8714933
  77.5011683  32.8556228  62.3253489  77.2993803  33.5400200  61.6872931
  77.0560122  33.1351757  63.1252956  83.3348846 127.6898260 104.3075752
  83.4516430 127.8677661 103.3743382  83.7198353 126.8229217 104.4361115
  86.8975258 137.8127767  97.9526615  87.2785091 137.6034672  98.8054657
  87.5218582 138.4187610  97.5536442  96.8943024  38.5420918  85.5367374
  96.6988277  39.3648958  85.9850883  96.1756706  38.4320164  84.9140930
  78.6981392   1.4535244  66.5142393  79.4527054   1.7480376  67.0242643
  78.2925558   2.2610137  66.1984921  69.7693586  30.4918480  92.2261715
  69.6327639  30.4744649  91.2789249  69.1292477  29.8697948  92.5719166
  60.4418898   8.2226896  42.8897572  60.9872532   7.5584376  42.4683523
  60.5555058   9.0042293  42.3489094  63.8285446  31.7299843  77.5797749
  63.3220530  31.9744110  76.8052101  64.5863914  32.3145103  77.5646591
  66.2922287  36.6988540  18.3825151  66.3591528  36.4813948  19.3122808
  67.0496082  37.2589159  18.2124082 105.1150322  56.0962772  71.1184168
 105.6219578  56.0694599  71.9299221 104.4551468  56.7727804  71.2704659
  46.3458681  38.7153482 106.6013813  47.0654917  38.1508517 106.3190365
  46.2354851  39.3395233 105.8841324  61.6376209  16.3775587  70.6783724
  62.2689533  15.9282625  71.2403202  60.8680105  16.5012455  71.2339163
  57.2534323  20.6590199  76.6554022  57.4606609  20.2018213  77.4704218
  56.4314985  20.2655721  76.3623857  82.4196243  34.5599031  80.0664425
  83.1888771  34.7319317  80.6094646  81.8988514  33.9408469  80.5780983
  96.0628319   6.9658774  79.1563082  96.0937977   7.5247586  79.9327898
  96.9409943   7.0288646  78.7806892  56.5882158  41.4937973 109.3086338
  56.1478281  42.3387337 109.2171574  57.5098133  41.6838121 109.1331959
  87.2852898  33.7866497  91.8605900  87.3711967  34.1720724  92.7325439
  87.9309177  34.2516851  91.3284874  95.8262825  66.9521618   0.9343377
  96.1089325  66.7204809   1.8190233  95.5181122  66.1278629   0.5577890
 104.6991539  29.1528201  62.2956467 103.8917351  28.9077687  61.8436909
 105.3063583  29.3840623  61.5927505  98.7619495  53.4315014 103.3494663
  99.2899513  52.7405071 102.9494953  98.2728100  52.9882765 104.0426636
  56.8197918  32.9959273  81.5398502  56.2379408  32.8404284  82.2838306
  57.2451544  32.1519923  81.3879681 104.2407703  37.7152920  55.2704573
 103.5087109  37.9375100  55.8457327 104.8992538  38.3862162  55.4507113
  67.3480415  22.3778892  63.4273815  66.5086031  21.9534755  63.6046982
  67.2637939  23.2477975  63.8177586  83.3948326  48.1860304  62.2564697
  83.1683826  48.8854218  62.8694963  82.8877068  47.4314880  62.5560045
  90.2996635  13.0758595 102.6685524  91.1951256  12.8645313 102.9326057
  89.7865772  12.9906392 103.4721088  88.1745625  10.0124204  79.9118996
  87.4101448  10.5755281  80.0335503  88.2453632   9.5241880  80.7321739
  98.2424927  36.6711593  81.9350147  98.9040852  36.0327220  81.6687107
  98.0835629  37.1935034  81.1488056  96.3534546  62.0185614   0.7047025
  95.8661079  61.3152742   0.2756254  95.7902908  62.7876949   0.6179944
  77.5730371  54.8091173  81.4421558  78.3494902  54.7085428  81.9928265
  77.0799685  53.9992046  81.5731430  75.4876518  67.2320986  77.1934652
  75.1408482  66.3409615  77.2362041  74.7533035  67.7876854  77.4547815
  53.6356115 138.1046636  80.8111668  52.6853657 138.1546313  80.9149551
  53.8836241 137.2973157  81.2616253  59.2569160  56.0117340  80.1935673
  60.1672649  55.7159662  80.1979828  59.2895985  56.8930340  80.5656815
  65.8743906  46.7729282  55.1374817  66.1948442  47.3608446  55.8215094
  65.5865479  45.9912395  55.6090164  72.5110531 138.4573770  56.4736509
  73.0318975 137.6553840  56.4316654  72.6435947 138.7827004  57.3640585
 111.6380787 144.3400831  19.2429677 110.7787895 144.4301634  18.8309900
 112.2450829 144.7415093  18.6211625  88.4086418  11.1662912  91.7184734
  88.7826252  10.8957696  90.8799076  89.1652012  11.2714970  92.2953415
  84.2213535  17.6346684  96.9429207  84.8657990  18.1060028  97.4709129
  83.4644032  18.2196486  96.9104004  78.9777708  53.6714220  68.4134960
  79.0125799  53.6839294  67.4570084  78.7288713  54.5633745  68.6557913
  80.0340176  43.4995794  55.4527903  80.7772923  42.9151011  55.6016731
  80.2080727  43.8956738  54.5989513  88.5906219  46.7659712  95.3551292
  88.9555073  46.3464022  94.5759964  88.9297390  47.6606274  95.3264236
  77.7139282  28.9291382  49.6218729  78.1229115  28.4973359  48.8718653
  78.3642817  28.8617921  50.3209686  91.4318466  75.6015062  68.7429667
  90.7060623  76.1041689  68.3731079  91.7603302  76.1460829  69.4583464
  78.2747650  51.2045288  82.0725822  78.8539457  51.2225151  81.3107014
  77.4638653  51.6108131  81.7666435  69.4035721  42.3805332  82.2329521
  68.6916924  42.9889154  82.4312782  69.0622091  41.5223217  82.4842930
  62.9350185  45.7676649  77.7958584  63.6595631  45.9319067  78.3994293
  62.1527481  45.7988214  78.3466005  98.1240177 144.2717742  73.9233828
  98.0916023 144.9275146  74.6199369  97.3495960 144.4505102  73.3899403
  88.9880276  20.5342746  57.4137115  88.4816170  21.3114977  57.6497221
  88.3293247  19.8576474  57.2571468  64.7683144  12.7130115 107.1579456
  64.7139931  12.6048255 106.2084293  63.8600540  12.6670861 107.4565887
  45.5966616  58.1340742   7.9441491  46.3840675  58.5453224   8.3006612
  45.6574440  58.2787895   6.9999067  79.9642563  37.9992318  97.6308250
  79.9481106  38.7954473  98.1618690  79.8710394  38.3100200  96.7302990
 110.4574871  46.4187765  71.0196781 111.0782528  45.7163620  71.2132978
 109.6908569  45.9695339  70.6637430  62.6818657  14.5929027  78.4284067
  62.4560308  13.8526070  77.8652096  62.6073027  15.3586149  77.8588820
  93.9231586  24.6877027  48.3886528  93.7941170  24.5112133  47.4567556
  94.2657185  25.5810237  48.4180450  66.0720682  35.9412074  91.7049503
  66.2233114  36.6803455  92.2940445  66.3413334  35.1737165  92.2096157
  74.7523594  24.2523408   9.6515695  73.8865709  24.0753317  10.0194112
  75.0684261  23.3969593   9.3606225  75.9631491  12.9978335  13.8370649
  76.3912868  12.4367368  13.1904546  75.0279903  12.8351831  13.7135640
  73.3027840  23.6446500  80.6601620  74.2031622  23.8184690  80.3856850
  73.0278683  24.4478917  81.1022663  91.2843418  24.3107390  93.4068394
  91.1034584  23.9342809  94.2681217  91.9210815  25.0047112  93.5777187
 102.6449299 146.4713933  61.9199610 101.8010235 146.0197212  61.9263315
 103.1711578 146.0049366  62.5693750  67.8509235  29.2923164  78.8728571
  66.9499445  29.0454006  78.6642981  68.3173990  29.2221904  78.0399609
  68.7722635  50.8495760  69.1448402  68.8921690  51.3250923  69.9668741
  69.5839882  50.3545856  69.0338802  79.9874496  10.6354594  36.4723778
  79.9532509  10.6676316  35.5163288  80.6044197   9.9298048  36.6663599
  91.8133450  24.9984074  80.0936794  91.8334007  25.8330822  79.6255445
  92.7280235  24.7176981  80.1220989  75.2125740  45.2288532  87.1086693
  75.9691715  45.1447535  87.6889420  75.3041601  46.0988998  86.7202568
  54.9877596 143.5941593  80.1674366  54.6474457 143.2471306  79.3428230
  55.5711985 144.3061804  79.9050331  87.1090412   5.2335399 108.3475304
  87.5507927   4.7636861 107.6401901  87.6345348   6.0233414 108.4751987
  71.5572691   4.6979690  76.6556931  71.2118483   5.0945789  77.4554539
  72.5042152   4.6690139  76.7923880 103.8815498  32.2436476  78.7632132
 103.3895493  32.9672837  79.1511774 103.3935070  32.0198536  77.9707718
  80.8371544  31.0133314  86.1131287  81.3208389  31.1906528  86.9198704
  81.4820576  30.6123686  85.5304146  97.8479576 100.7186479   8.0033437
  97.1182537 100.1435394   8.2335798  97.5510693 101.1799593   7.2189466
  69.0939379  37.5170350  69.5906687  68.6400795  38.3163333  69.8578119
  69.5186663  37.7475333  68.7644053  76.6927338  33.0921531  97.8812599
  77.2556543  33.3661914  98.6053181  75.8037853  33.1621265  98.2292652
  85.1299572  55.9657764   4.0634862  85.3263855  55.2437782   4.6604482
  84.1866016  56.1008835   4.1532461  85.0265408  41.3343048  84.4343853
  85.2984715  40.4601526  84.7139359  84.1094017  41.3966036  84.7012234
  86.3790989  39.8531628   9.1078893  86.2180042  38.9683580   9.4356099
  86.8944359  39.7235608   8.3117334  83.4735298  13.5297573  82.1483421
  83.3202839  12.5863075  82.1998119  82.9220104  13.8999462  82.8375530
  35.7788777  66.4800024  93.2765675  36.1205745  67.2498035  92.8217220
  36.4213681  66.3029766  93.9636612  85.6394672  18.7183917  59.5831347
  85.2283096  17.8951871  59.8467875  84.9326134  19.3626118  59.6227026
  73.8559246 132.0088930 104.5651436  74.2792225 132.3529381 105.3517056
  72.9766083 132.3867280 104.5816231  89.8751163  38.6227465  62.0710945
  90.2250481  37.9776430  61.4565849  90.0600719  39.4681334  61.6620207
  93.9124203  74.4951010  96.4670181  94.0017223  75.4315519  96.6439915
  94.7358227  74.2517185  96.0439396  61.6978931  43.6390829  85.3925419
  62.5163126  43.1847143  85.5924511  61.0344219  43.1720209  85.9003735
  96.5888405  30.1993155  96.2070465  97.3277187  30.6756186  95.8283234
  95.8323097  30.4838657  95.6942844 105.4901695  19.9120629  45.4923773
 105.8576298  20.7830811  45.3422737 105.7239246  19.4151270  44.7083902
  97.0616913 120.1993413  88.4135056  96.4631653 119.5752282  88.0030346
  97.5177765 120.6117601  87.6799297 109.3298435 136.6862942  31.9637815
 108.7149239 137.3451520  32.2862951 109.0034485 135.8596725  32.3193017
  74.9226046  41.9394350  74.8964357  75.4188490  41.2588310  75.3511429
  74.0261507  41.8359137  75.2156353  34.5572138  19.8644388  88.6900425
  35.2272248  20.5332851  88.8313293  33.7852979  20.1983857  89.1470432
  67.2065878  23.9720035  53.9017248  66.7766380  23.8427567  54.7471046
  66.4862680  24.0528607  53.2765532  58.3964252   2.8213593  91.7566204
  58.5554409   2.4031860  90.9104061  58.9786005   3.5811502  91.7614746
  66.5433264  19.9583757  73.3549595  67.3149920  20.2213168  72.8533411
  66.3177156  19.0937805  73.0117273  70.3368807  37.8026986  86.9402790
  70.1613522  38.3718181  87.6896286  70.0805855  36.9296169  87.2373962
 106.3856220  35.5726171  96.2996006 105.6301498  35.0936866  95.9588432
 106.8229103  35.9159088  95.5203915  74.6544600  47.2387552  94.3348408
  74.6577549  46.4226437  93.8346577  75.3770494  47.1424007  94.9551773
 105.7705593  31.6958809  80.5459213 105.1840305  31.8692231  79.8095989
 105.1919651  31.3989997  81.2482834  72.7366781  49.4239378  79.8232412
  73.1465244  48.6047125  80.1009655  72.7512407  49.3868542  78.8668680
  69.1680717  37.9006028  78.6794424  69.6800423  37.7743959  77.8805733
  69.7106838  38.4708405  79.2240810  81.5886784  13.9161158  84.0730000
  82.3193645  13.6912215  84.6489811  80.9324551  13.2404792  84.2436409
  89.0318584  49.6095657  80.6031227  88.2401752  49.9138641  80.1594067
  88.7378597  48.8731861  81.1393547  89.4124222   6.1400783  82.3959827
  90.3645897   6.0512161  82.4374008  89.0905285   5.6111836  83.1259727
  92.7470970  58.1228065 108.1836987  92.3424721  57.6030445 108.8782120
  92.9181576  57.4939394 107.4826241  84.4554806  22.4724984  73.3469820
  83.6738873  22.5281167  72.7972078  85.1294231  22.9395628  72.8531265
  50.0024080  32.1453810  71.6137362  50.5385351  32.8466225  71.9839573
  49.4669580  31.8409824  72.3464489  61.8190718  48.5624123  85.1774883
  61.9926405  48.7506723  86.0998058  61.5088987  47.6568747  85.1721191
 114.7215366  41.9973898  54.9336815 114.5888901  41.3425684  54.2482328
 115.4457378  41.6534185  55.4566002  49.1175365  60.7060575  83.3687782
  49.0100241  60.0201225  84.0276909  49.2209911  61.5112448  83.8759422
 103.1523514  17.4126530  56.4106941 103.8609695  18.0504882  56.4958763
 103.4598160  16.8009710  55.7417059  84.6168995  53.0395222  80.6986809
  84.9225426  52.1712017  80.9610462  85.2388287  53.6445856  81.1028290
  98.2085228  34.9884057  69.9913216  98.6579704  35.3495002  70.7554197
  98.9036560  34.5798135  69.4754934  73.2112122  35.6204677  70.8985710
  73.1480742  34.8426986  70.3442049  72.6494598  35.4260826  71.6488218
  52.4598598  13.4448028  74.8983002  52.2219276  14.0281832  74.1776848
  51.6254854  13.2203019  75.3101921  24.6312266  43.1925154  65.7361555
  23.6857157  43.3207607  65.8123446  24.7987395  42.3683596  66.1932468
  75.3090954  39.9666929  24.6757150  74.6810722  39.4689727  24.1521835
  75.9664392  39.3221593  24.9378371  88.5847282  16.8360543  72.6784945
  87.8124428  16.3995755  73.0380630  88.9848614  16.1816275  72.1059132
  84.9264717  20.8031058  50.9613514  84.9076176  20.5691290  51.8893242
  84.9599648  19.9633229  50.5032349  49.8563766  33.2222199  41.3203001
  49.4041538  32.5171113  41.7834854  50.7792902  33.1025362  41.5442085
  96.5579510  19.2324102  67.4991035  96.8077564  19.9457264  68.0864763
  95.6283283  19.0898967  67.6772070  78.5793447  26.7962003  36.7012334
  78.5274315  26.0272098  36.1336160  77.6982594  27.1696472  36.6797781
 109.3355083   6.4850038  76.5332174 109.9294662   6.0862875  75.8972359
 109.4346333   7.4270684  76.3956642  71.2696314  52.8785276 104.2873001
  70.6669855  53.6216354 104.2582417  71.6971302  52.8832197 103.4308815
  86.1928177 128.1584067  78.3735418  85.9862423 127.2274990  78.4570503
  86.3630390 128.2831592  77.4398994  72.9686022  10.5860341  62.5029087
  72.6640463  10.8667445  61.6399622  72.1710205  10.5170846  63.0276394
  52.3534870  40.0704670  97.8827286  51.7106009  39.3824100  97.7109623
  52.0110559  40.5326176  98.6478329  71.8647289  30.8702874  64.8999262
  72.1876860  31.0262275  64.0124512  72.3895121  30.1366830  65.2203274
  60.4566288 144.2039626  53.3763981  60.3154659 143.3591024  53.8036156
  60.0708771 144.0999279  52.5065660  74.9015522  12.7439260  83.1947517
  75.2024746  13.3819449  82.5477505  74.6743393  13.2695663  83.9617634
  78.8042021  25.7739425  49.8503542  78.8064194  26.1097980  48.9540148
  78.3128214  24.9541831  49.7977543  57.0967388  12.0067430  56.1893845
  56.5042543  11.3498795  55.8236980  57.9182673  11.8788040  55.7150888
  52.0028973  16.3366103  75.8060074  52.0553255  15.3809178  75.8176327
  51.1913633  16.5376484  76.2720871  19.9024325  76.0840225  54.0830994
  20.8556967  76.0430813  54.0066290  19.6110373  76.4548588  53.2501507
  64.3788290   6.0002059  52.3067045  65.1523495   6.0509670  51.7451668
  64.7255898   5.7891315  53.1735611  66.1740541  50.8469963  72.6256132
  65.7710791  51.2821674  73.3769274  66.8379402  50.2736187  73.0086517
  99.9108887  17.5773942  61.0726166  99.8948765  16.6255820  60.9724665
  99.8483086  17.7199411  62.0170689  59.7329521  25.0713587  12.9667914
  60.1022768  24.2635822  12.6099622  59.7711372  25.6935239  12.2403729
 101.3971901 117.7872462  61.1051178 101.0599613 118.4416670  60.4933643
 102.3318005 117.9823799  61.1734247 120.7765198  53.7331438  97.4764824
 120.9754276  52.7968693  97.4842358 120.7882404  53.9881420  98.3990097
  79.6138620  20.8506751  28.5364771  79.7907782  21.2139511  27.6687407
  79.3550920  19.9445415  28.3685756  87.5966072  37.7578926  60.2025127
  87.1377659  38.4535432  60.6734276  88.4783459  37.7577448  60.5750227
  84.0463924  14.0776777  68.4147024  83.0987167  14.1043496  68.2826662
  84.3461037  14.9551523  68.1771278  86.5511990  45.8260202  89.5585823
  87.1492577  46.5732479  89.5441818  86.3334084  45.7113361  90.4835892
  70.9320688  32.1892834  57.5310946  71.3262844  31.3214374  57.6186752
  70.7858801  32.2921515  56.5907335  48.6004066  64.7042990  36.4700675
  49.4956970  64.3801355  36.5680385  48.2084417  64.5906782  37.3359108
  83.9805603  51.1400032  46.9894266  84.5029449  51.9377089  47.0731544
  84.5604801  50.4410887  47.2918129  86.9885254  21.9260430  99.4886971
  86.2878895  22.5052619  99.7884369  87.4708843  21.7018867 100.2845097
  87.8851986  31.3491559  16.6225767  88.3257771  32.1987414  16.6044140
  87.9463387  31.0283637  15.7228065 110.9668827 140.8490522  54.3195820
 110.7289505 140.7684858  53.3959341 110.1639462 140.6324835  54.7935247
  92.3957825  17.0815456  43.3918571  92.3292446  16.1336339  43.5070467
  91.8667889  17.4467230  44.1011190  51.6105223 134.0128107  63.9204693
  51.6197729 134.6494562  64.6351910  51.4912176 134.5407409  63.1309843
  54.7628880  36.6188192  99.4231033  55.0054550  37.4054146  98.9345837
  55.5412960  36.4073968  99.9384785  97.4764442  24.6554565 101.7968941
  97.9862309  25.2671075 102.3281574  98.0586147  24.4240093 101.0731888
  77.2093439  25.7931948  56.8003941  77.5161648  25.6773043  57.6996469
  77.4102783  26.7061472  56.5945435 105.0899220  45.3330374  60.5239630
 104.2758751  45.5677414  60.9694719 105.6651306  45.0232983  61.2235546
  52.3904657  38.5919046  57.9713535  51.8550873  38.4907365  57.1843529
  53.1408787  38.0156636  57.8262520  91.9500256  18.3311796  55.8127928
  91.9673920  17.3816288  55.9323120  91.8706512  18.6827803  56.6995335
  68.0195713  16.2884450  63.2665491  68.4223795  15.5137622  63.6587763
  68.0561924  16.9521511  63.9553022  86.7095661  26.4972115  82.8174400
  86.2050438  26.2956953  82.0293617  86.5288162  27.4216485  82.9876804
  81.5123081  42.8255081  68.4979773  80.5789661  43.0376911  68.4892130
  81.8810844  43.3950424  69.1731596  48.5986471  27.0674086  90.9214306
  47.9467201  27.3387170  90.2752018  48.6019373  27.7724290  91.5688610
  63.5893965  21.4278698  79.7096586  64.1329575  22.1410418  79.3747568
  63.9850712  21.1998725  80.5508995  64.7210836  14.1273975  44.1662025
  65.4488611  14.3801129  43.5981321  65.1334715  13.9143109  45.0033188
 105.7845402  44.1358662  80.2977371 106.0376072  43.2398272  80.0756931
 105.3348160  44.4582510  79.5166826  73.9041328  30.6716347  58.9753675
  73.4317398  29.8440576  58.8848734  74.5500374  30.6572032  58.2690859
  59.0136957  18.9022648  69.0706921  58.6085081  19.1220737  69.9095821
  58.3579588  18.3700716  68.6201239  81.0193348  32.6126075  81.5512753
  80.7169819  31.9513965  82.1738625  80.2213573  33.0618978  81.2726784
  81.6010475  51.0810947  79.5394278  81.8408775  51.9945192  79.6955299
  81.7604637  50.6451797  80.3765678  80.1076126  50.4351425  77.3054409
  80.6019115  49.8299456  76.7525959  80.7504368  50.7658815  77.9328251
  70.1888466  47.7798367  34.8519683  70.5293179  48.0478668  33.9984632
  69.2912292  48.1119442  34.8668003 111.8620872   2.2472212  66.8277740
 111.5311241   3.0552077  66.4355326 112.5175953   1.9303271  66.2063885
  84.2986012  27.4366975  86.4321709  84.7797966  26.6580677  86.7121887
  83.4190083  27.1159267  86.2330437  88.8567352  27.6683688  44.2936945
  89.0537834  27.3637080  43.4079266  89.6028042  27.3779607  44.8183680
 111.8857002   9.9278176  73.1092644 112.3300838   9.4500804  72.4088955
 112.2359085   9.5504481  73.9162207  50.9842539 134.7345812  77.3318195
  50.4884768 134.9281091  76.5362167  50.3157806 134.5510585  77.9918957
  32.6943302  15.0532401  65.3854036  32.1047306  15.7404184  65.6958723
  32.2676444  14.2364907  65.6444263  50.8029175  14.9006498  73.1139278
  51.1140394  15.4427993  72.3890066  50.0763035  15.3975224  73.4899378
  75.0314093   8.2752168  63.3284712  74.7924757   7.9689354  64.2033052
  75.2807140   9.1906768  63.4550047  71.0245943  43.8279867  44.4728613
  70.6475163  44.7062445  44.4208622  71.8889380  43.9142418  44.0707350
  97.9868793   4.3239191   0.9023134  98.8103962   4.2581871   1.3857690
  98.2435417   4.6303892   0.0325815  76.8235064  26.9202089 101.5653801
  76.4514828  27.5991154 102.1283340  76.6343498  27.2169900 100.6752205
  81.8863773  19.9377489  88.7337303  81.1882305  19.8914230  89.3869400
  81.6234970  20.6513119  88.1523895 103.3970642   7.8750914  80.7772923
 103.0752182   7.1909034  80.1903248 102.6326656   8.1240064  81.2968731
 117.7356148  26.0641503  63.4843588 118.5682964  25.5935884  63.4464741
 117.0706844  25.3826571  63.3859968 108.7744999 146.2396397  43.5885143
 108.0183411 146.7872163  43.7997580 109.2315769 146.1304449  44.4224167
  68.5376215  51.2583828  79.0654659  69.3790054  51.5931940  78.7552881
  68.5549688  50.3268194  78.8460970 106.2399006   8.5435355  41.6499805
 106.2227535   9.4484568  41.3384438 106.7288971   8.0682099  40.9782839
  89.8235703 141.3714940  40.8546257  89.7576714 140.5745608  41.3807297
  88.9343929 141.7257268  40.8440638  75.5297041  11.4818037  62.6665020
  74.6449852  11.1164320  62.6683807  75.6122589  11.9049883  61.8119097
 104.0495872  12.7381623  72.1776438 104.8051071  12.8069103  72.7613306
 104.2994595  12.0692265  71.5402126 101.7746830  11.5247810  74.4836140
 102.2893620  11.9712234  75.1559448 102.2251129  10.6905437  74.3517542
  56.6367197  34.3466258  32.7283049  57.5580788  34.5950389  32.6533103
  56.6553974  33.4711695  33.1149054  87.4430466  76.8168640  12.2588865
  87.4429131  77.1339226  11.3557187  88.3507252  76.9142294  12.5467721
  94.0324593  42.2180176  67.7583313  94.0936756  41.9407558  68.6724520
  94.4001579  43.1017447  67.7509499  89.2849827  54.0829420  76.1148930
  89.6751308  53.7510920  75.3062582  88.4328270  54.4263697  75.8463240
  85.6765079  48.0064964  53.7500763  86.0770702  47.9594994  54.6181583
  86.3201904  48.4696865  53.2140255  69.8312616  27.5391006  68.2739687
  69.6049976  27.9668999  67.4481201  69.0389967  27.6116467  68.8062143
  96.4690208  16.0499191  38.5444880  96.6777515  15.6811130  37.6862073
  95.7903099  16.7010689  38.3667397  75.1238585  51.5304899  45.7893419
  75.1166821  50.6943750  45.3234053  74.7212267  51.3364506  46.6357851
  82.1289921  36.9145060  94.5671844  83.0558968  36.8039012  94.3554115
  81.7059422  36.1361837  94.2045975  66.7756128  16.7250085  33.5189176
  67.6457834  16.8608809  33.8938522  66.3053608  17.5378656  33.7042689
  65.2434349  49.5215321  78.6483765  64.8551702  49.0454197  77.9143476
  65.5604982  50.3384161  78.2631445 103.5459805  33.9802670  98.6411762
 103.5802937  33.4937978  97.8175259 103.1087017  34.8015070  98.4162617
  78.2802343  18.5694432  95.9248543  77.6956320  17.8339767  95.7416534
  77.8227949  19.3326557  95.5720234  89.0961742  54.4802094  50.2296972
  89.9071693  54.2472363  49.7777653  89.3264580  54.4639254  51.1586380
  83.4625435  33.5877252  43.8352108  82.7848434  32.9529595  44.0676451
  84.2004204  33.3696103  44.4045925  80.1353073  51.6623545  56.5162849
  79.9130917  52.5537634  56.2475157  80.9822369  51.4920044  56.1040831
  90.1556396  47.5466013  66.4954996  89.4650650  47.4136162  67.1448469
  89.6915722  47.8247261  65.7058668  52.8156614  10.2571726  44.6098328
  53.1575394  10.5486393  43.7646103  52.2609043   9.5064890  44.3978214
  55.7445717  30.3292489  38.8919210  56.4325428  30.5401754  39.5231414
  54.9485493  30.2610207  39.4191027  62.2208643  28.0274105  91.5311146
  62.7108860  28.4903145  90.8515358  61.9042492  27.2338200  91.0996056
  72.3971319  18.5815811  48.6310434  73.3120775  18.4040713  48.4128761
  72.4063826  18.7666166  49.5701408  91.5300179   2.0125420  40.0397158
  91.2780762   2.8953534  40.3106403  91.3430500   1.4653890  40.8025360
  93.3104992  47.4474955  38.4301019  93.1157684  47.1237803  37.5506020
  92.6289845  48.0971289  38.6025643  88.2935143   6.9431311  75.1148510
  87.8255653   7.2616100  74.3429565  88.5013103   7.7341139  75.6122446
  90.4176426 137.7050621  38.6804748  90.6169224 136.8339623  39.0235591
  90.9173298 137.7617873  37.8660274 120.0328636   3.6784536  44.3947077
 120.8607197   3.6488983  43.9151049 120.1212406   4.4315675  44.9788666
  68.0185938  40.1182318  77.5754118  67.6730156  39.6708488  76.8029785
  68.3172655  39.4115996  78.1478643  65.6481647  29.3026972  90.2175426
  66.0004091  28.4835625  90.5656433  65.1704311  29.0424562  89.4299603
  81.5179539   7.2417045  41.6365433  80.7894421   7.4874479  42.2067308
  82.2962761   7.5677198  42.0883894  90.0232506  50.6741762  92.2105885
  90.9727669  50.5732536  92.1437359  89.8837566  51.0609198  93.0749989
  82.3023510   4.6535578  32.0957494  81.3783741   4.8962283  32.0356274
  82.3695087   4.1682652  32.9180694  96.5902233  29.2074513  75.4122829
  96.4348698  30.1501226  75.4711819  96.6707325  29.0361404  74.4739866
  83.5511208  46.4514542  57.9025364  83.7322807  45.5453014  57.6529455
  82.9544258  46.3799524  58.6475754  72.7551985  42.1317387  70.3850031
  72.5300455  41.2117481  70.2466154  73.7032938  42.1290970  70.5166960
  89.1679955  37.0836306  44.9014759  90.1168823  37.0873952  45.0273228
  88.9988136  36.2997556  44.3788433  97.7218914  12.5949240  85.1586914
  97.6625443  12.5487256  84.2044544  96.8210602  12.7400386  85.4479504
  88.8797283  77.5320578  77.4123192  88.3194160  76.8321753  77.0769835
  89.6402931  77.0773220  77.7742529  76.4960957  28.8252664  45.3981638
  76.2885571  28.1409550  44.7618628  75.6825495  29.3210721  45.4906034
  71.4060926   7.5413966  67.7210283  71.7136049   8.4456038  67.7848816
  71.2085772   7.4206084  66.7922497  52.1221209  23.9164543  44.4252539
  51.2080002  24.1981936  44.3900824  52.2067404  23.4833026  45.2746391
  94.7963047 142.7766694  49.3171024  95.4040337 143.4409700  49.6420765
  94.1080475 143.2761420  48.8777256  52.0942783  60.2560997  86.7054272
  52.2918797  61.1555004  86.4441490  51.3208055  60.3333950  87.2639847
  99.4485760  19.6157205  24.0470815  98.6991215  19.0667701  23.8164377
  99.2502022  20.4675794  23.6582208  94.5258236  54.0660572  59.8252583
  95.3588963  53.6691046  60.0795221  93.9432240  53.3223343  59.6713591
  97.9736519  56.5120029  55.9500551  97.3927879  56.1833286  56.6362000
  98.5726166  55.7861042  55.7752752  87.4836922  19.1723073  28.7088466
  87.6930046  18.9927328  27.7922368  86.7723465  18.5660124  28.9153028
  76.7957115  28.8862467  63.7837791  76.0355139  28.9090109  63.2025623
  76.6182518  29.5631814  64.4368505  35.9406352  25.0613761  74.0312195
  35.2399230  25.4135251  74.5800591  35.4912591  24.4978905  73.4013176
  77.8978968  45.6637716  78.4755945  78.8190508  45.9201765  78.4312773
  77.4192667  46.4924908  78.4949064  79.3239737   9.4672233  82.7889729
  79.1670322   9.0606546  83.6412048  78.5492468  10.0079703  82.6352596
  77.5572729   1.2889314   3.3109704  77.2746181   1.8941686   2.6253835
  76.7441654   0.9982894   3.7240259  61.1152267  40.7565355  54.7855663
  62.0191765  41.0012054  54.9836731  60.8049011  41.4435959  54.1957521
  98.5007095  31.9345069  85.9282970  99.1727924  32.5735617  85.6913471
  98.2801056  31.5019131  85.1034164  73.2716465  47.0422411 103.2565498
  73.8536072  46.8260765 102.5279713  73.1927872  47.9956770 103.2253456
 103.0457306  21.0544276  43.0833054 102.9122162  21.9918799  43.2232666
 103.1256294  20.6896615  43.9646626  51.9589186  27.2119498  60.2137756
  51.5574312  26.3692379  60.4256153  52.8808308  27.1034932  60.4473209
   4.1059905  16.8201685  67.1491861   4.2029696  17.4380815  67.8737593
   3.3988028  17.1844196  66.6167974  61.7534971  31.4557266  88.2646179
  61.5002108  31.9167995  89.0643024  62.5265408  30.9496140  88.5145950
  67.0260477 139.5064397  50.8815670  67.6827240 138.9441241  51.2924290
  66.2148523 139.0003926  50.9275055  98.7698746  36.9803929  38.4069085
  98.5548878  37.9067850  38.5156012  98.3775139  36.7403531  37.5674653
  93.0109787  25.7176900   5.2026693  92.7176189  25.6473923   4.2942468
  92.4478149  26.3907671   5.5848256  81.4242458   8.6546689  68.1206989
  81.6247559   9.5091361  68.5026789  82.1578598   8.0977416  68.3812189
  92.1989727  51.8253946  52.1757889  92.2107124  51.0228491  52.6973391
  91.3835335  51.7750025  51.6770363  97.9867744   9.0578365  63.2575703
  98.4123611   8.2058138  63.3532906  97.6626968   9.2635494  64.1344309
   6.4556533  14.9811089  69.7533226   6.5398926  15.8216822  69.3032455
   7.3190320  14.5765615  69.6687603 104.6850586   8.3467549  90.3569603
 104.1230583   7.5724715  90.3274822 105.2343559   8.2738698  89.5764542
  67.2910309  -0.0117301  22.2219276  66.7857361  -0.3562099  21.4855552
  67.5044632   0.8858481  21.9669151  90.9690475  55.3744936  82.5854015
  91.2421799  56.1906433  82.1664429  91.7732716  54.8600626  82.6548004
  79.2458963 134.3543095  44.5563269  80.1371765 134.3365783  44.2077065
  78.7084866 133.9783640  43.8591242  22.0994186  20.8396435  80.1056862
  22.2136521  21.2112069  79.2309761  22.8947902  21.0876107  80.5769920
 114.4422626  71.9564629  55.7377100 113.7207985  72.4891901  55.4031801
 114.0144539  71.2559319  56.2301207  60.0703621 143.5958121  48.3322382
  59.7650290 143.7935234  49.2176294  60.9841824 143.8806052  48.3248425
  92.6905155  17.2236896  63.2951355  93.2292843  17.8086197  63.8278770
  93.2595444  16.4767218  63.1094646  76.5882301 138.7260003  16.6636479
  75.7830381 139.2114038  16.4839709  77.2689533 139.3977410  16.7037940
   1.4012843  51.4925051  51.8741846   0.8964091  51.0428429  51.1965895
   1.7920142  50.7869053  52.3896360  38.1352115  46.5602398  42.6771736
  37.7093291  45.8196163  42.2455072  38.5920596  47.0182800  41.9716787
  91.9541264  47.0102072  33.3465147  92.5491047  46.6550398  32.6861429
  91.5654945  47.7793646  32.9298615  70.8993196  63.9649820  90.5302906
  70.1953030  63.3469391  90.3337669  70.7200146  64.7188520  89.9683666
 110.9876919   7.6765126  63.3645487 111.2271500   7.8814960  62.4607372
 111.5456200   6.9345063  63.5977411  73.7990475  33.7070107  47.8741980
  73.8112497  33.7793469  46.9198132  73.0540514  33.1359673  48.0616045
  87.2809124   6.2322068  71.8932152  87.2222137   5.6048846  72.6138067
  86.7010689   5.8776647  71.2191772  81.8263721  32.1077013  51.3300276
  82.3469162  31.5452313  51.9035101  81.8125534  32.9554582  51.7742682
 109.4854259  48.6913681  72.0963097 110.0958538  47.9605722  71.9986296
 108.7192631  48.4336281  71.5836763  67.2658062  32.1960616  73.8233280
  67.4481487  33.1328773  73.8965464  67.7835941  31.9093537  73.0710459
  83.3736134  22.0681477  67.3159790  84.3045712  21.8485999  67.2792530
  83.1900883  22.4757624  66.4695740  52.0061255   8.0363780  36.9090009
  51.4477253   7.2600532  36.8672347  52.7270269   7.8454429  36.3089418
  96.9286823  12.7856755  82.3508549  97.0952511  12.8044617  81.4084435
  96.0214996  13.0778813  82.4396133  56.4838219  42.2054529  86.3620090
  56.6548967  42.7404404  87.1370983  56.8407059  42.7158737  85.6351471
  62.3988914  28.8083935  50.5312157  62.6117516  29.7170520  50.7439661
  62.1014595  28.4318399  51.3594484  10.6995130  12.0656872  44.8481750
  11.3010025  12.8082824  44.9028969  10.9384084  11.6234875  44.0335464
  98.6577511  23.4173703  55.3703117  99.0052319  24.0452170  56.0037947
  97.7967072  23.7642670  55.1368904  86.6458607  23.4041023  49.4963264
  87.1080399  24.2116356  49.7210741  85.7489204  23.5498238  49.7971630
   6.8560248  30.7848763  66.6490507   6.8395167  31.5180039  66.0338402
   7.7457076  30.7885075  67.0021629  94.5244598  27.6300478  57.9562998
  94.2090034  27.1243191  57.2073221  94.6318531  26.9833851  58.6538124
 100.9459972  17.7875113  46.3361883 101.2046242  17.8116059  45.4149008
 101.5638161  18.3732009  46.7737913  95.6024933  17.0916486  88.3605671
  94.8172283  17.6348126  88.2929420  96.2556076  17.5477099  87.8298283
 101.8893433   7.4619585  67.7509451 100.9366894   7.4391258  67.8412676
 102.0512581   7.1826273  66.8498373  47.7015114   1.3539182  70.7633352
  47.5147629   2.2903472  70.6965637  48.3287334   1.1840621  70.0605011
  40.9051132  38.4097075  71.5757132  40.4102039  38.2070231  72.3695707
  40.2586365  38.3611369  70.8714867  89.2282772  33.1594300  45.2894163
  90.1090622  33.4899116  45.1127148  88.8768005  32.9409695  44.4263029
  60.7634830  28.9172769  73.3215618  60.6892061  29.6183586  72.6741076
  61.5424013  28.4280872  73.0565929  47.6530409  35.3065467  93.3076668
  48.4624195  35.7790041  93.1129360  47.6998520  34.5181775  92.7668285
  46.4549255  13.1587756  52.7164459  45.7171249  13.0168915  52.1233559
  46.6185522  12.2994375  53.1050253  71.2455511  37.8878713  61.8502426
  71.5731478  37.1965790  61.2748957  71.1687756  37.4694657  62.7077246
  72.5743294   1.7629899  93.0070400  72.3323965   1.1339121  92.3273563
  72.9913139   1.2330607  93.6863995  85.6148434  35.9730721  74.7641087
  85.3525829  35.0567913  74.6753263  84.8357677  36.4703822  74.5152140
  90.2875710  17.0335698  68.6908150  90.8203316  17.4049497  69.3940067
  89.5715237  17.6585507  68.5772085  88.6629391  17.6411998  54.5787382
  89.4800377  17.8997004  55.0050735  88.2021713  18.4658241  54.4240952
  52.8267193   6.7435265  92.2323322  52.1345711   6.2940073  91.7474651
  52.8582907   6.2940276  93.0768299  99.3738365 137.1856434  72.1449709
  99.4958591 137.2234000  73.0936146 100.1409626 137.6322884  71.7868519
  78.6768770  22.1904612  72.6836872  79.2276907  22.6074910  73.3462000
  79.0099049  21.2950206  72.6244116  99.9207020  20.5584431  65.0346422
 100.4229450  19.8939490  64.5630169 100.5570126  20.9687400  65.6202936
  82.4813747  19.7459114  81.8692017  81.7322063  20.3318310  81.9772625
  82.6901531  19.7936332  80.9362602  79.3073702  10.9041870  62.4468279
  79.8049259  10.6999159  61.6550255  78.5118580  10.3770649  62.3724699
 121.2428188  34.5719481  42.9827213 120.7934475  34.9815679  42.2434568
 120.5453110  34.1453600  43.4804583  59.8158693 134.3626184  49.1301012
  60.6456900 133.8999552  49.2465878  59.2810202 134.0862102  49.8742580
  55.7765388  24.9457932  60.6867838  56.6734552  24.6143794  60.7308054
  55.8550835  25.7914853  60.2453470 102.2309113  15.7744801  99.0292549
 102.6311207  16.2648880  99.7472858 102.4352455  14.8592484  99.2211819
   1.5450221 135.1470835  72.6180887   2.4613028 135.4085679  72.5270748
   1.5300780 134.5947165  73.3996868  41.7051125   4.1366711  31.1791229
  41.8725014   3.6484376  31.9852519  41.6076994   5.0449568  31.4650607
  95.4359627  26.3849735  63.9139080  96.2223625  26.6916299  63.4625006
  95.5221748  25.4317212  63.9244080  60.2767181 134.2926318  60.9066868
  60.7358789 135.1322825  60.8869505  59.4940233 134.4350953  60.3744078
  82.9836750  59.9126387  70.6602859  82.8663826  59.1288137  70.1235390
  83.2334709  60.5946684  70.0368500 100.6736851  42.2761965  38.3741498
 100.7412338  43.2216883  38.2410550 101.2456322  41.8987799  37.7058220
  81.9058704  17.5191939  75.1573229  82.1284580  16.6951692  75.5905294
  82.7487469  17.9493582  75.0132608  95.0578213  41.8504047  52.9720974
  95.3750134  42.5140381  52.3595476  95.2548885  41.0166693  52.5451517
  61.3587856  62.0644474  42.4459791  60.4283762  62.2892618  42.4508429
  61.7172527  62.5443554  41.6993713  80.2375507   9.3743700  71.5442038
  80.6987381   9.9211264  72.1802807  79.8043633   9.9982101  70.9616184
 105.6383705  16.2127912  81.0781193 104.9490547  16.8517995  81.2590599
 105.2278042  15.3641665  81.2439632  82.0849228  46.7962408  43.3465099
  82.4127102  47.3811245  44.0296650  82.1050453  47.3248100  42.5487328
  61.1881113  54.6326637  31.8137264  61.0237980  53.7769604  31.4174891
  61.4804411  55.1814365  31.0859776  40.5186367  24.8195148  34.5986652
  40.0932455  25.4936028  35.1286435  41.2612772  24.5309591  35.1291847
  64.0382195  45.8934975  66.3553476  64.3203306  45.3782177  67.1110821
  64.4011974  46.7654228  66.5109921  71.8439960   8.9161617  57.5480938
  72.2289419   9.7529614  57.8085089  71.8616486   8.9318585  56.5911865
  30.3524303  16.0599494  46.1646891  29.4583702  16.1042881  46.5036917
  30.5465651  16.9540715  45.8834600  87.1474934   5.9621632  48.3128166
  86.1968136   6.0495377  48.2434464  87.4919891   6.7442042  47.8815794
  81.8748856 144.3078401  44.6906567  82.6261997 144.4273088  44.1097260
  82.2527885 144.2875610  45.5698681  97.2526169 141.5822921  37.6430035
  96.4332199 141.1362613  37.8571773  97.0489311 142.0948426  36.8606782
  79.4951391 146.1147770  64.5122433  78.8898325 146.4421399  65.1775789
  78.9287853 145.7600180  63.8269567  81.7340565  28.5087276  24.9510360
  82.3526192  27.8065729  25.1524973  82.1807384  29.3084455  25.2288055
 114.1070747 132.0717175  33.7629390 113.2357311 132.0980746  34.1582870
 113.9963436 132.4935455  32.9108644  91.6227531  20.7762647  63.6958170
  90.8814716  20.1775408  63.6048698  91.5801239  21.0739160  64.6045637
  69.0361547 146.1175515  75.6518936  68.9140749 145.6152742  76.4575291
  68.6833811 145.5545322  74.9628448  70.4195404  43.4758377  61.7489815
  70.8584166  42.6487923  61.5499353  70.8720064  43.8063717  62.5250292
  75.1760149   8.0814707  59.0555859  74.3736362   8.0339098  59.5753527
  75.2057266   8.9857441  58.7431145 110.5179119  39.0357709  34.2576671
 111.4353466  38.8329673  34.4404483 110.1079845  39.0898561  35.1209545
  81.9039726   2.3710194  66.3769293  82.2857285   2.5208816  65.5120420
  81.5608597   3.2254371  66.6386032  92.3147964 143.1419734  36.8126321
  92.0506382 142.4460704  37.4144363  92.7668762 143.7786106  37.3662972
  78.4244776  56.6821909  67.4262094  77.6579571  57.0173359  66.9610691
  78.1078911  56.5028000  68.3115482  46.8884277  10.9275043  22.8439403
  47.2924662  10.3163731  23.4599781  46.2617636  10.3947818  22.3543167
  70.5445147   7.6199615  22.6955652  71.3881397   7.2354686  22.9336548
  69.9073887   6.9278747  22.8725338  80.9919548  35.3908205  21.8977642
  80.9633827  35.6360126  22.8225851  80.7468796  34.4655800  21.8875980
   2.6807719  29.3085837  39.9249291   3.0787020  28.4413862  39.8484373
   3.3130293  29.8991966  39.5154572  79.2681360  33.6604500  50.3798294
  80.1373291  33.5444784  49.9960470  78.9796686  34.5171356  50.0650072
  88.4403992 131.4444501  48.3926821  88.5687065 132.3000343  48.8022470
  88.7453938 130.8170182  49.0480757  98.5442829   5.5619097  40.2450848
  98.3011627   4.8760492  39.6232176  99.3124199   5.9783131  39.8541880
  87.9985237  62.7560568  13.6499381  87.4409580  61.9807577  13.7152028
  87.8174686  63.2493258  14.4500232  63.5387516  51.7249918  66.4910078
  62.9479885  51.7463684  65.7381678  63.5432768  50.8081388  66.7659521
  74.2985249  19.7149551  58.8897991  73.9986753  20.6224275  58.9428711
  73.5555887  19.2385077  58.5192871  41.8326998   6.4215386  44.1567945
  41.3391829   6.9761211  43.5525465  41.5493250   6.7035681  45.0265026
  98.2052898  44.6685076  69.1909790  98.5766888  44.5635176  68.3150339
  98.1528759  43.7776804  69.5372629  62.1295071   7.9885870  66.5651417
  61.3609838   8.4667248  66.2537098  61.9643545   7.8511977  67.4979210
  25.8681517  21.5859866  61.6913605  25.6427699  22.5151563  61.7369318
  25.0238734  21.1352801  61.6746140  71.4573240  36.5044093  56.8772650
  72.1921253  35.9474039  56.6202736  71.4871836  37.2384834  56.2636900
  83.7418652  43.6468792  57.5156069  84.4132710  42.9719687  57.6152706
  83.2711506  43.4007168  56.7193270  97.1551418  19.7879934  28.2047296
  96.5052319  19.4318414  27.5989270  97.8630638  19.1437292  28.2024646
  60.6551266  53.0522490  50.6340933  60.4349995  53.8566065  50.1642227
  59.8423052  52.5467396  50.6374454  77.2154951   8.5652769  74.4042301
  76.4069748   8.5951871  73.8927317  77.2525978   7.6702142  74.7414541
  85.6850815  14.5261955  23.9825535  86.3591099  14.0360415  23.5117269
  85.4362679  13.9542878  24.7086668  54.9691391   5.5910212  76.4918566
  54.1362190   5.2091092  76.7686701  54.9383926   6.4918596  76.8140030
  62.2978640   2.2409537  65.4518414  62.3549366   3.1528711  65.1665640
  63.0290604   2.1341178  66.0602570  77.6749086  19.0376627  73.7092638
  77.8579187  19.0059757  72.7702570  78.3662796  18.5077524  74.1060448
  76.9691229  45.4684448  51.8083906  76.7737961  45.4458237  52.7451801
  77.7980757  44.9971342  51.7251205  46.6643047   9.9159098  42.7663326
  47.1401072   9.6325129  43.5470581  47.2727776   9.7579122  42.0445061
  90.3020668  23.5866714  24.9524951  90.0873280  22.8981757  25.5818534
  91.2094784  23.4098387  24.7043872  51.7924833  34.4502592  45.2243900
  51.4658022  34.9797201  44.4969416  52.4533463  33.8817835  44.8290110
  91.0813999  25.0004148  59.6672678  91.4273167  25.2950478  60.5097389
  90.9512424  24.0585876  59.7779655  98.8183498   3.2820159  52.6671362
  98.1549168   2.6319498  52.4358130  98.3848953   4.1248244  52.5328588
  69.1362810  48.6445236  64.1758537  69.6376562  47.9973602  64.6718693
  68.5936737  49.0815020  64.8322535  63.5075951 130.3951866  63.0979729
  62.8902626 131.1118169  63.2448530  64.3373632 130.7180400  63.4493732
  79.9698353  74.7331667  31.4821196  80.8033657  75.0254440  31.8509364
  79.6320200  74.1057301  32.1212125  88.4342575  21.7066431  73.0639076
  87.9799080  20.8643198  73.0470467  89.1008759  21.6329098  72.3809624
  91.0482311  56.4997149  67.2695160  91.5969753  56.3662863  66.4966583
  90.7514572  55.6212425  67.5071049  86.2148666  42.3225784  40.1020956
  86.3655758  42.6215219  39.2053533  85.7029057  43.0236244  40.5054188
  98.8112068  29.2279029  33.7272358  98.7184715  28.9395666  34.6352506
  98.4953690  30.1314926  33.7294221  97.7704525  23.7884140  85.8032417
  97.9244232  23.5312986  86.7123127  97.3020554  23.0465364  85.4205513
  96.5719891  14.5644593  51.9611692  96.4154816  15.2964640  51.3645887
  96.3063812  14.8941350  52.8196526  88.4579086   4.0199065  64.2091560
  88.8250637   3.2625580  63.7532425  87.7597237   3.6563215  64.7537374
  48.9065218  18.4488308  32.6790357  48.5587120  18.0095923  33.4551358
  48.4463549  19.2877316  32.6521897 104.1149139  30.9838629  25.2213812
 104.8748684  30.6077194  24.7772980 103.4036541  30.9072042  24.5853996
  84.6335220  65.6673717  44.7583389  84.0795898  66.2890196  45.2305126
  85.4969788  65.7626486  45.1603222  61.1340809  31.6547680  64.9103689
  60.3468370  31.6386509  64.3661118  61.3553619  32.5831199  64.9840450
  70.0339651   5.2262801  49.5714521  70.6058550   4.8020142  48.9317846
  69.2300701   5.4137063  49.0868330  89.1985035  38.8533878  56.7779493
  89.7354603  39.1601014  57.5085926  89.7128868  38.1503201  56.3812876
  66.4277220   2.5284520  52.6367521  67.2485924   2.4106249  52.1587133
  66.6975498   2.6772881  53.5429955  59.4289207  34.9829888  87.1278286
  59.1548729  35.8517742  87.4216652  60.3544474  34.9303961  87.3662853
  81.4619350  19.6415102  31.4217615  81.6059113  19.2615867  30.5550671
  81.5445614  18.9021897  32.0240998  98.8035679  21.8898487  22.8326750
  98.3925533  22.1607780  22.0117617  98.5383129  22.5575829  23.4651303
  77.5808287   8.6138213  62.3504972  76.6843653   8.2783389  62.3444510
  78.0363607   8.0918485  61.6899920  92.4412155  17.9905474  23.1558418
  93.1818390  17.4302804  22.9238796  92.6373386  18.8306868  22.7411962
  52.6040125  12.9769504  40.6721735  53.0227947  12.6344180  41.4618063
  53.0363655  12.5166392  39.9528599  68.4380484  26.5172338  83.2141304
  67.6520634  26.1193442  83.5884857  68.9759588  25.7740164  82.9411602
 103.3244324  30.1272440  71.2730551 103.2973766  29.8173785  70.3678036
 103.7420940  29.4151807  71.7575693  41.0931778  31.6847348  56.5481281
  41.1019611  30.8507681  56.0783863  40.8162880  32.3255897  55.8932495
  37.7014685   9.7905147  42.3654222  37.0917201  10.4806805  42.1044445
  37.4511862   9.5771283  43.2643414  84.9508190  21.4200592  46.0013676
  84.8596573  22.1990514  46.5500927  85.8828068  21.3867474  45.7856846
 105.0185490 144.3789861  32.9775000 105.4392433 143.8485853  33.6542010
 104.5568752 143.7449620  32.4287724  80.4251194  15.8528709  37.0978928
  80.8869362  15.1514578  36.6385674  81.0358810  16.5897977  37.0857573
  78.6820602  27.8145075  41.4618874  78.9000511  28.1008220  42.3488665
  78.2418585  28.5679150  41.0684061  36.4176607  28.4999943  44.4904470
  36.7517114  27.8362226  43.8870811  36.3820028  29.3017030  43.9687014
  69.1796970  24.6989775  33.1682706  68.3258820  24.4354248  33.5114479
  68.9891768  25.0572276  32.3013282  93.0416489 146.1854757  27.6975942
  93.7811756 145.8270320  27.2068381  92.7099419 145.4451384  28.2056355
  93.1998444 143.6722777  59.6470642  92.4798965 143.3411927  59.1101313
  93.5043335 142.9083205  60.1368475  67.2505188   2.5835043  12.8741658
  66.9499063   1.7702492  12.4686038  66.5655470   2.8037855  13.5054529
  78.9350557   7.8540748  24.6303940  78.1766129   8.4291941  24.7315764
  78.8752890   7.5350559  23.7299013 104.3348885  54.7584152  64.9310303
 103.8527107  55.4153061  64.4288111 105.2096939  55.1323080  65.0366735
  73.0355406  38.2625532  23.5303092  73.7274027  37.9896021  22.9277635
  72.2615623  38.3637047  22.9762697  69.4721746  47.5965405   7.2441173
  69.2398596  46.7358732   6.8955302  68.6312866  48.0227184   7.4099654
  98.3047962  21.2446547  40.8884764  99.1566277  20.8497715  41.0746861
  97.7420139  20.5043077  40.6617737 100.4387093  63.4538889  15.8738124
 100.1179790  62.9213333  16.6016471 101.3910580  63.3667898  15.9147644
  66.8885708  21.7086077  32.4970245  67.1208763  22.3293090  33.1876731
  67.2142887  22.1124148  31.6926098 104.6276283  37.9509401  65.3123045
 105.3104115  37.2886753  65.2053690 105.0478840  38.7718105  65.0558090
  98.4527397  72.3754120  37.0745826  98.9463615  72.2245884  37.8806996
  99.1140270  72.3616505  36.3826728  75.4057980  37.3129368  72.5012398
  74.7351837  36.7235899  72.8464556  76.1310720  36.7361569  72.2613764
  56.8624830  29.8467803  50.9117746  57.4179173  29.4174671  51.5624809
  56.6795683  29.1647172  50.2655792  69.3416691 138.5803563  23.3689022
  69.9735546 138.7945754  22.6825619  69.8793840 138.3186645  24.1163087
  48.6023617  24.8949385  20.7818818  48.5271692  25.8490014  20.7634091
  49.5299911  24.7245860  20.6184363  55.7344151  33.4789586  59.2609644
  54.8460388  33.8294983  59.1965914  56.0791445  33.8479090  60.0741482
  56.8070602   3.0614120  64.5976973  56.7257881   2.1111926  64.5157862
  56.5166378   3.2506061  65.4899406  82.2863770  56.2400198  46.3064384
  82.3441410  56.4784527  47.2316647  81.5825272  55.5923605  46.2694979
  28.2997465   7.7060902  47.5293779  28.2151294   8.3027434  48.2730722
  29.0284324   7.1317768  47.7647781  96.7814064  16.0207152  21.5730524
  97.6047230  15.7980216  22.0075607  96.4075184  15.1763415  21.3211203
  86.0520458  48.4569216  63.5256243  86.5578747  48.2274294  62.7460718
  85.1425457  48.4645367  63.2273340  82.4918079 141.8058122  44.4725895
  82.1851444 142.6834727  44.7004032  83.4117317 141.7973972  44.7369814
  85.1277065  12.8664529  14.8152363  84.5694256  13.5381961  15.2067947
  85.9481525  13.3198941  14.6216023  62.4053144  40.0743246  72.1417522
  62.2531033  39.4661307  72.8650522  61.5616894  40.1284313  71.6927528
  54.5083523  17.2950995  81.5572453  53.7982893  17.8912401  81.7952824
  54.2250299  16.9028354  80.7313538  87.3748207  68.4503937  22.8144145
  87.6530075  67.8292084  23.4874463  87.8044701  69.2714977  23.0540299
  77.5882912  46.9372463  67.7627230  77.6202631  46.3141108  68.4886074
  77.2166252  47.7319765  68.1454849  85.4239178  39.9619150  73.1005955
  84.9142170  39.6025372  73.8267374  86.3029957  39.6041155  73.2248449
  93.7177849  49.8680782  55.2955437  94.3570423  49.1575193  55.3472996
  93.7795258  50.3080368  56.1433983  94.5694828  15.3503859  79.8915672
  93.8508987  14.7545648  79.6797466  95.3436470  14.7886193  79.9277687
 107.5561428  14.2699409  39.8415780 108.1550884  14.8969352  39.4361377
 106.7121887  14.4399202  39.4231629  71.4316988  32.9284859  67.5222206
  70.7853460  33.2648087  66.9014549  70.9266520  32.3741031  68.1170464
 101.2183762  23.0590725  60.0643873 101.0535717  23.1132841  59.1230392
 102.1583843  23.2167220  60.1524496  68.7736750  38.1089401  28.8227248
  68.0617189  38.3103395  28.2154417  69.2551231  38.9317679  28.9086962
  92.3043537  23.8785005  69.8895788  92.8954506  23.5081768  70.5450869
  92.5959206  24.7846246  69.7888136  70.8744621  55.3593302  91.8988895
  70.7113838  56.2441921  92.2254848  70.0044870  54.9668598  91.8258572
  76.4650536  52.1381140  17.1404994  76.9265127  51.6868925  16.4336145
  75.6393290  51.6622114  17.2295630  70.1312113  40.6725931  25.1750684
  70.1204348  39.9086308  24.5984602  70.3431463  41.4057541  24.5973229
  64.9304724   4.2925456  57.5828981  65.2327156   3.4091416  57.7937937
  65.3685856   4.8545343  58.2220078  81.5653610   4.9598703  89.3686581
  81.5556431   5.9123671  89.2743874  81.1430740   4.6361166  88.5729885
  64.2160654  47.2064161  35.7628822  64.9618435  47.3335981  36.3492894
  64.5268679  47.5114822  34.9104929  85.1332474  33.2820153  63.9688063
  85.8066273  33.1450081  64.6351528  84.3387127  32.9094434  64.3510723
  56.2751865  37.9334855  30.5059147  55.9653950  37.0678329  30.7721949
  56.3585043  37.8757238  29.5541000  46.2650061   6.5252000  48.4770298
  46.4600134   6.6301119  49.4082642  45.4061127   6.1030841  48.4582567
 110.4948902  49.3429136  61.6488838 109.8263168  48.9873695  61.0633707
 111.0812187  48.6056042  61.8186522  68.8394356  41.5293455  37.2662044
  68.2617378  40.7890129  37.0807362  69.4466925  41.1992645  37.9284120
  84.1238213  57.2988033  22.3971009  83.2951736  56.9636679  22.0546508
  84.7593021  57.1198273  21.7040205  96.6174984  38.2876039  66.5520382
  97.3753357  38.2742858  67.1366215  96.6369343  39.1581297  66.1544991
  88.9819241  53.4202385  35.4325104  88.7961197  53.0712652  34.5607710
  88.6038685  52.7779818  36.0331869  83.3133221  35.2690768  86.0161591
  83.3310127  36.1025119  85.5457211  82.9494476  34.6464491  85.3867435
  94.7976780  42.7554464  20.7179189  95.3868675  42.2961998  21.3164091
  94.6786594  42.1491814  19.9868143  37.8956699  52.8089380  82.4664307
  38.3310962  53.4737921  81.9329453  36.9691944  52.8887796  82.2394943
  80.1503277  25.2493668  24.9594736  79.9469519  26.1734605  24.8148322
  80.2394485  25.1695371  25.9091663  87.4439144  28.1362963  25.7226491
  87.4372768  29.0933704  25.7365561  88.0540657  27.8908777  26.4181495
 106.8554497  40.1088953  36.6625857 106.2178802  40.8228302  36.6567469
 106.4426899  39.4234657  37.1879983  60.3698063  24.8392987  51.2392902
  59.5646954  25.3383231  51.1014509  60.4364061  24.7499347  52.1899796
  93.0552101  38.5914516  35.3016996  92.6052094  38.7225437  34.4671059
  93.5777664  39.3847656  35.4192448  97.9162216   4.9000117  68.2794666
  97.2339630   4.2286298  68.2791281  97.8289604   5.3305972  67.4290514
  77.7078581  62.5298691  27.8862762  78.1369066  62.8506899  27.0930409
  78.0359745  63.0985880  28.5827875  76.1532354 142.2734759  29.1691637
  76.1018658 142.5318641  30.0893974  76.9652700 142.6702915  28.8539386
 114.7397614  21.4984298  59.9408913 114.8597717  22.4258494  60.1451445
 114.1733551  21.1706758  60.6394625  71.0914373   4.4792128  65.8521271
  70.9961987   5.3160977  65.3973913  71.8941307   4.1013509  65.4927731
  96.6666222  34.8978043  33.9052534  97.2132778  34.4370127  33.2687998
  97.2043800  35.6354117  34.1933250  72.5366592  17.2886205  39.5809603
  73.0810976  16.7031765  39.0545821  72.5697851  18.1263375  39.1190457
  87.1162796  39.2503262  42.4266052  86.5288925  39.9830222  42.2412252
  87.9939747  39.6295547  42.3811626  84.0367031  14.2308617  43.2692194
  83.2492065  13.7687159  42.9819822  83.7179089  15.0799465  43.5752583
  74.4650221  25.4092383  50.9650755  73.5981560  25.0478077  51.1498642
  74.3049288  26.0972857  50.3191710  57.2711086  26.6129994  37.2510648
  56.3727427  26.2972498  37.3483849  57.3363400  26.8700147  36.3313270
  73.6069918  31.9522333  41.1049366  73.0719328  31.1884975  40.8889484
  74.4290352  31.5846992  41.4295864  71.8530798  31.9114327  48.5860157
  71.2171793  32.2042799  49.2387819  71.9495487  30.9732699  48.7496614
  82.6426411 126.3721676   2.3850311  81.9501591 126.8793816   2.8086343
  83.3517742 127.0008249   2.2503287 105.7916164  31.5085125  53.5707760
 105.3229809  32.3113775  53.3427143 106.2242413  31.2447953  52.7586651
 104.9931049  38.3114886  40.7607126 105.1360416  37.4712205  41.1963129
 104.3049908  38.1347370  40.1192427  40.4047871  17.8618181   8.4487379
  39.9472618  18.6128414   8.8267136  41.1564541  18.2429016   7.9948580
  62.4925041  36.1095166  49.0981388  63.3205462  36.3437271  49.5173407
  62.2742414  36.8690372  48.5580254  97.8173065  52.6282549  81.6540432
  97.8900814  52.6623631  82.6078606  98.7170601  52.5108767  81.3492298
  48.6613035  26.0019040  58.4849453  47.8296852  25.5778480  58.6966419
  49.1554594  25.3352666  58.0078316 103.5915279 145.8126258  26.5390182
 104.2860126 145.8624891  27.1958566 103.8558388 145.0936004  25.9651065
  84.6055031  59.6407032  48.1419134  84.5241642  59.1767120  48.9751768
  83.8148880  60.1776695  48.0886078  16.4914656   1.1133227  66.6824961
  15.8460677   0.7507832  67.2893429  15.9714031   1.4506528  65.9531307
 119.2773628  48.3960056  74.3046808 119.0520573  47.4993610  74.0567017
 119.3067551  48.8735867  73.4756565  84.5063305  31.9170332  55.6465483
  84.2909050  30.9952903  55.7887220  84.7048473  32.2541118  56.5201616
 123.2253838  47.2913027 105.4330494 123.7762642  46.5188837 105.5600622
 123.4098721  47.8445005 106.1921080  83.2740211  25.6927347   8.7316865
  83.7713909  24.9086690   8.9642763  82.4184704  25.3614473   8.4587210
  79.3103170  15.5035114  18.7487090  78.5957098  15.2175045  19.3177187
  78.9058399  15.6005800  17.8866148  90.2439404  55.3876638  24.5403266
  90.6993389  54.9815464  23.8028193  90.7036686  56.2156916  24.6790910
 106.7557430  25.9136033  59.8788548 107.1975708  25.2428198  60.3994989
 106.9646835  26.7363429  60.3212070  73.0606794  19.9473929  29.7345424
  72.5500059  20.7319593  29.5347905  73.9100885  20.1029110  29.3215632
  73.1237173   9.3849826  69.9249697  72.3469639   9.8198235  70.2768230
  72.9076099   8.4527910  69.9483585  90.3913975  48.0241346  29.1337490
  91.2981701  48.2331562  28.9094639  90.1853657  47.2534704  28.6047316
  92.4320507  16.5238261  49.3308973  92.9206562  16.5599644  48.5085917
  93.0355263  16.8783629  49.9838591  75.2682114   6.3774133  32.2938108
  75.1493454   5.4409921  32.4526095  74.9694824   6.5075320  31.3937783
 103.6448574  16.4349747  28.9793468 104.3163013  16.2202752  28.3318090
 103.9771938  16.0694289  29.7992015  48.0150270  17.1898043  42.0031834
  48.7182236  17.2322321  42.6512146  48.2678509  17.8252351  41.3334513
  91.2421322  57.7666712  24.9790740  90.9473419  57.9492283  25.8712649
  90.8416843  58.4556580  24.4488192 118.4522724 129.4646532  35.4190302
 118.0506706 130.1601894  34.8982835 117.7365494 128.8541562  35.5958438
 112.9573917  53.8523626  74.4203472 112.0721817  53.8107634  74.7821569
 113.5259151  53.6032534  75.1490164  97.1436691  13.7219393  46.7540121
  97.4381351  13.1834900  46.0194397  96.3588619  14.1627264  46.4284086
  92.4221992  12.4154854  20.3108072  92.0727253  11.8904650  21.0308456
  91.7487526  13.0756736  20.1469302 115.6711960  10.2427375  81.9933033
 115.3377247  10.7264853  81.2376499 114.9011326   9.8053610  82.3565292
  76.3765049   3.4546602  32.9942918  77.0960283   2.8243157  33.0286765
  76.7278385   4.2420799  33.4099436  42.2515869   1.4563465  22.8701353
  41.7279816   2.0479441  23.4105778  42.9376459   1.1393841  23.4575772
  43.0775166  36.0696125  32.2110057  43.8101292  36.6808939  32.2874570
  42.3029757  36.5991354  32.4005532 100.8593845  28.7766314  28.6927104
 100.5411053  29.1278839  29.5243049 101.6483593  28.2872748  28.9256883
 105.4280949  25.5221558  90.9562206 105.6408119  25.3199553  90.0451183
 106.2718296  25.5077934  91.4080238  84.5155811  15.7952857  94.7854328
  83.5848618  15.8259296  94.5639420  84.6540546  16.5598631  95.3444386
 120.1556206  21.9143081  77.7969551 121.0136509  21.5294600  77.6183319
 119.5368576  21.1991286  77.6490211  72.1211243  31.1559963  74.3139076
  71.2268209  31.3904333  74.5618868  72.0446444  30.8378172  73.4143829
  51.3944101  27.1334028  71.6330147  51.6191530  27.7227473  70.9130192
  51.8145752  26.3043952  71.4040136  65.2844524  43.5066128  88.0267334
  64.6443081  43.7923050  88.6785126  66.1269140  43.7998581  88.3738708
  89.0442944  26.1672950  42.0470333  89.9332619  25.8274245  41.9447756
  88.5477448  25.7559180  41.3396168 117.8250408  51.2887001  14.7005141
 118.2625866  50.7862234  14.0132749 117.2755146  50.6483650  15.1524258
  85.7944298  47.3293447   7.7803701  86.4710236  46.7309904   8.0972737
  85.1359367  47.3358297   8.4750485  85.1175213  94.9815655  12.0111096
  84.3647957  95.1142311  11.4348900  85.5336475  94.1848564  11.6819572
 113.1004906  27.2522664  52.5226116 113.9400291  27.6349735  52.2677755
 113.2503891  26.3072276  52.4968481 120.0475788 143.4011642  74.3399143
 120.6489182 143.9899961  74.7958755 120.1615620 143.6128572  73.4134007
  94.2789936  16.1738658  58.3706379  93.6964989  16.8828297  58.6432219
  94.1738510  15.5042470  59.0465021 108.1344604  30.4265356  62.0846367
 107.9450798  29.7689986  61.4153004 108.1639862  31.2545753  61.6053581
  79.4942856  52.8530455  41.0002470  79.7542810  53.0055952  41.9087410
  78.6514521  53.2985544  40.9142971  27.0386219  53.9098310  31.1444092
  27.9157686  53.5562134  30.9967613  26.5131092  53.5537720  30.4279661
  96.0204792  10.6808472  20.4713440  96.5632057  11.4057124  20.1611018
  95.8259678  10.1730466  19.6836030  86.8978786  21.0894203  60.9965658
  87.7894020  20.7410693  61.0053921  86.3493061  20.3379154  60.7717562
  94.0268230  19.8358488  52.1160984  93.9558792  20.5730963  52.7224541
  93.1229401  19.5546043  51.9741964  50.6804180  34.9987173  60.5671740
  50.4828262  35.6087852  59.8565340  50.4288816  35.4680181  61.3626099
 109.9784851  18.7380505   9.9471885 110.4887772  18.1459117   9.3947357
 110.5342102  18.8911927  10.7113504 111.0612869   6.7375243  60.2126217
 111.5550041   7.5417459  60.0523186 110.1477146   7.0207626  60.2500486
  65.0252104  41.8536949  36.9354820  64.7738171  42.1156168  37.8211617
  64.4027138  41.1644697  36.7037606  58.6999369  46.2852859  87.2728062
  57.8169060  45.9355831  87.1536732  58.5654974  47.1430922  87.6757050
  80.7499123  23.1572962  45.1389027  81.3679028  23.6704063  44.6182919
  80.8187962  23.5225224  46.0210037  52.4894714  18.0788410  48.8407469
  53.1290817  18.3984101  49.4771481  52.4197006  17.1414256  49.0213442
  66.9916439  38.9041162  75.6861162  66.1590099  38.5168314  75.4160070
  67.4525261  39.0776777  74.8653269  95.4965210  32.4077630  24.5344281
  95.9741783  33.2356858  24.4832063  94.8107052  32.5666428  25.1830029
  70.9569550  10.3942037  44.0318680  70.0904369  10.0838900  44.2947006
  71.3350344   9.6632248  43.5430336  81.9922256  46.9944048  47.9095936
  81.2737370  47.4359322  48.3624315  82.7525997  47.1334743  48.4741545
  81.5753841  83.1863213   4.6794754  82.4760723  82.9318142   4.8800266
  81.5923595  84.1433525   4.6745494  83.9929676  34.8609424  29.0964150
  83.4934711  34.0707707  28.8905907  84.4375229  35.0831556  28.2783532
   1.7976790  29.3833590  92.2477194   0.9589987  29.5448899  92.6798721
   2.4525481  29.5513225  92.9253372  68.9595985  36.9183850  21.1572337
  69.1919613  37.2057271  20.2742410  69.7799492  36.9657421  21.6481662
  16.0235620 146.3102141  36.1981392  16.9764233 146.2702808  36.1163306
  15.7368124 145.4018346  36.1040473  48.5195971  16.5358865  36.6800070
  47.7703667  16.7119741  36.1109042  49.2483473  16.9988394  36.2666893
  76.4161301  58.0975533   5.2109480  76.5484095  57.3999643   5.8529013
  75.7270384  57.7658176   4.6353287  96.4138699  16.6424549  50.1266146
  96.9216156  15.9123826  49.7724676  95.9419060  16.9943595  49.3718672
  58.9415741  20.5388904  40.6227636  59.0097523  19.6961141  40.1740885
  59.0885830  20.3315187  41.5455961  86.3608456  35.4501629 105.9003856
  87.2062016  35.8694959 105.7398959  86.0965252  35.7668781 106.7641326
  57.8003740  71.3980246  31.8576622  57.1293068  71.6838312  32.4775171
  58.6138964  71.7720413  32.1960783  71.3657713  36.8667841  27.8948522
  71.3051176  37.5799894  27.2593284  70.4560614  36.6434383  28.0917716
 100.7728004  40.0516224  13.8668919 100.4356670  39.6868420  13.0486572
 101.5402412  40.5598593  13.6042964  57.1468449  34.2608690  39.1701317
  56.8001699  34.1903043  40.0595522  57.6173019  35.0944352  39.1618752
 101.7175388  38.4296632  51.9476223 102.5986481  38.1110072  51.7518187
 101.8016243  38.8582468  52.7993727  74.0444374  18.2054615  18.4159207
  74.2361307  19.1083443  18.1623650  74.0515423  17.7186000  17.5918174
  98.7109852  40.5482769  19.7632968  98.0355740  41.2122774  19.9016643
  98.3948135  39.7817445  20.2415156  50.8799505  51.7760849  30.1531148
  50.7962418  52.6747417  30.4719186  51.2537909  51.8667364  29.2766118
  61.4212370  40.2725506  45.2409172  60.7698488  40.3990173  44.5510387
  61.6279554  41.1578989  45.5403471  52.9562759  36.9759226  16.1369658
  53.4848118  36.2535930  16.4762557  53.5026264  37.3750544  15.4598939
  88.5223198  73.7013721   4.4031373  88.3454800  74.0970993   3.5496968
  88.9260101  72.8582573   4.1971809  59.7707462  35.2085161  33.0050588
  60.2954102  34.5133615  33.4021997  59.4710922  35.7353926  33.7458968
  61.5715694  17.9237306  26.8868685  62.0433998  18.6448765  27.3034668
  61.6288185  18.1097710  25.9496689  68.6960125  37.9549861  18.2321978
  69.4197750  37.6158428  17.7055275  68.7015820  38.8979697  18.0679393
  73.2473421   6.3013256  38.0502748  72.8921223   6.1231667  37.1794653
  73.7121105   7.1325511  37.9539013  69.1000891  66.2276936   6.8420005
  69.8022366  65.9782553   7.4428320  69.5507574  66.4592266   6.0298896
  89.1345501  42.2765303 105.4433700  88.5908699  41.6503000 105.9213581
  89.3229198  41.8435574 104.6107318 114.1995430  19.9837649   2.6576680
 114.0250397  19.3088377   3.3136052 114.0251350  20.8087683   3.1106383
  82.6578617  39.3867254  34.4086695  81.9511795  38.7457800  34.3310380
  82.3613262  40.1342392  33.8895178 112.0196152  38.1320238  17.1101761
 111.3477802  37.6580048  17.6002526 112.6702404  38.3746862  17.7689958
  99.3285084  41.0567045   0.6856225  99.9827099  40.3962088   0.4575851
  98.8667679  41.2297153  -0.1347991  79.8113823 139.4093741  48.6428928
  79.0356207 139.5761419  49.1782570  79.5835066 138.6373455  48.1249428
 107.2654057  27.9160690  72.0555115 107.9064274  28.6242414  72.1173048
 107.3068428  27.4805403  72.9068851 104.1838455 132.1203715  99.0398630
 104.4984436 132.9676301  98.7245580 103.4854221 132.3387415  99.6569081
  67.1170378  12.2424245  34.1086769  66.4970493  12.9655516  34.2031956
  67.9630756  12.6191306  34.3506312  95.7747841  49.2393684 105.6280252
  95.4755402  49.4964600 104.7559097  95.8894634  48.2907200 105.5719026
 109.5085049  53.4881163  32.8295350 109.0252304  52.8504610  32.3041034
 110.4264641  53.2375622  32.7256298  79.4304514  82.3896313  40.6815243
  79.7234535  81.5852261  40.2533865  79.3531656  83.0252075  39.9699688
  46.7238855  34.4775605  34.1426778  46.3504982  35.0006986  34.8520017
  47.0487452  33.6869621  34.5735526  86.3694477  23.5191107  59.9563503
  85.9630871  24.1040397  60.5958462  86.5167999  22.7043748  60.4366922
  57.2144604  23.7693095  30.5165386  57.7556467  23.0136490  30.2877879
  56.8886757  24.0935493  29.6769166  78.6654329  51.5930653  64.5920992
  79.1742468  52.3793697  64.7897625  77.7551126  51.8568945  64.7260237
 111.4835358 135.8103485   3.4132236 111.7196941 135.3973062   2.5826466
 110.6640816 135.3859110   3.6673233  78.6386585  21.9296241  54.1809416
  78.2999468  22.8248811  54.1761160  79.4438171  21.9753814  53.6653328
  76.8508196  25.8871078   9.6385443  76.1349058  25.2743578   9.4704896
  77.3699760  25.8752275   8.8344514  60.3937101  22.8939462   9.5982397
  60.2512407  22.7997732  10.5400813  60.9111547  22.1258640   9.3562961
  91.2917137  13.2235575  67.9650640  91.9333553  12.8634357  67.3528147
  90.8540440  13.9178383  67.4724627  92.0576191  28.9597130 100.4846587
  91.9509983  28.0086350 100.5023416  92.5805664  29.1565895 101.2618353
 110.6989002  15.4109240  24.2558479 110.9248734  15.1301587  25.1426077
 111.5410900  15.4908669  23.8080120  83.6784363  37.7053308   1.2985234
  84.6191216  37.8700233   1.3635080  83.6126900  36.7767835   1.0755731
  83.7449837  70.6777096   6.7220807  83.4805775  71.5617943   6.4676923
  83.3318520  70.1081038   6.0731518  83.3181286  26.3287616 101.7226943
  83.9096165  26.9186115 101.2553015  83.2083893  25.5828333 101.1329653
  94.6977043  26.5407181   1.2922041  94.8166275  27.4899673   1.3240372
  95.5866146  26.1896038   1.2394075  79.4284296  20.3814864  57.0213985
  80.2544022  20.1545072  57.4485826  79.6900654  20.8240294  56.2139750
  74.0989542  18.4151351  54.7345495  74.3419313  18.2826877  55.6508732
  74.8450947  18.8779938  54.3534088  66.4234352 137.4060018  18.0861497
  66.6132593 137.5214107  19.0172136  65.5527353 137.7863813  17.9702818
  89.0926743  17.1958899  36.7576814  88.8840675  16.2781370  36.9321585
  88.3973026  17.6869619  37.1953297  91.9056416  52.7774334  32.8399062
  92.0078087  51.9399309  33.2919931  92.5462341  53.3540773  33.2562661
  95.6555939   9.4033653  18.2357919  96.0270500  10.0503111  17.6360309
  96.0870361   8.5822290  17.9995167  80.5428410  43.0002308  47.9761410
  80.1433468  42.4972725  47.2664452  80.7378387  42.3495483  48.6505413
  72.9143620  17.5697613  67.3520708  73.7921858  17.5132275  67.7295065
  72.3680496  17.9009855  68.0648613  96.2240410  34.9617004  24.7482133
  95.9641171  35.4025507  23.9393139  97.1800327  35.0097561  24.7506309
  52.8128624  18.3364058  12.0539045  52.1963310  18.3940792  12.7838349
  53.0845451  17.4186504  12.0418084  48.2334518  50.5424786  31.6865611
  48.8171387  49.9103212  32.1059847  48.8218069  51.1800575  31.2821293
  69.7937489  10.6852055  13.2008898  69.8567057   9.7580653  12.9713726
  69.6643829  10.6889164  14.1492999  77.6198721  35.8982944  14.1235507
  78.1871605  35.2239895  14.4973528  78.2234764  36.5247011  13.7241650
  53.1989050  22.9306006  46.8905115  53.6266375  22.0784044  46.8066168
  53.4427786  23.2360125  47.7642870 101.8677425  12.1841383  66.4271832
 101.1621189  11.5717959  66.2189388 101.5175152  12.7201450  67.1387100
  80.2967262   6.3890487   8.1939769  81.0260105   5.9067404   7.8044140
  79.8280191   6.7596698   7.4461889  55.7569361  40.3905010   8.0975324
  55.7871056  40.5353689   7.1518397  54.9200630  39.9501753   8.2458085
  69.8365450 128.6495263   9.6180695  69.8651648 127.7239914   9.8605520
  68.9126396 128.8208825   9.4356799  75.2653551   2.6754948   6.9351929
  75.1548290   3.1739542   6.1255300  74.3738508   2.4514364   7.2021115
  75.4015923  52.9800987  85.0519475  75.0090456  53.7950897  85.3648885
  76.1636496  53.2604647  84.5451029  86.5517330  42.6817799  37.4809861
  85.7137108  42.3054171  37.2121096  86.8911552  43.1003141  36.6898775
  65.7239914  19.6291471  27.1960998  66.1456013  19.3523860  28.0096579
  66.3720751  20.1893353  26.7690086  58.5310316 132.1893496  58.3796740
  58.3039570 131.3458771  58.7711096  58.8790607 131.9667537  57.5162172
  95.3497505  58.5009575  25.6473470  94.8784161  58.6722088  26.4626670
  94.9019051  57.7458811  25.2658606  88.4804153  35.8606791  63.0721140
  89.1604996  35.2464509  62.7956390  88.8334274  36.7231536  62.8535795
  23.6923265  21.8024158  20.4241133  23.4394574  21.3632059  21.2361383
  23.2685113  21.2923074  19.7338939 101.7180824  25.5224323  12.3959613
 101.8019581  25.1662731  11.5114570 101.5590477  24.7570109  12.9482877
  76.6799736 139.6348298  37.4221373  77.2649193 138.8872463  37.2988868
  77.2650623 140.3905214  37.4753785  91.5604877   0.4174802  23.9542341
  91.4717484  -0.5316249  23.8673091  92.4987316   0.5802141  23.8570094
 105.2437878  23.2573032  33.9801574 104.6133137  23.1941199  34.6976161
 105.2643967  22.3784971  33.6013341  29.2610335  20.2772188  28.8872266
  28.4955192  20.7854486  29.1554046  29.4499087  19.7144043  29.6380901
  90.1903248 142.8485409  19.2612767  91.0356903 143.2760710  19.1241252
  90.3442478 142.2396777  19.9836516  70.3130007 144.4487519   8.2683635
  70.2198839 144.9092651   9.1023231  69.5178080 144.6688581   7.7831256
  81.9149399  23.1678653  24.2184997  81.3547611  23.9313579  24.3581653
  81.8560600  22.6746988  25.0367618  94.8075294  13.4153903  13.9620245
  94.7312164  13.2027340  14.8921776  95.5350208  14.0358448  13.9170814
  52.2978163  62.6903725  49.3622732  51.7114449  62.1306515  48.8532400
  51.7129850  63.2817364  49.8360825 100.4047871  87.6259899   6.0617185
 101.3076973  87.3189449   5.9797776 100.1490784  87.3832035   6.9516045
  81.4704418  12.9729843  23.6528635  80.7408810  13.3130515  23.1348586
  82.2331810  13.0656075  23.0820084  79.4678354  13.2943833 105.5110251
  79.8100424  13.2237244 106.4021661  80.1040077  13.8436890 105.0530135
  74.2342520  20.2644920  24.1814971  75.0534821  20.7477880  24.0741825
  73.6124134  20.7177901  23.6122274  70.9976673  29.4293451  29.5679760
  71.1144352  28.7382531  28.9160609  70.5103540  30.1127648  29.1078734
  95.2625656  32.2188401  32.1681356  94.5509434  32.8562284  32.2278619
  95.9590721  32.6805210  31.7012763  57.0961332  13.8343167   7.0607650
  56.4985991  14.0791738   6.3542014  57.9676723  13.8973188   6.6700208
  61.2961483  47.2694397  40.3294611  61.8365002  46.4886904  40.2082920
  61.9218922  47.9645300  40.5332422  95.7378006  30.3749824  17.3862100
  96.1104393  29.8497438  16.6780460  95.8967018  31.2810373  17.1215534
 108.9644241  19.4350731   1.7359592 108.2119942  19.8601508   2.1475342
 108.8239193  18.5004270   1.8873827  76.5044546  44.8905563  35.4399347
  76.3748503  43.9512634  35.5709195  76.4758921  45.2615595  36.3218498
  99.1650772  28.1174946  10.5581105  99.5513916  28.9692903  10.3545523
  98.9401245  27.7464676   9.7048998  88.9117622  35.7751226  12.9326594
  89.0322876  35.2544594  12.1385455  89.7778702  35.7950902  13.3397162
  41.1267233  20.7888269  24.8278737  42.0769119  20.7127285  24.7407985
  40.9434748  21.7121387  24.6542311  68.6667442  39.6798778  54.2375135
  69.4705009  40.0373983  54.6148586  68.8388777  39.6447611  53.2965755
 102.8179169 126.4335413  27.5141406 103.1685638 125.5770774  27.7585769
 103.3726311 126.7214043  26.7891145  92.1674061  32.7479649  27.1339703
  91.3264275  32.6984811  27.5884366  92.4746227  31.8420649  27.0993662
  71.7593575  26.4651203 108.9747208  70.8474588  26.2678480 109.1886165
  72.0664597  25.6928253 108.4998701  56.0552597  45.5847645  39.1201496
  56.2814474  44.7223854  38.7717628  55.5542564  45.3984213  39.9141932
  66.5841436  27.9356742  41.6861725  67.0064211  28.2867122  40.9021521
  65.8899021  27.3684669  41.3507032  99.6197891  52.2272158  27.5646448
  99.7857571  51.7006636  26.7827034  99.3340206  51.5942812  28.2234001
  65.8278036  26.5501928  50.9036875  65.2928972  26.5431547  51.6974497
  65.5147028  27.3085165  50.4105854  79.4735670  59.0927744  48.2380152
  80.3652859  59.4254065  48.1359339  79.4780588  58.6523104  49.0878439
  75.6147385  18.6510468  20.7280135  76.4173841  19.1701329  20.6776190
  75.1687956  18.8183248  19.8977220  62.9114532  33.3049846  54.5440245
  63.5616302  33.0802631  55.2096081  62.1239662  32.8292775  54.8082113
  98.2004070  48.5441351  37.0215344  97.4390984  48.4028053  37.5842595
  98.3656216  49.4855070  37.0740652  67.0828629  15.9777892  10.4226112
  66.4318419  15.3119493  10.6441128  67.9203367  15.5157745  10.4601896
  77.0120573   0.3528012  29.3752408  77.8703833   0.4119620  29.7947717
  76.3953495   0.2683572  30.1024079 113.9741516  41.7124987  22.0091414
 113.0224323  41.7244434  22.1107197 114.2795181  42.4584198  22.5254583
  71.6640329  29.7146988  40.2556467  70.8694792  30.2356935  40.3717470
  71.4386559  28.8528776  40.6059265  41.6866302 139.1108210  42.2696352
  41.1194038 139.6446217  42.8259993  41.1622238 138.9393515  41.4874411
  59.8155880  43.1242466  45.4710484  59.3250704  43.4911728  44.7355270
  60.2278948  43.8820171  45.8858013  65.5316496  14.4451106  34.5980120
  65.2905416  14.9420023  35.3798032  65.8203220  15.1090240  33.9718175
  55.1985025  44.3995047  35.6229663  54.9599838  43.6175823  35.1250339
  55.0575590  45.1238966  35.0133610  72.3502779 137.1001250  23.0195427
  71.9532728 137.5676186  22.2846484  72.5131083 137.7784050  23.6750221
  50.6178856  36.7593813  29.8279858  51.4136028  37.2296810  30.0767517
  50.9227085  35.8856654  29.5831609  65.4219818  21.2701082  50.4071283
  65.3804207  22.1448350  50.7936001  65.2320433  21.4089274  49.4792891
 111.2982559  39.3704343  14.5927143 111.3275146  40.2802658  14.8886645
 111.4406586  38.8555217  15.3869534  76.5778780  40.3357410  52.3726463
  77.0691586  39.7317648  52.9295015  77.0720053  41.1545420  52.4130774
  80.2718544  80.0529957  18.9852536  81.1623669  79.8449898  18.7024927
  80.3866959  80.5280685  19.8082662  63.8661814  22.5629044  31.8633366
  64.2597294  22.8521657  32.6865482  63.0212975  22.1926117  32.1188641
  77.8604031  41.9548607  11.7043114  78.0935955  42.5660181  11.0054982
  78.6959314  41.7272091  12.1121049  72.9493856  25.4004908   3.2131761
  72.8152132  25.0362539   2.3382124  72.8358889  24.6551156   3.8028932
  79.8280859  64.4892025  28.1452131  79.8268414  64.9280119  28.9959049
  80.4018784  63.7327480  28.2667565  93.1725502  61.4162540  35.6126356
  93.1061363  60.7583809  36.3047528  94.1028595  61.4345646  35.3880692
  73.9853525  44.7812128  44.9901581  74.7886610  45.2706957  44.8131466
  73.7525225  44.3903875  44.1479731  63.3266497  25.0051665  28.5156298
  64.1059446  24.8368001  29.0453291  62.8599453  25.6942582  28.9884615
 100.4029942  35.8213162  43.9888716 101.0625648  36.2509155  43.4442234
 100.5030060  34.8891664  43.7956715  68.1546450  18.5872698  47.5713587
  68.9867926  18.5697436  47.0986509  68.0122519  19.5124424  47.7713871
  77.6696682  20.3877997  20.0162363  78.5398054  20.3555250  20.4137874
  77.4213839  21.3112950  20.0579548 116.8694878  46.7380047  13.8630021
 117.5869179  46.7928791  14.4942772 117.0513821  45.9427881  13.3622301
  55.6782722   3.1509969  27.7329874  55.6050682   3.8976875  27.1385741
  55.9510946   3.5343000  28.5665798  64.1508913  31.3993430  39.3232918
  63.3040571  31.1096120  38.9839482  63.9910603  31.5708351  40.2513409
  12.8255200   4.8377830  50.3831768  13.5912716   5.3861684  50.2125025
  13.1622005   4.1139764  50.9113646  65.6601000  36.0633683  46.4090061
  65.7489729  35.9829664  47.3586702  66.2615490  35.4078221  46.0558081
  50.8525562  60.3603268  16.1705732  50.1004791  59.8114204  15.9485245
  51.4586115  60.2435875  15.4389286  70.3230810  59.6349573  22.9710650
  69.5462036  59.0992165  23.1313062  70.6897354  59.7914886  23.8412929
  66.1763430  50.1191521  25.9911513  65.4614925  50.5083561  26.4948797
  66.3943720  50.7805204  25.3344274  70.3904772  16.6239297   1.6061352
  69.7753906  16.4156914   0.9029040  71.2317085  16.7355692   1.1632981
  91.4566040   0.8746204  95.7129955  91.5951252   0.8419698  96.6595554
  91.9225693   0.1093225  95.3762054 111.0113239  14.6128547  26.7482710
 111.1329460  13.8150811  27.2630501 110.2102184  15.0034165  27.0974493
  63.1642199  25.1354408   4.2541638  63.7909698  24.5327473   3.8539481
  63.6710119  25.6011105   4.9194023  44.9386263   7.4767172  39.0670013
  45.5838823   6.8842208  38.6812282  44.8124361   8.1569427  38.4054875
  43.8549280  19.0201735  34.2649865  43.0234718  18.5459924  34.2730546
  43.8041639  19.6055353  35.0206351  88.7112331  26.0781193  59.1374254
  88.5902786  25.6502867  58.2897472  89.5702457  25.7795119  59.4360209
  78.1506872  45.7779503  19.0953171  78.2985401  45.3735352  18.2404351
  78.2688522  45.0638914  19.7217262  89.9422550  50.2275467  12.4075031
  89.8097229  50.4602909  11.4885402  90.8608150  50.4363966  12.5773954
  21.6091251  31.9797468  17.2262704  21.2800908  32.8669190  17.0817196
  22.4473286  32.1047068  17.6712787  89.9316406  23.3491659  20.1280069
  89.7199345  22.4389076  20.3349900  89.6987534  23.8350892  20.9191275
  53.7576199  35.9060407  12.5463414  53.8829470  36.0459280  11.6077495
  52.8414488  35.6413436  12.6288152 102.7529621  28.9262795 105.7092556
 102.8537941  28.1595039 105.1452371 103.3112049  28.7428737 106.4648732
 100.7028580  25.1885962  15.2384794 101.0123539  24.4790840  15.8015418
 100.8642292  25.9843707  15.7453644  60.1469612  43.1689453  34.1350818
  60.9342051  43.5539341  34.5201302  59.7684193  42.6429415  34.8395371
  71.4566088   2.1777241   2.8582197  72.0617771   1.8076235   2.2155455
  71.1025476   2.9582700   2.4320519 105.3339958  57.1575356  28.1711745
 105.7449913  57.3619270  29.0111399 104.4187641  56.9810629  28.3889961
  38.7835479  18.0088842  54.4242764  38.7897968  18.5507905  55.2132845
  38.3372140  18.5451257  53.7689400  62.2989130  33.6557460  37.0037150
  63.2529783  33.5853338  36.9715381  62.0081520  32.8128576  37.3518944
  78.1356239  50.3968525  15.7652938  78.5623646  50.9311724  15.0954974
  78.8583040  49.9945927  16.2471139  83.4531593  30.4577136  52.3642397
  83.7590694  30.4197335  53.2704496  83.3139610  29.5427537  52.1198940
  65.9473419  23.3741546  56.2219524  65.7553196  22.4373078  56.2628651
  65.1503229  23.7962389  56.5426302  71.7240047  16.7822921  52.4492645
  70.8363485  17.1391118  52.4179220  71.6220331  15.8641040  52.1987391
  78.5530519  29.3955493   1.4086065  77.8935719  29.8897409   1.8955253
  78.0484104  28.7677860   0.8914207  79.0144253   6.0262513  10.7126415
  79.3216419   6.9191039  10.8696914  79.3907881   5.7890558   9.8651034
 122.6064205  12.8996825  64.9492121 122.7953815  12.0600688  65.3682232
 123.3875084  13.0890977  64.4293594 116.2776184   5.4228836  33.4286642
 115.5546093   5.9573627  33.1003070 115.8530998   4.6562704  33.8137841
  85.5948639  25.6952596   0.7273453  85.0603199  25.1005173   1.2534420
  86.3545322  25.8849883   1.2779215  70.5127764  31.3904023  33.6478209
  71.1095858  31.7343879  32.9831934  70.2097607  30.5563402  33.2889962
  95.5148506  28.5150290  22.1391177  95.7588768  29.0094137  22.9215908
  95.9433651  28.9785933  21.4195919  69.4212532  10.6450236  37.9902172
  69.8662615  10.6197166  38.8373041  68.9597559   9.8081124  37.9370093
  98.2549572  36.9690394  35.5265307  99.0765667  36.4779663  35.5203891
  98.4423923  37.7558827  35.0146866  81.5764618  40.4048252  30.0023627
  82.4334812  40.1558781  30.3484368  81.6625690  40.3043318  29.0543556
  72.0685863  12.4871862  35.8967113  71.2073183  12.7643228  35.5842304
  72.5696421  12.3175883  35.0989532  82.6257229  58.0716658  30.7241845
  81.9807625  57.4735498  30.3466845  82.9236794  57.6313114  31.5201378
  28.8239127  37.5568295   2.4620108  29.4004279  38.1279707   1.9544092
  28.9802294  37.8069496   3.3726352  87.3719788  31.1659241  39.8693156
  88.0709171  31.6012692  39.3812656  87.8295040  30.6414723  40.5264711
  65.6779766  48.9185905  42.3418140  66.4287663  48.6664295  42.8793669
  66.0393858  49.5242167  41.6946411  97.8298092  63.0896759  25.1368165
  98.1950665  62.2483873  24.8628664  97.7347279  63.0117941  26.0860944
  87.7081585 144.0659804  25.0558543  88.6256790 144.2993916  25.1969337
  87.7220821 143.1210707  24.9035931  94.1442966  40.4157829  27.5864840
  93.4323597  40.1855707  28.1834555  93.7361431  40.4289770  26.7207694
  44.6116447  23.0225682  63.7582397  44.7104740  22.4853230  64.5442629
  44.2612505  22.4221563  63.1002426  67.1251440  14.8749650  39.0331745
  66.9351768  15.2113914  38.1574106  67.8928614  14.3158937  38.9136577
  69.2471075  54.4494104  55.9418631  69.0199423  54.9151611  56.7466640
  69.5831013  53.6044502  56.2408257  89.9105263 141.8228576  15.7659411
  89.2699814 141.6041175  16.4427614  89.4443417 141.6848297  14.9414062
  89.9473381   1.0247399  51.9931841  90.4052448   1.3187091  51.2057018
  90.2713203   1.5989941  52.6870823  94.6249676  58.3230543  35.4127192
  94.3308735  58.4366369  36.3165092  94.0799427  57.6143551  35.0707674
  80.8341694  34.6925068  68.2893562  79.9802065  34.2786956  68.4148121
  81.0316658  35.0953150  69.1349220  89.9932480  42.5460482  29.3176150
  89.6718216  42.5082636  30.2184391  90.9383678  42.6695728  29.4055319
  61.5211201  41.9025517   3.2654351  61.4270115  41.0432673   3.6765438
  60.9533119  42.4771881   3.7788743 114.9162197  17.0759249   9.2037922
 114.6320343  17.9015422   8.8115865 114.6529007  17.1435893  10.1215696
 113.6091900  57.5122118   4.2494240 113.0057716  57.2010803   3.5746479
 114.0083981  56.7157412   4.5994329  91.6622448  13.0157924  90.2005931
  91.8262386  13.9581728  90.2360686  91.9536877  12.6897442  91.0520526
  64.1071653  52.8934431  26.7825747  64.1721869  53.1464577  25.8617139
  65.0031662  52.9591656  27.1128654  67.3481417 143.6886142  26.5155888
  67.2931194 144.6426965  26.5697289  66.4737463 143.3841152  26.7583728
  87.9767704  10.5273736  20.6809306  87.7878571   9.7860521  21.2562466
  88.4061432  10.1366031  19.9198985  58.6095047 144.0238019  22.6639605
  58.0880833 143.2728759  22.3803020  58.0979443 144.7863839  22.3937654
 103.4943962  14.2752528  32.4601436 103.4337425  13.6883378  31.7064309
 103.7624550  15.1155901  32.0883799  71.7274141  12.6906049  23.2192588
  71.5408373  11.7577958  23.3255100  72.2270489  12.7436435  22.4045277
  77.9311037  11.1034262   5.9163004  77.5162077  11.9621098   5.8341169
  77.2173786  10.5151749   6.1628509  60.5631781  13.4144235  36.5760040
  60.3312397  12.5543725  36.2256503  61.4955997  13.3459198  36.7812610
 117.8041267  30.5310154  36.5312004 118.4979248  30.7518411  37.1525860
 118.2670116  30.3204894  35.7202435  97.1299648  64.7609949   6.5601367
  96.9820976  63.9159346   6.1355913  96.3433838  64.9057102   7.0860535
  83.8104725  50.4951668  55.3792953  84.5522881  49.9088621  55.2303219
  83.1555748  49.9475765  55.8122826  80.4181671  16.2648046  43.6400127
  79.6570110  16.7399383  43.9733410  80.6289482  16.6996276  42.8137350
  76.7079210 108.3662796  18.6173999  76.8352985 108.2149029  19.5539320
  77.5927019 108.3657074  18.2521701  93.8910866  37.6523256  46.1243153
  93.0501747  37.5719500  45.6741571  93.6840630  37.5034142  47.0469189
  99.1359425  57.1928263  23.3628011  98.2277775  57.0148277  23.6073422
  99.1294956  58.1018543  23.0630326  61.8982220  22.7182412  24.7557282
  62.4948883  22.1556067  25.2493525  61.0247040  22.4466443  25.0375772
  77.1487522  21.1221385   3.8158599  77.3349762  21.7198157   3.0917510
  77.0935965  20.2589679   3.4058273  79.0917587 145.6760978  67.9135045
  78.5540199 146.3532365  67.5029572  79.9916744 145.9793054  67.7933034
  96.5513229  39.2246652  26.7652416  95.8638668  39.8820496  26.8724608
  96.4690113  38.6640215  27.5366926  97.3382759  66.9198418  13.6572862
  97.7305508  66.7933941  12.7933645  97.5148964  66.1021757  14.1225338
  44.2344761  12.8681147  84.4641789  45.0734234  13.2808185  84.2590507
  43.6008024  13.5848165  84.4321331  30.2241421  30.9972310  79.9884399
  30.3216505  30.1354790  80.3935441  29.9327993  31.5654993  80.7014784
  97.8734207  28.5903001 108.4695663  98.8028908  28.8076401 108.5409229
  97.4804783  29.3544149 108.0477236  88.3393288  54.8091745   7.5749391
  88.8815117  55.5097675   7.9374903  88.5184097  54.8298311   6.6348666
  73.3503723  47.9521418  45.3668261  74.0115023  48.5374546  44.9973059
  72.9491663  47.5329971  44.6055174  58.1702089  27.9472661  21.2304091
  58.7873983  27.3145127  21.5977383  58.0822229  28.6173034  21.9083023
  80.6896877  55.5271816  14.6410310  79.7526836  55.4310656  14.4706726
  81.1019802  54.8551321  14.0982628 108.8128757  14.4180727  97.8396794
 108.2979584  14.9632335  97.2447904 109.3164158  13.8436770  97.2628363
  70.9491682   1.0145155  37.9015970  70.5066633   1.7009914  38.4007668
  71.6864634   0.7542916  38.4537864  71.3207340  22.9022622  32.8469515
  71.8594503  23.5841632  32.4456620  70.5329657  23.3605790  33.1395197
  95.3831196  49.5479536  89.5469459  94.9024105  49.2242384  90.3087612
  95.2118778  50.4896688  89.5381077  89.9967766  21.2568641  26.8316269
  89.4801140  20.4526091  26.7820191  89.3744183  21.9238591  27.1214890
  97.6821423   4.2163393  80.5438574  97.1874237   3.4380868  80.2873238
  97.7949619   4.7074607  79.7300395  57.0796394  33.5252714  96.5608677
  57.5986719  34.3191147  96.4318391  56.5222692  33.7232161  97.3134526
  57.9942751   8.3888441   1.4940996  58.1016064   7.5868201   2.0054401
  58.7572622   8.4085095   0.9164368  66.2627363  92.9536724   5.2332813
  66.7642498  93.0472374   6.0431945  65.5903339  93.6327171   5.2881265
  97.0875168  75.4566145  21.7266440  97.0099068  74.8877621  20.9607387
  97.8108788  76.0465288  21.5145397  69.2741489  33.9908266   6.0314101
  68.3890247  33.7362981   5.7706261  69.5764256  34.5630193   5.3261065
  53.1410265  29.6475053  99.9704488  53.4832764  29.7377133  99.0810891
  53.3593798  30.4764628 100.3963407 117.7175236  94.5709801  90.2766367
 118.5194969  95.0897598  90.3393122 117.6906395  94.0719795  91.0930344
  96.3572598   7.5610846  37.2696948  96.7439938   7.2433913  38.0856228
  95.4127598   7.5080991  37.4157596  51.8852139  15.2612329  39.0021634
  52.3064899  14.6968687  39.6504283  52.5922346  15.8152306  38.6713457
  86.1706638  80.6236649  90.9871896  85.9017563  81.2755680  90.3399225
  85.3497505  80.2417088  91.2977430  71.8331861  48.2445288  37.1665645
  72.4891186  48.8501263  36.8212652  71.3016462  48.0082464  36.4063883
  69.4861174  33.9062858 101.1484464  69.9826384  33.3668852 100.5330237
  68.6513901  33.4486532 101.2486222  97.3070621  16.3965487  90.4823466
  96.5205765  16.3915575  89.9367710  97.0271206  16.0049367  91.3096961
 105.6417751  14.1091323  14.0889418 105.0514030  14.8617649  14.1242087
 106.3290215  14.3138945  14.7229671  70.3180885  48.4630442  24.6130443
  70.3063011  47.5096273  24.5288205  69.6731758  48.6512470  25.2948785
  82.5328159  53.8074636  18.2518113  82.0301247  53.3373833  17.5865614
  82.5785732  53.2006359  18.9906597  82.2130680  31.3098931   2.6505020
  82.5424099  30.4119086   2.6131982  82.6174641  31.6809320   3.4347394
  77.3902178 126.0968775 103.3036997  77.4679327 125.5814690 104.1065355
  76.7657900 125.6099052 102.7659502  75.8301973  28.2711053  10.5214930
  76.3376093  29.0507364  10.2957988  76.2987328  27.5502729  10.1006532
  45.1516438  21.1220789 100.2112391  45.4366446  21.8756247  99.6943494
  44.3875170  20.7857013  99.7430667  60.8123970  56.3635921  96.1479922
  61.0930109  57.0819378  95.5810126  61.4543581  55.6708431  95.9923741
  81.5813923   2.5858930  36.0248399  80.6780052   2.4202627  35.7552266
  81.5839863   3.5014722  36.3040161  80.5881500  25.1629567  19.7781122
  81.4084721  25.6557703  19.7570944  80.2571678  25.2866387  20.6677103
  50.9269381  29.3161249 101.7138358  51.1221695  29.9713659 102.3837432
  51.6282940  29.4154668 101.0700449  57.4767828  17.9543459  81.3597473
  57.4146652  17.0361412  81.6229471  56.5826178  18.2869124  81.4378699
  75.7457972  34.5964265  90.7486793  76.3561010  34.5912075  91.4860638
  74.9018240  34.3619609  91.1346337  86.9046593  44.0820026  20.8260441
  87.4098396  44.8165464  21.1745596  87.1445751  44.0441704  19.9001729
  67.5673199  21.7126513  26.0260773  67.1611261  21.3899469  25.2216530
  68.4451628  21.3310742  26.0208845  55.0432682  60.6615925  12.9583025
  55.8210659  60.7691097  13.5057557  55.1751661  61.2713957  12.2323728
  76.8303108  11.4691877  26.9685030  76.4091063  11.2929392  26.1272216
  77.1760654  10.6207359  27.2456574 108.2475662  42.9795122 108.7735301
 108.8959789  43.0215645 108.0706599 107.5965023  42.3510361 108.4614926
  76.0085392  39.7879457  21.4275837  75.6316566  38.9169407  21.5522599
  76.9540024  39.6504283  21.4860415  81.5052319  53.6621857  25.3614783
  81.0963821  53.9100933  24.5322490  80.7716179  53.5490322  25.9658265
  50.4324770  11.9643497  36.6459656  49.7469139  11.8102789  35.9959650
  50.5025768  12.9175162  36.6988039  55.8155346  15.6569338  35.3147340
  56.5439081  15.0721776  35.1055288  55.9809637  16.4418864  34.7925138
 110.7299137   3.6930639  86.4585742 111.2940598   2.9207072  86.4964994
 110.4454899   3.8265434  87.3627409  56.7351198   4.2854208  32.9617453
  56.7957783   3.4872121  33.4865451  56.5131855   3.9779350  32.0828652
  53.5836840   5.1131755 100.6292185  53.0599070   4.6835497 101.3054653
  54.4761324   4.8042211 100.7851525  62.4433565  43.8207960  53.9828587
  62.7200270  44.6349573  53.5623503  62.9464006  43.1385803  53.5381603
  92.5970364  19.0282643  11.6296756  92.1671581  19.0298128  10.7744360
  91.9397545  19.3822563  12.2287583  30.5146766  34.2949224  32.0809245
  30.7753277  33.7255502  31.3569713  30.4153752  35.1593471  31.6820002
  55.6498098  49.5336628  77.5142416  54.7430372  49.3194962  77.2948583
  55.6132317  50.4370546  77.8285297  91.4539909  43.4821510 101.5191593
  91.7692471  42.6461411 101.8625733  92.0584106  44.1317797 101.8781724
  61.7983675  27.1646762  19.1093421  62.3435736  27.5919557  18.4487247
  62.0025826  27.6255846  19.9230313  54.7185087  30.2624631  24.8656726
  54.4839430  29.3483210  25.0255203  54.5576572  30.7006574  25.7013416
  77.7499199  42.0607853  15.0672030  78.6686134  42.2794533  15.2234542
  77.7237034  41.7749739  14.1540444 107.5164890  20.9156942   3.7386224
 106.7964363  21.4052701   4.1362026 107.9983139  20.5525780   4.4817418
  95.9337902   5.0224125  20.6367254  95.6737709   5.2436930  19.7424901
  96.0191154   4.0690324  20.6323743  68.2121468  59.7162342  30.2154255
  68.0943108  58.7669420  30.2499247  69.1280699  59.8528481  30.4576063
  69.8547983   4.5769253  30.3943348  70.4384470   5.1701880  30.8672237
  69.0542173   4.5600706  30.9187603  68.1930685  21.0698438  35.1264191
  67.6039076  20.3470492  35.3425002  68.9883089  20.6433678  34.8071313
 118.5171318  31.7225194 106.8721106 118.3619118  30.7918429 107.0332917
 119.0197372  31.7439961 106.0577621  78.1013346  25.0101852  84.0765723
  78.6122274  24.5184398  83.4336027  77.2294331  25.0791001  83.6876401
  26.7346025  36.8087316 100.7086255  25.8002758  37.0167279 100.7093712
  26.9039583  36.4641023 101.5854266  72.1027946  38.3988810  71.9798374
  72.8175974  37.7626681  72.0028114  72.1352053  38.7637115  71.0954857
  66.0248995  13.7701893  92.7184292  66.6791916  14.3077350  92.2721370
  65.2584124  14.3386543  92.7931067  68.4521627  39.8513436  40.5272198
  68.2674122  39.1711330  39.8796010  67.6849079  40.4229975  40.4996872
  67.4703026   9.2121202  11.3852227  68.1156063   8.5768414  11.0750043
  67.8891850   9.6314651  12.1368361  78.8717413 129.3875284 106.0213669
  79.3130255 130.0832588 105.5340704  79.3303156 128.5874505 105.7648193
 121.6483402 131.7388470  14.5195699 121.7476559 131.9294650  13.5868144
 121.0574818 132.4196107  14.8415685  66.8494511   6.4836526  18.6719072
  66.4702463   7.3581541  18.7595534  67.7629328   6.6414994  18.4334445
  81.6514301  37.5901771 101.0970386  82.1822262  37.5862145 100.3005006
  82.0467472  36.9175816 101.6516324  63.3224058  15.2639556  25.9227633
  64.0827084  15.8152401  26.1078405  62.5698233  15.8375740  26.0670447
 109.7026253   9.2444038  39.0429258 110.1733971   9.2474240  38.2095027
 110.3590298   8.9808834  39.6878386 108.4773064  35.1481509  25.6917119
 109.2207241  35.5503345  25.2424884 108.4693623  35.5586147  26.5564013
  99.4544029  27.0965910  39.8722768  98.9419842  27.5379682  39.1948891
 100.2233982  27.6538277  39.9921060  87.9268932 144.2372110  12.4296117
  88.0384254 145.0966758  12.8359509  87.2307301 144.3654322  11.7852855
  83.9097118  51.1778259  18.5627186  83.1590748  50.5978680  18.4345698
  83.9372349  51.3287306  19.5075476  66.6966534   9.3532544  33.6374784
  65.8222008   9.0208817  33.4347534  66.5566349  10.2722740  33.8655782
  46.7311764  22.4002028   9.4648361  46.1085987  21.6741991   9.5041621
  46.3244820  23.0929422   9.9853563 116.7115307  13.4052479   3.6639282
 116.8384743  14.1030324   4.3067437 117.0510483  12.6197743   4.0928656
 115.6208801  44.4362783  95.6176659 115.1867771  45.2536583  95.3733751
 116.3753986  44.3812561  95.0312384  72.3939228   5.0940889   7.9903519
  72.6143932   4.3414456   7.4415785  72.0505476   4.7099313   8.7970418
  57.2159481  11.9700301   3.9648157  56.8525219  12.7608144   3.5662988
  57.8963232  12.2910511   4.5566458  63.3031940 137.5732417  10.1664960
  62.4829102 137.0905311  10.0647366  63.3624792 137.7495021  11.1054575
 117.7395535  51.7844296  22.5393367 118.3760738  52.2250748  23.1022763
 116.8960190  52.1595240  22.7922702  42.3939276  29.2800975  95.0905081
  42.2158432  30.0010443  95.6944593  42.6377296  28.5479164  95.6568130
  77.0068693  31.6627860   2.6173329  77.9174995  31.4308429   2.7995089
  76.4959764  30.9577179   3.0149466  63.6654902  17.6148021   9.4099116
  63.3698797  16.8886364   8.8607925  62.9619026  17.7345979  10.0477588
  45.3057861   0.1982553   7.0007491  44.6688509   0.0609759   7.7019626
  46.1374331  -0.0970686   7.3713952 118.5320091  44.2602205   7.6437646
 119.1429234  43.7529087   8.1782186 117.7406788  44.3227148   8.1786740
  52.8040695  35.3384137  50.0350142  53.2190275  34.4815421  49.9359512
  53.3012533  35.7661343  50.7322216  76.9828463  13.5006249   5.3389788
  76.5054512  13.5706151   6.1656761  76.7426395  14.2913616   4.8559994
  95.1131153  18.4226441  56.9469404  94.7328472  17.5747859  57.1766567
  94.7526073  19.0298164  57.5931692  75.8965158  29.0605068   3.0797994
  76.0221624  28.1787205   3.4303647  75.1378632  29.4009018   3.5539427
  93.1624889  46.1361551  84.2015656  93.1950855  46.4741945  83.3066353
  93.4051800  45.2139854  84.1182550  71.7261457  18.9208770   0.2270509
  70.8363295  18.7161839  -0.0602867  72.1568060  18.0689919   0.2981323
  84.2917252  55.8704996 109.7960213  83.7185860  55.2941608 109.2904716
  85.1405621  55.4281425 109.7914859  54.8723030  28.2390523  67.9609784
  54.7391844  28.1128907  67.0215138  54.8890352  29.1892838  68.0750331
  58.9897442  36.6725945  43.0526590  58.1413460  37.0845795  43.2161331
  58.8221359  35.7346392  43.1441927  79.7161674 126.9845731  93.5204943
  80.6284714 127.2612996  93.4347244  79.6912193 126.1147542  93.1217190
 120.8365440 141.2289680  84.1701516 121.2750912 140.6317950  83.5641035
 121.0577297 140.8935887  85.0389608  97.3529148  32.4356055  16.1140013
  97.9959869  31.9408393  16.6218245  97.6806736  33.3348870  16.1236393
  69.2174435  20.2767348  18.9475441  68.5270643  20.5637217  18.3498418
  69.0115404  19.3596411  19.1285944  73.1822205  57.4092770  27.7299047
  72.3138332  57.0325613  27.5877094  73.0540276  58.3522415  27.6269078
  97.8986931   7.8532910  23.6681914  97.1540451   8.4504980  23.5969639
  98.6221504   8.4065908  23.9626408  71.2563992  10.1396859   8.6375552
  71.4396572   9.4504440   9.2759860  70.5320358  10.6344926   9.0205669
  89.2078018  45.8359337  10.2393413  89.9604034  45.4158020   9.8230273
  88.4496593  45.4906464   9.7679335  90.9741497  36.3749456  87.9540237
  91.3461304  36.1831975  88.8148936  90.1457119  35.8956909  87.9389342
  97.3400784  69.8460817  18.8914478  96.7507362  69.1604280  19.2057395
  96.7581272  70.5542612  18.6156881  60.5430365  27.9873252 100.4107203
  61.2690496  27.3642492 100.4409184  59.7725868  27.4487901 100.2301099
  58.5378695  11.1865819  98.2765802  58.6687851  12.1338773  98.2350763
  57.6734304  11.0814393  98.6739775 108.0514812  36.3670897 105.6471124
 108.2506847  36.4974737 106.5742304 108.0913162  35.4185915 105.5246606
  81.6985416  63.9725876  22.5456333  82.0794201  63.3440113  21.9324040
  82.0942783  63.7540102  23.3893418  61.4243317  40.9560442  33.1024170
  60.9160089  41.7572212  33.2287383  62.0427275  40.9470558  33.8329887
  61.3300133  54.1698790  82.8468569  61.1568689  54.8928785  83.4497865
  61.7701340  54.5793629  82.1019729  71.2120724 138.8070751  21.3611770
  71.1630678 139.7376914  21.5797734  71.2689829 138.7881155  20.4058599
  64.3878508  44.7884607  28.0376363  65.2203083  44.3407345  28.1885719
  63.9311790  44.2372036  27.4021840  28.5444498  31.2578773  87.4782642
  29.1446018  31.9311976  87.1578129  27.8052115  31.7477465  87.8385171
 107.1253395  38.7124228  51.4974117 107.6130581  38.1260848  50.9189939
 107.4700356  39.5836043  51.3013124  59.9858570  25.7009840  25.3625751
  59.3113327  25.8964443  26.0129952  59.4984674  25.4069209  24.5930195
  67.0518875 131.2765760  17.0863688  66.6971350 130.4277916  17.3508370
  66.3550997 131.9009275  17.2886169 111.3908482  27.5296426   6.2044221
 111.6881561  26.8711209   6.8322664 112.1464634  28.1049585   6.0848808
  47.8284550 143.7429301  93.1805941  47.4843979 143.4224425  94.0143474
  47.4137402 143.1870980  92.5208255  65.7140541  42.3053122  45.5554390
  65.9750319  43.1692505  45.8743906  66.5292883  41.9055510  45.2524281
  36.9965267  33.6689663  34.2637777  37.6224828  33.3495045  34.9136662
  37.1770477  34.6066904  34.1980863  84.6811295   5.1954675  10.5875993
  84.4705105   6.1010170  10.8153117  84.4407463   5.1185697   9.6642703
  91.4739990   7.1168298  97.8965374  91.3136673   6.7141229  98.7499746
  90.8210850   6.7216778  97.3187920  93.8447952  16.6528213  14.7700298
  93.9188671  17.5562453  15.0775528  93.3326244  16.2105918  15.4470468
   1.2882453  33.1564212  33.9874291   1.6937953  34.0209270  33.9211893
   0.3498202  33.3249688  33.9026952  58.8017988  52.7586842 103.9504441
  59.1073847  52.1403646 103.2867172  58.0334282  53.1721592 103.5569044
  59.9071121  45.5515671  22.8637052  59.5726824  46.3926983  23.1749749
  59.1224480  45.0362635  22.6766133  72.1538162  43.1082726  39.1826320
  71.6541910  42.5420284  39.7708321  73.0656004  42.8513432  39.3200088
  83.2088184 125.5412883  37.3364353  83.9934921 126.0893602  37.3481965
  82.5743294 126.0199351  37.8698683  76.2101126  29.3186045  20.5683756
  75.4665852  29.1939497  19.9785769  76.6480875  28.4676385  20.5848122
  45.4760647 144.0352851  75.6745633  46.3448906 143.6683000  75.5111679
  45.3460407 144.6670617  74.9673256  49.7988939  46.8078470   9.7898287
  49.0930700  46.1946011   9.5849478  49.3958139  47.4506474  10.3734088
  80.8317184  61.4507771 109.6001394  80.6749439  60.6349087 109.1247291
  80.3355026  61.3535452 110.4128780  91.6329288  44.9494791   8.5933965
  92.0905399  45.1375437   9.4128221  91.3957119  44.0244198   8.6583960
  66.6485548  47.0865917   9.3693495  66.0009432  46.5720606   9.8511076
  67.0750093  47.6219368  10.0385046  98.1251621  41.2999678   6.5739286
  98.9968777  41.6155100   6.3356495  97.8379631  40.7932186   5.8143526
  73.0213404  53.6203814  21.5911698  73.4284925  52.9457092  22.1345615
  73.6859322  54.3058109  21.5223193  88.5224915  22.8594398 104.7890373
  87.9763126  23.5608697 105.1438829  88.0728817  22.5871968 103.9890584
 101.0140610  48.7841702   1.9872777 100.4465389  49.4455147   2.3832193
 101.1623383  48.1466198   2.6856846  86.0738850  10.7654691  10.7535803
  85.8872509  11.3719022  10.0368965  86.3061142   9.9449784  10.3187251
 104.7813320   6.1031151  95.0361475 104.1467476   5.8266044  95.6972679
 105.6208992   6.1046565  95.4958817  99.5570755  16.0776925  99.5990642
  99.1407204  16.2549329  98.7555810 100.4049683  15.6958687  99.3720981
  82.2831917  45.2792025  69.8446830  82.2091961  46.1975384  70.1043280
  83.1552505  45.2096558  69.4562253 111.4521027  40.9055805  25.0899029
 112.1965885  40.3724909  25.3688097 110.7028103  40.3114605  25.1324129
  76.2747335  18.3567297  14.4199967  76.4846039  17.4476290  14.2061770
  75.3187370  18.3780992  14.4630063  70.1896095  57.9910612   6.3011485
  70.1799726  58.3792925   5.4262704  71.1158991  57.9637861   6.5408909
  99.2490005  27.4413228  92.8608617  99.0458393  28.1390619  92.2378727
  98.5544491  27.4965429  93.5172065  93.7096500   3.4732684   4.6808362
  93.5771084   3.0173227   5.5119669  94.6315098   3.7306818   4.6932167
 118.2441711 131.2317140  21.2164187 117.5315380 131.6686017  20.7500315
 118.8884640 131.9225974  21.3707042  84.4175625  38.1947732  88.7747320
  83.5741425  38.4872389  88.4292802  84.3519497  38.3370376  89.7190245
  78.3031893   7.8718305   6.0819888  78.1710577   7.3395360   5.2974916
  78.8660002   8.5898370   5.7922536  52.7854395   6.2332654  12.0493662
  52.3123026   5.7665390  12.7382350  53.7058353   6.1668289  12.3037016
  95.6589603  14.3942702  27.0957589  94.8352623  14.0800726  26.7228794
  95.6535339  14.0695572  27.9961824  53.7396002   3.1166753  35.1472020
  54.3138742   2.4235906  35.4728866  54.2847347   3.6118129  34.5357299
  83.0427837  26.0391569  25.3768563  83.1865120  25.3346968  26.0087705
  83.7842846  26.6307735  25.5049396  24.4386363 125.0750680 108.8474896
  25.0537944 125.3755254 108.1785067  24.5374346 124.1230006 108.8534415
  62.9485130  36.4539075  32.8683496  63.1893206  35.5563617  32.6388860
  62.0686769  36.5653539  32.5082135  51.1992359  20.8985734  87.9276332
  52.0093250  20.9656096  88.4330996  50.5612516  21.4061260  88.4292253
  79.5564699  31.9202614  89.9961539  78.8724422  32.0598102  89.3412741
  79.9060965  31.0519624  89.7960218 116.1918831 123.6262245   1.4821666
 116.5662861 124.1639394   2.1799609 116.8296909 122.9244013   1.3522246
  55.6071424 133.5927052 104.3698200  56.5066242 133.2778735 104.2801406
  55.1166153 132.8312702 104.6793851  50.5558634  31.6646338  39.1207767
  50.0199127  32.1485114  39.7491479  49.9238300  31.2768316  38.5154843
  65.2662039  24.9409389 101.5376487  64.9454117  25.7642150 101.1694958
  65.4577065  25.1462936 102.4527373 124.3900013  24.4438338  24.7661853
 124.0631008  25.2646732  25.1344037 125.3394318  24.4926333  24.8776865
  90.2067184   5.9665799   6.2163961  90.5712795   5.2612180   6.7509872
  90.4938221   5.7650125   5.3257936  72.0594358  35.8679533  88.7617668
  71.1634254  35.7238913  88.4573969  72.3147154  35.0347710  89.1578396
  46.6619635  16.6487420  15.4032576  46.9870281  15.7638991  15.5694449
  45.9674215  16.5309703  14.7552037  74.1357994  44.1927862  14.2591512
  73.3904934  43.6599588  14.5363533  74.6942425  43.5878706  13.7708342
  98.4509563  15.3948784  86.2304839  98.8662148  15.3908503  87.0929059
  98.4012318  14.4712222  85.9842738  92.7414799  62.5488329   9.0768540
  93.5541344  62.9544067   9.3790710  92.1746254  63.2867193   8.8522798
 111.9609451  49.7168016  91.5026351 112.5394917  50.3812647  91.8768057
 112.5282955  49.1998243  90.9307274 105.8277225 138.8779516 103.7812521
 106.7525005 138.9356042 104.0214183 105.6599426 139.6765865 103.2809868
  58.7449169  70.4295588  99.5914646  58.4305191  71.3147640  99.4076153
  59.1134787  70.1289415  98.7607893  61.9224596  25.5731678  90.1098927
  61.1988831  24.9521160  90.0264641  62.4021053  25.2794409  90.8844217
  90.6439877 138.6902738  31.7996764  90.8479881 139.4994778  32.2685099
  91.0082436 137.9965670  32.3495102  84.6300983  18.1583714  46.1175013
  85.3257561  17.5359488  45.9056664  85.0844765  18.8960731  46.5243959
 106.1250496  44.2936373  15.4698014 107.0244694  44.4057178  15.1620579
 105.7648754  43.6047888  14.9112368  89.4461727  63.9263010  28.2372046
  88.6149216  63.6493015  28.6225939  90.0250053  63.1721497  28.3487654
 117.0748711 140.2068145  24.2038417 117.9620743 140.4326803  23.9244008
 116.5054893 140.6510700  23.5756087  58.8877106  28.4992766   6.7693758
  59.6090174  28.3666563   7.3844868  58.9299297  27.7430320   6.1841041
  43.7762642  27.3151779  16.6877353  44.6276379  27.1067071  16.3031113
  43.8317823  26.9863057  17.5849485  87.0384216  26.2999845 108.2065081
  86.7643070  26.2693286 109.1231087  87.9850006  26.4371371 108.2440478
  33.1454444  29.1345835  98.6237475  32.5148249  29.4773912  99.2570170
  33.7555170  28.6171150  99.1493615  66.1153126  32.6821566  12.1997440
  66.3740492  33.1954646  12.9651201  65.3261948  33.1163788  11.8757486
  59.0703106  58.5132313   2.4271631  58.9851189  58.3304691   3.3628833
  58.6317825  59.3555021   2.3067383  97.6182747  62.9810143  27.7172685
  98.2654572  62.4300098  28.1574845  96.7743969  62.6593256  28.0344534
  77.9309416  38.6048031  32.3316240  78.0670595  37.8304338  31.7856789
  77.0263052  38.5280442  32.6348877  65.2060080   7.3101926  99.1269016
  64.4562149   6.8139946  99.4552803  64.9080229   7.6694512  98.2912159
  99.5987320 141.0745514  17.7285711 100.2630234 140.7763339  18.3498708
  99.3415451 141.9389192  18.0494348  81.2709618 144.3019275 100.1366997
  82.1933556 144.1493070 100.3419685  81.2619209 144.4861918  99.1974449
   1.0612708   1.4521252 105.6685829   0.9036284   0.5300164 105.8713055
   1.7370635   1.4362286 104.9908829  71.8675518  72.2592735  89.2071152
  71.1471891  71.6315699  89.2644978  71.7757130  72.6504803  88.3383465
  47.5237417  18.3034301 102.8659058  46.6024160  18.0490434 102.8141212
  47.9437494  17.5866938 103.3414173 100.8972931 116.5204878 107.2360134
 101.2343407 117.4136061 107.1655178 100.0238132 116.5627069 106.8467999
  68.3221006  31.5038538   4.9486104  67.6715851  32.1137214   5.2966348
  68.8145113  31.2147665   5.7168523  87.3631763  13.1776190  87.6591969
  86.9087696  12.7853870  86.9136143  87.1372318  12.6153672  88.4001827
  75.5576706 124.9524612  93.7586975  74.6838522 124.9374885  94.1491508
  75.3980255 124.9804921  92.8153229  42.0719051 144.2798870  91.5650177
  42.8847647 144.3608027  91.0660839  42.2584534 143.6065019  92.2192287
  58.2957220  23.0188489  76.1478949  58.3017492  22.7773094  75.2216911
  57.8099585  22.3139310  76.5760946 121.3067913  31.2085700 102.2456169
 120.9154606  31.7778134 101.5830040 120.6234360  30.5688500 102.4456310
  76.0290766  36.4424062   2.7484361  76.8578768  36.6183519   3.1938115
  75.5031395  37.2272182   2.9023496  76.5499592  20.2856922  80.1664734
  77.1623516  20.1327038  80.8860588  75.7529116  20.6002736  80.5930614
  71.0539103 111.0321064  84.1247845  70.4827452 111.6952080  84.5124722
  70.4861784 110.2721424  83.9968586  91.4754963   9.2978269  99.9349213
  91.7063522   8.6947221  99.2283821  90.5291176   9.4141519  99.8509026
 102.4403381  10.1894605 108.7294769 102.6744938  10.5016732 107.8554535
 101.5878677   9.7698438 108.6135101  82.7588749  17.0085275  72.5413656
  82.3898315  17.0535338  73.4234142  81.9962883  16.9601452  71.9648552
  57.2209501 130.0757117  92.0596313  56.3937759 130.2402253  91.6069221
  57.6617002 129.4179828  91.5217113  76.9655466 139.1578967 103.8057232
  76.4040422 139.0975959 103.0328655  77.8338289 138.9061583 103.4911728
  87.5321007  24.2558908  73.0194998  86.9711304  24.2128038  72.2451067
  87.9279804  23.3862996  73.0771637  64.8439360   2.5410828  87.9203033
  65.3907537   2.3735827  87.1527290  65.0653982   3.4348693  88.1817055
  86.4054680  27.2863173  89.2449951  85.7811165  28.0074644  89.1651821
  86.7282295  27.3473406  90.1440716  97.1466255 131.1907239  90.1963234
  96.2237930 131.4224095  90.0917625  97.1937370 130.2710194  89.9352551
 104.7633457 134.4501931  52.6797676 104.3804932 135.0303597  53.3378458
 104.1975403 134.5500548  51.9141817  97.2528076 145.1769585  76.4827156
  97.6061153 144.2890879  76.4271021  96.5646267 145.1198099  77.1455717
  78.5911560  23.1640553   2.3083345  78.9756584  23.0048895   1.4463273
  79.2043304  22.7600908   2.9223958 109.9155617 120.4028625  89.3485069
 109.7423363 120.7056446  90.2398872 109.4540215 121.0277910  88.7893391
  87.7225113  28.0522132  11.2619916  87.6737118  29.0050292  11.1845723
  88.0082035  27.8994131  12.1626893  98.0500031  50.3970337  76.5559673
  97.8539371  50.3955221  77.4928713  97.3101616  50.8551216  76.1571884
 110.4540539  38.1936002  99.6279240 109.7442436  38.3985615 100.2365208
 110.3997898  37.2455955  99.5071983  83.4746552   3.2569620  79.0246439
  83.9947224   2.5983250  79.4850397  82.5957203   2.8804123  78.9808321
 121.8175602  13.6670172  13.7484208 122.3809338  14.3504345  14.1114465
 122.4035645  12.9234147  13.6073724  87.6935005  15.9966421   4.7628824
  87.6579952  16.1030102   5.7134954  88.3195877  16.6592312   4.4709531
  83.5887432   8.4846491  95.0957775  82.6724434   8.4043556  95.3606987
  83.7239361   9.4255370  94.9831486  71.0888290  10.7742417  52.1398926
  70.8750582  11.4342451  52.7993822  71.4479160  10.0421894  52.6412773
  73.9104080 108.2902832  84.0649605  74.7427988 108.5156173  83.6495304
  74.0666771 107.4354286  84.4662571  78.7173367  10.7650995  97.7998638
  78.7639189   9.8680687  98.1306171  78.1122446  10.7163715  97.0597839
  52.8801632  25.4246640  74.3882704  53.7227917  25.8238506  74.1717911
  52.8379488  25.4577351  75.3439665  55.4666758 129.5349354 102.5090504
  56.4184380 129.5164842 102.4088383  55.1681137 128.7168104 102.1118546
  84.0062714 131.0559089   0.5895463  84.3420506 130.1975972   0.8479635
  83.7315941 131.4629466   1.4111940  62.1415520   6.2985277  96.2732506
  61.2970400   6.7488533  96.2577438  62.5648928   6.5551287  95.4539967
  47.7098417  24.0877676   7.5276891  47.4271870  23.7565017   8.3801023
  48.3235502  24.7921848   7.7359811  40.8713198  11.0094666  16.9444505
  39.9621344  11.0494709  16.6477624  40.8137035  11.0489547  17.8990976
  80.1542282  15.0636768  97.9852581  80.9709167  15.4243815  97.6400661
  80.1210690  15.3703296  98.8914013  81.2794495  31.2946153  32.9429570
  82.1552277  31.6017175  33.1773320  80.6866074  31.8676043  33.4292260
  78.7417650  28.8048577  31.2349740  78.0800200  28.3112788  30.7505075
  78.2378578  29.3730068  31.8176595  79.7524118  19.7155225  90.4168701
  79.9178886  19.8424387  91.3510799  78.7986755  19.7346985  90.3377914
  72.6290655  11.7610073 103.2774734  71.8773127  11.1769879 103.3775902
  72.2951841  12.6248240 103.5194969  77.2269630  42.9658031  98.4583855
  76.8859863  42.3144579  99.0713406  77.7975607  42.4680328  97.8728294
 111.3546085 132.4128122  31.9484655 111.9391537 132.9428894  31.4066545
 110.5454445 132.9218859  31.9966642  59.7619772  27.5436854  94.8231888
  59.5987797  27.1028662  93.9893532  60.6634474  27.8583074  94.7553730
  83.9545155   8.2532769   2.8696863  83.2864285   8.4237176   2.2057191
  84.6126747   7.7256423   2.4172918  73.8405943 141.6819624  12.9504434
  73.9642954 141.2755377  13.8081971  74.4349384 142.4322806  12.9529611
  77.8842020 119.9104209  71.2441397  77.2194290 120.5587001  71.4766121
  78.6733580 120.2023716  71.7004681  65.0251579   7.6745808 108.4902763
  65.0273037   6.8247932 108.0497265  65.7177973   8.1717068 108.0551434
  56.1731529   5.7505292  99.4646454  56.4197445   5.1618242  98.7513065
  56.8449354   5.6122893 100.1323509  66.8482304 112.3193283  70.9471321
  66.7980766 112.9163117  70.2005863  67.7598333 112.3711319  71.2344074
  73.2466602 130.4746754  89.5287704  72.5269413 131.0794634  89.7089577
  72.8159380 129.6494252  89.3058968 109.1806030  15.7976055  20.3560964
 109.6370220  14.9571574  20.3165857 109.4353199  16.1690140  21.2007276
  51.2756395   8.3234757  79.4373035  51.6670418   7.4967080  79.1553593
  51.0421610   8.7681270  78.6224365  72.3307037 126.7847593  86.7895031
  72.1309853 127.5840170  87.2768688  73.1818914 126.9562680  86.3866425
  65.0938606  18.3948338  99.4889832  64.2071104  18.3279085  99.8431301
  65.4435492  17.5058341  99.5492172  59.9057341  14.7263455  94.3042469
  59.1510057  15.1304722  93.8761139  60.4254866  15.4651523  94.6208763
  51.2799692   1.4728504  55.5173588  51.5968323   2.3750669  55.4745293
  52.0610332   0.9534863  55.7082176  94.7784710  17.4701869  97.6156425
  93.8394165  17.6183653  97.5040340  94.8785686  17.2559333  98.5431671
  93.3511734  22.1347976  41.0195398  94.2553520  22.4453330  40.9719944
  93.0331135  22.1845698  40.1180935  40.4702997  17.2393322  11.0410444
  41.3554573  17.1597314  11.3965646  40.5977869  17.3128855  10.0952283
  99.1704082 138.4492517 107.8015900  98.7234402 139.2956878 107.8016758
 100.0625038 138.6495043 107.5182343   2.2791033  11.5839899 102.0666790
   1.6878539  11.2701631 101.3824558   1.8801623  12.3984087 102.3729420
  73.4569788 138.0059690  99.6652889  72.5402975 138.2277740  99.8287678
  73.4584093 137.0543534  99.5620441 101.8924332 134.7763188   4.9504033
 101.2372112 134.1528494   5.2637807 102.2451401 135.1735849   5.7466546
  40.1171494   4.9058440  94.3664932  39.4239306   4.7428149  95.0061035
  40.4204655   4.0336508  94.1144848  58.6385536  24.4232607   6.7194215
  58.9144039  25.1076126   6.1096708  57.9548788  23.9454365   6.2498418
  54.6345997  14.1042352  13.9731160  54.7630167  14.3328011  14.8937169
  53.7005901  14.2461884  13.8191358  95.5398560 133.7572915  11.4900914
  95.0921440 133.5896976  10.6608144  95.3309059 132.9971356  12.0329896
 103.8593388  10.5319905  91.8827820 104.0448093   9.7099018  91.4288998
 104.7211933  10.8746064  92.1195221  83.2392120 138.0015171  14.6431104
  83.0196095 138.9310796  14.7057191  84.1591263 137.9546703  14.9034921
  65.5861616  37.3179436 105.9653187  65.9973288  37.6575136 105.1704216
  66.3106346  36.9500971 106.4713383  82.1850872   2.9609257  81.9678783
  83.1208992   3.1509483  81.9015980  81.8970203   3.4433946  82.7427769
  72.3374319   7.9552686   9.6824304  71.9405746   7.0842636   9.6730462
  73.2737970   7.7930826   9.5677606  76.3780451  44.1080475  73.6352921
  75.9782553  43.3411884  74.0455675  75.8153582  44.2988491  72.8848171
  92.7589321 134.4460768  14.8448411  92.3901844 134.0734083  15.6456987
  93.4163666 135.0704093  15.1518098  47.6716232  30.7024240   5.2368490
  46.9310188  31.1393404   4.8163167  47.3536158  29.8193264   5.4245702
  95.4356194 117.9159135  81.0878944  94.5494270 117.6057071  81.2740803
  95.7285500 118.3110161  81.9090652  74.4408560  25.7903099  11.9085161
  73.7783146  26.4627099  11.7499296  74.6641207  25.4637718  11.0368673
 100.5596638 145.7496869  99.4302845 100.9408665 146.6114937  99.5982265
 100.4562092 145.7147303  98.4793377 107.2810364 131.7643292   6.5049878
 107.7635193 131.3759429   5.7751981 106.3695431 131.5180690   6.3475744
 120.6560326  10.2886486  98.2234859 120.5437660  10.1450157  97.2838020
 119.8460674   9.9609065  98.6143303  56.7212391 143.1139413  91.8947411
  57.0468569 144.0116549  91.8290520  56.1825752 143.1118444  92.6859856
  71.3073826 142.9983965  79.0354300  71.1454391 142.5163508  78.2244825
  70.7986593 142.5306771  79.6977520  87.9182243   8.7407571  45.1079130
  87.1775246   8.3482367  45.5699873  88.5444832   8.9565074  45.7989216
  63.1341410   5.5552810 109.8953724  62.7282286   5.8430707 109.0776634
  62.7985573   4.6690655 110.0304222  98.7405586   1.8504000 107.0918941
  99.2699528   1.2422620 106.5760136  98.7469769   1.4831424 107.9758167
  86.9894123  17.9584217  82.3055935  87.4257469  17.3480535  82.8999805
  86.7707443  17.4301350  81.5379143 104.7960377   9.1223752  34.8246518
 104.2174053   9.7490007  35.2591173 105.5555630   9.0565509  35.4034559
  61.1227703  15.1923871   0.1624528  60.3918219  14.8967767   0.7051889
  61.3841724  14.4151187  -0.3312644  60.8455992  16.1840916   2.7679483
  61.5053368  15.5066347   2.9163591  60.0536823  15.7000244   2.5338880
  95.8537960  15.7291293  92.7675915  96.1035538  15.9461570  93.6657906
  94.9158764  15.5446351  92.8177357  41.3704824  47.1396112 108.7609863
  41.0350990  47.9946041 109.0306950  41.3619041  47.1698904 107.8042984
  62.4338150  24.0838933  87.5904655  62.2733974  23.5953283  86.7831230
  61.7882776  23.7424874  88.2093048  87.4791527  31.4848876   0.7648984
  87.7245998  30.8119535   0.1299611  88.2199764  32.0910120   0.7699529
  55.1167154 128.3357055  85.4818439  55.6006384 129.1514487  85.3529453
  54.2032051 128.5708971  85.3193283  60.7854414  14.9502492  75.0338078
  60.1784182  14.7504652  75.7464409  61.5415716  15.3461218  75.4671478
  97.3715591 136.8055541  64.7430706  97.4197102 137.6007099  64.2123699
  97.7641773 137.0523322  65.5804396  67.2549915  22.3493934  98.4007835
  67.1083212  22.6693177  97.5106335  68.1033897  21.9080520  98.3599281
 103.1278324 143.6888457  81.7865849 103.5749435 143.5307730  80.9551239
 102.3901081 143.0789516  81.7815685  48.4411860  43.3491659   4.4746724
  47.7768087  42.6692677   4.5867959  48.1428432  44.0694714   5.0299875
  74.6527433   4.0406853  92.0542049  74.0192747   4.6232250  92.4732494
  74.1323900   3.2933027  91.7594528  75.4084778   9.1029501 109.3198967
  75.4616404   9.5570374 110.1608562  75.7723188   8.2347035 109.4931030
  89.5348263 141.2501396  89.8683167  89.1922760 140.3633476  89.9801064
  88.7565327 141.8070788  89.8506737  90.5513668   3.2896659   7.4256269
  90.4369450   2.7602619   8.2148496  89.8956394   2.9535991   6.8146364
  80.0075054 112.8073115  97.3786926  79.9996090 113.7569470  97.2588539
  79.0920687 112.5785751  97.5395679 105.8320332  14.5852697  76.9394875
 106.5636635  14.1801786  77.4051714 106.0497761  14.4798231  76.0133648
  73.2222939 145.0387668  95.5654049  73.1051826 144.4797697  96.3335419
  73.1582165 145.9308754  95.9063816  69.7360849   0.8385348 104.6271229
  70.4798985   0.3005240 104.3559742  69.7793579   1.6095386 104.0615177
  50.7978439   9.7749418  38.7261716  51.2626696   8.9969224  38.4181825
  50.7458067  10.3428495  37.9574052  74.1020298  16.4407516  86.0085583
  74.5613384  16.9335771  85.3285694  73.3740711  16.0212338  85.5499554
  73.3824062  14.7704089  93.2216072  73.0774403  13.8990510  93.4745121
  73.2956171  14.7872627  92.2685051  45.6909037  27.4153543  40.3657953
  45.2623272  28.2694268  40.3099958  44.9734640  26.7955017  40.4973165
  75.8050537 145.6116971  56.2947655  75.6662560 146.5563544  56.2270164
  75.1826715 145.2330334  55.6738853  65.2137661  12.6475954   4.3935148
  64.8965788  11.9576204   3.8108007  64.9887466  12.3413539   5.2720491
  53.1457996   5.8600521  61.2622261  52.7823257   5.7377744  62.1392488
  53.6018467   5.0394708  61.0754156  57.6430607 144.1054136  95.6595707
  57.4134731 143.3805085  96.2409878  58.2614708 144.6320150  96.1660194
  75.1224422 120.7461948  93.1224632  74.3497038 120.6746525  93.6828136
  75.6825447 121.3825364  93.5669708  64.8644018 127.7651078  40.8780432
  65.8039951 127.7296025  40.6987953  64.6849823 126.9667477  41.3746929
  79.3377256 118.3778615 103.9075851  78.7055540 118.1756134 104.5972824
  79.0975857 117.7978534 103.1849766  86.4451218  13.3564818 102.2467232
  87.0079517  13.0862451 101.5211773  86.4835739  12.6263297 102.8644848
  76.3453293 119.7359819  74.7160149  76.2358809 119.0576596  74.0495777
  75.9212112 119.3767543  75.4953146 104.2043877   1.7080399 104.6646023
 104.7201061   2.4167508 105.0492954 104.8548985   1.1168705 104.2856693
  88.8879490   9.7145462  99.1649151  87.9335499   9.6695369  99.2226028
  89.0576744  10.1184809  98.3138847 113.8796806   1.1947498  23.6445276
 114.1033268   0.2664210  23.7109987 114.2276955   1.5830319  24.4472448
  73.2342386   0.2835448   4.4004194  73.7840891   0.5404973   5.1406041
  72.6053143   0.9993661   4.3093911  54.4514942 128.7693364  88.3849144
  54.9901676 128.2591171  87.7801514  54.5232868 129.6697886  88.0682659
  62.4566126 141.8027959   9.9343435  62.6768541 142.4080814   9.2262784
  62.5079250 140.9354723   9.5326558  64.0619898 141.1476494  93.7665558
  64.3158102 142.0338262  94.0244293  64.0164948 140.6622685  94.5903111
 107.4293804   3.3049071  96.7744732 106.7673016   2.6557505  97.0121288
 106.9261837   4.0573281  96.4631939  96.7317486 137.2920150  98.2264805
  96.1409855 138.0251003  98.3991241  97.6077366 137.6532830  98.3620262
  61.5458298  43.2507181   0.7737867  61.2337017  42.7254534   1.5106145
  60.7798481  43.7532902   0.4964296  83.3797264  34.8560905   0.4668275
  82.7658653  34.1311550   0.3490201  84.2375755  34.4359326   0.5283300
  76.8315220 136.6488475  88.0460930  77.6975918 136.2515850  87.9547787
  77.0062351 137.5852896  88.1398201  71.3459349  47.0174932  92.3716736
  71.7622995  46.6686296  91.5835285  71.5939045  47.9419279  92.3843670
 104.0242863 131.3531453  76.9413090 103.1448841 131.6262121  76.6799116
 104.6103001 131.9065375  76.4249945 103.9298344 136.8104691  66.2770653
 104.5557594 136.1837930  66.6400051 103.4456825 137.1329732  67.0372105
  58.0530691 145.2882324  16.5211431  57.8065872 145.7265463  17.3356096
  58.0330133 144.3555620  16.7355100  89.1352749 144.6727697  97.7766418
  89.2985725 144.6375253  96.8341351  89.9007225 145.1215158  98.1357288
  77.5706863  10.1033807  14.5510808  78.4442091  10.4840946  14.6418516
  77.0995092  10.3962958  15.3311006  71.8665695  51.8866920  59.9285793
  71.2091684  52.5793839  59.8635101  72.0472431  51.6419411  59.0210056
 107.3612118  16.1366677  11.5786592 107.3084164  16.1018586  10.6235544
 106.6032887  16.6588366  11.8415681  69.9522543   6.0783386  14.1305105
  70.5220032   6.8395984  14.2405263  69.2134333   6.2455696  14.7156659
  76.0664320  41.0113621  79.7198439  76.3057232  41.7082024  79.1087914
  76.7790413  40.9979296  80.3587818 100.3419113   7.0451891  86.6185188
  99.9566555   6.3866502  86.0404682 100.8848953   7.5822067  86.0414410
  74.2993021 143.2690338  71.8107605  74.3786287 142.4021614  72.2088480
  73.8670969 143.8008434  72.4790478   5.0879603 142.7676330 100.7965565
   4.1779070 142.8148366 101.0894966   5.0637179 143.0724842  99.8895168
  89.7488880  25.0029492  67.9876423  89.7929192  25.1953006  67.0510054
  90.5127907  25.4443169  68.3589649  52.1102428  55.2262688 106.3146496
  51.2915373  54.7358227 106.3882256  52.7644587  54.5669365 106.0833168
  88.2858658  14.3988216  98.2115650  87.3301697  14.4518793  98.2183838
  88.5764599  15.2836466  98.4326458  75.5275393   1.7742796  56.3968754
  75.9679747   2.4898241  55.9383535  74.7246838   2.1673708  56.7391253
  84.4920921 100.1088018  74.9524021  84.9128246  99.5780010  75.6287622
  85.0495052 100.8830280  74.8743057  96.1609840 126.6273374  73.0170918
  95.3683662 126.2358660  72.6500130  96.4239693 126.0266418  73.7143946
 104.7018719   2.3404738 100.4381847 104.6241856   3.2373840 100.7633781
 105.5042744   2.0083874 100.8408070  71.7852640 125.6189174  14.5620958
  71.6763496 124.8318786  14.0282956  71.6294575 126.3430113  13.9557592
 100.1102161 140.2176798   8.9033262 100.6035900 140.9978993   8.6502115
 100.7313538 139.6958865   9.4114057  59.9650049  45.5770636  73.7969828
  59.8841858  45.1714945  74.6602392  60.8850241  45.8347130  73.7385893
  70.2758026 142.3648549  75.1542854  70.1295376 141.6181145  74.5735788
  69.5611525 142.3179934  75.7893515 118.2956791   9.0871733  19.6624414
 118.1944752   9.6430475  18.8897935 117.6844788   8.3645511  19.5193425
  83.9620495   3.3540449   4.1433469  84.1303158   4.0701124   4.7558538
  83.5952759   2.6559600   4.6859208  71.8789291  17.4430752  64.7784805
  72.0008707  17.1124530  65.6684542  71.0113096  17.8472316  64.7899008
  79.0128040 124.4246835  13.9185849  78.7121010 125.1413674  14.4773141
  78.8173437 124.7168655  13.0282728  45.7722139  23.8324142 107.4084377
  45.2803135  24.5143819 106.9510651  45.3986740  23.0116010 107.0875549
 113.7129593   1.2530747   7.2315923 113.4654903   0.7464436   6.4580861
 113.7746334   2.1551403   6.9174234  86.0582161 125.1043410  73.5142136
  85.3235626 125.0737972  74.1270542  86.8361187 125.0706072  74.0709639
  59.1285181 145.5956692 106.8745708  58.9322901 146.5214583 106.7308998
  59.1429138 145.2148219 105.9965134  27.0259047  16.8682098  97.4592209
  26.5208387  16.2473059  97.9842091  26.3692403  17.4566841  97.0867634
 111.7268944  29.2291522   0.4588834 112.2804260  28.5669708   0.8728353
 111.7809582  29.9856329   1.0428754  41.0569859   5.7530159  91.5778542
  40.2032566   5.5125225  91.2179375  40.8523369   6.3199157  92.3214722
  92.9631901  19.9935210  80.1936531  92.0244694  19.8563135  80.0663757
  93.3755207  19.2476237  79.7579288  56.2223291 145.5443451  13.5507146
  56.8811846 146.1781675  13.8342801  56.6602373 145.0312787  12.8715745
  67.8203058   5.7923257   2.4054376  67.5369358   5.4482830   3.2525293
  67.0840931   5.6199217   1.8184892  96.1283779   3.2128015 107.1007824
  96.9034767   2.7054879 107.3417950  95.6555939   2.6507479 106.4869404
  13.5162383  46.0989571 108.8225460  13.7322074  46.4825678 109.6724987
  13.2106429  46.8381882 108.2968235  27.9786301 138.3908291  38.2997457
  28.5318017 138.0186052  37.6129571  27.3966765 137.6743449  38.5531465
 116.7026520  19.9485886  16.7345849 115.7611465  20.1124573  16.7888013
 116.8464088  19.1888189  17.2987787  44.0296745   1.5682258  79.1576004
  44.0253258   0.6807917  78.7988901  44.7705126   1.9963659  78.7285519
  60.9254026  11.7329252  89.3781281  61.1402225  12.6140344  89.0719700
  61.7279291  11.2294996  89.2412186  84.2350960 124.0453095  10.6014291
  83.6403084 124.7881002  10.4978982  84.1270065 123.5379738   9.7969762
  56.9512653 133.0915947  10.9055654  56.8228531 133.9402158  10.4817907
  56.1649895 132.5922758  10.6849138  76.9995499 116.9345946 108.6010456
  77.5288391 117.0773024 109.3857193  76.4041328 116.2241382 108.8397121
 105.3790474  20.1032257  92.2999859 105.4943943  19.1720128  92.1108532
 106.1894417  20.3604984  92.7396584  71.6871262 141.0986657  97.7652645
  71.1563778 140.6829364  98.4447479  71.0856342 141.2162949  97.0300007
  44.9219513  15.0195432 101.5496922  45.4188538  14.2041183 101.6160297
  44.0138292  14.7382450 101.4382744  94.1388607 122.1930427  97.1985245
  94.7758389 122.9071850  97.1764565  94.4658947 121.6012520  97.8760624
  80.3792286 134.6111924  88.7827396  79.5879745 134.3703420  89.2645454
  80.8006287 133.7756843  88.5812950  62.3017454  22.1790028  91.3001728
  62.0343304  22.8291202  90.6505013  61.5305376  21.6237473  91.4148712
 107.7007103  23.1411505 101.0423565 107.0802689  22.4139214 101.0915089
 108.1428909  23.0223370 100.2017593  42.6660061 130.7878513  90.9150410
  43.3689117 130.8669467  91.5599442  42.0145845 130.2285201  91.3381577
  74.8508883  11.0507655  97.6241779  75.3186321  10.8921909  96.8042374
  74.6377611  11.9836688  97.6017761  80.7711792  26.3584614 108.4330463
  80.0822067  25.7869506 108.7720585  80.5402756  26.4927149 107.5138664
  25.9152555  45.4165030  75.6410313  26.2464046  46.1660433  75.1462936
  25.0284672  45.6708765  75.8962440  70.9318924 133.6814530  78.4212875
  70.0798082 133.7207038  78.8556194  70.8421898 134.2613620  77.6650524
  80.8797073  27.6814151 102.6636696  80.3676891  26.9130969 102.4111748
  81.7589664  27.5035954 102.3297310  85.7138824  18.6963987  98.9707756
  85.2674675  19.0716851  99.7297955  86.5651608  19.1337156  98.9531803
  99.9467278   9.4630605  95.8185959  99.1285801   9.1918087  95.4023170
 100.5784321   9.5046973  95.1006413  40.5584860  16.7914224  83.1283283
  39.7247028  16.7342091  82.6616764  40.3121090  16.9299579  84.0428448
 111.7303467  42.8484201 104.3664932 112.3304844  43.0412722 103.6461735
 111.8907928  41.9273806 104.5718575  71.8796349   4.6730593 100.0067139
  72.6902437   4.4474038 100.4630280  72.1633148   4.9399042  99.1323280
  83.3918762 133.5905559  73.9763403  84.1196728 133.0289752  74.2431068
  83.7349987 134.0922160  73.2368612  96.6486835  10.5165565  68.3234787
  97.3821640  10.4891562  68.9378834  95.8712673  10.5589402  68.8803053
  92.1473980 138.6695428  63.0352306  92.9889679 138.8937069  62.6380730
  91.6370106 138.2928873  62.3183870  80.6962872 131.1901278  68.9184666
  80.8290195 130.7695038  68.0689430  79.8194456 130.9158833  69.1871166
  79.4818068 144.6058040 106.6749668  79.1399765 145.1990505 106.0060596
  79.0850782 143.7592364 106.4696407  94.1922092  31.0070205  94.6747112
  94.6135044  31.8662906  94.6946716  93.4751129  31.1063480  94.0485001
  99.2458916  22.6681042  79.1473532  99.6804142  22.3944497  79.9551487
  99.4593048  23.5974407  79.0635729  93.3142757  24.3655467   7.5131456
  92.3958302  24.4821286   7.7562467  93.4059525  24.8419380   6.6879884
  32.8476501 138.4966327  94.7228336  33.3240366 138.0907560  95.4470921
  32.0662045 137.9542030  94.6163082 118.7087345  18.1490195  68.0674648
 118.7458420  17.7971756  67.1780491 119.4952583  17.8077161  68.4930611
  85.0801563  12.2470117  61.9392920  85.0379562  12.6658869  62.7989435
  85.3162098  11.3385355  62.1268559  81.7928791  44.5744705 100.6539631
  81.1609745  44.4006872  99.9563026  81.2929916  45.0511646 101.3166142
 108.0463696 127.6847477  74.3091202 108.6077976 127.5340290  73.5486460
 107.1553040 127.6219661  73.9651966 105.7728672  39.5547056  96.8885803
 105.6931591  38.6777186  97.2637749 106.6752625  39.8138642  97.0750332
  97.7892113 135.8668942  83.1838226  97.7417183 136.7455960  83.5604572
  97.4847507 135.9757037  82.2828770 102.5396156 115.4821081  54.5951796
 103.2571125 114.8783035  54.4031906 102.7164268 116.2463302  54.0466022
  88.3001995  16.1688101  84.7042179  88.5132790  15.7406175  85.5333614
  87.7255821  16.8938792  84.9498272  93.3215332  32.3291707 107.3736286
  93.9131165  31.8190813 107.9268646  92.9060555  32.9480529 107.9741287
  59.3173933  11.9778931  64.6613264  58.4667349  11.7325938  65.0252533
  59.1953564  12.8750777  64.3508434  58.0839062  23.8596535  95.1100731
  57.8958559  23.3266258  95.8825779  58.5642672  24.6142006  95.4508686
  98.6291599  82.8480596 105.7161522  98.0824184  83.4140415 105.1711845
  98.1040096  82.6913519 106.5009403 113.6844158   5.7168251  77.1587133
 113.3809757   4.9419469  77.6317072 113.8815403   5.3979039  76.2779999
  71.5434599   6.2323570  40.1904297  70.6809378   6.2630862  39.7764993
  72.1608019   6.2480676  39.4590807  64.3103218 131.9331557  94.4961929
  63.8516474 132.0795960  95.3234863  63.6170101 131.9240386  93.8362980
  92.6008129  21.1975694  72.5883722  92.5967407  20.2784276  72.8555679
  91.7156029  21.3555312  72.2602320  89.5130825 138.9285518  69.4132280
  89.1392994 139.7385652  69.0662432  89.1217136 138.8370628  70.2819586
  61.7629147  18.8152075  69.4466114  61.8416882  18.1901932  70.1672935
  60.8550692  18.7313867  69.1550303 122.2986889   9.9661171 109.5329571
 121.6841221   9.5893067 108.9032459 122.6537800   9.2111760 110.0022316
  69.6970558 137.8040684  89.0438271  69.7598362 138.1658978  88.1598759
  70.4654312 138.1487335  89.4988441  69.8610497  35.2449346  70.2240229
  69.0800953  34.6945167  70.1659250  69.5561886  36.1195159  69.9823713
  80.6849194 141.8774168  62.5082922  79.9705601 142.2389452  61.9836760
  80.9455299 142.5953917  63.0852032 111.5627098 140.4367042  70.0459909
 112.3467827 140.9797163  70.1272154 110.8727074 141.0490180  69.7906446
  69.1424513   3.1161454  93.8551712  68.4876871   2.6849818  93.3059788
  69.6383095   3.6667264  93.2491875 102.5318146   7.7044356  84.3848419
 103.3827972   7.2664160  84.3990326 102.6768970   8.4927642  83.8616562
  84.7796631 145.5653100  95.6831741  84.5143890 145.5911728  96.6025162
  85.3411388 146.3328377  95.5742168  90.2868176  17.5765860  80.4258251
  89.4027996  17.2098505  80.4099560  90.7704926  17.0638549  79.7782135
  74.7035789  17.7067029  60.9231758  75.1449394  18.5560679  60.9266186
  73.8062429  17.9041588  60.6548071  99.8925400  33.1026626  92.8098011
 100.5826187  33.7208557  93.0503368 100.3448391  32.4194574  92.3149395
  98.1239414  20.9227991  62.6152658  98.4237385  20.8949161  63.5238791
  98.9234734  20.8345127  62.0964336 101.8191814   6.1848390  99.7274494
 101.6507912   6.9062680  99.1212940 102.6500130   6.4118659 100.1450729
  84.6503544  23.8592196  15.9932844  84.8389339  24.0381408  16.9145147
  84.8229885  22.9233050  15.8908597  77.0915937   2.1536696  79.8701525
  77.3070288   1.3775846  79.3529367  77.1596956   1.8620780  80.7793140
  86.1871338  27.5098872  42.1691322  86.8780613  26.8681431  42.3334742
  86.3421154  28.1993389  42.8147840 112.0793438  20.5328894  33.1371665
 112.4707127  19.6844447  32.9292989 112.8168201  21.0743237  33.4186149
 106.1641026 137.7432907  63.1805754 105.7852936 137.2864986  63.9316273
 105.4351807 138.2412774  62.8105497  82.9691792 128.0947263  15.0451223
  83.5145569 128.8800997  15.0896684  82.9772663 127.7466256  15.9367505
  35.1265025 138.7167860  81.6467762  36.0210061 138.4151442  81.4883327
  35.1828146 139.2157693  82.4616909  79.8018551  15.3298128  89.0243435
  78.9130116  15.6753886  88.9420795  80.2200985  15.5436051  88.1903172
 103.6259937 143.9700551  76.5978670 103.4050655 143.8626401  75.6727219
 103.9782429 144.8580177  76.6584635  59.6590042   2.3821849  84.2555428
  59.4372320   1.6087668  83.7370110  59.7255802   2.0574808  85.1535225
  71.1892366 135.3309447  75.9263182  70.8409500 134.6942718  75.3021574
  72.1393681 135.2649767  75.8307409  84.6509743  50.2995491  69.3198967
  85.1432896  50.8053207  69.9664640  85.1891327  49.5237923  69.1623688
  71.1896420 120.8858890  85.7591534  71.3063908 120.5556960  84.8683262
  71.9831753 121.3922186  85.9328270  84.5590401  61.4832115 105.7227135
  84.6922398  61.8319845 104.8413277  83.9717865  62.1116495 106.1427593
  96.9777870 138.6916901   6.5533868  97.8882885 138.5041870   6.3252202
  96.4855289 138.4933473   5.7567922  99.4345856  12.4475515  42.6176548
  99.0262699  13.2796478  42.3786306 100.3182888  12.5011325  42.2537518
  80.0773335 103.9132709 105.8924675  80.5893898 104.5534629 106.3866234
  80.7210541 103.4614296 105.3468513  61.8066216 141.5214408 102.0863819
  62.4909544 141.3311017 102.7280140  61.7275572 140.7164223 101.5745926
  74.3297482 133.8479073  63.1773329  74.6236134 132.9641504  63.3983517
  74.3644810 133.8797743  62.2212934  83.2821178  20.0690079  64.7037601
  83.1549835  20.1418591  63.7578440  84.2212296  20.2042389  64.8303223
 105.9583950 129.5963139  83.5540199 106.4631367 129.9043924  82.8013229
 105.4822826 130.3698690  83.8559437  75.4692793 130.3648729  42.3590851
  74.8601866 129.9231453  41.7673779  75.7854223 131.1174972  41.8592453
  51.4985180 139.3455012  62.3089838  51.5288639 140.2816100  62.1114731
  50.5728006 139.1144211  62.2322893 101.4540768  21.4450479  69.4492865
 101.0896969  20.6354523  69.8070717 102.2778988  21.5660858  69.9214077
 106.5075111  21.9553018  98.2561398 106.4458656  22.0809007  97.3092175
 105.9278011  21.2156153  98.4378815  59.6289158 135.4879517  64.3364763
  60.3579760 136.0571558  64.5828629  59.9489212 135.0051601  63.5744143
  76.2376738 146.0762144  12.0449296  76.2469578 145.8684468  12.9792539
  75.3094482 146.0884514  11.8114988  77.0516682  25.6441355  89.7589684
  76.5407467  24.8351192  89.7850513  77.8130674  25.4292989  89.2201328
  70.9407330  16.9158149  96.9537544  70.6626177  16.1312032  96.4812469
  70.7301378  16.7314112  97.8691101  75.5766296 108.3411760 100.0145531
  75.0913477 107.7888174  99.4016647  74.9616098 109.0360589 100.2493286
  49.0024090  19.0997291  73.4458208  48.7626171  19.8987794  72.9765129
  49.9568033  19.0622723  73.3829069  70.9894657 135.3317029  44.1878939
  70.2088785 135.8820648  44.1245270  71.6158676 135.7343275  43.5864401
  91.0282135 132.3174638  79.4431877  91.4690971 133.1666143  79.4714499
  91.2885761 131.8852205  80.2565765  83.1199551  13.6369050  96.2308216
  83.6331367  14.1338050  95.5936623  83.6100769  13.7184227  97.0489693
  71.0109520  10.9188497   2.5468293  71.3636971  10.5240762   3.3443013
  70.5243254  10.2111399   2.1242563  58.7238789  32.9060006  85.1814461
  58.7402487  33.4843683  85.9439850  57.8017902  32.8712606  84.9269390
  97.6087475   8.9986968  94.4765949  96.6807556   8.8611704  94.2864895
  98.0607319   8.3335769  93.9574051 112.1289349   8.0191439  77.7253532
 112.7092457   8.2887530  78.4372377 112.2531986   7.0722550  77.6606131
  67.2428703  33.6697221  80.8490753  66.5963125  33.8505197  81.5313530
  67.3916388  32.7257609  80.9041786 116.5103626  22.2408628  94.1318417
 115.9200954  22.9888940  94.0409184 117.1179676  22.4981213  94.8252869
  79.7835159 145.7089687  59.9569845  80.2465534 145.2108223  60.6305408
  79.3684626 145.0427172  59.4091940  71.3210058 137.1159221  78.4949875
  70.5872583 136.5334339  78.2986307  72.0645380 136.5280021  78.6281824
  74.1128826  16.3899136  78.1181860  73.3246803  16.0043609  77.7356720
  73.7912703  17.1270251  78.6372852  62.8920126  24.5999336  54.8894596
  62.7032423  24.7804999  55.8103275  62.0404005  24.3874049  54.5075989
  53.7954855  41.1117172  54.5500708  53.0723763  40.4887533  54.6225977
  54.2310667  40.8786726  53.7302017  69.5849895  14.5506608  45.3880930
  69.1386604  13.9018106  44.8440170  70.2072477  14.9726868  44.7957087
  85.6796837  15.4492164  75.9524059  85.6503201  16.3785183  76.1799288
  86.0341549  15.4313624  75.0634432 111.6390038  13.1641388  97.8602409
 111.4342594  12.3868036  97.3405647 112.4397564  12.9333436  98.3311462
  65.9708643  15.8125925  90.5382538  65.6656551  16.6613913  90.8585930
  66.8770981  15.9686494  90.2725029 101.0385609  15.8373713  21.2084237
 101.7720413  15.3633988  21.6003171 100.2691269  15.3121173  21.4282457
 110.2750874  30.5273962  96.5565586 110.8024979  29.8115730  96.9110584
 110.0220966  31.0411239  97.3235703  76.2217283 141.7363484  81.2865448
  75.5076122 141.1070640  81.1852074  75.7869864 142.5884152  81.3213539
  68.8867331  39.6836782  51.0223341  69.6949244  40.1964617  51.0118246
  68.1879473  40.3375053  51.0014009  46.7362165 135.3458936  77.6891994
  46.7479324 134.8648734  76.8617249  47.4146605 134.9274189  78.2191324
  93.3454990  35.6066132  84.8506641  93.5019970  34.7148204  84.5401096
  93.3658409  35.5349374  85.8049583 110.3701019   8.9569199 109.2125607
 110.5265331   8.7135458 110.1249886 111.1738968   9.4006032 108.9418411
  98.1620026 118.2149572  15.1633111  97.7722645 119.0731234  15.3302900
  98.9369011 118.1905026  15.7247106  86.1071301  21.1128330  67.2146034
  86.1880684  20.3319430  67.7622271  86.2418747  21.8435574  67.8180218
  55.1250935   6.0162002  56.8055964  54.3717670   6.5847248  56.9653130
  55.2382374   5.5329341  57.6240635  89.8258400  55.9365225  78.2958317
  90.7061577  55.9472513  78.6715555  89.9146938  55.4243422  77.4920845
 101.2023449 142.6158501   9.2570535 101.7335987 142.9412267   8.5303251
 101.0556793 143.3838845   9.8091832  71.4006376 143.2325036  71.6092014
  71.1682558 143.8952804  72.2595549  72.0720959 143.6508066  71.0703135
  49.7047329   0.4193392  53.3843994  50.4524183   0.4573252  53.9808512
  50.0720119   0.6308892  52.5261545  65.9596252  20.3783107  76.1091518
  66.0080671  20.5169892  75.1632929  65.0301886  20.2282429  76.2819386
  86.4568233   4.1184202  78.2137585  86.6860104   3.8567927  79.1055298
  85.7794094   4.7852433  78.3264065  63.1683350  11.9446123  64.6019745
  63.2560873  11.0321212  64.8774576  62.4518824  11.9353426  63.9672804
  46.6105270 140.3417177  72.4378490  47.1987820 140.1376469  73.1648588
  47.1294975 140.1654524  71.6530991  81.6517544  26.5536189  98.4582329
  81.8575001  27.0947957  97.6959801  82.3133755  25.8619809  98.4465313
  82.2504807 144.3375654 103.7541962  82.4331474 143.5540611 103.2355499
  82.9248524 144.9629565 103.4889698  97.0794487  38.1490731  63.4118700
  97.0520592  38.8023520  64.1109467  96.1866093  38.1293368  63.0673742
  50.3044319  25.0373077  61.1927414  49.7086811  24.3601108  60.8722448
  49.7286606  25.7125115  61.5516567  70.9289789  43.3215904 104.4265366
  71.0387754  43.4424257 103.4833622  70.1129198  42.8285646 104.5114517
  79.1985989  52.7757835   1.9226781  78.4824800  52.1627808   2.0888940
  79.9911118  52.2793007   2.1267835  23.0978703   4.1108185  92.2431660
  23.4189034   4.4910556  91.4254951  22.2934103   4.5938307  92.4323177
  62.1085596 139.3151582  81.1620045  62.2883701 139.9780435  81.8286991
  62.1045685 138.4872414  81.6423893  73.4669733  15.6178725  54.6416378
  73.6384535  16.5520859  54.7602558  73.9651966  15.3803122  53.8596106
  78.1418276 124.8798318 107.6344204  77.2515249 124.5339532 107.6974201
  78.6820793 124.1155262 107.4339390  84.5942593 142.4019928  74.5324421
  83.8237095 142.6835606  75.0256109  84.3617153 141.5353985  74.1990185
  70.5826664  10.0574839 102.9782963  70.9573507   9.2386711 102.6536560
  69.6539259   9.8627412 103.1037807  51.5246344  14.2073154  13.8910333
  50.5870676  14.0610433  14.0167180  51.9358206  13.3965075  14.1906110
  76.3979483  57.5614357  88.3707905  76.5502930  57.8507614  87.4711800
  77.2662306  57.3240566  88.6963367  77.0623016  10.5582130  95.4853153
  76.3105154  10.0122023  95.2552700  77.3293352  10.9589612  94.6580696
  55.0471783  38.1146431  75.6881189  55.5576658  38.3723497  74.9205065
  55.7030725  37.8676319  76.3400507  99.5248318  30.2018762 103.5106659
  99.0226364  30.9639072 103.7993431 100.4394436  30.4646635 103.6139011
 109.4406796  15.2468252 100.5221367 109.1475868  14.9335515  99.6664524
 109.5935440  16.1831355 100.3949070 100.9843445  28.0444741  77.9398155
 100.8288765  28.9709139  78.1235886 100.4833603  27.8710294  77.1428442
  88.3268833 146.3427159  84.2117023  89.0696526 146.3105965  84.8146057
  87.8158855 145.5604006  84.4192982  60.1768398  36.0927653  60.2340078
  61.0828590  36.1257839  59.9269629  60.0772095  36.8787169  60.7712078
 114.4452477  39.3551302  85.5448723 114.2935753  39.4557190  86.4846134
 115.1089954  40.0129461  85.3376198  86.9729519 117.4554844  88.0509090
  87.1492386 116.6395850  88.5193825  87.7405930 117.5821824  87.4933243
  94.2105865 141.6803078  96.3750839  93.2664013 141.8311376  96.4198589
  94.4594574 141.4523215  97.2708035  78.4772968  38.1347132  21.3770810
  79.1197920  38.2800102  20.6825963  78.2769489  37.2000933  21.3263074
  96.5993214  13.6635208  79.8155355  96.3959122  13.0815041  79.0833330
  97.5274563  13.8705301  79.7062588  80.7055950 134.3060941   0.1628915
  80.6903362 133.7904460   0.9691755  81.5177727 134.8098416   0.2160779
  50.6814384  21.4467788  82.1396828  50.4781866  21.7032599  81.2401581
  51.1248636  22.2091341  82.5117302  81.5605545  21.5757990  86.5137386
  81.9503212  21.1038017  85.7778454  82.0746326  22.3803830  86.5815067
 105.1823425  47.7801800  75.2440834 104.4805431  47.5587463  75.8561945
 104.7624779  47.7685928  74.3839645  81.5825653   7.6612341  79.5481253
  82.3540401   7.0981139  79.6110106  81.4095402   7.7264333  78.6089516
  85.1782417   6.6991132   0.7447568  85.9478474   6.1755526   0.5215494
  85.2599907   7.4865466   0.2067033  71.9024658 132.8425355  69.0608835
  72.2156429 133.6572189  68.6678934  71.7012787 133.0756576  69.9672031
  70.4455519 139.6394617  73.4025431  70.4575634 140.1179791  72.5736237
  70.9228849 138.8303394  73.2189465  75.4331207  14.4027174  87.4656582
  74.8076010  14.9549282  86.9965935  76.1646080  14.9865830  87.6663113
  90.4258156  34.0830469  62.8350782  91.2841511  34.3857765  62.5387096
  90.2100658  33.3603835  62.2456360 114.1945648  21.5468454  83.1801891
 113.5566998  20.8441353  83.0554676 114.0414906  21.8534160  84.0739536
  84.9428463   4.1261205  18.9430046  84.0824223   4.2106965  18.5322309
  85.0271034   3.1916019  19.1322362  41.9385338  30.5937004   7.0915548
  41.2246847  31.1838269   7.3332158  41.5231848  29.7348809   7.0131532
  59.5170259  35.2332020  53.2946014  59.8288488  35.7070637  54.0656090
  60.0775194  35.5401111  52.5819397  68.7212276  22.9733777  69.1265154
  69.0752840  22.9915571  70.0156403  69.1132307  22.1961284  68.7284565
  61.9082069   4.1543943  62.1813107  62.4977350   3.9240882  62.8993988
  61.0316563   3.9898476  62.5288916  92.4918747 133.4127528  58.4680271
  91.8914509 132.7693791  58.8445854  93.3352852 132.9614598  58.4329462
  70.8123589  33.8472390  97.7087975  70.9736347  33.1751227  98.3709717
  71.1549187  34.6525574  98.0965424 107.0174122 135.2496524  87.2931957
 106.8231297 134.8425264  86.4489651 107.9134178 135.5739016  87.2021961
  61.6537189   0.1081368   3.5337106  62.5936079   0.2406153   3.6573736
  61.4726496   0.4713945   2.6668302 113.6948586   7.4986720   5.0064222
 113.9571857   8.0212665   5.7642499 113.8190079   8.0826396   4.2582170
  13.6601859  26.3184452  91.6816616  13.6401206  25.4491115  92.0817757
  12.7392512  26.5674114  91.6034222 107.1359158  30.9128737  64.6022654
 106.3529491  31.4630795  64.6239901 107.3270988  30.8050394  63.6705685
 120.7054520  10.0428581  91.1140251 120.0556183  10.2161849  91.7951298
 121.1947536  10.8618236  91.0358524  30.5394816   0.9308615  21.6413919
  30.6444001   1.2697023  22.5304452  29.8804283   0.2416171  21.7239896
  75.7587624  22.1339488   8.3946172  75.4192066  21.6152215   7.6653329
  76.4427423  22.6776791   8.0037729  69.3645239  -0.1816813   4.2560426
  69.6373892   0.5777863   3.7412683  69.4972181   0.0852917   5.1656286
  71.2287712 125.3934426  72.0077085  70.8987570 126.1278863  72.5253105
  71.4369965 125.7756657  71.1551952  72.1977186  19.3072617  87.3996925
  72.4564648  19.3530786  88.3201218  71.6378975  18.5326612  87.3465443
  76.4977646  35.3890133  35.3201056  77.3919630  35.1189852  35.1109958
  76.0253000  34.5678020  35.4565620  76.9109726  98.4126730 101.8810272
  76.9476509  98.3484811 100.9266853  77.2970963  99.2659397 102.0787048
  39.0700221  20.4622269  78.2425308  38.8202524  21.3300490  78.5599136
  38.2953382  19.9203157  78.3922815  44.4539595  27.9193473  71.2591934
  43.9657021  28.5434341  71.7961788  44.1774368  27.0605469  71.5789270
  43.9776850  32.3722410 103.9283371  44.1031694  32.4339485 102.9814053
  43.5346317  31.5335751 104.0570831  97.4994850 116.8492407  76.1694622
  97.0989609 116.2539477  76.8030500  98.4291840 116.8512864  76.3972521
 105.3157997  18.8207352  88.9438057 106.0600853  18.9192951  89.5375729
 104.6899796  18.2849050  89.4311142  34.6996140 142.8089760  73.0455589
  34.0087509 143.3572964  73.4174299  35.5139112 143.2211665  73.3340883
  80.8172417  19.5345128  78.2201576  80.5187225  18.7763715  78.7224960
  80.0138092  19.9266517  77.8781605  72.6083422  28.6264324  43.2217360
  72.4823236  28.5431433  44.1669416  72.1184635  27.8932738  42.8492689
  58.7223482  18.9981854   9.3090001  58.8310909  19.8789442   8.9502946
  57.8198957  18.9790213   9.6275083  43.1745815 145.4117026 102.0703793
  43.3005810 144.5972029 101.5836048  44.0550756 145.6622996 102.3499584
  58.9813328  24.3501878  57.5465345  59.6206188  24.9529123  57.9263639
  59.0712690  23.5491300  58.0627251  66.7006731 146.6922327  97.1776581
  66.7200804 146.9246408  96.2492943  66.8669701 145.7496999  97.1921253
  61.0966063  30.5447674  92.0782566  61.9740915  30.6726646  91.7178440
  61.0570955  29.6114326  92.2869587  90.1290035  17.0380092  92.3178864
  89.3254280  16.6002679  92.5987339  89.8571396  17.9343867  92.1208286
 111.9798183   4.5053723  39.0306759 111.2836266   4.8526734  39.5882821
 111.5474510   4.3152192  38.1981301  68.6744833 122.1272773  89.4367981
  68.3078098 122.8397674  88.9132118  69.5046234 122.4734230  89.7643375
  57.6911259   3.9443341 109.9027634  57.0757294   4.6774703 109.9081707
  58.2803965   4.1316435 109.1720772  78.4107542  12.7723145  72.4712896
  79.2158604  12.8406644  72.9844809  78.6209297  12.1464872  71.7781830
  78.0556631  11.5104282  88.0629730  79.0033436  11.5923572  87.9561234
  77.9316425  10.6398845  88.4411240  76.8440294  26.6312027  75.7882929
  76.0063171  26.1765075  75.8761311  76.9985247  27.0173216  76.6504288
  49.1208839 136.0839350  75.3833389  49.0909863 136.6289050  74.5969868
  48.7170029 136.6227240  76.0636425  65.5611563 143.9039553  72.1653223
  65.7360029 143.1240658  71.6386032  64.6092272 143.9173619  72.2647429
  68.5671806 143.8061611  85.7159901  67.6435757 143.5585452  85.7592964
  69.0369463 143.0355988  86.0350323  90.5500698 144.6820692  82.3130035
  89.8748875 144.5051661  82.9680347  91.3738918 144.6268471  82.7972603
  42.8210402   2.4941644  71.3918161  42.1549034   1.8381831  71.1864281
  43.6427546   2.0035653  71.4098787  98.8276482  36.4830351 106.0807228
  99.0379906  37.4141812 106.1510754  98.1005764  36.3550329 106.6899967
 107.5682640 113.6033053  93.1014729 107.4121857 114.5445461  93.1785488
 108.1446552 113.3950920  93.8367653  72.7621698   6.4084822  47.6702547
  72.0144558   6.9955498  47.7820873  72.9675055   6.4573437  46.7366171
  85.9229279  20.5018640  86.4188290  85.8844852  19.5501745  86.5139198
  85.8415890  20.6519437  85.4769802  77.9224062  30.1051736  59.0094852
  78.0056047  29.7843885  59.9074841  77.7957726  29.3153477  58.4837723
  72.7913427  48.3050489  55.7627678  73.4312773  48.7279510  55.1901674
  73.3188915  47.8813553  56.4398241  77.5098753   7.8504574  71.3710070
  77.5994062   7.7660340  70.4217529  78.2303905   8.4252071  71.6293669
  92.9503822 125.2185340  10.7035295  92.9335308 124.8643679  11.5926400
  92.0304585 125.3760547  10.4909936  74.2577553   3.4018019  68.5088873
  74.2716646   2.8393719  67.7344799  75.1296425   3.7960017  68.5343027
 101.9925499 120.3695292  43.9996767 102.3232841 119.4791860  43.8807821
 101.6102123 120.5981369  43.1524515  52.4732304  18.2503498  73.9739370
  52.6912832  17.5734556  74.6146441  52.8879595  17.9553151  73.1632662
  64.0508986  42.8211117  70.3833723  63.3778048  42.1854639  70.1402044
  63.7989616  43.1134701  71.2593174  70.9461451 145.5174960  68.1070137
  71.8241787 145.1664879  68.2556200  71.0665274 146.1864036  67.4329901
  84.4254017  21.2213254  59.5337963  83.5410976  21.3479424  59.8776245
  84.9267960  21.9568419  59.8857117 106.1991310  18.4612477  71.1750078
 106.9218922  18.9823616  70.8253002 105.4323101  18.7546182  70.6829262
  58.4376335  18.0688405  39.6432662  58.6951685  17.5545084  38.8781714
  57.6420116  17.6424646  39.9617338 110.3725243  33.6561227 103.2998657
 110.3757858  34.5878649 103.0805969 111.2769985  33.4653878 103.5484123
  56.5410709  23.7720346  27.6002097  55.6178856  23.6439419  27.8182793
  56.6690874  23.2695079  26.7956519  69.9026537   7.0982516  90.3186131
  69.1953516   7.7431893  90.3220463  70.2685308   7.1487421  89.4355392
  88.5610771   5.5439216  53.2097673  88.4395790   6.0337549  52.3964167
  89.5019150   5.3717321  53.2473946  91.4426422  16.1983669  78.3240318
  92.1924591  16.6007948  77.8857851  91.8155003  15.4622316  78.8091278
  91.3436985 120.7071466  76.0327816  90.4034233 120.6543226  75.8615637
  91.4189053 120.6266470  76.9836187  96.1278820  20.3859305  74.6938515
  95.8846855  19.4622707  74.6311140  96.4422226  20.4903769  75.5919170
  65.7183218   0.1616572  67.7030420  65.4559851  -0.0747427  68.5927200
  66.6400337   0.4073739  67.7824211  90.3365993 135.1252885  42.9272938
  90.2867699 135.3557248  43.8550043  89.7032452 135.7037396  42.5024652
  45.3892422  17.6075315   0.6404153  45.0370979  18.4699655   0.8604947
  46.3311863  17.6880372   0.7903997  82.2723961   3.9864784  60.6494713
  81.7291832   3.7851214  61.4114475  81.6730881   3.9265311  59.9055099
  58.1331205   2.7362809  61.5698624  58.8306952   2.6592922  60.9189463
  58.3774900   3.4992293  62.0937204  93.9282608 134.7261901  71.2096930
  93.8365936 134.3003280  72.0620251  94.6984959 134.3145473  70.8178711
 100.0545883 133.0829115  79.6144104  99.3795872 133.7603218  79.6559286
 100.8473301 133.5505147  79.3514729  66.0630512  13.6037505  46.7335844
  65.6097555  13.5948396  47.5765991  66.5465355  14.4298661  46.7303371
  83.1550217  34.1142082  47.3985577  83.5255814  34.7877765  46.8282747
  82.4867725  34.5727253  47.9079151  12.4298506   2.7711359  42.4431181
  11.8799429   2.0032397  42.2876358  11.8229418   3.5106671  42.4117279
  93.0549908  21.0882211  29.6977019  93.8250160  20.5428910  29.8586631
  92.3720264  20.4685473  29.4412088  99.4103622  25.9074426  66.2152529
  98.7954140  25.7248235  65.5048180  99.6460152  25.0444722  66.5558100
  86.4849091  51.3620806  44.3425846  85.5896950  51.4688540  44.0209818
  86.7609692  50.5103016  44.0042162 117.1551132 143.1136448  54.9795198
 117.5455952 143.9787892  54.8558855 117.8804874 142.5027145  54.8497486
 114.6635246 144.6669289  67.8306198 114.9192715 145.5371098  67.5246572
 114.4736099 144.1777972  67.0300484 103.6595058   6.6148347  69.7329473
 103.8192463   5.7776171  69.2973089 102.9560661   7.0188433  69.2248344
  55.3532600   4.4218695  82.0905685  55.8810616   3.6706588  81.8197536
  54.9016428   4.1249555  82.8805733  74.2789459  28.5501742  62.2829103
  74.7143030  29.2345667  61.7746782  74.2284584  27.8038263  61.6857147
  92.5223637  18.1875253  58.9071274  91.7073822  17.7665246  59.1806221
  92.6411057  18.9058793  59.5284939 106.3774872 130.8064539  61.3172245
 106.0885048 130.7068498  60.4101372 107.3036861 131.0383732  61.2494373
 103.9921951  22.9361916  59.9363041 103.8390541  22.0675302  59.5645428
 104.2458630  23.4758472  59.1875362  91.4614296   0.8276811  63.9072084
  90.5644035   0.9558260  63.5987377  91.9525337   1.5546149  63.5242987
  71.1809492   1.2741321  65.9992456  71.3303566   1.5447846  66.9051456
  70.5427504   1.9035222  65.6633854 112.7159405  18.9648104  42.8408957
 112.8156757  19.0542221  43.7886763 111.7780209  19.0781891  42.6870060
  90.5119514  10.7877696  65.8092880  90.7834530  11.6751182  65.5744886
  90.5980110  10.7551861  66.7620564  63.3592844  20.7043552  34.9752212
  62.5603151  20.8816886  34.4787979  63.1432629  19.9421418  35.5124378
 104.5055008  15.9577656  59.1113520 104.9403381  15.8176744  58.2702112
 103.5985184  16.1596119  58.8814211  97.0133495  28.9368629  36.0896635
  96.5245533  28.5689282  35.3535032  96.5104675  29.7088766  36.3491464
 110.1390171 131.3068993  59.3809032 109.8425102 131.6229386  60.2343893
 110.8428001 131.9070847  59.1345406  66.9288301 145.8725750  15.4665875
  66.1330462 146.3978205  15.5507052  67.6195717 146.4236885  15.8345294
  73.1571341 112.9784722  55.5091381  72.5708771 112.2653408  55.7620811
  73.1276941 113.5862441  56.2480402  52.0570326  26.0852671  63.3789778
  52.1388483  26.9465446  62.9694176  51.6016531  25.5523729  62.7271461
  45.4124880  21.2142658  65.6941080  44.7308826  20.6947637  66.1204481
  45.4272842  22.0371962  66.1827803  85.8974171  21.4059448  81.0040855
  85.4375744  21.4865851  80.1684570  85.4770088  22.0515728  81.5721035
  78.3682632 138.3382482  70.3888702  79.1020298 137.8981692  69.9597454
  78.2778835 139.1670568  69.9186134  91.1029530 126.0817403  96.9565296
  91.1876869 126.3057632  97.8832817  90.4858398 126.7260832  96.6098118
  88.4856224 142.0740379  97.9706860  88.6622047 143.0087835  97.8643799
  87.6695442 141.9285033  97.4920845  86.8721581  24.1421342  36.8346810
  87.1611595  25.0324917  37.0346260  86.4908123  24.2050743  35.9589839
  68.5472775  17.7652395  27.0872760  68.7266302  18.6093175  26.6730332
  68.0207491  17.9829776  27.8564239  72.3143673 131.2993068  57.9178238
  72.4932003 130.4912443  57.4369049  71.4647579 131.5915055  57.5876427
 113.8582516 124.0765519  43.1354856 112.9422283 123.9388437  43.3766890
 114.1657352 124.7529645  43.7389326  76.8170071  15.1308775  53.3810902
  76.9295263  16.0814369  53.3840275  75.9626484  14.9920881  52.9723835
  97.0820904  24.1807556  67.7860451  97.8844070  23.6859179  67.9523087
  96.9217491  24.0692353  66.8489790  85.2743626 132.7947576  60.5369139
  85.5001545 132.2766299  61.3094378  84.6553612 132.2472710  60.0538731
 101.4064693  10.7995367  62.5196028 100.4668903  10.9075963  62.6670361
 101.4950752   9.9079806  62.1826935 102.8428364 119.4499678  77.9648924
 102.7092361 118.5176081  77.7943373 103.7470531 119.5099086  78.2731581
  89.0795135   5.3661424  24.6732807  88.3842945   5.1208699  24.0627527
  89.0040302   6.3170469  24.7527409  70.5707550 132.2607011  72.2456360
  69.8749495 131.7306168  71.8569183  70.1625252 132.6693339  73.0089140
  31.5420866  16.9149196  96.2154579  31.8152523  16.0118914  96.3771725
  31.7912841  17.0813799  95.3063774  99.3155670  14.8055816  80.2634430
  99.4995880  14.7163749  81.1985493  99.9527645  15.4495013  79.9543047
 122.5394630 140.1403088  34.5529008 121.9303608 140.8786363  34.5623994
 123.1530094 140.3450383  33.8472939  80.9307766 134.6847863  16.2422276
  81.2229824 134.8351473  15.3432059  81.3162899 135.4038436  16.7427993
  59.4127560   7.3375046  86.7046261  59.2911911   6.5192211  87.1861458
  59.8040485   7.9347134  87.3421669  65.5474710   3.6124223 100.8970070
  65.8244419   4.4914144 101.1556339  66.3625431   3.1565100 100.6871700
  73.9528656 124.5359296  71.6602612  73.9957809 123.6025567  71.8681145
  73.1048203 124.8187561  72.0024061  38.8182306  10.6630075   2.2350200
  38.3036113  10.3264856   2.9686081  38.6669588  11.6080618   2.2499102
  58.7117624   7.9129875  66.8991613  58.1437922   7.3756409  67.4513388
  58.8715219   8.7023592  67.4164629  64.3237495   9.5196956  41.5432167
  65.2348948   9.5874941  41.2578344  64.0101194   8.7045336  41.1515760
 103.4898758  29.6443868  42.2175503 102.5858879  29.4857550  41.9457483
 103.4144974  30.2350378  42.9670048  60.2792883  14.5432115  49.0894938
  59.4725943  14.0476191  49.2304230  60.6295538  14.6857190  49.9688339
 114.5876408 146.0614741  75.0946951 114.0542221 145.8698939  75.8660507
 115.0410938 146.8756280  75.3132629  73.8755941   8.7394309  27.8412700
  73.5624266   9.5514619  27.4428201  73.4669828   8.0455744  27.3237467
  74.4705915  15.7441378  64.1173029  73.6853313  16.2521613  64.3210363
  74.1426086  14.8692167  63.9095163  89.6877384 145.2246735  60.6580687
  89.4338417 145.1955366  61.5805197  90.6187248 145.0021979  60.6587553
  54.1070127  34.8964787  39.9239206  53.8723564  33.9982057  39.6909618
  54.8350000  34.8022127  40.5382347  72.8095245  19.1858840  51.3736057
  72.5430059  18.3573508  51.7720175  72.1301126  19.8071480  51.6356468
  84.3144989  42.2983837  67.7952242  84.5486546  41.4513350  67.4158669
  83.3855915  42.2156715  68.0108976  96.7105961  20.6685686  51.2231970
  97.2279072  19.8698092  51.1202335  95.8291721  20.3580379  51.4303207
  90.7651901   9.0016335  80.2948761  90.9493637   8.7780935  81.2072086
  89.8313141   9.2113054  80.2834797  54.8417187  22.6999092  69.0956497
  54.0285969  22.2424912  69.3097448  55.0519419  22.4116755  68.2074165
 101.1761570 143.9239524  62.8945303 101.0032558 143.8089565  63.8289356
 101.7558956 143.1970615  62.6669931  64.5098257   4.2145130  76.9870663
  64.7297239   4.9275747  76.3875532  64.3468857   4.6476984  77.8249407
  94.0708733  11.7590034  70.9587288  94.1536045  12.5981307  71.4117765
  93.9067364  11.1250460  71.6568613  75.1433420 131.7006941  51.0624599
  74.7832394 131.1676104  51.7712498  74.5436954 131.5612931  50.3295088
  60.1254845   4.4917116  80.1097870  60.4378462   3.5937989  80.2212048
  60.5546761   4.7971681  79.3105793  87.0848179 142.1563570 104.8888016
  87.4322891 143.0164892 104.6528530  87.1623993 142.1199931 105.8421516
  72.1274805  18.0913305  60.3180122  71.3349104  17.5647950  60.4220390
  71.8843126  18.9574051  60.6451416 102.6107883 146.3339853  67.9480076
 101.6837406 146.2689675  67.7186823 103.0712795 146.2322399  67.1150398
  55.2938747  27.6639891  64.9574280  56.0441589  28.1625056  65.2811337
  55.6470823  27.1387982  64.2393398  90.2180958  22.9242468  53.9043903
  89.9732018  22.2331452  53.2890606  89.4903755  23.5450745  53.8693237
  63.4883642   5.6128407  92.6917458  63.4845448   6.3169885  92.0433712
  64.1948366   5.8457696  93.2941437  89.4631290  22.5261903  95.3861332
  88.9669323  22.3016143  94.5989895  90.2976131  22.0690536  95.2817822
  70.5868006  50.6671429  62.9085302  70.1464033  49.9063015  63.2872105
  69.9110174  51.0999537  62.3867846  54.8466301  42.7075148  92.7933216
  54.1498661  42.8418970  93.4357357  55.4361010  42.0773411  93.2076073
 101.0875702 120.8865876  93.8610649 100.5762386 120.1524563  93.5207272
 101.8456268 120.9406681  93.2791138  99.2566299   9.4925052  53.9230585
  99.5405293   9.4779581  54.8370695  99.9831581   9.0983993  53.4402895
  81.9844151 143.2389469  71.6952515  82.8201294 142.8467453  71.4422750
  82.2253609 144.0592433  72.1257067 112.1458340  25.3297997  58.2361078
 112.5350380  25.4349661  59.1042614 112.4902248  26.0646963  57.7286100
  57.1367073  47.4404955  52.6166725  56.3463211  47.6635885  52.1249914
  57.8299284  47.9535246  52.2013664  85.6078529 130.6984789  47.6925898
  85.3650570 131.0481960  46.8352795  86.5450096 130.8782167  47.7679157
  81.7427444  39.6133614  37.3329163  81.2427711  40.4147434  37.1778393
  81.8999577  39.2562199  36.4588642  59.0605354  36.1414361  78.6816168
  58.2228374  35.8226705  79.0175962  59.4001579  36.7027688  79.3786049
 100.8457756  29.3736172  25.5771780 101.3196087  30.0108552  25.0427294
 101.2544060  29.4341803  26.4406490  61.5399218  16.3423896  67.7894306
  61.0319519  15.5352652  67.7072716  61.4123774  16.6141915  68.6983252
  57.7301550  25.2910876 108.6921828  56.9929886  24.6807837 108.7108302
  57.8722811  25.5231071 109.6098965  23.7288213  18.3006060  24.5762444
  23.2322836  17.5539160  24.9111104  24.2335725  17.9441500  23.8452220
  99.5227528   9.0304440  74.9792051  99.8526382   9.6988392  74.3786573
 100.0541782   8.2567060  74.7917175  84.1990662   8.1929129  54.0317202
  83.3210182   7.8648686  53.8376713  84.5313358   7.6024604  54.7078800
  47.4537182 141.1612583  45.0632000  48.3111382 141.2031151  45.4866552
  46.8352365 141.0494996  45.7851601  52.8902864   3.2827345  50.4836845
  53.3540869   3.2924977  49.6464109  53.5761452   3.4111416  51.1389256
  71.5113688 141.9487435  18.6447179  71.5802670 142.8896869  18.8063061
  71.3017130 141.8804035  17.7132642  50.8595991  13.4176743  86.2855530
  51.0348415  12.4766529  86.2857533  49.9111080  13.4846449  86.1754990
  95.5060577   3.3320928  68.4943008  95.1237583   2.7799502  67.8122330
  94.9003315   4.0690285  68.5733747 102.6288605 145.2567516  19.7529221
 101.9837952 144.5699262  19.5844197 102.2417831 146.0466797  19.3755460
 123.9411449 145.9666642  76.8521023 124.7398567 145.6443121  77.2696877
 123.2782936 145.9286901  77.5416088  83.1300926  23.5031414  64.9687719
  83.3460617  23.5273623  64.0365648  83.1768036  24.4171262  65.2492762
  78.1878710 138.1862284  23.2580519  78.5246325 137.5871522  22.5917721
  78.8754082 138.8447256  23.3575726  72.6785088  44.2281961  87.4236012
  72.2846985  44.3973064  86.5677071  73.5646486  44.5833445  87.3539066
  95.9159470  44.9705935  81.8863392  96.5326405  45.3276587  81.2472534
  95.7415867  45.6981993  82.4833393  87.8722954  18.7591994  19.3099606
  88.0229378  17.8602004  19.6020889  86.9271851  18.8093257  19.1667891
  83.1099224  37.9810095  45.8389807  83.7237263  38.6041522  45.4501724
  83.6495972  37.2242928  46.0678148  38.7580061 143.9116494  44.7558784
  38.2244086 143.9960346  45.5460548  39.1577554 144.7741009  44.6435833
  22.6026564  23.4100318 104.1447639  22.3726492  24.2326665 103.7127876
  23.4817343  23.2086706 103.8239765  80.0211143  48.8644361  88.6663532
  79.1860390  48.7154961  88.2228374  79.9132490  49.7096205  89.1025352
  80.8712673  32.9382825  24.5650077  80.3430462  32.6182342  23.8337159
  80.5409145  32.4608850  25.3260541  74.2561960   6.6045225  79.6344137
  74.4644070   7.2926611  80.2663517  74.2732525   5.7959741  80.1464558
  58.0978727  19.7856390  74.1340303  58.3309698  19.7347605  75.0610209
  57.5934505  20.5955839  74.0580082  47.2979593 126.2923116  61.6870403
  46.9895840 125.4847593  61.2759542  47.7086258 126.7821021  60.9745169
  84.5571899 142.4963323  45.9570599  84.7751713 143.4252418  46.0335016
  84.7331524 142.1366868  46.8265009  87.5042152  20.2291393 102.2700119
  88.4022522  20.2946806 102.5947380  87.1007919  21.0629463 102.5113678
  81.2059498 134.7908837  70.8136559  81.2575245 134.1845150  70.0748158
  82.1158695 134.9206705  71.0809469  69.8824883 140.4702336  53.7979364
  69.7027302 139.7031380  54.3415213  70.8194971 140.4163087  53.6099434
 111.3260269 137.6927818  82.3129463 110.7391357 137.0050938  82.6273918
 110.7704639 138.2519824  81.7699146  92.3226166  15.1529729  10.0022972
  92.8738594  15.6611025   9.4071734  92.9417324  14.7075772  10.5807006
 113.7364578 130.1610596  49.6724367 113.6136341 129.2197818  49.7954893
 113.9198208 130.2585442  48.7380362  60.4195738 121.6893954  91.1904526
  61.0979795 122.3596210  91.1080265  59.7216702 122.1149988  91.6884613
  86.1599636   8.4315097  35.4215622  85.3233624   8.7546802  35.0870728
  85.9456158   7.5953197  35.8351755 111.0893059   4.6120018  65.4498053
 110.9819317   5.0190723  66.3094568 110.2045155   4.3477070  65.1977539
  73.8108683  22.0352674  62.6189470  73.3443594  21.4269543  63.1921434
  74.4559336  21.4914560  62.1668530 100.6306076 141.0959888  89.8459148
 100.9239197 141.9115139  90.2522659 100.1270485 141.3767070  89.0818119
  48.2186174  25.4513264  66.2709522  48.8388634  26.1612344  66.4369488
  48.1521749  24.9908304  67.1074724  63.5855198   1.0932186  39.8412871
  64.2223883   1.5598384  40.3824902  64.0685558   0.3419869  39.4969606
  97.3490334 144.9086536  36.8823099  98.1320095 144.8665821  36.3332987
  97.5455761 145.5871895  37.5282097 108.2858944   0.9727500  63.4269905
 107.9682636   1.2974875  62.5844383 109.0572929   1.5075755  63.6144161
  72.7828836 118.9772601  45.4401922  71.8619633 118.7336678  45.3463507
  72.8930902 119.1409464  46.3768291 109.8801327  10.4690218  69.6216488
 110.6414700   9.9989247  69.2816401 109.3012810   9.7813112  69.9506092
 122.8727055  49.4891834  47.9650259 122.7653217  48.8501930  47.2604752
 122.5590801  50.3127241  47.5913191  58.2206392  31.8983865  39.6602821
  58.1633663  31.6202712  38.7461686  57.9164839  32.8059554  39.6540141
  81.9130421 145.3576487  38.6366844  81.2500381 144.7446749  38.3190084
  82.2009945 145.8262282  37.8532624  95.7403469 136.4841110  53.5474300
  95.1058769 136.3626952  54.2537928  95.7769871 137.4319071  53.4186983
  68.4618616 141.0332073  77.3533058  67.7756405 141.5617771  77.7606678
  68.2674646 140.1366235  77.6264000  75.2560520   2.3402964  65.8331251
  75.7840681   2.6654467  65.1039457  74.7744083   1.5981334  65.4678249
  88.0327797  37.5157690  40.6458759  87.6327991  38.1299090  41.2615728
  87.5681591  37.6653647  39.8224759  37.7406716  15.5419850  81.9808483
  37.7972007  16.4221025  81.6087818  37.0838976  15.6163657  82.6731968
  86.2614155 146.6466331  60.6117153  85.3466415 146.7995736  60.8484077
  86.4031410 145.7171981  60.7914209  94.9046135  15.0525427  40.5772066
  95.3967857  15.2209234  39.7736883  94.1002941  15.5616343  40.4765415
 111.6046143  25.4390240  46.5470505 111.0725403  25.2172208  45.7828951
 111.2726116  26.2907004  46.8310356  83.4902954  25.6597519  59.6470213
  84.3887711  25.6167459  59.3197346  83.2738400  26.5920186  59.6307993
 118.6740971  20.4434872   4.9411718 118.5671806  20.9949684   4.1661397
 119.3040943  20.9153581   5.4858438 122.8365135 123.7281198  73.9830017
 123.5252476 124.2353220  74.4126749 122.0769119 123.8203997  74.5580864
 103.2818699  26.2288690  37.1945190 102.4403572  25.7786107  37.2676992
 103.4701633  26.5305662  38.0832005  82.7372456  21.2379193  38.7041306
  82.8313065  20.3337383  39.0038705  83.0166531  21.7679930  39.4505787
 109.1599751 146.3208784  82.4243832 109.6375179 146.2354095  81.5992260
 109.4913864 145.6061610  82.9680538  62.2028208  26.3580823  40.8644390
  62.5177479  25.5106044  41.1788130  62.4766207  26.9803214  41.5382957
 105.4566669  15.0085247  47.8172398 105.2437782  15.8614326  47.4384832
 105.9918785  14.5774329  47.1509504  43.0224705  39.1709447  73.8715219
  43.3048391  39.5176721  73.0251884  42.4768209  39.8635364  74.2441034
  12.0354968 145.5462647  48.1385422  12.5633746 144.9913354  48.7126732
  11.7905741 144.9740537  47.4113417 102.7278709  10.0294673  71.9313097
 103.2092094  10.0025928  72.7582455 103.3162498  10.4810965  71.3262653
  59.8275948   6.3813072  61.8597126  60.2142572   5.5123162  61.7521095
  59.8185921   6.5239298  62.8061867  61.3989592   3.1808981  54.8400021
  61.4663601   3.8785127  55.4919386  60.4579258   3.0383196  54.7381973
  85.8760548 134.0537185  91.0056877  85.7463455 133.2237918  91.4646339
  85.5670452 134.7185690  91.6210842  81.4196587  24.4936132  56.3052511
  81.6276169  25.3820157  56.0158968  81.9163418  23.9270139  55.7149124
 102.6948643 121.1977977  13.8094699 103.5171127 121.3020081  13.3306408
 102.6924801 121.9173045  14.4407666  83.3191586  26.4693999  65.4876614
  83.9314079  26.5550351  66.2184477  82.5325775  26.9305873  65.7788992
  48.4048510  13.9153159  56.8883801  48.1106758  14.4990253  57.5876474
  47.6872158  13.9196861  56.2549686  94.5324898 132.3431344  35.4702806
  94.4186687 131.6324443  36.1013079  94.1434956 132.0099981  34.6616149
 116.0738754 128.7268121  90.9457016 116.3541412 127.9963953  90.3941822
 115.1625538 128.5284180  91.1610317  84.6517086  18.3819652  41.8922949
  84.7299957  19.2404640  42.3083258  85.4552078  18.2897568  41.3803196
 115.8129978   1.5749694  38.7786150 116.7326164   1.8304667  38.8511968
 115.3272724   2.3900139  38.9051056  58.2902718 116.9704408  73.0897999
  57.3603106 116.7659254  72.9919577  58.6064434 116.3428421  73.7397099
  81.2722683 140.7084728  94.2286491  81.3116264 140.8917428  93.2899857
  81.6423130 139.8301215  94.3169212  95.0854588  15.6693709  54.0745831
  94.9209595  16.5841913  53.8459444  94.3060684  15.2030754  53.7723398
  76.3971710 131.9796605  40.0555182  75.5164576 132.1763546  39.7363186
  76.9385099 131.9574065  39.2664123  97.7890110 117.1105714  59.1712284
  97.9979134 117.5437183  59.9988604  97.2340202 117.7368803  58.7065220
 100.3856468  16.1363661  55.2250957  99.7662640  15.4910135  55.5658579
 101.2463093  15.7464671  55.3782701  90.0328350  56.0406494  34.6363664
  89.9051952  55.0939322  34.5758605  90.8914948  56.1922836  34.2414498
  72.6031303  10.0994217  85.9046364  72.3838329  10.7522082  86.5694809
  71.7766571   9.6497285  85.7287312  45.9189749   6.2047321  25.8957982
  45.2263260   5.6753135  25.5005980  46.5726948   6.2996095  25.2030635
  94.8451233 121.5035529  85.6593990  95.7911587 121.4469595  85.7937050
  94.5296764 122.0280642  86.3953400  66.0116768 119.8028750  44.4102430
  65.1334524 120.0268120  44.1023445  66.3590336 119.2168302  43.7378359
 102.0214939 134.5903558  51.8629980 101.0750484 134.7065587  51.7794991
 102.3958397 135.3652901  51.4439821  67.5609732  38.7254834  47.4984264
  66.7284536  38.5962176  47.9527712  68.1798935  38.9523721  48.1924629
  77.9173422   2.5128344  53.9231777  78.4712029   3.1502223  53.4723902
  77.0476961   2.9127306  53.9286995  85.1040459  32.4547482  50.5192614
  84.2933846  31.9472361  50.5579710  85.5913353  32.1875691  51.2986183
  79.8024368   7.0198423  65.8405352  80.4011154   7.6370394  66.2611055
  79.7104073   7.3473334  64.9458218  72.3540211 135.3358919  84.2457199
  72.8160715 136.0140593  84.7385025  71.9979000 134.7531337  84.9164009
  65.9883165  20.5766869  56.4354563  66.2662458  20.8163595  55.5514050
  66.6990709  20.0297213  56.7699480  90.3496647  13.4990764  53.9828205
  90.5603790  12.5731421  53.8624954  89.5448780  13.4961891  54.5010328
  72.7597952  34.0755653  74.9042749  72.6067734  33.4608316  74.1866922
  73.1811762  33.5499001  75.5842304  95.1773739  18.7501812  26.6150045
  95.6768322  19.0148950  25.8425379  94.4212246  19.3370271  26.6239953
  59.1186810  17.3952806  60.9905767  58.8923168  16.5048409  61.2591076
  59.5397806  17.7778411  61.7603540  65.5041885  27.6705432  56.7439270
  65.1250601  28.4182382  56.2819242  64.7581339  27.2494411  57.1708918
  72.8656912 142.3556615  75.5364513  71.9095469 142.3138587  75.5197906
  73.1358004 141.5147913  75.9055185  63.5961103   0.2070410  36.4591026
  62.9578543  -0.0957619  37.1049905  64.1600657   0.8096309  36.9439411
  91.4915180 134.7189016  69.9472284  91.2851810 135.6458933  70.0669909
  92.4445248 134.6948452  69.8610640  90.3261089 137.7144779  56.8249941
  89.5794678 138.2919062  56.6658020  90.1856709 137.3800648  57.7108145
 113.6065388 132.5612933  59.9772692 113.6384773 131.9036705  60.6720686
 113.0214214 133.2390434  60.3156853  67.4609804  35.0152230  64.6046543
  66.8019485  34.3355632  64.4633341  68.2946062  34.5448112  64.6017981
  54.1889954  32.8897190  49.4964409  54.9321175  32.8106380  50.0945616
  54.1898870  32.0691824  49.0035439  77.8764963  19.6747386  59.4348097
  78.0057907  20.5956841  59.2081547  76.9269180  19.5552063  59.4189405
 100.1583004   6.2487644  60.3226805 100.7879353   5.5633628  60.0990534
  99.5223618   6.2324220  59.6074486  72.6475048  41.0674477  43.1709623
  72.1881437  41.1740017  44.0039444  72.8963900  41.9567776  42.9192162
  62.7477694   1.2081991  47.6075602  63.1083584   2.0893034  47.5082541
  63.0303812   0.7435641  46.8198586  80.4047680  38.1289792  33.5648489
  79.6737862  38.4559941  33.0404854  80.9707832  37.6829362  32.9348445
  47.0668697 145.7027620  41.4369678  46.3497257 145.3444912  40.9139156
  47.1430969 145.1046903  42.1804285  45.4969215  18.7512159  41.4045525
  45.4872036  19.6279788  41.7885113  46.2956619  18.3490860  41.7459297
  62.8178835   1.4737976  23.8520408  62.0057392   1.9801845  23.8671803
  62.9251003   1.2204284  22.9352307  78.9761925  29.4199276  43.9675236
  78.7685585  30.3053427  43.6689329  78.2294798  29.1693115  44.5114374
  89.3112469 134.3311507  56.2187672  89.5085621 134.9766822  55.5400991
  89.2613125 134.8412056  57.0272112 100.4044437  16.8041456  84.8217773
 100.8555031  17.3496425  85.4661369  99.5996571  16.5299201  85.2614975
  98.8916111 144.2781714  58.9903784  98.1724262 143.7211610  59.2882919
  98.6943817 145.1402728  59.3565989  76.2681580 133.5178620  24.4974852
  75.4882479 134.0335579  24.2924690  76.6640043 133.3333380  23.6457300
  71.6726685   1.2684806  49.2357397  71.5275383   0.5739954  49.8782825
  72.4424076   1.7367557  49.5589304  44.6189928 142.2692482  67.5715828
  44.0977049 142.9929418  67.2240829  44.0805721 141.9009907  68.2720947
  87.8829479  10.9530056  54.2884731  87.7208900  10.9776795  55.2315283
  88.7939167  10.6699824  54.2093229  82.2387409   6.1310828  28.5861635
  81.7067337   6.1354882  27.7904344  81.8726063   5.4223096  29.1151404
  68.1676865  13.3457625  51.7499495  67.6070404  12.5701869  51.7301702
  67.7083206  13.9872479  51.2079954  89.0895748 138.0710096 104.2424353
  88.2921982 137.7749796 104.6815112  89.3754005 138.8298840 104.7510060
 105.0328541  13.8192499  38.8940358 104.2711830  13.8788152  38.3173752
 104.6932507  14.0353620  39.7624826  74.7004652 131.2022061  63.9494133
  74.2378473 131.0929210  64.7802401  74.2678165 130.5918927  63.3522844
  81.1751556  20.7881689  43.7847948  80.9533787  21.6842437  44.0379667
  81.3750935  20.3483391  44.6111155  62.8749800   7.9314637  21.2403917
  62.5305271   8.8168555  21.3572884  63.7702227   7.9764807  21.5761781
  18.0932360   7.9627579  32.0541167  17.5493174   7.2288233  31.7682314
  18.5064250   7.6547217  32.8607249  99.7500515  18.7684262  74.1085052
 100.0946712  18.2067156  73.4142780 100.1347637  18.4190989  74.9123669
  75.8730364  15.3517509  82.7698135  76.2488556  15.5552268  81.9133186
  76.4591646  15.7771134  83.3957195  80.7498169 123.4987921  19.8485887
  81.1175728 123.6470623  18.9773798  79.8806334 123.8981194  19.8128045
 112.3716736  38.9096832  54.4311190 112.1570587  39.7214532  54.8906898
 111.5954494  38.3603072  54.5401669  64.9068546 144.5188905  33.0877614
  64.0564394 144.1496014  33.3257866  65.3761721 143.7934358  32.6758289
  72.8181982  20.8618093  66.8242550  72.6659727  20.3276968  66.0446501
  72.8815556  21.7573977  66.4923859  89.2083931  23.0513263  39.9999499
  89.0294361  22.6910281  39.1313910  88.4658623  22.7690363  40.5339909
  31.4866018  19.2328763  62.4675655  30.8872437  19.6845508  63.0616951
  30.9709215  18.5093021  62.1115494  70.9023237  10.1583576  64.1623020
  70.0224113  10.3739989  63.8533020  70.8657217  10.3011119  65.1080894
  76.3997698  20.3582382  53.7282801  75.6790972  20.9465909  53.5031080
  77.1216822  20.9420109  53.9612675  74.8755932 129.8772270  17.2846580
  74.0445471 130.1246221  16.8792117  75.5416536 130.3015930  16.7438173
  97.6260185 144.4459561  64.8533440  97.9501247 143.7110964  65.3740835
  97.1847248 145.0120548  65.4866123  83.0267906 130.4534895  28.7614894
  83.6888123 129.7794337  28.6078548  82.8045368 130.7745201  27.8875470
  35.1263928   7.4069822  48.0394125  34.4668150   7.8460461  47.5023746
  34.6601772   6.6722524  48.4382153  95.3689289 138.5099948  31.6662407
  95.2292442 137.5715525  31.5395713  95.4034042 138.6209167  32.6163673
  68.4680080 135.1546497  55.1551437  68.0516052 136.0159142  55.1878214
  68.4725761 134.8561628  56.0646057 110.8138466  25.7548285  22.1986866
 110.7069778  24.8958611  22.6073265 110.1066589  25.8037019  21.5554595
  90.7211971 145.1350787  65.9495020  91.0875702 145.9869845  65.7123137
  89.7902203 145.3060039  66.0919428  36.8353748  10.7274783  59.6191883
  37.2929454  10.3109550  58.8888693  37.0371819  11.6587496  59.5284176
  54.5305586  47.2949600  73.5473204  54.2338848  48.0167818  72.9930735
  54.1599369  46.5121317  73.1398296 100.3363132  25.8294058  72.3074722
  99.8061085  25.1374865  72.7028990  99.7810555  26.1916494  71.6170359
  92.6036549 131.5791053  31.3230205  92.4613285 130.9920127  30.5805254
  91.9442558 132.2646696  31.2161064 116.2986660  45.6126118  52.3217154
 117.0350838  45.9140587  52.8537369 115.6221581  45.3813982  52.9582024
  65.2017260  17.0669806  26.3851261  65.1345682  17.9099083  26.8336749
  66.0560274  16.7237163  26.6469884 103.8705826  22.9286861  53.3322144
 102.9416180  22.8728294  53.5561371 104.2121983  22.0517397  53.5068512
 108.0934048  32.5263476  21.5802717 108.1142998  33.1995225  22.2604394
 107.1749496  32.4831104  21.3142109  53.8793325 127.0835824  68.9414358
  52.9858685 127.4220009  68.8828754  54.4321918 127.8649659  68.9369678
  95.6649113 107.4854941  48.4947872  96.1915016 107.8140182  49.2234945
  96.2251282 107.5942583  47.7263069  78.2407808   5.5039972  34.5555735
  77.7574444   6.0239041  35.1976919  79.1404533   5.8252728  34.6156096
  83.4309292   8.5183120  49.1304684  83.5276794   8.3601409  50.0695372
  84.2694283   8.8948786  48.8633680  94.8648643  16.7578185  23.2865214
  95.5907822  16.4312685  22.7548814  95.2353668  17.4960709  23.7701964
  33.4325671  34.7489309  40.8576345  32.9829669  34.8928475  41.6903257
  33.5562539  35.6270599  40.4973221  66.3030624 134.8909456  30.0319576
  67.0780182 134.6095712  29.5456386  66.6318226 135.1000483  30.9062719
  73.1109047  39.2629051  89.8181820  73.2703638  40.0510073  90.3375053
  73.5104752  38.5566187  90.3258610  72.7847052  10.0904191  50.1820374
  71.9711399  10.2346075  50.6653070  73.3332062  10.8420002  50.4067802
  80.4435158 143.0678187  68.0428934  81.2482643 143.4582285  68.3837652
  79.8457193 143.8074894  67.9344749  44.4931746  20.8805275  13.1621540
  44.6620178  20.4322982  13.9908969  44.7497892  21.7883348  13.3242261
  50.6486750  25.2885461  51.7598438  49.7838783  25.5287933  52.0924616
  51.2585354  25.8175421  52.2741079  85.0852489 130.5687756  62.1187401
  85.7857609 130.1287527  62.6003027  84.7178936 129.8879964  61.5549850
  80.7007885  15.1060557  79.4547892  81.5816498  15.4241991  79.6525049
  80.8024693  14.1583049  79.3672609  61.8788433 139.2471231  11.9230545
  62.3251152 139.3880893  12.7580404  61.4354467 140.0766284  11.7454255
  83.5254002 131.9117827  34.0743041  83.1943989 132.1438236  34.9419618
  84.0014648 132.6896746  33.7836504   2.5646334  99.3702621  68.1899834
   3.0945330  98.8247986  68.7712765   2.8358870  99.1145391  67.3083591
  87.0618916 125.9250898  62.3417425  86.5176773 125.5454440  63.0316162
  86.6171455 126.7394561  62.1067286  77.9125547  45.6040335  60.1886082
  77.1765280  45.3162527  59.6485329  77.8070498  46.5533543  60.2510405
  89.1328335   1.5127994  46.6702271  88.8263035   0.7574503  46.1685133
  88.4556675   2.1768811  46.5411139  73.4504938   3.7889943  38.9220476
  73.2081604   4.6693993  38.6350036  73.8984299   3.9241436  39.7571039
  60.9029055  19.1952658  47.1801233  61.6932535  18.8858032  47.6226377
  60.3411722  18.4222126  47.1246958  71.4608574  13.2190764  25.9396362
  72.3114204  13.6226296  25.7666612  71.0076237  13.2450378  25.0969410
  61.8087769 129.9190290  43.1958151  62.1053314 129.0358479  42.9760885
  62.6145840 130.4069061  43.3657694  63.0862856   8.4842336  47.3161840
  62.2795582   8.4765643  47.8313208  62.7914715   8.4121245  46.4083719
  23.2567120  10.7731140  44.3376684  23.0943608  10.0066817  44.8876286
  22.5094485  10.8017957  43.7401724  94.0370178  43.3351707   2.0697412
  94.3561459  43.4658861   1.1768219  94.5067406  43.9871740   2.5898209
  52.6210117 125.7056517  20.4509950  51.8171835 125.3534121  20.8331203
  53.1673670 125.9276337  21.2049508  30.1832986  17.2215533  49.8526525
  29.9948764  16.8017960  49.0132856  31.1149454  17.0574462  49.9987173
  64.2631149  25.1554465  43.4317160  64.8178291  25.8020473  43.8681030
  63.5385180  25.0116944  44.0404272 104.1928101  11.9871175  58.8376236
 104.0836716  11.3436663  59.5378351 105.0946808  12.2935176  58.9323330
  87.4915028   3.6804032  46.6808271  87.2412682   4.2430317  47.4136782
  88.2553291   4.1116866  46.2976933  71.7428303  28.1880116  45.9906292
  71.9503212  28.4044766  46.8996525  71.2744331  27.3549342  46.0437202
 105.6972027 117.8498287  70.9570551 105.3219414 117.2541232  71.6055441
 105.0881481 118.5877223  70.9289074  70.6637621 142.7902020  54.8393631
  70.2217388 143.0188797  54.0217113  70.7213259 141.8349017  54.8214579
  43.3119774  10.2299500  56.9873810  43.6859322  10.7232189  57.7174997
  42.7965403  10.8742106  56.5021086  21.9988471  35.3168750  67.1119261
  21.7080718  34.4204736  66.9441605  21.9818717  35.7388973  66.2529469
  96.1951256   3.3075696  61.7418957  95.7676792   3.2967106  60.8855057
  95.8050919   2.5716478  62.2136164  32.1812201  31.6848564  63.8255501
  31.7263007  32.3953056  64.2778111  32.9617572  31.5243649  64.3558645
   0.0086146 131.1586804   2.7634177   0.6135207 131.3976688   2.0611311
  -0.4537172 131.9714172   2.9682198  91.1675549  15.7455909  56.4266682
  90.4553795  15.9164894  57.0429754  91.1840343  14.7926533  56.3379622
  30.1035976  59.8591852  52.1261740  29.6319246  60.6890488  52.0548820
  30.9349680  60.0910044  52.5400734  37.4358773  39.2310166  31.1951447
  36.4899087  39.3705988  31.2386370  37.6227283  39.1461945  30.2601981
  87.7404213  19.9303162  78.4542704  88.0525589  19.0640485  78.7157726
  88.1125164  20.5255008  79.1050673  69.3278408 130.8203895  53.9979792
  68.7192965 131.4806266  53.6663246  68.7989712 130.0267596  54.0797329
  99.4514656  -0.2436452  51.3089705  99.1697884   0.6292899  51.0353327
 100.1486397  -0.0820582  51.9446325  89.1864300  19.9407160  30.7906938
  88.5924911  19.7028482  30.0787401  89.9961567  19.4693851  30.5946732
  81.9476032  15.6354856  18.9092171  81.0330009  15.6444788  18.6269855
  81.9145298  15.8716309  19.8362410  68.6994076  31.0101533  72.0841312
  68.7236261  30.0534534  72.1033812  69.2936373  31.2505341  71.3732624
 100.7819748   4.3323189   8.6880964 101.6475964   3.9296174   8.7571299
 100.3467751   4.1071078   9.5103574  47.7656603   6.4075381  58.4460020
  48.2005215   6.0115516  59.2012024  48.0591393   5.8851588  57.6995277
  68.8105202  24.9650097  44.5495415  68.8326645  25.7395673  43.9875793
  68.0862856  25.1281261  45.1537848  91.5602493  18.9491296  29.0772104
  91.4174652  18.0707753  29.4298267  91.5478230  18.8308668  28.1274247
  59.0308332 140.9236229  30.3310251  58.3742619 140.5720330  29.7297525
  59.4417763 141.6388143  29.8453736  54.3420839 141.8774385  31.9042397
  55.1951599 142.2604633  31.6998196  53.9621496 142.4708546  32.5521111
  41.4861298  13.8518047  36.2448549  42.3520803  13.7152171  35.8605313
  40.8894968  13.3778822  35.6654954  81.0484886   6.7555982  18.2545185
  81.7501259   7.2135329  17.7916706  81.4653301   6.4172453  19.0469790
 104.1720104  27.4261022  12.8572381 103.7294006  26.7632556  12.3271835
 104.1607380  28.2140303  12.3138475 106.7791271   9.6332502  46.3286829
 105.8942032   9.2754585  46.2569714 106.8763542   9.8475718  47.2564983
  76.9154549 146.3896687  37.6599193  76.9177389 146.0526018  38.5558057
  76.0648680 146.1277064  37.3076248  62.2377110   4.3185166  42.4851847
  61.4548635   4.5705241  41.9954157  62.1111536   4.7021556  43.3529615
  46.0104465 125.7922644  57.3016119  46.3377047 126.6826851  57.1740007
  46.5597773 125.4327221  57.9981709 105.0697422  25.1816559  32.0950031
 104.5154667  25.8623290  32.4767041 105.1277065  24.5106339  32.7751517
  87.7368069  26.4749122  65.8234310  88.0991936  26.8853498  65.0382853
  87.5633717  27.2053647  66.4172220  79.4218969  25.8995175  74.7761297
  78.5818005  25.7156467  75.1964426  79.2256021  26.5860605  74.1386652
  92.5285435  35.5960155  61.8088722  92.9416084  35.8398151  60.9805202
  93.0617523  34.8727155  62.1386528  89.6382141  13.1588924  23.5389280
  89.6803379  14.0511119  23.1948328  89.7402954  13.2620084  24.4850683
  67.6811552  28.2774830  24.7350144  68.5266972  28.7147737  24.6346641
  67.3500633  28.5868859  25.5781507  96.9884872   8.9481521  14.0266395
  97.7371502   8.7837434  14.5999718  97.2239494   9.7423661  13.5470438
  68.0676365  34.7866797  60.8829546  67.3050833  34.5863175  60.3401852
  67.6992846  35.1441121  61.6909075  99.2031288 113.9290781  32.4802494
  99.0496349 113.8670058  33.4230208  98.3484650 113.7539882  32.0863962
  67.1251965  21.2388563  54.0525150  67.6556158  22.0296645  53.9549875
  67.0968294  20.8596468  53.1740904  56.1865282  14.3741369  20.4460692
  55.4738140  14.5242178  21.0671568  56.9798613  14.4001341  20.9810257
 119.4394875  35.6456208  66.1922693 118.8271141  36.2778401  65.8160734
 119.9903297  36.1650419  66.7779398  41.2963343  36.5034389  58.7590265
  40.8435440  35.9186673  58.1513596  40.6498146  36.6881657  59.4402838
 119.8826408 140.3183467  17.7497995 120.7742119 139.9717320  17.7151513
 119.9124146 141.1100430  17.2126186  84.0695572 145.6433892  85.3420353
  83.1262016 145.7166826  85.1973438  84.1890335 145.8725649  86.2636852
  66.5274525  16.9191432  40.5423260  66.7102337  16.2032306  39.9338102
  67.0569849  17.6485050  40.2200556  86.5002251 137.5077827  66.9426870
  86.0963535 136.7635990  67.3891258  85.9830666 137.6178426  66.1447716
  86.3867188  25.0740409  26.5803361  86.1756992  25.9828424  26.3663626
  85.6204128  24.7562695  27.0578575  61.6522694   7.7739155  35.7172036
  62.2810173   7.8843093  36.4304471  62.1711063   7.8872871  34.9208474
 103.2424450   6.8141228  31.1183143 104.1167545   6.6192830  30.7808900
 102.6466656   6.4682084  30.4537654 124.0657330   8.6458462  37.5329781
 123.3125114   8.2293737  37.9518270 124.8260784   8.2338488  37.9433036
 121.0198212   7.2896600  35.1558566 121.8652439   7.6967311  34.9666595
 121.2128830   6.3541621  35.2175188  85.5795860  89.7814150  40.7233191
  85.7332611  89.9465198  41.6535616  86.3686371  90.1054401  40.2890062
  81.0864067  20.2054048  54.7450447  80.7283974  20.6390643  53.9704466
  81.4198303  19.3695164  54.4189405  65.3109312   4.4804204   8.2044208
  65.7536268   3.6705399   7.9507619  65.8525991   4.8394737   8.9072049
 108.2756615  20.8819747  46.9712496 107.6134300  21.5695047  46.9007111
 108.7285995  20.8982992  46.1281490  86.0055542   2.0969750  49.2471981
  86.8184185   1.6709253  48.9752579  86.1967373   2.4435702  50.1187229
  81.2854385  18.2838392  28.7172103  80.9399700  17.4185157  28.9365149
  81.6537666  18.1793892  27.8399086  90.1976681   2.4879879  54.4265270
  89.2630672   2.5061470  54.2205667  90.2601242   1.9385312  55.2078295
  15.3370273  26.2477946  49.9988174  16.2759936  26.0635304  50.0237036
  14.9810028  25.5961967  49.3947506  50.2927732   3.0366528  41.4454746
  49.8506784   2.2542760  41.1158180  51.1142397   3.0719963  40.9553909
  95.4493046  43.8284254  26.5994525  95.4992104  43.1362581  27.2587276
  94.8537064  43.4832335  25.9343743  69.3759012 135.3359432   2.1724193
  69.0684223 136.1798389   2.5033739  69.5305347 135.4863484   1.2398431
  75.8363628 126.9826765  47.0254850  75.1739597 127.6718170  47.0758343
  76.4384794 127.1762628  47.7439642  63.9522552  12.0175576  34.3487883
  63.3209562  12.6988208  34.1173291  64.7212839  12.4978888  34.6555638
 101.8685150   2.2311966  22.2396374 101.1159039   2.7964139  22.0654869
 101.7456722   1.9404417  23.1432986  57.1299791  37.6656842  34.4228864
  57.8204727  37.0083070  34.5083523  56.8804598  37.8695297  35.3242278
  81.9090557  40.2030134  82.0161915  80.9903908  40.0911522  81.7716694
  81.9525909  39.9072456  82.9255009  38.0997586  24.7170401  20.3479266
  38.9209676  24.2439127  20.2137637  38.2826924  25.3131938  21.0741282
  28.6828899   9.3795949  42.2775793  27.8337693   9.0433067  41.9909906
  28.5960007   9.4721985  43.2263184  62.8382540  23.0465746  66.4883089
  63.4137154  22.3049426  66.6755342  62.3113775  23.1470227  67.2811174
  86.9842911  35.0975728  33.1029749  86.6255665  35.3049755  32.2401142
  86.3982964  35.5383444  33.7182474 102.7307510 145.3524196  49.7353363
 102.4351215 145.0288830  50.5863094 101.9540977 145.7586067  49.3505478
  86.4135838  34.4375324  61.9469881  87.0656967  34.8746419  62.4946308
  85.8831787  33.9323378  62.5631714  68.4744453   9.2278290  44.6916056
  68.0666065   9.9571592  45.1584864  68.2550621   8.4563661  45.2140522
  60.3712749 123.1031484  36.8308520  59.7216797 122.7421851  36.2275577
  60.0188637 123.9578337  37.0789456  56.9337940  37.3685765  45.2672720
  56.2663651  37.1871400  44.6055651  56.5106678  37.9761672  45.8739281
 123.1825447   2.8412241 109.1608762 123.6062431   2.3382905 109.8564161
 123.0111694   3.6968261 109.5543299  70.6976366  -0.1031449  30.8675790
  70.6550407   0.6808837  30.3201151  71.4132881   0.0703355  31.4791131
  72.2945499  38.9372778  36.1716652  72.5510359  39.8291397  35.9370828
  72.4067879  38.8977575  37.1214414  62.5048780  26.8860626  69.1782236
  62.1492434  26.0020566  69.2692757  61.7432690  27.4315619  68.9817190
 121.4124775 129.7193546  85.8532906 120.5230427 129.7630841  86.2043190
 121.2929058 129.6439118  84.9065876   3.9357310 138.6432786  64.9614286
   3.4513980 137.8431858  65.1651621   4.6669608 138.3489026  64.4184017
 102.8102779 143.4616826  40.1657248 102.6315498 144.3242899  40.5401564
 102.0836449 142.9153264  40.4652834  64.1212940   8.1241816  16.2977362
  63.7974310   8.8933975  16.7664075  64.1401291   7.4316353  16.9582331
  95.3617096   6.8563581  32.6844239  94.4623566   6.8749040  32.3572254
  95.8939838   7.1305066  31.9375944 117.7116680 141.1771215  41.3093615
 117.1362209 141.5890414  41.9538879 117.1539402 140.5401123  40.8628225
  68.7833500  17.6541615   3.5905764  69.4480181  17.3529398   2.9711303
  68.5723305  16.8791068   4.1111472  59.6056890 146.0675147  43.1243706
  59.9182987 145.6721927  43.9381456  60.4027796 146.2670671  42.6333857
  82.5243282   4.6214855  84.9374390  83.0615234   3.8591275  85.1529884
  82.0193958   4.7912672  85.7326984 103.7279129  21.1819410  90.6991863
 104.2919159  20.8122492  91.3784885 102.9746246  20.5922723  90.6662178
  90.9283543  22.5553894  32.4541354  91.1104774  21.6171265  32.4019623
  91.5437222  22.9534245  31.8384075  66.7741919  18.3526540  29.6225262
  66.9301844  17.5107384  30.0503993  66.7291355  18.9822984  30.3420758
  91.5078926  15.8082187  74.6435165  91.0544872  15.1968336  74.0631104
  90.8051777  16.2750971  75.0956678  68.5757875 129.4350917  41.5745211
  67.8454208 130.0267810  41.7553425  68.2595348 128.8735289  40.8668041
  82.8313828   0.2110941  28.6947608  83.3221340   1.0232365  28.5689878
  82.2009563   0.1982225  27.9746032  84.6172619   4.8041376   7.6312417
  84.8872662   5.6187648   7.2073174  85.1169109   4.1229153   7.1812248
  81.5859795  27.7588820  67.6477051  81.0974693  28.3822083  67.1100616
  81.8913651  28.2743168  68.3942318  43.5655212 124.7064156  57.7397156
  43.7153673 124.2046756  58.5409880  44.4409657 124.9653859  57.4520350
  94.0139103 139.8826487  70.0074100  93.3609962 140.5578179  69.8228168
  93.9485264 139.7379214  70.9513426  64.5668030 125.8451290  57.6319170
  64.5404625 125.8102746  56.6757154  64.1468573 126.6764087  57.8529453
  84.9293804  11.8466556  72.6848221  85.2648163  12.0330179  71.8079042
  84.6246147  12.6938760  73.0097342  94.5620441  23.8562632  75.0178099
  95.0456238  23.2084513  74.5052481  93.9262199  23.3419490  75.5152464
  57.7799940  20.6226516  51.1760092  57.0600557  21.2030077  51.4232016
  57.8637886  20.0176477  51.9130135  81.4237690  10.6425977  20.5732298
  81.4010239   9.9409020  21.2238741  80.6718445  10.4686844  20.0070190
  67.7233744 139.7697944  75.0484085  68.1046581 140.5066497  75.5257988
  68.3607244 139.5737780  74.3616819  47.9228973 144.4552166  25.2989602
  48.5718679 145.1244853  25.0818276  48.3366394 143.6296839  25.0468802
 100.3060150 120.7024140  61.9668388 100.5193710 120.2934236  61.1281300
 101.1465645 120.7738824  62.4191666  85.7147598  12.7884817  26.3450098
  86.6463280  12.6005077  26.4593983  85.2709675  12.0022595  26.6630197
  94.5347691 121.1727233  36.9535732  94.8570347 120.3649015  36.5538192
  95.3267288 121.6589780  37.1828914  55.0715494  26.0562825   7.8110141
  55.3940344  26.7966318   7.2970897  54.1866922  25.9022927   7.4800354
  63.6056232   1.1952670  33.7187910  63.5062742   0.4589499  33.1153011
  63.3769035   0.8351795  34.5756769  74.4641018 125.1002307  43.9475250
  75.3239107 124.9885220  44.3530846  74.0410376 124.2470522  44.0441465
  88.2656765  20.1358867  33.6849475  87.6884365  20.8985448  33.7221313
  88.7387180  20.2336001  32.8585601  55.3706932  21.5410662  98.1696089
  55.4257345  22.4806714  97.9954060  54.4460917  21.3278627  98.0435570
  79.5758915  35.2947903  45.5382967  79.8900509  34.9682069  46.3814354
  80.0349140  36.1259913  45.4173088 104.4598961   0.7876210  47.6287365
 104.7942162   1.5715119  47.1928692 103.7268829   1.1020330  48.1579447
  75.0047398   5.6817079  16.8795073  75.8989239   5.3406799  16.8985367
  75.0910568   6.5954578  17.1512461  56.6922665 143.9351017  41.7867804
  56.6800117 143.0404917  41.4465523  57.5745630 144.2524899  41.5942907
 111.5274906  15.3533626  73.3745146 111.0317516  14.5387340  73.4573030
 111.4881706  15.5639076  72.4415874  74.7140169  27.5469613  32.5200748
  75.3827000  27.2569489  31.8996024  74.0222740  27.9165578  31.9713259
  97.4383545   6.0633451  27.6718378  96.6393089   5.7324207  28.0820227
  98.0325031   6.2288225  28.4038401  77.2111273   4.3346265  16.2017465
  77.8259754   4.9953699  15.8829761  77.2803831   3.6185789  15.5703104
  78.2012653 133.0188007  42.2280407  78.9345217 132.8827400  41.6279936
  77.4300432 132.7506776  41.7284775  43.7061310  -0.1323935  16.2807858
  42.8992653   0.2117468  16.6638863  44.2328787   0.6446423  16.0937452
  57.7294159  19.6774948  12.1887589  57.2864342  19.5217180  11.3546538
  57.0212412  19.8662102  12.8044748  39.4670200 119.3408460  37.0109367
  39.1125536 118.6121697  36.5014100  38.9072013 119.3857951  37.7860570
  37.3303246   9.3721986   4.2846555  37.1420908   8.4344649   4.3228075
  37.0271707   9.7117931   5.1266801  77.3747492  35.1512194  56.0588217
  78.1612635  34.7561812  56.4350796  76.9820452  34.4519782  55.5362558
  36.1603880  22.0952654  38.0798626  36.4977884  21.8355131  37.2225857
  35.6904268  22.9126263  37.9146695  75.1193237 119.4380946  15.6906688
  74.6253824 118.8004608  15.1752305  75.5536175 119.9882049  15.0387490
  55.7676077  11.9244659  96.9332966  55.9263182  11.1916697  97.5283190
  56.5939522  12.0342982  96.4628490  43.2671547 140.0987346  25.2157426
  43.2941151 140.9930582  25.5558729  42.8462553 139.5911760  25.9096146
 113.7172413 130.6431098  81.1760998 114.1887093 131.2656088  81.7296696
 114.2589474 130.5626793  80.3910351  79.6544027 118.9556975  26.7635083
  79.9558783 119.8638911  26.7864680  79.7270298 118.7024183  25.8432889
  84.8683167 133.9898331  30.6604528  85.5763245 134.3480844  30.1250887
  85.0355053 134.3318863  31.5386772  72.2958803 143.8321603 106.4197328
  72.8468990 144.4226182 105.9059548  72.8743362 143.1055100 106.6512450
  69.8274755  14.2521179  68.9553022  70.7498217  14.2149889  68.7020683
  69.7822380  14.9661624  69.5911694  65.4284191  32.5725508  24.8268127
  64.5463610  32.9039502  24.9952769  65.9995604  33.1349635  25.3499961
  43.9336395   5.3186136  84.0053805  44.5623541   5.9517497  84.3519219
  44.1634178   4.4939563  84.4336041   6.4534693   7.2288698  75.9142733
   6.3446169   6.4365894  76.4402723   5.6489211   7.2866303  75.3989220
  76.5182734   6.4518964  25.1070118  75.8669806   5.9013683  25.5417132
  77.3141384   6.3367665  25.6262183  61.8730688  15.4921043  13.6457825
  61.5625429  16.3483202  13.9402318  62.0563555  15.6112909  12.7138853
  90.8492661  12.1060038  93.3418604  90.7705975  12.6690662  94.1119262
  91.7885113  11.9397962  93.2616326  84.7152901  14.0903687   7.4370533
  84.1326237  13.3371365   7.3402268  84.5303154  14.6360803   6.6727132
  98.6874866 125.7903833  30.4106760  98.0397701 126.0753293  29.7660756
  99.4944096 126.2358184  30.1524258  82.1971226  22.0772672  16.8942761
  81.4760303  21.5058374  17.1583319  81.8544674  22.9636955  17.0085883
  98.4594631 142.5654755  12.0216656  98.1872654 142.1675298  12.8485763
  99.3963528 142.3783858  11.9627750  82.7984524  13.6710835 100.2242472
  82.2761440  13.1005692  99.6603807  83.1733036  14.3191922  99.6278640
 104.7483158  13.2500660  16.7997086 104.7979259  13.3313453  17.7521598
 105.6433392  13.0441570  16.5299499  75.3755379  36.1325598  59.8615408
  75.3305531  35.4762173  59.1662502  76.1808062  35.9246731  60.3354168
  69.2652988   9.1434819  20.3617382  69.6921206   8.7274528  19.6127558
  69.5329952   8.6152768  21.1137819  97.4598503  54.0751648  37.3797607
  96.7389679  54.4646978  37.8745627  98.2418251  54.2853355  37.8902292
  91.8704891 143.7279240  99.3281301  92.3534012 143.0530141  98.8511320
  92.0386887 143.5359476 100.2506735 106.4356136   9.6534854  32.5015378
 105.7419109  10.1739502  32.0964122 106.1678791   9.5684117  33.4165859
  70.0608730  14.5624626  95.8976527  70.5045986  14.9786007  95.1586219
  69.1917372  14.3426251  95.5622371  75.3704357 131.9564349   0.6226383
  75.3566694 132.9011244   0.4690053  74.4881582 131.6637547   0.3942494
  63.3665657   9.9417031  93.8373979  63.6796618  10.4109514  94.6107086
  63.1761074  10.6301928  93.2002636 116.9036102 138.5561098  32.8423643
 116.0899448 139.0009678  33.0796075 117.2144985 139.0230210  32.0667529
  87.5866127  22.1745586  52.1444416  86.8601799  22.5586390  51.6535091
  88.3307362  22.2174001  51.5438747 102.6981926   9.0299076  11.9870734
 103.3728790   9.4230235  12.5406969 102.0030689   9.6871006  11.9534254
  48.4004116  39.8602462  33.5337448  49.1408157  39.2738318  33.6891651
  48.2506275  40.2858257  34.3779469 100.5803013  33.0390072  13.0204749
 100.5871582  33.4942245  12.1784759 101.0549450  32.2241926  12.8561056
 117.8621387   7.2863734  48.8783932 117.1988869   7.2828364  48.1882381
 117.5086689   6.7068458  49.5532513  83.1371307  39.6354842  25.0718570
  83.8151550  39.0574408  25.4216790  83.4185123  39.8198175  24.1757107
  92.7484226  23.5434794 106.4416768  92.5600338  23.2812548 105.5405780
  93.1960201  24.3853879 106.3575240  92.0945454  25.1920104  12.4223638
  91.6878510  25.3155446  13.2800174  92.5791836  24.3705320  12.5031877
  77.2001505  36.7343998   9.7514355  76.7864180  37.3842764   9.1833526
  77.9767323  37.1762252  10.0948679  65.8029938  34.7123075 108.5616931
  66.5275431  34.3805218 108.0314332  65.0360250  34.6354175 107.9941698
   8.6141806  15.9556270   2.6920348   8.3014041  15.1183033   3.0345160
   9.2309790  16.2695003   3.3533031  74.9920607 143.9526362   7.3297203
  75.1887703 144.1089841   6.4060909  74.4748163 143.1472249   7.3314393
 114.7310829  48.2968760  25.0196481 115.6809521  48.2660866  25.1338506
 114.5630932  49.1603518  24.6422625  81.4358044 144.1145422  91.0874304
  80.7563782 143.5912005  91.5125438  81.5380001 144.8796896  91.6534146
 103.7812328  27.8214717  33.2128191 104.2938232  27.4387527  33.9248657
 102.8853989  27.5272918  33.3776259  95.1361179   0.5597354  36.8709826
  96.0185337   0.3633495  36.5563369  95.2088356   1.4315581  37.2594023
 113.7912750 142.6429925  47.3687506 114.2201042 141.8201489  47.6038313
 113.0627251 142.3811046  46.8058443  80.0208759  48.9172411  68.3662128
  80.4575920  48.7812090  67.5253773  79.4788313  49.6946049  68.2315826
 118.6071587   4.7962701  15.2080464 118.3101940   5.5445641  14.6902621
 117.8762531   4.6069354  15.7963955  93.5740662  13.5219324 102.2485628
  93.4991741  13.1989574 101.3506147  93.5817051  12.7310491 102.7877071
  48.0468845  21.6101217   4.1238624  47.7812433  20.7110524   4.3171015
  47.2465420  22.0354080   3.8159424  81.6196918  16.8652666  21.8720865
  82.4439335  16.6499090  22.3085356  81.7797184  17.7165031  21.4646292
  85.9250259 116.4549679  55.4535484  85.4939938 116.9109602  56.1764002
  86.4077091 117.1405191  54.9917507  73.1701899  12.7990532  55.3106594
  73.3016825  13.7223756  55.0952148  73.7343121  12.3274195  54.6978283
  90.1241398  10.9821033  89.3819221  90.5122566  11.8433607  89.5363148
  90.7515621  10.3655255  89.7592887  99.2349434 140.9269387   5.9823859
  99.7260666 140.4101122   6.6210794  98.3190918 140.8152092   6.2372565
  89.5313740   9.5431197  18.8101518  90.4241180   9.8557609  18.6635447
  89.3110561   9.0642673  18.0111587  67.2899389  35.5004239  40.3225803
  66.5862370  34.8527622  40.2829552  67.0299339  36.1752701  39.6955109
  58.0719042  25.2115178  15.1075792  58.6895037  24.7508550  15.6755507
  58.5020781  25.2319360  14.2527306  59.9228525 144.6181779  30.4354620
  60.2812481 145.3552047  29.9409151  59.5577574 144.0369678  29.7682762
 116.1120224 132.1703000  19.8536372 115.5225468 132.7156908  19.3327761
 116.0521412 131.3028986  19.4533134 119.0139484 124.1497297  20.5360556
 119.3781376 124.1778059  21.4208198 118.0761242 124.0102477  20.6673956
  80.1633644   3.4613359 106.6128504  80.3931141   3.9923733 105.8503252
  80.7661057   3.7517640 107.2973805  77.7331448  12.7709901  99.5081195
  78.3765078  12.4814332  98.8612255  77.1667433  12.0106304  99.6395584
  82.9085255   5.3829944  20.4805636  83.6525249   4.7812599  20.4558492
  82.3592758   5.0556314  21.1928773  97.6294994  14.1016662  25.1484919
  97.4802017  13.2356918  25.5280089  96.9456673  14.6517611  25.5306005
 101.8816471  24.4609594   9.5008039 102.8059292  24.2167020   9.5486212
 101.8147373  24.9908614   8.7064731 112.0893097  11.9583929  14.9706399
 111.6913033  11.4225447  14.2845738 112.2497845  12.8038073  14.5514071
  76.7972183  15.4221404  41.8010807  75.8649826  15.5635464  41.6362286
  76.8418360  14.5487964  42.1903276  97.5947285  45.2976084  96.5223070
  98.1656837  45.2434301  97.2886654  98.0975533  45.8039618  95.8843347
  95.2327442 140.4591448  50.6519556  94.9188519 141.1446417  50.0622129
  96.1257744 140.7236279  50.8728170  65.2051449   7.7960920  94.2708167
  65.8051729   8.5390276  94.2056903  64.3461323   8.1937444  94.4129630
  55.4470730  12.4325478  11.8147278  55.3664541  13.0625701  12.5308311
  56.3695955  12.4731910  11.5626752  90.5313969  36.7848945  47.9278421
  89.7955132  36.1731386  47.9062748  91.0825348  36.5226793  47.1904707
 121.3701248 144.5326648  21.6051507 121.9014645 145.3047782  21.7994452
 120.6241989 144.5990458  22.2013140  97.8669548 136.1644406  18.5517955
  98.0746460 135.5023713  17.8924334  97.1369457 135.7903762  19.0451491
  81.5578365 138.9035893   4.4559017  82.1340179 139.4859142   4.9510145
  80.8940792 139.4837404   4.0829563  90.4756927  52.9145908 102.7289661
  89.9802303  52.1647787 103.0583950  91.2253284  52.9846859 103.3200314
 100.4195881  11.9403613  38.6245799 100.5497265  11.0695529  39.0000677
 100.5212402  11.8121600  37.6814675  62.6835108 143.3562825   6.8129730
  63.6330938 143.3194397   6.6982228  62.3297405 143.0024997   5.9969372
  61.7822170  12.3072529  44.9521828  61.9579792  13.1899571  44.6263409
  62.3526430  11.7417574  44.4315481  98.5852814   8.7759811  26.8173981
  98.1858730   7.9582393  27.1140599  98.4956074   9.3703753  27.5623059
  90.5565166  10.9282458  21.9113779  90.0522709  11.3945580  22.5781012
  89.8958492  10.4960382  21.3701367  87.1043205 126.6947837  42.7197456
  86.6975784 126.8532629  41.8678808  87.0550537 125.7459325  42.8358746
  90.2907944 145.8878866  32.5301361  91.1762047 146.1888654  32.3259377
  89.7258949 146.3887471  31.9416976  80.8795834  21.5152764  52.2549534
  80.9337616  22.1801686  51.5685034  81.4977169  20.8375859  51.9813108
  84.5369911  25.9036660 104.4343462  84.2474747  26.0442162 103.5328718
  84.4373703  26.7582321 104.8538958  89.5890427  13.6619985  15.8186400
  90.3112984  13.8209558  15.2109337  89.9748898  13.7832403  16.6861939
  99.7510815   9.5609474  81.5907582  99.1174030   9.7926384  80.9117850
  99.7765064  10.3258228  82.1656951  81.0629845  55.9740543  17.6637483
  80.8585167  56.0262012  16.7300975  81.7081451  55.2699280  17.7286804
  71.1433840 117.4147768  37.0679975  71.1068392 116.4941830  37.3276210
  71.6002893 117.4084730  36.2269092 100.1218700  22.8854609 102.4354037
 100.7991695  23.5618281 102.4298456  99.5474625  23.1276655 103.1617805
  75.2800512  20.1501274  10.1781833  76.0637903  20.1995301  10.7254887
  75.4395962  20.7786417   9.4740909  53.5123920   1.4926353  26.9835591
  53.8148212   1.9827786  26.2190151  53.9451694   1.9151315  27.7254725
  43.9420938   8.5224992  46.1724186  44.6631289   7.9440409  45.9239721
  43.3713436   8.5373890  45.4041386  70.8294392 114.5948906  37.5416946
  70.5639267 114.4243045  38.4453726  71.7292547 114.2723293  37.4914837
  94.9674988 143.5684569  13.7327898  94.6417904 144.4065225  13.4044659
  94.2642403 142.9473586  13.5433173  48.8642406  21.0995507  44.7695398
  49.0588999  21.5360212  45.5988932  49.2394257  20.2242112  44.8657179
  69.1520882   2.0510304  48.9133167  68.7692642   1.9236308  48.0453014
  70.0815487   1.8544267  48.7963676  60.2654886 135.5950815  12.7169061
  60.2071714 134.8879630  12.0744002  59.9546862 136.3701112  12.2489715
  86.0373783   5.4421169   4.9861285  86.6285229   6.1765146   5.1517725
  86.0555553   5.3296727   4.0357301  93.1511116  25.1890969  33.2474279
  93.1753635  26.1436343  33.1803393  92.4340725  24.9265695  32.6702309
  94.0145779   4.7813606  36.3463950  93.5274124   4.3994209  35.6163120
  93.9769363   5.7252359  36.1917520 111.0781288   3.2210079 108.7759356
 110.7754803   3.9905292 109.2580894 111.2245655   3.5388920 107.8850160
  56.3424540  14.9681771  25.5136561  57.0794868  15.4788792  25.1787019
  56.6352749  14.0587056  25.4557705  88.4809971   6.6163260  50.6957769
  88.5364819   7.5373989  50.4412603  88.2203007   6.1617780  49.8947430
  97.4005318 123.7043662  19.9940801  97.6590347 123.0874915  19.3093359
  96.4938831 123.4726329  20.1953840   1.5986186  50.5402231   4.3312627
   2.0220786  51.1429071   4.9425599   1.4561110  49.7427702   4.8411575
  69.1879082  13.0317903  28.0459237  68.4840870  12.8371024  27.4270844
  69.9443102  13.2298899  27.4937963 104.8869419 108.2480426 107.3767238
 104.5956993 108.9048619 106.7442726 105.8084393 108.1017728 107.1629643
  63.6949635  10.9544110  43.5690117  63.8926125  10.5692446  42.7153063
  63.9792776  10.2943110  44.2012024   2.1453982   5.4291475  32.6037025
   2.6916152   4.8360604  32.0878291   2.6447135   5.5769646  33.4068608
  98.6307049   8.5608065  84.5979866  98.6684132   8.2202619  83.7042102
  99.1695213   9.3516386  84.5759042 119.0387344 145.1933896  53.5430861
 118.8629150 146.0499368  53.1536722 119.6382427 144.7695726  52.9289150
  53.7852955   8.8318461 106.4662757  54.3341255   9.4105995 105.9370666
  54.1954088   8.8376445 107.3311489  49.4737720  29.5301914  64.9473906
  49.5005274  30.2790976  65.5429220  49.4169378  29.9198604  64.0749454
  69.2100286   5.3303999  25.5239797  70.0041723   5.1969701  26.0414410
  69.3684626   4.8470074  24.7131395  93.6310196 126.5707166  20.9303379
  93.0894566 125.9768409  20.4104805  93.7731457 126.1055083  21.7547250
  89.0396023  41.3389969  35.1592708  89.1089344  40.5903721  34.5668316
  88.2509995  41.7993641  34.8722100  73.6245108 119.6512098  17.9408479
  74.2880487 119.4666309  17.2761059  73.1495857 120.4096503  17.6010752
  85.9830284  37.6182318  11.2660539  85.4679489  37.9402590  12.0057976
  86.1418629  36.6961813  11.4681137  86.2104225   8.1576955  16.2150180
  87.1421432   8.3383822  16.3394237  85.8452606   8.9860153  15.9039247
  94.2027378  13.5324121  16.6459107  93.4377766  14.1077435  16.6381454
  93.9852047  12.8533149  17.2844541  83.6015606  32.6958060  23.8296413
  83.6534691  31.8417454  23.4005547  82.7124786  32.7330256  24.1823173
  28.9627218 113.7957878  48.4050846  29.5423174 113.4016080  49.0569496
  28.9127922 113.1454463  47.7045202  95.5220890  61.8910599  11.1260414
  95.8738613  61.3894939  11.8615103  95.2000523  61.2275743  10.5158710
  66.0038090  44.1935682  42.7486515  65.3274059  43.5216904  42.6632547
  65.8980799  44.5280361  43.6392641  81.2698078  36.9187689 109.3877278
  81.9916153  36.2945461 109.4623486  81.6897392  37.7416968 109.1373729
  33.2919049  28.9834309  19.5701814  33.5709095  28.5967851  20.4001784
  32.4571013  29.4062543  19.7715521  93.7526417 133.3596999 105.9067275
  94.5742702 133.1854553 105.4475956  93.2858658 133.9722616 105.3382885
  78.2731485  29.1574311  26.6668010  78.3853674  28.6744928  27.4855876
  78.5289621  28.5359812  25.9851933 107.1953106   1.0923247   8.8637114
 107.2773743   0.3633344   8.2488382 107.0292950   0.6751131   9.7090548
  80.6785011  18.2364810  17.8829134  79.8323345  17.7970386  17.7985656
  81.2586117  17.5703657  18.2516885  92.2902393 113.0432386  49.0201998
  91.7564297 112.7365727  48.2872391  91.7007637 113.5993142  49.5296431
  81.1350060  43.4094381   1.9842008  80.7872963  43.7085485   1.1440426
  82.0786476  43.5560179   1.9187339  76.9031620  11.3910568 103.0285939
  76.8047285  11.0237944 102.1501520  77.8317833  11.2794673 103.2321742
  74.0620470 140.7888127  18.7704027  73.1410027 141.0381568  18.8461304
  74.0633011 139.8386962  18.8866270  85.4703617 145.6298482  38.3393383
  86.3979435 145.4566700  38.5000610  85.0476360 145.4731280  39.1837144
  85.5432606  51.2803984  35.5064917  86.3827801  51.2284565  35.0496149
  85.3192139  50.3701448  35.7000756  94.6747780   1.7329887  16.0728669
  93.9470196   2.3272048  15.8898151  95.4551697   2.2233662  15.8145261
   0.0219851  18.8493681   2.2609533   0.8413249  18.9610302   2.7430761
  -0.5185766  18.3022726   2.8307906   4.9032050 142.5618784  21.6294336
   4.0115672 142.7937562  21.3697410   5.0480967 141.6980202  21.2434435
  72.3979759  23.6523533  11.0461032  72.4174643  22.7074885  11.1980271
  72.0790863  24.0208793  11.8699551  68.5460997 143.0473525  34.7660685
  68.1175041 143.0918837  33.9113450  69.3568993 143.5435236  34.6535730
   6.4149981   4.1600612  77.6190671   6.4051943   4.9879181  78.0994734
   6.7023306   3.5128140  78.2630738 103.4603119 143.4428776  16.2453783
 102.7208424 143.6386014  16.8207884 103.2106972 142.6321567  15.8019209
  66.7058897  14.5800006  42.1858644  66.5049791  15.5138850  42.2469044
  67.0700073  14.4702554  41.3074541  63.1071186  24.7354770  64.0348911
  62.9356241  24.1330886  64.7587347  63.3623171  24.1687131  63.3069611
  83.9304256  30.2909493  22.3951554  84.2216015  30.2723646  21.4835095
  84.1971588  29.4425440  22.7491260  57.2844744 144.5374494  37.2395873
  56.4849329 144.6779294  37.7467632  57.0216417 144.6878470  36.3315487
 100.5477142  31.2365603  48.4000921 101.4909554  31.3326049  48.5316658
 100.3598785  30.3353000  48.6621571  71.3508558  14.7529364  33.9205694
  72.1813393  15.2170289  34.0261436  70.8528280  14.9709237  34.7084045
 105.8908844 136.9190664   3.7586844 105.8668232 135.9639628   3.8172540
 106.0742092 137.0979274   2.8363875  89.1685009  11.0276091  43.0705357
  89.6628475  10.7036841  43.8234854  88.9501476  10.2408659  42.5709486
  99.5584393  21.6107154  18.7175322  99.9764156  20.9299660  18.1901741
 100.1709652  22.3457146  18.6889625  61.3391352  16.9779539  19.1960502
  61.4987230  16.6482878  20.0804043  61.9859171  17.6738858  19.0795195
 103.1126690 143.2463846   1.3132325 104.0207863 143.0061496   1.1292869
 102.8327465 142.6267047   1.9869317  92.2710514   0.5238484  44.2277288
  92.3385334  -0.3905136  44.5027161  91.5493107   0.5322357  43.5990381
  60.4924774  42.8389502  60.5487633  60.0818586  43.5111475  61.0926199
  61.1050892  42.3966646  61.1364031  41.8099308   1.9107591  56.0602045
  41.6148281   2.4551797  56.8229437  42.2493601   2.5026062  55.4495907
  95.7700634  24.8739004  31.0401750  95.4423428  25.0287843  30.1542640
  96.3201904  25.6342745  31.2283874  45.0769424  20.9344816  43.1431007
  45.1603746  21.8209624  42.7917862  45.5233097  20.9691405  43.9891386
  95.5334187  19.6368730  62.2492743  95.8245659  18.7302840  62.1514750
  96.3427734  20.1475596  62.2688580  67.3710918 136.1091966   4.8193511
  66.4270401 136.0599644   4.9695897  67.4692249 136.7582584   4.1227019
  79.3125486  15.2759266  24.8990226  78.9918137  14.5057201  24.4298267
  79.0712261  15.1180625  25.8117533  86.2702370 141.5841890  36.3719296
  86.8816185 142.1696875  36.8187237  86.8091106 141.1172087  35.7333589
  69.6041870 123.7654347 106.9092371  69.5284843 124.1758365 107.7706725
  70.5389738 123.5840959 106.8116417  53.6318588 103.9990921  24.4396877
  52.9615068 103.3877201  24.7447753  53.6147881 103.9169759  23.4861684
  69.1871119  50.8543253  17.6637030  68.6274052  50.4521465  16.9994628
  69.4303370  50.1311827  18.2417452 122.3984337 144.5447288  30.8104730
 121.8656921 144.5480891  30.0152302 123.1200218 143.9476640  30.6128454
  71.0649872  19.2790127  11.5442669  70.6520891  18.4302938  11.7037225
  70.7563353  19.8338735  12.2605741  98.7580872   5.8022195  25.3119230
  98.4196568   6.3678116  24.6177983  98.2273483   6.0197586  26.0782313
 117.5215340  16.5035748  16.4875567 118.1768131  17.1366441  16.1941922
 118.0330658  15.7650340  16.8178964 104.3233967   0.9182881  51.1391973
 103.8224030   0.4540111  50.4686117 104.3662739   1.8210861  50.8240032
  46.4053345  36.1545539  21.0858250  45.9051132  36.4732361  21.8371248
  46.9374323  35.4408908  21.4376664  56.3273096  36.8057370  27.5024867
  56.1845541  37.7204394  27.2592425  56.7033148  36.4053154  26.7185783
 104.7151852   6.3763160  56.1143684 104.5252132   6.3519049  57.0522118
 105.6324673   6.1107481  56.0488176  84.9596691   3.2041809   1.4989264
  84.5674515   2.6177338   0.8520271  84.3957138   3.1237546   2.2681606
  63.8427448  43.7020206  11.2966716  63.7481451  42.7510834  11.2418520
  63.0417728  43.9978504  11.7292929  93.5534382   6.8366396  43.0430365
  94.0030193   6.0219717  42.8184891  94.0866184   7.2204143  43.7392139
  88.8911915   7.6161134  36.9338059  89.0261269   7.1107870  36.1321378
  88.2221222   8.2599545  36.7013311 102.1708488  19.1099608  21.9909906
 101.5714359  18.8391888  21.2955642 101.6210461  19.1666448  22.7724862
  68.4754944  39.2874527  43.1465530  68.6188316  39.5813704  42.2469425
  67.6632595  38.7825394  43.1070232  86.7677784   3.2859346  55.8496380
  85.9222126   3.6918378  56.0406876  86.6147518   2.7770719  55.0534773
  73.0040455  13.9409029   7.5619483  73.2856178  13.0298853   7.6455754
  72.4288177  14.0837634   8.3135718 120.0662422   8.7917286  37.2616005
 119.1930389   8.4520465  37.4574709 120.3199387   8.3478683  36.4523673
  77.2758007  23.2712626  19.8846602  77.5405931  23.2173610  18.9663959
  77.8007078  23.9866662  20.2436972  79.7335815   8.6119503  50.5108452
  79.5676374   9.5485908  50.6176043  79.4495487   8.4186918  49.6174192
  56.2703419  34.4620299  41.6494370  57.0323229  34.0377402  42.0438910
  55.8807516  34.9665666  42.3635054  63.9682436 138.1042654  19.9272335
  64.8044014 137.6704342  20.0971174  63.3424807 137.6464278  20.4885149
  82.0285797  15.7197595  51.1095190  81.3643074  15.4656947  50.4688787
  82.5435829  16.3938141  50.6660604  74.7433519 127.1366126 106.1564844
  74.9226809 127.3020334 107.0820709  75.4643774 127.5626428 105.6929591
   9.9641352 135.4380018 102.3783144   9.4642859 135.3196664 103.1860110
  10.0033885 136.3867683 102.2577646 115.0042725  20.2723885  19.6875000
 115.1704597  19.4435763  20.1365948 114.2408657  20.6380773  20.1343846
  85.5147362  20.4439235  10.5342782  84.6009064  20.7155681  10.4484940
  85.9021473  21.0897851  11.1250484  72.1237421  35.8913851   0.9991813
  71.6674900  35.0516629   1.0533368  72.0076942  36.1688542   0.0904602
 121.6476917  49.9003601  23.8585448 121.5378571  49.9307346  22.9081511
 121.6006088  48.9692497  24.0754557  64.0247345   1.2185927  11.3119090
  63.7272120   1.9820249  11.8067634  63.8642120   1.4489010  10.3968012
  74.6238518 141.1028350  15.4477346  73.8984489 140.9370995  16.0498583
  75.3080082 141.4860118  15.9966803 104.9132919  35.3024435  50.7820749
 103.9781094  35.4913616  50.7047033 105.2029705  35.1542020  49.8818874
  70.8515644  26.5778852  20.7891011  69.9658346  26.2160325  20.7611275
  71.1637259  26.5171576  19.8862731 111.4657021  11.6695297   4.0939125
 111.1362171  10.8905029   4.5420069 112.1672535  11.9923878   4.6594319
 104.8336315   2.2033398   7.7555960 104.8077679   2.7103201   6.9440949
 105.7664204   2.0784719   7.9303730  77.2406769   3.4669101  89.7907051
  77.1822977   2.8723940  90.5386182  76.4345312   3.3122718  89.2983206
  69.6279001  36.4565682   9.1441548  70.5166721  36.7480373   8.9407635
  69.6635103  35.5036235   9.0613252  92.0297623 143.7105904  28.8054061
  91.9691277 142.9026318  28.2957411  91.4584827 143.5618989  29.5589113
 122.0150566 143.4884060 102.4345746 122.3568439 142.6006255 102.5406607
 121.8430805 143.7871445 103.3275541  72.2581911 138.4232289 102.5688299
  72.7834558 137.9153711 103.1872227  72.6540661 139.2946870 102.5775262
  84.3589211  42.3432159  26.2639713  84.4966125  41.4560223  25.9320569
  85.1258945  42.8321934  25.9658408 106.3619518  22.0823479  62.0622214
 105.5113983  22.4655747  61.8478926 106.1664391  21.4219713  62.7269849
  82.9496670   8.6177182  29.1621470  82.5362682   7.8229117  28.8250756
  82.4669647   9.3329489  28.7478065 113.9648628  22.7125001  16.6338158
 114.1413593  21.8029976  16.8744004 113.5586166  23.0918741  17.4130929
   1.9217043   8.8351774  13.4511244   1.0985213   9.2515975  13.7064612
   2.3027831   8.5325277  14.2753911  76.8790531 110.6554670   1.6186829
  77.5413609 111.3342709   1.4890496  76.1720419 111.0973544   2.0888956
  61.2241983  57.4868870   0.9513287  60.7075977  57.1328402   0.2274445
  60.5757570  57.7280426   1.6128463  76.2808037  24.2820311  34.5513725
  75.8415270  25.1314974  34.5104194  77.0859098  24.4042253  34.0482807
 100.4454517  48.1210947  31.3035607 100.7867336  47.9614687  30.4236317
  99.9113464  47.3506069  31.4967227 117.7135468  11.2230253   5.1545751
 118.0444717  10.3377366   5.0029618 118.1471252  11.5062010   5.9595901
  72.5082064 136.6697312  89.3378552  72.2078848 137.3758537  89.9100705
  73.0303097 137.1103913  88.6674412  77.7543688 128.8036091 102.8375145
  77.7393484 129.2490108 103.6846414  77.6930189 127.8734321 103.0548605
  52.6629734 140.5412204 105.0555538  53.1444883 140.1565153 105.7879319
  53.3403587 140.9254045 104.4989678  45.4521275   2.6072669  10.6353033
  45.2081060   3.2517380   9.9709678  44.8215961   2.7420500  11.3427591
  99.4006824 133.9400167   3.2581207  99.0338802 133.9987440   4.1403022
 100.0016975 133.1960768   3.2976589 109.5065308  22.7802563 107.3748154
 109.1425896  22.4946380 108.2127892 109.3395805  22.0494342 106.7796194
  95.8801746 125.0694890 105.3864759  96.7383957 125.1968736 104.9821883
  95.5393887 125.9554977 105.5093055  80.7309341 114.5899410 109.8676198
  79.9075222 114.9141616 109.5027926  81.1096764 114.0575475 109.1680846
  73.3322668   6.4692777  92.5188740  73.4579897   6.9702303  91.7129763
  72.9636002   7.0996624  93.1376907 116.5713978  12.7810955  15.9269738
 116.7317963  13.0896509  15.0351787 116.9828606  13.4401333  16.4860797
  77.0075846  53.9184713  98.7075432  76.1810207  54.3251610  98.9676031
  77.6707172  54.3669796  99.2322584  92.7494907   7.2834510  20.9562016
  92.0420647   7.1025097  21.5751052  93.1589699   6.4316130  20.8047771
  76.2407780 128.2970769   3.1605342  76.9764709 128.1571538   3.7566978
  76.5962982 128.8540120   2.4679595  90.5370903  25.1272917  27.3075199
  89.7918987  24.5637131  27.5156140  90.9979916  24.6659446  26.6068339
  52.9811525  17.2124946  99.3865999  53.4099627  16.7323005 100.0949540
  53.5983610  17.9085267  99.1611525  81.8278790   4.3142232   7.4639386
  81.7095947   3.3956787   7.2220373  82.7767467   4.4401768   7.4694347
  67.6854944  23.2131028  13.5700953  67.1249008  23.9845037  13.4869802
  67.0745897  22.4807906  13.6522043  74.6004629  38.9420843  13.1823432
  75.0456858  38.3675957  13.8052154  74.3798542  39.7221065  13.6913919
  69.2826843  14.8209250  15.4914165  68.5771084  14.2331934  15.2212942
  68.9133883  15.6987226  15.3948581 113.2493877   2.7139625  20.5231977
 112.5181103   2.5926223  21.1287928 113.4955406   1.8260255  20.2639508
  26.5316820 109.9431510  24.5437241  27.4541140 110.1417751  24.3827963
  26.5453553 109.1172070  25.0273156  64.8245621 135.0162465  80.8092793
  64.3746948 134.2176838  81.0852321  64.1404152 135.5483670  80.4030427
  92.3126602  28.1842399   3.6222959  92.8858280  28.5405397   2.9435071
  92.7206421  28.4527683   4.4455040  62.4101591 134.9482233  25.2298951
  61.5129232 134.7633166  25.5074024  62.9157209 134.1956169  25.5368567
   1.8385821  16.4158750  15.9849894   1.6095381  17.3450077  16.0070264
   1.4275866  16.0492456  16.7678690 101.8931103 142.0733807 106.4442032
 102.1970463 141.2220688 106.7590442 100.9662437 142.0996476 106.6818055
  74.9227524 144.2169071   4.6190488  74.2258644 143.7749056   4.1340590
  74.7894430 145.1468895   4.4357637  74.4198847  20.7423997  17.9936993
  74.9716377  21.5028191  18.1768882  73.5246754  21.0671282  18.0905688
  35.6396198 124.7776026  81.2579187  35.8151889 125.0379510  82.1621450
  34.7032952 124.9377246  81.1400708  83.1972027  28.4903884   2.1957056
  83.5093784  28.6033058   1.2979147  82.2820854  28.2266164   2.0996925
  93.5318089  46.3312435  31.2973857  93.3442211  46.8875742  30.5413818
  94.4391918  46.0537767  31.1713123  89.4084644 131.3015980  15.4065084
  88.9232635 130.4775150  15.3653550  88.7314129 131.9752831  15.4696202
  84.6588612   1.6450247  10.1375926  83.7786770   1.5350585   9.7778571
  84.5834827   1.3571285  11.0473537  80.3373718 110.5727334 100.6617739
  80.6905746 111.3166208 101.1497446  80.9107971 110.4922576  99.8995795
  63.6929989   6.3330805  27.4398637  64.4588614   6.1039573  26.9133735
  63.4983635   5.5390602  27.9377413  76.4294910  13.8076353   8.2954210
  75.9320259  14.5956528   8.5140312  76.0171938  13.1136978   8.8099051
  48.7089348  19.2510986  25.6900001  49.5671225  19.5560479  25.3954530
  48.6106300  19.6226859  26.5666366   6.2601786   7.2419536  39.7171140
   7.0825511   6.7644703  39.6078420   6.5272837   8.1510001  39.8531985
 109.6359348 139.7149480  80.8959159 108.7219334 139.7407229  80.6127962
 109.7855759 140.5694903  81.3003882  93.5719872 144.2185647  34.4341874
  92.8724861 144.1209384  35.0802588  93.4236240 143.5071514  33.8112020
  93.2629490  26.2034202 105.8826035  94.0686226  26.6776967 105.6772136
  92.6895332  26.3701534 105.1345226  91.3310528  26.0801291  19.8599815
  92.1506882  26.3578725  20.2689934  91.1916828  25.1900029  20.1832151
  95.2757740   6.8370128   9.6641719  96.1330318   6.5861428  10.0082672
  94.8105907   6.0079527   9.5523900 117.7923679  15.1147473   5.4428774
 118.0315971  16.0231769   5.2591467 118.6298275  14.6614742   5.5399674
  14.7814303   1.3823077   7.1578127  13.9777403   1.5383132   7.6537675
  15.1273566   2.2571141   6.9809413  78.1860495  14.8503721  30.9988594
  77.5107384  15.1382887  30.3846169  78.3220768  15.6024921  31.5750909
  97.5390911  10.3592265  80.1887544  97.5819016  11.0719538  79.5512446
  96.6136169  10.3066444  80.4274472  59.1227102 119.2412038   3.5207126
  59.5767355 118.4082384   3.6482185  59.5137310 119.6082015   2.7278391
  75.9008074 131.0810167  56.5545996  76.3740921 130.3781719  56.9998368
  76.3361502 131.1628337  55.7060631  59.8615885 130.8616252  19.4021201
  59.5665836 130.6622917  18.5135972  59.1653538 130.5257697  19.9666500
  77.7975988 107.8888197 101.9142213  77.0260429 107.9379649 101.3498452
  77.4421883 107.8202576 102.8003457  91.2693405 126.5205664  99.7077223
  91.2947655 125.6663913 100.1389637  91.7646694 127.0973272 100.2893015
  85.9908390 124.0848512   2.5076461  86.7590618 124.4313712   2.9615128
  86.2565231 124.0370650   1.5893003  67.3198318 129.9665398  13.2846510
  66.6987038 129.5442671  12.6912522  67.9797745 129.2952175  13.4579480
  93.7995720   3.7738523  77.6130303  92.9418468   3.5103151  77.2797283
  94.4138622   3.1671858  77.1997198   1.0259085  31.6219902  83.9947661
   0.9756499  31.6254163  83.0388936   0.7343894  30.7457876  84.2467960
 102.1451473 130.5557973   0.5202444 102.0008659 129.6364922   0.7445054
 102.7530575 130.5295188  -0.2186636  87.0583439   6.3334477  18.5052097
  86.8369102   7.0792550  17.9475641  86.2951565   6.2235278  19.0723836
  78.8537312  12.8505301   8.8616532  78.0999947  12.4276459   8.4502149
  78.5217237  13.6990285   9.1549969  72.9258204 133.7474639  32.2685289
  73.5144472 133.5716684  31.5344644  72.0500803 133.5868556  31.9170761
  64.1526508 135.6817431  98.1792089  64.8198795 135.1668424  98.6329838
  64.6482182 136.3408894  97.6932355  73.2017708  30.5395794   0.0994852
  72.7882528  30.1168227  -0.6531833  73.0859661  29.9170876   0.8173463
 121.5099716 142.5532309  80.8447035 121.5879631 142.9417981  81.7160042
 120.9018993 141.8232782  80.9615358   0.2899294   0.9886499   6.5117747
   0.8511000   0.3971430   6.0103339  -0.5841989   0.8586954   6.1440265
  98.4055233 140.3963751  91.8401250  97.8759098 140.0682569  92.5668188
  99.2283058 140.6679828  92.2469195  38.7426066  24.6587253  29.9092388
  37.8885436  25.0908136  29.8987913  38.8209891  24.3044901  30.7950187
  86.6047382  21.3765812 109.6166606  85.9684849  21.2241483 110.3153574
  86.2511253  22.1203351 109.1287861  57.3230362  14.2220497  29.5404243
  57.3024797  15.0332654  30.0481033  58.2020378  13.8715601  29.6844745
  84.2476368   7.9609436  10.7311153  83.5617924   8.6242867  10.6547666
  84.9356937   8.2581967  10.1357555  99.0361977  17.5054610  10.7589984
  98.2538319  17.5209713  10.2077377  98.6982727  17.5082326  11.6545594
 104.8289967  44.2090893  21.1339688 104.1354370  43.8524961  21.6889954
 105.6271458  44.1063356  21.6522551  72.6285315  23.6587596   1.2896731
  72.1331072  23.1220889   1.9083597  72.2104359  23.4969449   0.4439528
  93.9908600 125.3202982  87.3424252  93.5148811 125.8354659  87.9937895
  93.3920383 125.2634496  86.5978345  68.6480284  19.3881726  85.0670036
  69.0015841  19.3353295  85.9549435  67.7034760  19.2803288  85.1784857
  65.1730871  10.0474334 105.7820781  64.8206377  10.8296454 105.3576269
  64.4116735   9.6296042 106.1844476  92.0871067 132.6198978  25.1791811
  91.3522434 132.4830634  25.7770872  92.6222324 131.8318290  25.2730894
  71.4934492  37.9654622 105.4197445  71.3831758  38.8503933 105.0719413
  72.4341154  37.7993894 105.3581255  47.8207207   9.8174262  95.4813536
  47.5626230   9.2703092  94.7395452  48.1261301   9.1961342  96.1423787
  94.4416714 100.5618591  88.1249794  94.0118122 100.7867546  87.2998270
  94.2065620  99.6463174  88.2757672  80.4445076  53.3744955  87.4344858
  80.0657558  53.9387512  88.1085786  79.7867632  52.6931858  87.2951182
 120.4129410  60.1685286   3.5754204 120.8498383  60.7671452   4.1812330
 120.1788139  60.7153606   2.8254941  73.2213879  26.2295365  87.1935924
  73.8251638  26.9560695  87.0391878  72.4996519  26.6187191  87.6874193
  64.1994524 140.2664746  41.6116238  64.6043539 140.8654923  42.2388935
  63.3323479 140.6385280  41.4505529 106.2344551  34.6245146 107.3748318
 106.4996052  33.9811015 106.7176037 105.4931545  35.0813627 106.9773498
  97.6384449  33.6922002  96.1033460  97.5313187  33.5993457  97.0499893
  97.9055595  34.6031618  95.9807476  55.0538445  36.9727111   0.2756037
  54.4524431  37.7173662   0.2817994  55.8087492  37.2702932   0.7833359
  74.1332006   4.6234804  14.2136765  74.5420218   3.7580037  14.2070162
  74.5624447   5.0855976  14.9336958  89.3089294  33.6691856  80.1615819
  90.0218964  34.1985393  80.5189260  88.6792660  33.5997367  80.8791741
  48.4875584 145.3767907  14.5119071  48.7027836 144.4441111  14.5161438
  49.3307638 145.8166868  14.4036222  37.5760818  13.4602714  27.7283597
  38.1419539  12.7602899  28.0540037  36.8752480  13.0043983  27.2622633
  16.0962307  26.5243483  20.7166266  16.1726284  26.6620016  19.7724628
  16.0732496  25.5729032  20.8188725 105.7318115  51.3088846  10.3038895
 105.4314899  52.2167253  10.2606761 105.4666805  51.0100460  11.1737359
 103.8585091 145.1225668  92.4201115 103.4034920 145.4574106  91.6474065
 103.8254642 145.8436489  93.0487450  54.9588728 132.1472389  88.6829790
  54.3457556 132.6524443  89.2169102  55.7096243 132.7292139  88.5650262
  61.1339235 136.0988063   9.7533965  60.4383945 136.4520962   9.1987306
  60.7477379 135.3206570  10.1553583  88.7146091 122.5068540 105.2935245
  89.4669151 122.6706094 104.7247990  88.1248760 123.2425041 105.1283714
 115.6951904 143.9833105  20.2415752 116.3860416 143.3208124  20.2343941
 115.1494026 143.7520755  20.9931612  45.6649351 120.0853057  95.9906431
  45.0797892 119.6136160  95.3979000  45.6052208 119.6065445  96.8173560
  93.7489700  54.8827934  82.5695881  93.8957214  54.4635201  81.7217048
  94.3914318  55.5916643  82.6006492  38.3298969 144.4169337  33.2042742
  38.3894229 143.5563020  33.6190057  39.1714811 144.8322737  33.3925843
  82.0750332 145.1095573 106.3301282  82.2822475 144.8848040 105.4230561
  81.2859726 144.6049784 106.5276434  86.5091515  17.5785470  86.1037263
  86.7643166  17.1666598  86.9292411  85.6134796  17.2767735  85.9522875
  68.9668560  14.9382842  19.2084277  68.0517006  14.6786141  19.1021776
  69.1540575  14.7826374  20.1341486 112.7718639  50.8304644  27.6711726
 113.0112267  50.8236456  26.7444086 112.3168468  51.6634607  27.7948976
  91.5670204  50.7063055  75.7207617  92.0735645  50.6060839  76.5267380
  90.6746483  50.4626894  75.9668597  85.1692295 141.1285973  32.2516751
  85.7925034 140.4952408  32.6075149  84.7829914 140.6859113  31.4959764
 122.6150417  20.7754087   6.2722814 122.1266460  21.3000917   5.6379235
 122.0978928  20.8287883   7.0759881  76.3436842 136.1955077  80.8551749
  75.8240128 135.9814400  81.6299971  76.1881685 135.4672403  80.2537807
  43.5447264  20.4855037 107.0113119  43.2302713  19.6949935 107.4499958
  43.0117130  21.1909962 107.3779263  72.7112341 137.0127029  42.5380898
  72.4809647 136.5690691  41.7217588  72.2653532 137.8580619  42.4853039
  82.4785137  18.1593776  10.5071723  82.6972294  18.1040633  11.4374089
  83.0624199  17.5286329  10.0859296 121.3927555  31.9202495  17.4498415
 121.8093491  32.6925039  17.8323376 120.7774544  31.6232586  18.1202376
  76.6637135   6.1428475   7.5841451  75.8388376   6.5510005   7.3210365
  77.3348379   6.6280782   7.1041721 124.1196251   4.7647718  30.1579762
 124.6331120   5.4617590  30.5663538 124.7333622   4.0355814  30.0694084
  64.7917509 138.9011616  15.3832543  64.5068455 138.1271405  15.8690035
  64.7893715 139.6052063  16.0317504  68.1952858  41.4586830  33.7879801
  68.1379557  42.1992970  34.3916655  68.2788992  40.6927013  34.3558788
  55.6755733 139.7902573 101.1329743  55.2180099 139.0091164 101.4439180
  55.4098320 140.4810352 101.7399665  69.2080736   5.3381956 108.7887456
  69.1598463   6.2808132 108.6294417  68.3845091   5.1271713 109.2285664
  64.0838528 140.2920473  97.1202048  63.5780478 141.0775120  96.9117829
  63.4245872 139.6345175  97.3421332  71.4634562  16.3462842  11.4412820
  70.8513260  16.3880372  10.7065809  70.9231949  16.5156341  12.2130799
  78.2875061 141.1864216  21.9835281  77.5618029 141.4112026  21.4012432
  78.0565023 141.5891198  22.8206086  79.5682001   1.6895445   8.1465673
  78.9946413   2.4210382   8.3749998  79.6007967   1.7004105   7.1899843
  69.3507481 109.2950577  89.5388755  69.4239902 108.6501641  90.2424248
  68.4149265 109.3277402  89.3403896  65.0509501  23.7407279 108.4577101
  65.3046417  24.0176249 109.3381646  65.0669050  24.5454550 107.9396433
 104.2014313  38.3822131   2.9727140 104.7273254  39.0337205   2.5088087
 104.6120834  37.5450039   2.7566564  87.0033741 141.1777718  78.1728681
  87.1180439 142.0407397  77.7749141  87.2439480 140.5612338  77.4813231
  67.3219156 123.7132640  96.9194981  67.7323341 123.1674380  96.2487837
  66.8124533 124.3562574  96.4263006  21.4587622  12.0874286  90.3342804
  21.5509730  11.1426294  90.4570957  20.5334311  12.2620952  90.5059990
  93.3706093   9.7425187  72.6929005  92.7514744  10.2330959  73.2334884
  94.2321587  10.0366306  72.9886397 119.0611649   2.8194496  12.4448645
 119.9550056   3.0195951  12.1669769 119.0130901   3.1394404  13.3457124
  84.3611336 133.1917746  79.0884360  83.4274387 133.2872088  78.9004334
  84.5455360 132.2672338  78.9227518  55.6098270 146.0891416   6.4971071
  56.4566374 145.9545177   6.9225734  55.0481176 146.4411381   7.1876210
   4.9616080   2.7611336 102.2268971   4.3158465   2.1383151 102.5605448
   5.5946856   2.2200485 101.7550143  76.6842413 143.9727426  18.5442770
  76.0969210 144.6759666  18.8213301  77.4053907 144.4225025  18.1039405
  92.8087139  12.9636776   8.3653384  92.2601032  13.5075760   8.9305258
  93.7053490  13.1865895   8.6155170  97.8111458 129.3759389   5.6434643
  98.6124992 128.9712794   5.3113210  97.1455383 128.6931700   5.5596584
  77.0716667 117.3012752  93.9189514  76.2411118 116.8254633  93.9165565
  77.0826912 117.7680726  93.0833598 114.8606682  20.7306767   8.2164520
 114.4259739  20.3919482   8.9990938 115.4769516  21.3835549   8.5483879
  80.6774044 134.7615237  34.4482636  80.9885979 133.9643175  34.8770452
  80.1334572 135.1916535  35.1080680  79.6609974 138.7963016 103.5595044
  80.2585506 138.4230239 104.2074438  80.2128410 139.3686379 103.0264654
  63.7223577  27.6214623   6.0190791  64.4325018  27.8385973   6.6230506
  63.5374880  28.4418607   5.5619115  78.4397984 139.2669232  73.0045279
  78.4413624 140.1569528  72.6522835  78.6972761 138.7162561  72.2651347
  50.9213161  10.0294423  10.9486091  51.7712212   9.7942662  11.3208747
  50.9554005   9.7037256  10.0491762  79.8222065 136.8289972  87.0146807
  79.9281502 136.0786218  87.5994404  80.7053661 137.0073409  86.6914710
 105.1273060  28.3122110   3.9352471 104.2081738  28.0809498   4.0692428
 105.0985241  29.1354108   3.4476578  74.6671581  20.3181481  97.8192767
  74.3309498  19.9021161  98.6130735  75.2152157  21.0351253  98.1383570
  49.3237877 131.3218922  20.3261209  48.8544846 130.8791704  19.6190286
  48.7161684 131.3029546  21.0654926  75.0167704  42.8244591  85.4863819
  74.9337053  43.7319136  85.7793959  75.1515245  42.3242521  86.2912830
  51.6318989   3.3692047   9.9118572  52.4443626   3.8538516  10.0576520
  51.7303467   2.5737238  10.4350686  38.3637071  24.6098495  32.7635741
  38.8783288  24.4019318  33.5434246  37.4675846  24.3667030  32.9961181
  77.5236988  39.2622304  28.4444547  76.5757608  39.2427611  28.5758543
  77.6714277  40.0192451  27.8775859 114.4804478 141.1054892 104.4184145
 115.0461006 140.4370666 104.0317943 115.0784874 141.6738544 104.9037417
 109.8552990  12.4551821 103.6913534 109.3878841  11.6496348 103.9123675
 110.7387543  12.3213387 104.0346094  55.9838629  35.2028990  14.4308352
  56.1751890  34.5941067  15.1442766  55.2211237  34.8258638  13.9923060
  68.4286451  26.1294246  30.7719684  67.9851723  26.9353199  31.0367227
  67.9836655  25.8645487  29.9669433  99.2122555  59.7095585  21.9452333
  99.0461445  60.6150389  22.2074366  99.5445919  59.7765446  21.0500836
  76.5206146  31.1453009   9.2208612  76.2077427  30.9662700   8.3341300
  75.8703423  31.7441559   9.5879406 116.7193317  34.8324776  83.6257657
 116.2752247  35.5531478  84.0725740 116.0911179  34.5353413  82.9675134
  64.1482544 143.6610783  36.6331434  64.8322582 144.3219710  36.5255070
  64.0253782 143.5955931  37.5801635  87.1850872   4.6133730   1.5951732
  87.7662373   3.9601618   1.9847918  86.3403416   4.1691846   1.5220681
  99.4031239   5.4869461 108.5937293  99.6103668   6.3227713 109.0116789
  99.1134453   5.7248855 107.7129895  95.7563972 140.8953072  14.6452034
  95.5541229 140.4582197  13.8179946  95.9383965 141.8021361  14.3986928
  64.5913363 133.7019355  20.5545521  64.7485495 134.5936210  20.2440500
  64.7701979 133.7404604  21.4941025  97.4938011 138.5964132  83.8082370
  96.8890285 138.7778223  83.0888113  96.9320393 138.3004595  84.5245203
  65.0563717   3.9038932  94.9144598  65.9777975   3.9459568  94.6586403
  65.0707531   3.9519691  95.8703443   2.0617514  45.7247591  22.5378776
   2.1022158  46.3579988  23.2545400   1.2283736  45.2715302  22.6655054
  63.3517504  32.1706414  22.4291444  62.7327967  32.5040579  21.7795563
  63.2694483  32.7721047  23.1692123  85.6545353 116.2215943  96.0137709
  85.4357052 116.4656849  96.9130846  85.2656269 115.3544492  95.8995684
  76.5899134  32.2755384  22.6533794  76.5195513  32.6160145  21.7615509
  77.4736166  32.5153589  22.9322839  97.4283504  28.6599731 104.5435955
  98.0630207  29.1201973 103.9943972  97.2829056  29.2473984 105.2852222
  89.5913410   3.0969608   2.0930076  89.4758511   3.7910122   1.4440194
  89.4419575   2.2864980   1.6061123  89.2642689  20.8547926 109.4903814
  88.4488964  21.2906122 109.7382912  88.9883041  20.1358008 108.9219379
  86.9576263 134.7382683   4.3640381  87.4741268 134.7110874   5.1694703
  87.0948601 135.6213612   4.0211916  95.8226681   4.3373984  24.5655584
  95.4922009   3.9070472  25.3541136  96.2876034   3.6470005  24.0928888
  88.5184669 138.4752655  71.9827986  88.7010479 137.7238274  72.5469255
  88.1916904 139.1487789  72.5793123  71.5969229 123.4790516  30.2370683
  71.3937473 122.7548885  29.6450177  72.5395346 123.6125183  30.1375810
  74.6897602 126.9730568  97.0767689  74.7703505 127.3116779  97.9684353
  74.5630312 126.0309315  97.1888924  82.8484440 126.9170094  90.2231979
  83.7414551 126.5729809  90.2435303  82.2953033 126.1586666  90.4107761
  95.8098221 137.1011543 104.6358204  95.5405617 136.7631817 103.7817001
  95.0423241 137.5726795 104.9596024  80.4141808 144.6461678  88.5035992
  80.6849098 144.4066334  89.3899155  79.4916821 144.3947411  88.4587669
  69.7300339 140.6714821 102.4549389  69.6718788 139.9780178 103.1121731
  69.9926043 141.4482117 102.9488850  62.3917770 132.1409988  78.8007593
  63.1067085 132.3447037  78.1977606  62.3363209 131.1854458  78.7924099
  81.1842918 131.9207573  74.1980839  81.9500923 132.4146175  73.9050341
  80.6421661 131.8320465  73.4142065  49.3419504  14.8508435  11.5431920
  49.6722031  14.9387150  10.6490747  49.1720581  13.9143353  11.6448060
  79.6307611 106.2305260  67.6205778  79.8299503 106.5126133  66.7278385
  78.6745882 106.2329674  67.6648140  78.3216572 141.5112495  71.5041256
  78.3030748 142.4673653  71.5457726  77.8182840 141.2958813  70.7189751
  30.3314757 129.0962791  67.2601509  29.5921516 129.6591473  67.0303297
  30.1345396 128.2588863  66.8403625  71.5095520 101.7885113  89.4768810
  70.9266853 101.0333443  89.5557976  71.3375759 102.1332741  88.6006451
  57.8528690 145.9269047 109.2081738  58.3929873 145.7345390 108.4416866
  57.2572422 145.1805687 109.2748642  64.8602724  21.2866383  98.5608578
  65.6890249  21.7483120  98.6883545  65.0050354  20.4232769  98.9480209
  36.3797355 128.7930298 105.3839016  35.4867291 128.7340927 105.7234573
  36.9276571 128.8768578 106.1642838  57.1340084   1.7143803  11.2289659
  57.4896669   1.6549568  12.1156541  56.2807035   2.1334343  11.3407556
  19.2481339 133.4169102 100.9635925  19.7957969 132.9427528 100.3379154
  19.1674519 134.2958832 100.5932808 105.2834034   6.1705761  65.6824247
 106.0404110   6.7488079  65.7763807 104.6868134   6.6487198  65.1065008
  99.1629314 143.3434296  93.5693836  99.0530396 142.7242947  94.2910671
  98.6467457 144.1068840  93.8280773  40.4310226 120.3097916  89.7228718
  41.3824272 120.2053642  89.7350883  40.2942657 121.2359715  89.5235920
  90.7427120 110.9934807  79.4837666  91.6474438 111.2376881  79.2886829
  90.6102943 110.1700306  79.0140676  87.4396801 120.1143742  44.2678404
  86.5307045 119.9919224  43.9939690  87.5095177 121.0505772  44.4545507
  76.4076090 128.0707169   7.1754590  75.9849977 127.2511864   7.4323503
  75.8777761 128.7529564   7.5878469  44.5125341 135.1921844  98.8155174
  44.1760683 134.3058300  98.6835957  45.4616261 135.0819874  98.8731098
  61.5053558  14.6648197  54.2060423  60.8945227  14.3438893  54.8694658
  62.3325157  14.7744732  54.6750975  40.6155443 141.6463661  93.0381203
  40.3600502 142.5657845  92.9631901  41.5725136 141.6638660  93.0495167
  80.6427479   4.6939068  67.3847342  79.7935200   4.2726117  67.2522402
  80.6166172   5.4677372  66.8219423  81.7922306 133.6445045   6.5315191
  81.4717865 134.3598652   7.0808927  82.6451015 133.4202194   6.9037286
  47.6941252 116.5139675  57.1212339  48.6351585 116.3388538  57.1171093
  47.3613501 116.0530281  56.3511467  61.0638857 143.9753246  11.5936414
  60.4600811 144.7179985  11.6031400  61.3514519 143.9120865  10.6828443
 106.4328003  35.3425579  90.6335545 106.6155910  34.8193531  89.8531151
 106.6540241  34.7665005  91.3652992  56.8050480 118.9790630  38.7973634
  57.6740170 118.9822960  38.3959714  56.7020893 118.0906582  39.1384832
  52.3862696 142.2046375  62.8952789  53.1046963 142.5313377  62.3536444
  52.3289347 142.8286171  63.6188745  68.5563135 139.4072723   5.3524057
  68.2518482 138.5870266   5.7406465  69.1696882 139.7633553   5.9952108
  47.1098185   1.6919785  97.8494167  46.6664886   0.8841877  98.1085777
  46.5035152   2.1130352  97.2400475  84.4637299 132.8729534  21.1853925
  85.0820255 133.5219765  21.5211335  83.6471462 133.3583832  21.0679857
  45.2355671  24.8322468  82.6165867  45.5249691  25.1065998  81.7464066
  45.4543829  25.5702763  83.1855011  38.2406688  94.9484539   5.5311338
  38.1102562  94.0377522   5.7954065  37.5118542  95.1326084   4.9385492
  93.4233284 112.5854778  94.3984985  93.9637184 112.8648376  95.1375294
  94.0510273 112.3939991  93.7016773  75.1098871 140.0639534 108.8901520
  74.6389103 140.2156830 109.7095394  75.6517076 139.2943192 109.0643120
  64.6306372   7.7997189   2.7434579  64.1075373   7.2205143   3.2976476
  64.8982191   7.2495251   2.0073072  63.3830070 114.3479443  65.1001596
  62.6127768 114.8189163  64.7820997  63.0321026 113.5394192  65.4735041
  59.9603128 130.8169270 103.9818192  59.4130373 130.1216125 104.3468761
  60.5891323 130.3588963 103.4241199  51.9646835 140.8082485  50.8017865
  51.9965410 140.4078293  49.9329416  52.1345234 141.7369366  50.6438772
  79.5006371 121.1896038 104.3851280  79.5658588 120.3872013 103.8673210
  78.9289951 121.7602921 103.8715267  53.4973907 120.8553314  92.9587650
  52.5640774 120.8104420  92.7510643  53.9205647 121.0419178  92.1207142
  95.0471783   0.2902394 107.9205132  95.2830315  -0.6310577 108.0292702
  95.0689983   0.6493836 108.8075161  45.8551455  28.0679493 106.9408607
  45.6824493  28.9559918 106.6281223  46.7896891  27.9355030 106.7817497
  87.8718853   5.8074551  10.2602903  87.0193863   5.4062443  10.4291192
  88.4999084   5.2232533  10.6851713  82.5292587 137.5052643  86.6683197
  83.0875492 136.7277431  86.6672802  83.1397152 138.2385540  86.5917301
  99.4731808  18.1271344  57.6842117  98.5756683  17.8344136  57.8423977
  99.6866989  17.7862912  56.8156099  60.8005810  13.0923252  32.9214326
  60.8490849  12.1931725  32.5967542  59.9275494  13.1606369  33.3079282
  47.0772171 139.8241997   3.9451352  47.4069118 139.8716164   3.0477563
  46.1246824 139.8301888   3.8509790  83.5929680 122.0105743  65.1181746
  84.0762234 121.9720745  65.9435320  82.6724911 121.9687653  65.3773975
  40.0373220  16.7030888  22.1396009  39.7871256  16.7137699  21.2157384
  40.4659891  15.8560162  22.2618715  57.4097872 138.5144520  97.5256824
  57.1308374 137.7741051  96.9868851  56.5934086 138.9028835  97.8401184
  64.0751028 122.6968765  43.4591142  64.2077303 122.5194836  44.3903390
  64.0135574 121.8305779  43.0566541  47.0159531  98.9831161 100.3462696
  47.6632023  98.6208916  99.7412109  46.1778593  98.8654900  99.8990631
  70.5305862 130.4008102   6.7361490  70.9317732 130.7712650   5.9499875
  71.2638807 130.2575397   7.3344652  54.6107244 142.1946239  96.6467381
  54.7114897 141.3151264  97.0108223  54.9330425 142.1203899  95.7485008
  34.0400529 135.3743744   1.2876645  33.2331848 134.8904800   1.4638559
  34.3274426 135.0572014   0.4314843  59.0411043 126.4784431 100.5362034
  59.7637367 126.0620785 100.0664425  59.0919352 126.1183262 101.4216232
  33.2938647 145.4537487  83.9890099  33.0572891 146.2646675  84.4392014
  33.8225222 145.7390022  83.2437611  76.9882965 120.2757359  84.3381882
  77.0402622 121.1785316  84.6520519  77.8978157 119.9785519  84.3119907
  52.9185390 116.4829636  68.1196165  52.0944881 116.0893154  68.4063292
  53.4687042 115.7378101  67.8781652  29.1379738 114.3437290 108.9394474
  29.0811086 114.5652199 108.0099678  30.0754809 114.2443085 109.1050529
  50.9889030 145.7753849  99.8260975  50.5646086 146.5295029  99.4168091
  51.3192797 145.2584743  99.0913296  58.9500570 138.4253407  88.8269997
  58.7095451 139.0010166  89.5529366  58.3611202 138.6777687  88.1158924
  90.0375462 115.1737881  10.1759092  90.2514553 115.9616089   9.6760885
  89.1911030 115.3680038  10.5784551  41.4251947 109.1190815  10.0727598
  41.9590235 109.2672729   9.2921869  41.6441822 108.2285976  10.3471700
  47.4033785 104.7456932  42.0839158  47.1263885 104.9835682  42.9687444
  47.1779585 103.8189030  42.0034067  89.9890327  12.6542073  85.5971909
  89.6090508  12.9747849  86.4151573  89.8774624  11.7043763  85.6373310
  72.3902273 112.4760151 103.5485554  72.1516323 112.7071571 102.6508522
  73.3096790 112.7309036 103.6251926  82.2628307 135.9879494  26.5446512
  82.7869415 135.3951740  26.0059873  82.8170490 136.1765480  27.3019544
  57.1114874 123.5542011   6.5078870  57.9626226 123.4874821   6.9407312
  56.4998722 123.7649727   7.2133867  75.7050896 106.5782928  91.7693233
  75.0153160 106.3051128  91.1644936  76.4069796 105.9413528  91.6355991
  70.4084349  30.5791264  45.2505437  70.6935120  29.6677761  45.3170911
  69.6911192  30.6522732  45.8800927  55.4367638   2.4173050  99.6435356
  56.1395788   2.5643711  99.0105629  54.6319199   2.5556450  99.1442108
  48.7458181   3.6921959  92.7401638  49.2683887   4.3067341  93.2554340
  49.3534660   2.9856091  92.5216961  57.4140549 126.6686058  12.3912374
  56.7745781 125.9749889  12.5530950  56.8897343 127.4145317  12.0998517
  74.9411106 134.0814114  60.4311991  74.5933151 134.9297428  60.1562262
  75.7499886 133.9801693  59.9294996  68.3651209  37.2582226  97.3820686
  69.2170382  37.6368504  97.5991249  68.5733366  36.4839344  96.8592262
 105.3634834   3.1948262  19.2657033 105.1904011   4.0266018  19.7066442
 105.1694965   2.5290566  19.9255124  55.7643032  21.4107685  81.7868328
  55.8930349  21.2594395  80.8504772  55.0306606  22.0239430  81.8317127
  66.6407824  29.8432904  18.6402932  67.2332859  29.2468243  19.0979139
  66.1221790  30.2465992  19.3364374  72.8230715 130.2363300   8.2405988
  73.1511688 131.0917091   7.9632798  72.8920221 130.2513409   9.1951886
  61.8937492 134.5778179  93.6034489  62.5695324 134.2737198  92.9975796
  62.3803806 134.9113178  94.3572330  77.8404093 139.2739773  90.9966564
  77.5992537 138.4365654  91.3926506  77.9160976 139.8760319  91.7369556
  54.8933077  15.8608036   5.6523553  54.3846083  15.4127484   4.9765626
  55.0481987  16.7352848   5.2952329 100.4810905  18.9739399  70.3924227
  99.5274544  18.9540081  70.3123236 100.6731796  18.3775883  71.1160994
  94.9382401 115.2688313  74.0871286  94.1109943 115.6439209  73.7851334
  95.1269245 114.5697212  73.4611225 114.2688084 141.1651039  66.5016890
 113.6694717 140.4675388  66.7670774 115.1413250 140.7932472  66.6307974
  65.0601768   9.5929222   0.5725995  65.1046991   8.8598519  -0.0412806
  65.1718760   9.1909962   1.4341203  82.5995731 134.3870449   3.7652246
  82.9359531 135.1748943   3.3381788  82.4260998 134.6586609   4.6665326
  40.2938509 113.3809185  12.4488298  40.9570789 112.7147675  12.2682802
  40.4589891 113.6440945  13.3542005  31.0510707  18.8290577 104.9334431
  30.6518078  18.3915882 105.6853962  30.4715419  18.6219006 104.2003250
  92.5922394   6.8774872 102.6801395  91.6591930   6.9522457 102.4799633
  92.6716709   6.0439282 103.1439209 115.0256252 106.9612503  92.0464325
 115.9713078 107.0215607  91.9112682 114.7686100 107.8369427  92.3351288
  41.5727472 104.1145039  16.0963575  40.7357311 104.5761013  16.0457269
  41.9877815 104.2775154  15.2493612  86.7599487 137.7673149  81.1965466
  86.8948364 136.8383217  81.0094643  87.3910141 138.2186222  80.6359196
  62.7825308 134.8813915  84.9486637  62.0247841 134.8386574  84.3653774
  62.9220295 133.9761829  85.2268124  56.8776846  16.8050557   0.8276216
  57.5298405  17.0564823   1.4816133  56.0759449  16.6634350   1.3310090
  65.2248859 135.3782940  43.6233083  65.0367260 135.7719421  44.4752923
  65.3813457 136.1241627  43.0441514  56.6432142  15.1326351  81.8667698
  55.6972980  15.1362782  82.0132446  56.9617271  14.3880444  82.3770332
 100.6604576  11.8333130 100.2256966 101.5351009  11.7658120 100.6086922
 100.0801563  11.4534932 100.8854008  71.4813519  87.8702450 103.8683319
  71.4128208  88.0738354 102.9355526  71.2741661  86.9375038 103.9257622
  87.3937035 119.2404842  57.9167461  87.4411011 120.0007439  58.4963894
  87.4262714 118.4872532  58.5065079  78.3859348 143.3499527   3.3575002
  77.7434349 143.4329510   2.6528493  78.0554008 142.6338482   3.8998834
  72.3428631 132.5411415  94.9380589  71.6128397 132.3989964  94.3354893
  72.4063396 131.7249966  95.4341507  63.5342360 117.9827785  99.3692589
  64.2321539 117.6311779  98.8165188  63.4395456 118.8921833  99.0859890
  68.7078190  28.2776432  63.4937572  67.9641438  28.1975918  62.8964520
  69.4665051  28.3802967  62.9192209  47.2778606 136.9385147   3.6519376
  47.1185780 137.8790474   3.7310354  47.9630518 136.8666840   2.9874173
  70.9501457 130.4584122  97.1796227  70.3723669 129.6972847  97.1240807
  71.4771843 130.3023529  97.9632759  66.3911629  25.6517582  12.8925554
  66.3021660  25.6440335  11.9395391  65.4911518  25.6834584  13.2169095
 100.1091003 118.7955666  92.3703194 100.8615971 118.5215378  91.8460083
  99.4050694 118.9175606  91.7333889  57.2415924 111.3624763  23.6386529
  56.4131021 111.3918495  23.1601468  57.8134060 111.9664097  23.1648103
  75.0817871 118.8736534 107.9610729  75.7907581 118.3836269 108.3775616
  75.4831743 119.2611599 107.1832752  41.9279385 129.5653248  15.2786390
  42.5666714 128.8532829  15.2434007  42.4286652 130.3213024  15.5852357
  38.8752747 136.4160728  71.5286779  39.2430973 136.0503483  70.7242012
  37.9960370 136.7025089  71.2814379 104.1917229  83.0586720   1.5129701
 103.4220695  82.6920891   1.0776655 104.5726204  83.6525345   0.8660737
  67.8143454 119.9453735  54.7971487  68.4926987 120.5682755  54.5362568
  67.0217991 120.4755402  54.8809719  44.0187597 133.0011082  66.4518023
  43.7658167 133.9133549  66.5933895  43.4726858 132.5038719  67.0607281
  36.0770917 139.1082859  76.3653326  36.4717817 138.2446289  76.4859772
  36.5439034 139.4827080  75.6182575  69.2270374  19.7413617   0.1005975
  68.5677052  20.4322605   0.0359670  69.7571182  19.9863606   0.8590356
  73.3611870 136.7384148 104.5079708  74.0532732 136.8202686 105.1641273
  73.6429167 136.0119152 103.9520359  84.2261696   3.0073243  22.1633855
  85.1037979   3.3829193  22.0932714  83.9840889   3.1338196  23.0807916
  74.7164869   3.8287144  74.0776443  73.9294100   4.1380196  73.6292315
  75.3508997   4.5363312  73.9634562  76.2287188 137.7982330   0.3228895
  75.6848335 137.6456451   1.0956327  77.0670652 137.3879719   0.5352537
  64.8085499 107.7513313  45.8110237  64.0623903 107.2012138  45.5726147
  64.4506264 108.3833885  46.4344311  81.4253521  46.4029293  63.6318684
  80.7386017  47.0277386  63.3990049  81.3932991  46.3569050  64.5874214
  86.0457325 131.7945480  92.6797485  85.5703640 132.1617508  93.4250164
  86.1927891 130.8789635  92.9170513  60.7918835 114.4971657  94.6047306
  60.6850624 113.9128876  95.3553486  60.3568935 114.0424442  93.8834476
  79.1086864 127.1384811  25.5964795  78.5193110 127.7383423  26.0536710
  78.6065149 126.8411827  24.8377458  52.6599741   3.5225945 102.6415539
  51.8040991   3.1833058 102.9034710  53.1455994   3.6067276 103.4621143
  60.8586311 116.3970184  19.0416089  61.6494417 115.9367752  18.7604944
  61.1680174 117.2615051  19.3121187  74.5868778 116.3316631  94.2123985
  73.6991119 116.5551186  94.4919872  74.5393229 115.4035091  93.9832401
  27.5335145 127.1724510  15.8461133  28.0543399 127.1872902  16.6490785
  27.7290654 128.0061245  15.4183427  60.8383608 126.4673233   4.9154702
  61.1585855 126.9604015   5.6708280  60.2222300 127.0606518   4.4858495
  77.4570847 120.1345921  12.0946542  76.5006590 120.1636600  12.1197645
  77.6769495 119.2443848  12.3692838  59.0785074   7.9324131  10.8791200
  59.6991730   7.5146561  11.4761773  58.5300159   7.2144776  10.5629674
  71.6568708 126.3096333  91.4516640  70.9422779 125.8152580  91.0501957
  71.8374395 125.8475780  92.2702885  43.3541441 137.8211117   2.1507493
  43.3885050 138.5268497   1.5050069  42.7175140 138.1209469   2.7996103
  56.8370581 131.7278671 107.3135757  57.0948410 132.5353432 106.8688774
  56.9769430 131.0405636 106.6622162 109.6145439   6.4893513   2.8992692
 109.5275211   5.6198483   2.5086061 109.7162819   6.3218766   3.8361970
  54.9113321  55.8927708  81.9276237  55.1963949  55.9670430  82.8383732
  53.9553070  55.8966809  81.9748116  65.4407692 114.2623806  75.5223465
  65.2035475 113.7886524  76.3195515  65.2002239 113.6691666  74.8106766
  68.6718941 135.9330940  85.1578331  67.8205919 135.8557987  85.5885792
  68.4612513 136.0845661  84.2364693  99.8938942   0.0852852  55.6511593
  99.4449043   0.9294682  55.6958294  99.1900158  -0.5624790  55.6856680
  53.3764076   3.3571701 105.3396511  54.1260147   3.1281834 105.8890915
  52.6504469   3.4588223 105.9551811 110.8728790 124.3588734  87.3799992
 110.4305172 124.1578674  86.5552902 111.7429161 123.9710712  87.2858334
  65.5450916  13.9278393  87.9329586  65.2466154  14.8370533  87.9550552
  65.7894802  13.7339192  88.8378906  59.4181919 131.7685890  78.0512381
  59.5343828 130.8234978  78.1488705  60.2884436 132.1344948  78.2093906
  75.5422354 122.6046371  14.3777219  74.9046612 123.0879879  14.9031774
  75.6562662 123.1367779  13.5902826  94.8163700   8.8734227   7.5786439
  94.2592907   8.4458237   6.9282190  94.9552536   8.2062321   8.2508031
  33.2552958 139.2876530  85.8656883  33.1353998 140.1425552  85.4521561
  33.3186626 139.4808197  86.8010521  77.7625704 118.4130573   7.0219556
  78.1725550 119.2589378   7.2025911  77.0657969 118.6132145   6.3969175
  81.1997986   7.4271469  97.4705505  81.2852287   7.5034123  98.4208775
  81.5320015   6.5522175  97.2696495  54.4592810 142.3858261  77.6081085
  54.4357061 141.4800930  77.9168606  54.0766621 142.3500538  76.7314339
 106.4795208 133.7513351  24.9013654 106.7917442 134.5707607  24.5175783
 106.6975212 133.0838299  24.2508737  86.6751480 115.9683895   3.8127176
  86.1759377 115.3241730   4.3147126  87.5504684 115.5881882   3.7385598
  92.6465321 137.9794025  86.2572289  92.9285336 138.3178425  87.1070385
  92.6149464 138.7504196  85.6908703  90.3143120   5.6602745  73.3039904
  89.8132515   6.2553292  73.8617516  90.9794235   5.2906971  73.8847351
  61.4257145 134.4808292  90.2223873  61.0369396 134.7436714  91.0566521
  62.1242428 133.8728809  90.4646492 102.2705078 103.6425972  95.7575512
 101.4070129 103.3633327  95.4532051 102.1446133 104.5498466  96.0355568
  40.2908945   4.1982060  83.4363651  40.4082632   4.2583638  82.4882889
  40.0369596   3.2880192  83.5890007  94.5576763 140.8800602  11.8796197
  95.2579308 140.2318859  11.8039171  94.5020962 141.2753201  11.0096113
  43.2501125  14.4013005  79.4927692  42.4630690  14.5389920  80.0198746
  43.7713003  15.1924687  79.6293688  87.8028297 138.9267063 107.2282982
  87.1860981 138.9084435 106.4964867  87.8784943 139.8536777 107.4546623
  58.7372255 132.0311642   8.5588399  58.8918352 132.9048443   8.1996671
  58.5564661 131.4859581   7.7931253  71.3220930 136.3877201 106.3632011
  71.1320639 137.2699928 106.6821384  71.8556261 136.5257072 105.5805588
  55.9879684  35.6452542 107.2477627  56.1179543  35.7723408 108.1875420
  56.8718195  35.6539135 106.8803978  84.7493267 141.2937260  48.3010149
  84.2864037 141.2904549  49.1388273  84.6437740 140.4034615  47.9655790
  75.6486320 111.8764973 107.3443031  75.0145435 111.3037586 107.7757454
  75.4165220 111.8349266 106.4166069  62.2642326 136.5132618 108.4103489
  62.4616241 135.7584763 107.8557587  61.3754463 136.3519192 108.7269878
  61.7507172  80.7579231  96.2576008  62.3101473  80.0803089  95.8779716
  61.0174608  80.8330250  95.6469250  44.3771410 116.5453339   1.8608323
  44.8540115 116.6244125   1.0346547  44.2889404 117.4456787   2.1735994
  76.3621187 136.7567444  14.1827146  76.3511372 137.3044586  14.9676458
  75.4947853 136.8755341  13.7956086  76.7869568 114.7299767  69.1142368
  77.0613384 115.6161785  68.8784838  76.9313908 114.2153168  68.3201981
  66.1619902 130.0465870  94.2432976  66.9620037 130.4066086  94.6261787
  65.5126810 130.7421780  94.3471622  59.5071363 121.6340828  86.8530083
  58.7206984 122.0820236  86.5414047  59.2268229 121.1848259  87.6503944
  73.1238031 116.7351532 104.6689796  72.7793694 117.5946808 104.9114799
  72.4985456 116.3990211 104.0268803  64.3463659 126.6158772  99.7852612
  63.6687899 127.2594929  99.5782089  64.2695045 125.9568119  99.0953541
  46.5146685   3.4766465  18.5346071  46.5220881   2.5976544  18.1557218
  45.7461214   3.8971978  18.1489888  71.3278437  69.1144734   1.6224996
  72.1793413  68.8082676   1.3103811  71.0255194  68.4227162   2.2109548
  50.5240154 119.9578381  11.0915700  50.7424164 120.6633949  10.4827157
  50.4553175 120.3891754  11.9433156  87.8456783 125.6622601  66.3794374
  87.3358822 125.6132793  65.5707741  88.4367847 126.4031124  66.2454271
  86.3692379 145.0798702   3.5680143  86.4155674 144.2839432   4.0977041
  85.4763508 145.4005337   3.6951200  87.3609352 130.5490494   4.8524419
  87.8314781 130.2473927   5.6295053  88.0383015 130.9350204   4.2970792
  44.8866701 136.9898605  32.3415319  44.6989965 136.1925220  31.8462888
  44.2525721 137.6287842  32.0160714  45.4862165 122.5792408  26.5453664
  44.9068594 123.0016613  27.1795121  46.2791586 123.1153774  26.5511361
  94.4557667 136.4108276  11.3450662  94.3842888 136.5886688  12.2828809
  95.0739765 135.6824398  11.2858430  90.9018707 119.3728924  82.5151443
  91.0893440 119.6082592  83.4238243  91.4149189 119.9925804  81.9964886
  44.2120600   1.5627938 105.5577946  44.6635342   2.3454647 105.2418327
  44.6519995   1.3481598 106.3803577  87.0254326  30.9266453  92.7441597
  86.1245155  30.6681233  92.5498867  87.0612621  31.8566494  92.5205135
  59.9222279 124.5112896  21.9723169  60.2133751 123.6038494  21.8827668
  59.6893692 124.7770119  21.0827104 108.4800434   8.8273506  64.2601633
 109.4261169   8.6935788  64.3175411 108.1106281   8.1912117  64.8726177
  57.7055693   6.0428696   9.6129361  58.0590439   5.1848202   9.3783418
  56.9085264   6.1248951   9.0892640  61.0152674   3.8406449  77.3774195
  60.9935045   3.0245571  76.8776655  60.9590530   4.5289498  76.7146158
  53.0576897 143.0263233  75.2399683  53.3548594 143.7886906  74.7432613
  53.1800652 142.2885990  74.6424580  28.7157607  12.1184616  90.8972454
  28.4026051  11.4776879  91.5356541  29.0519810  12.8406601  91.4279175
  45.8530045 127.6667595  76.1220217  46.1187077 126.7918205  75.8389759
  46.6758537 128.1436539  76.2302828  32.9833221 105.0001144  29.1855851
  32.9995918 105.4803848  30.0134221  32.9487181 104.0790176  29.4436971
  60.0580406 124.8746490  94.3094254  59.3629360 124.6480942  93.6915779
  59.9705696 125.8198929  94.4322872  91.1726379 115.0252819  73.9811850
  91.4671135 115.8877850  73.6886168  90.6180000 115.2062511  74.7400379
  77.8128910  94.3829918  91.2001896  78.5179520  94.2753696  91.8385696
  78.0115414  93.7456417  90.5142117  41.1267281 134.2253113   7.0443193
  40.4846287 133.5534382   6.8151323  40.7600498 134.6529770   7.8181878
  84.2314339 128.0983162   0.8876363  85.0860882 128.1497574   0.4596750
  83.8664627 127.2635174   0.5941526  73.2874680 145.2328205  46.4555359
  72.4756145 145.3668213  46.9445944  73.2076740 144.3491364  46.0964203
  48.6144733   0.2828484  79.3889904  49.5141029   0.0772744  79.6432161
  48.4465599  -0.2755088  78.6298609  76.4164257  13.2332115  75.7927418
  77.2587729  12.9218083  76.1239624  76.6075182  13.5457402  74.9084091
  68.7913227 130.6512165  74.9165440  69.6692181 130.2771759  74.8415613
  68.5098934 130.7850552  74.0114975  80.7515526 128.7046719  47.1386671
  81.4655781 128.3992863  47.6982546  80.8828259 129.6508694  47.0778370
  45.0726128  18.5030918  79.4391775  45.9961939  18.2718449  79.3404388
  45.0523043  19.4550686  79.3415117  48.1038284  25.9448033  85.7271194
  47.6917601  25.1560192  86.0795975  48.8472462  25.6200581  85.2190781
  99.9188519 141.5217781  99.4290924 100.5456161 140.8205986  99.6072483
 100.1996899 141.8865395  98.5898590  56.5750504 137.8687859  81.9357967
  57.1917820 137.9970074  82.6565170  56.7730951 138.5763836  81.3223362
  20.4574919  14.7519665  99.9368763  20.7143068  14.8954754 100.8477402
  21.2474918  14.4130307  99.5158482  23.5299873  98.4302902  69.4747782
  24.4067502  98.5119820  69.0994883  23.5568357  98.9688587  70.2656317
  77.8212643 120.1779652  96.6020966  78.4803915 119.5425320  96.3228035
  78.1250334 120.4771900  97.4590778  72.6681566  29.8661404  55.2545977
  72.8738213  29.8283558  54.3205166  73.5205030  29.8340206  55.6890011
 106.1687469 140.9300137  81.6964245 105.3552151 140.4917431  81.9460678
 106.3018990 140.6844521  80.7808971  38.8226676 123.4765720  64.5357513
  38.9947963 122.5402832  64.4359255  38.7475777 123.6068344  65.4810667
  67.9559231 137.4960041  52.2155190  68.0809212 136.5564728  52.0817661
  67.7280807 137.5778770  53.1415939  11.1242323 124.8656750 109.6127892
  11.0592013 124.3492985 108.8094521  10.5680781 125.6281757 109.4530678
  58.8411522 105.4674435  81.5890884  59.2982388 105.3213406  80.7608604
  59.4053078 106.0725975  82.0704937  59.7803831  38.0196553  71.2427378
  60.6442642  37.6597958  71.4438486  59.3543816  37.3412686  70.7187796
  57.7348232 105.1855373  44.9223948  58.0330706 104.5348167  44.2869139
  58.5296345 105.4494858  45.3859138  66.8617964 138.6554813  62.7672482
  67.4467421 138.5278130  63.5140896  66.9082689 137.8311348  62.2829580
  45.1394081  99.0482616   3.0921880  45.1561260  98.5660362   3.9188711
  44.2696381  98.8756084   2.7317373  90.3081799  32.2367459  83.5400581
  89.5112801  32.7023869  83.2863903  90.2949715  31.4360981  83.0156326
  68.0481577 143.2226658  81.8164635  68.7414932 142.8810883  81.2518024
  67.4107409 142.5106239  81.8705368  75.0911713 139.1067410  93.0718040
  75.5341578 138.8868332  93.8913345  74.7789383 140.0022888  93.2011318
  64.4840431  34.8921376  89.8090649  65.1001072  34.1595822  89.8021507
  64.9068022  35.5554753  90.3544807  63.5477686  84.6945477  58.3974314
  64.3776846  85.1710701  58.3774137  63.2785940  84.7208118  59.3156290
  52.5266314   0.5318051  91.9854832  52.0012522   1.1751538  91.5097713
  51.9151258   0.1345997  92.6055813  66.7267036  17.5561505  49.7563839
  67.3137760  17.9596310  49.1170263  66.9521523  16.6261273  49.7350645
  62.2765493 125.0424957  74.5659924  62.5214195 124.1816139  74.2266321
  62.9874706 125.2756691  75.1630259 101.3964844 138.7498856  71.3899755
 101.5465355 139.1071892  70.5147362 102.0530987 139.1780663  71.9392872
  45.8251095 116.3644218  77.6031494  44.9233055 116.5528297  77.3433638
  46.2309170 116.0032654  76.8150425  74.7341824 125.7550144  60.8715773
  75.1516676 126.2956715  61.5421152  74.4117785 124.9896622  61.3475227
  43.6142778   3.3265953  63.0033779  43.7384748   3.7520962  62.1549940
  43.3503675   4.0351467  63.5903502  78.4843493 145.0113773  97.5568485
  79.0851498 144.4205284  98.0109024  78.8933802 145.8734608  97.6325130
  77.8413391 139.6639824  81.7678070  77.4104977 139.6926403  82.6220798
  77.5362635 140.4525566  81.3191319  76.5057182  20.4603176  75.6026649
  76.0483027  19.8321324  76.1615801  76.8311548  19.9367695  74.8703861
  92.5804520 114.8490524  86.8697548  92.1305561 114.6791649  86.0421371
  92.7215385 113.9812469  87.2482109  61.1429405   3.3732395   4.5745698
  60.9099245   4.1886788   5.0184099  62.0805883   3.4549027   4.4002572
  55.1831484 137.2531319  67.6887751  56.0528278 137.2128487  67.2909403
  55.1875544 136.5565109  68.3452272  26.6263986   0.3545075  87.0668983
  26.7940164   0.0453739  87.9571629  25.6872511   0.5387669  87.0501804
  34.8492527  27.7349072  56.5622663  35.7495999  27.4492245  56.7171431
  34.5733094  27.2471028  55.7862949  41.2177515 129.8898411  54.4060373
  41.6153955 129.1225529  53.9944839  41.1704445 130.5400467  53.7051630
  77.0666456 120.2974796  81.5955639  77.0082664 120.5214787  82.5243473
  76.1988544 120.4991245  81.2455463  94.6449947 109.6528912  64.6675014
  94.8562527 110.5525017  64.4178963  93.7265491 109.5451450  64.4203520
  64.1099072 114.2389774  58.8100243  63.8351440 113.8534832  57.9780817
  63.3850908 114.8123169  59.0593147  48.7116623   6.0569077  78.2456827
  49.6458960   5.9043579  78.3876991  48.3585405   6.2126427  79.1216278
  89.7905731  10.2961521 105.2464199  90.5739498  10.5860119 105.7139015
  90.1110077  10.0282460 104.3851566  97.7223682 100.1447678 101.4329147
  97.3588943  99.2666912 101.5473366  96.9722939 100.7300568 101.5380478
  50.1464701 135.7770920  81.2590790  50.1015282 136.7293644  81.1730671
  51.0479307 135.5576229  81.0236359  62.7479219 130.7120228  66.1736107
  63.3982706 131.2405491  66.6361475  62.2331333 131.3472557  65.6759119
  54.3244457   5.3226643  79.6671057  55.1198816   5.7973271  79.4258213
  54.4884682   5.0185566  80.5597687  75.6285286 144.4134521  82.5284576
  74.7831821 144.8194885  82.3367310  75.6616306 144.3689728  83.4840488
  47.0106936 120.1857758  61.3834810  46.8829012 120.6829166  60.5755520
  46.1435175 120.1588535  61.7878485  51.9086742 109.4966412  86.3142014
  52.7853489 109.1567135  86.1349487  52.0510483 110.2104759  86.9358063
  54.9856949 117.5621891 101.6530323  54.4822502 117.2287560 102.3957253
  55.5463552 118.2407951 102.0290661  62.3146200 133.5055065  73.9229965
  61.7054987 134.2100716  73.7021112  61.8710518 132.7069664  73.6369610
  50.7101631 143.8970566 107.5528145  50.1498795 144.4399261 106.9981956
  50.1444483 143.6316681 108.2779121  58.5170078 106.4208603  57.0624638
  58.1349564 105.7374763  56.5117741  58.0640507 106.3337040  57.9011869
  51.8799591 104.7289467  47.4225426  51.0542488 105.0951958  47.1058464
  51.8674946 103.8187981  47.1263981  98.7728119 117.9772186   4.8312513
  98.1127357 118.0617714   5.5192796  99.5423889 117.6263905   5.2794687
  20.7200146 146.1655045  14.5575277  19.8063731 146.4430332  14.4906846
  20.9768486 145.9680176  13.6568204  67.8787279 124.6940231  88.5862064
  67.6252222 124.9388218  89.4761753  68.7395763 125.0942326  88.4637260
  78.3697653 123.1225204  71.1506319  78.1528091 122.6087284  71.9285631
  79.1166115 123.6581993  71.4180136  54.5078802 131.0717201  35.8718538
  53.9339781 130.4296207  35.4540253  54.0333605 131.3411331  36.6582870
  61.1954927 128.4073353  86.7742443  61.7385864 128.3246994  87.5581169
  60.4108143 128.8664246  87.0738220  60.7764626 126.9904518  73.1515169
  61.2573004 126.2918377  73.5953188  60.6958771 126.6884232  72.2467995
  70.0661707 134.2835999 102.7194118  69.2026234 133.9055920 102.5531960
  70.3629971 134.5889378 101.8621445  77.1266317 136.8486691  11.5168802
  76.5035057 136.5282822  10.8647291  76.7338419 136.6157913  12.3581353
  21.4946938  82.4541855   6.6174070  21.7629337  81.6825008   6.1186162
  21.0226512  82.9959393   5.9850160  40.2005148   7.1866112  73.2785368
  41.0553885   7.2186737  73.7079477  40.3587723   6.7070656  72.4653816
  84.4582367 105.8999443  79.7050476  85.0792980 106.1835766  80.3759098
  83.9521313 105.2048683  80.1257133  51.6733646   3.0140763  44.0609550
  50.8590603   3.0252438  43.5579491  52.1884680   2.3098927  43.6672211
  60.4964256 144.0292835   8.4102002  60.4783440 144.9144745   8.7739984
  61.3012648 143.9993095   7.8929368  52.2457886 132.4293613  81.0529804
  52.4140263 131.9997692  81.8916512  52.4865055 133.3440781  81.1998749
  58.8276100   4.2879563 105.2185059  58.0197430   3.8818436 104.9044132
  58.8236332   5.1620655 104.8284435  60.7743645 127.2097397   1.1059228
  61.4344311 126.7542648   1.6284982  60.4207039 126.5352821   0.5260507
  41.9801617 141.1710262  59.6310139  42.8857708 141.4785004  59.5913696
  41.9498539 140.4357338  59.0189266  22.6562762   1.6574364   9.6190873
  22.6315904   0.8306961   9.1373102  22.7081370   1.3972454  10.5387918
  58.9659929  17.3337727   7.3546830  58.9115763  18.0015736   8.0382959
  58.2991076  17.5887661   6.7171327  50.5313253  30.7438832  77.7102041
  50.6084108  31.4976101  77.1252298  49.7777128  30.9468823  78.2643652
  49.5694065   7.1484452 102.9892921  49.4238615   6.3036614 102.5633907
  49.5172548   7.7872448 102.2783470  56.1055088 106.1378288  35.0620556
  55.4214239 105.4873371  34.9035239  55.7236385 106.9640541  34.7658205
  77.9525995  16.4625721  46.5742207  78.8026190  16.8731289  46.7328072
  77.7577782  16.6612797  45.6583643  52.1055937   2.6471310  60.9032106
  52.2446394   1.8210774  61.3663721  52.4504185   2.4898796  60.0242329
  43.8701391 142.2449684  55.6376791  43.4760332 141.3731670  55.6674051
  44.7976971 142.0827579  55.4657602  60.5466318 140.2079773  86.0494232
  61.1089039 139.7716331  85.4093552  59.7094440 140.3164482  85.5982304
  46.7990828 143.1827545  88.3502674  45.8579016 143.0370808  88.2544327
  46.9428301 144.0605068  87.9965305  59.1765308  14.0229016   1.7114774
  59.2774773  13.1634980   2.1206895  58.2483006  14.2311459   1.8175355
  61.9763613 131.3122654  26.5259210  61.4194250 132.0839405  26.6287271
  62.6457596 131.5820599  25.8971540  61.8022728  24.0626126  44.9173832
  61.8367100  23.5867863  44.0875435  62.1543503  23.4476452  45.5608845
 102.9421425 121.8940735  72.0230436 103.8228321 122.0493603  72.3643875
 102.9098129 122.3939896  71.2073994  41.0031414 112.9010677  62.4582815
  41.2257481 112.0077038  62.1963930  41.7092896 113.4387398  62.0998144
  75.6361914  97.1737099 104.3824768  75.3090525  98.0706215 104.4513893
  75.9665060  97.1074104 103.4865284  74.2152691 137.4867630  85.7857418
  73.8526726 137.6628590  86.6539288  74.9591303 136.9071484  85.9499073
  94.9981785  33.7518864  94.9628448  94.8335743  34.6157055  94.5847702
  95.9006405  33.7967282  95.2787495  55.2346802 134.5896721  95.5212593
  54.3361521 134.5051670  95.2022934  55.1440144 134.6897793  96.4688873
  65.0269794  21.3643627  67.5519180  65.6732559  22.0597439  67.4294186
  64.7342062  21.4663105  68.4575224  54.0277672 140.3483868  82.6345730
  54.0600252 139.5425034  82.1190739  53.2976723 140.8423233  82.2614479
  74.9014282 136.2756729  64.3484449  75.5463982 136.7651749  63.8379288
  74.7332382 135.4885769  63.8303471  55.5690289 126.2296772  64.9604893
  54.7675085 126.5226650  64.5269489  55.7455540 126.9027424  65.6177998
  66.6057730 139.3916512  68.1709385  66.0536098 139.1689110  68.9204264
  67.4888802 139.1395187  68.4407234  49.8418331 119.5744038  21.7333928
  49.6806765 119.8552418  22.6341668  50.3376770 118.7603855  21.8213884
  68.2048225  21.5206509  43.4276915  68.7044287  20.7142811  43.2996178
  68.8702726  22.1986370  43.5449076  66.5227413   2.8692894  64.2148161
  65.6628036   2.6819401  63.8384628  67.0592499   2.1140271  63.9740658
  32.2034693 133.1548691  85.3961277  32.7725315 133.5228825  84.7201347
  31.4005828 133.6731625  85.3415489  49.1858339 127.3991776  73.3901548
  49.4766188 126.6486073  72.8721523  49.6412754 128.1474209  73.0042267
 101.2051773   4.6988278  62.4579477 102.1208763   4.5227223  62.2418308
 100.7243347   3.9612465  62.0824480 118.4492493  11.4771347  76.5806246
 118.3348846  12.0981198  75.8612347 118.7221432  12.0173149  77.3222208
  41.7783403  13.6226826  71.5962505  42.4286890  14.3241864  71.5618420
  41.0005283  13.9966565  71.1822748  67.5199270 127.1167755  84.4884586
  66.9584703 126.4621449  84.0731716  68.3946276 126.9346714  84.1449928
  83.3796120   8.2877331  45.2504015  83.8239384   8.5054856  46.0697889
  82.4478340   8.3660488  45.4550600  96.6648006 142.4654770   4.3883935
  96.6830349 141.7830563   3.7174169  96.7154312 143.2855797   3.8973657
  30.3298545  27.5198918  57.1729326  30.2043891  26.6543560  57.5619507
  30.5203891  28.0914479  57.9167366  37.7642608  18.5457783  81.3467979
  36.9531703  18.9259892  81.6841507  38.3108306  19.3010884  81.1300373
 102.6566982 143.6031818  56.9228649 103.5227394 143.2569218  57.1380377
 102.7975464 144.5421505  56.8014908  47.0800066 144.6146679 108.5191059
  46.8766499 143.7182045 108.7860012  46.2308836 145.0558472 108.4949875
  85.6365490 138.3978748 105.0598812  85.3241444 137.7258492 104.4540596
  85.6288338 139.2055893 104.5462990  50.6158304 144.4265747  87.0618725
  50.3602791 144.2917442  87.9744244  50.1899719 145.2467728  86.8125725
  45.5359888 146.2084484  85.2878666  45.6957865 146.9413090  84.6932030
  44.7253084 145.8127022  84.9678421  25.7644486 102.5150490  52.3317671
  26.7132998 102.6156807  52.2557116  25.5999589 101.6039753  52.0886278
  27.7462983 115.5855083  90.0006199  28.5053539 115.3837395  90.5477619
  27.5004435 116.4760399  90.2510929  61.1589479   1.5366154  76.0164642
  60.7727194   0.8292561  75.5000257  62.0984077   1.3533287  76.0088396
  90.2652645 144.3297005  89.0624809  90.2674580 144.1420174  90.0010967
  90.7203102 143.5855007  88.6683559  93.1677151 137.9922104 104.0625572
  92.5329590 138.5937977 103.6734486  93.0605412 138.1086349 105.0065899
  30.1340151 126.4652252  55.6235647  29.4627213 126.3558102  56.2970829
  30.4635453 127.3541069  55.7560253  87.7163696  15.9955960   7.5318662
  88.0124187  15.1725941   7.9207937  87.7859211  16.6344242   8.2412950
 100.8011150 142.2783375 102.0069122 100.3773689 142.2135544 101.1510658
 100.4326344 143.0708599 102.3972416  77.4406242 109.9729633  75.2515841
  77.7213097 110.5039310  74.5062542  76.5960264 109.6111107  74.9833393
  86.3576508   2.9070645  61.6854239  85.8931446   2.0893269  61.5072012
  86.8136787   3.1065827  60.8678293  82.3874664 138.4009171  61.6559362
  82.2474575 137.5002384  61.3636780  83.3387661 138.4877586  61.7170334
  23.0682802   7.3332291 105.6118393  23.6691070   6.9927388 104.9490356
  22.6388884   6.5554409 105.9680653  77.5182724 129.2132664 108.7820339
  77.6776981 129.3102360 107.8431988  76.6682005 128.7766743 108.8367844
  39.9296570 141.0362911  61.5479517  40.5981255 141.1404133  60.8707952
  40.1690578 141.6735840  62.2208357  85.9184170  15.5639630  92.2189808
  86.0097313  16.5010434  92.0464039  85.0606441  15.4795819  92.6353168
  61.0723305   6.4055996  26.6274968  60.7470179   6.9020729  27.3784391
  61.9999981   6.2650471  26.8169919  60.9970760 131.0789490  73.7795210
  61.5086412 130.3658390  74.1616201  60.5765104 130.6883049  73.0135202
  74.6782017 128.9616680  76.5861177  74.0330362 129.6560860  76.4528179
  74.7304201 128.8625145  77.5367355  81.5187740 134.6224594  96.2067699
  81.2500381 134.6899319  95.2905464  81.8847466 135.4825687  96.4129829
  63.7768507 124.4525623  49.5513296  63.6715746 123.8597679  50.2954674
  64.3710566 125.1324749  49.8689365  38.5921764 132.4091816   3.4118406
  37.8228736 132.5271511   2.8546277  39.3360114 132.5160027   2.8189412
  61.0610771 143.7613010  72.5609493  60.1103258 143.7043476  72.4657536
  61.2156010 143.6409950  73.4979010  30.6388998 143.4288216  96.9297314
  30.2875781 144.2007351  97.3735237  30.8390737 143.7320518  96.0441685
  42.1535254 107.1235275  12.5173608  41.3498354 107.1718884  11.9996969
  42.6903391 106.4721394  12.0659581  53.0999279   8.6764794  68.6148977
  54.0325737   8.7388115  68.4086895  52.9835510   7.7799301  68.9293575
  77.2879648 128.0808163  87.4116325  76.7422056 127.9260826  88.1826305
  76.8990183 128.8487816  86.9930840  77.1125698   1.0469036  72.3717546
  76.5892458   1.8356209  72.2293568  77.7656269   1.3068467  73.0215073
  29.0484047 140.7467079  57.3110247  28.1203938 140.7868481  57.5421524
  29.3944263 141.6038704  57.5595665  41.9519711 110.8974552  52.0825911
  41.5216494 110.1770306  51.6221142  41.5526438 110.8981800  52.9525137
  80.2485180 124.8747253  76.3961506  80.6839085 125.7019329  76.6020584
  79.3484211 125.1236153  76.1860991  64.9630404  25.7243519  69.9089956
  64.2950010  26.2362080  69.4529819  64.4714642  25.1924115  70.5348063
  83.9456367 116.3982105  66.8509007  84.5892429 116.6185379  66.1775064
  84.0861034 117.0490742  67.5385666  59.1711521 116.4833546  70.3032303
  59.0065050 116.9707966  71.1104012  59.9908352 116.0172653  70.4678583
  98.7689972   2.0647126  49.4622850  97.9128075   1.6415768  49.5266485
  98.5813332   2.9993706  49.5484638  71.1401749 138.2668972   0.4552690
  70.7934904 138.5396194   1.3047830  70.4898214 138.5712051  -0.1777133
  34.6521831 133.1926346  69.1057634  34.7803783 132.2533035  68.9735937
  35.1122737 133.6025524  68.3732939  66.5744305 128.0619049  90.1318455
  67.3710155 128.5894585  90.1899529  66.8883133 127.1591473  90.0795650
  20.9388709 125.6059361  67.5200176  21.2678599 126.2531185  68.1438398
  20.5044937 126.1249542  66.8431330  27.1249080 136.5609837  99.4515228
  26.4388633 136.7375660  98.8077927  26.8480515 135.7513905  99.8806381
  68.3982801 103.9072323  86.4433670  67.8807974 104.3478394  85.7693481
  68.5763121 104.5882607  87.0920086  39.4049382   8.0263596  16.6803209
  39.9145389   7.7958279  15.9035341  40.0252676   7.9494648  17.4052373
  62.8636837  45.5165844  83.9480400  63.3971930  45.7782536  84.6984577
  62.3638391  44.7625714  84.2608166  53.3678961 117.0352840  44.2215005
  53.5280228 117.3013687  43.3160726  52.4559498 117.2763157  44.3842641
  87.7557182 143.6871433  77.0279264  87.4045563 144.2808533  77.6915789
  87.3916912 144.0079880  76.2028360  76.0382128 133.6495686  74.8494244
  76.9700193 133.8007641  75.0078964  75.8924055 133.9662170  73.9579630
  67.1237564 122.4468231  91.7247486  67.7607775 122.0400906  91.1373711
  66.9622040 123.3094120  91.3425541  49.4125128 120.9972954  75.9440660
  49.6214485 121.2609577  75.0479317  49.6343279 120.0667572  75.9778309
  65.4244900 121.7436695  94.4045448  65.5023479 122.6694393  94.1740799
  64.4831896 121.5992451  94.5011425  69.2166996 131.6376877  88.0577469
  69.8940086 132.2933292  87.8915215  68.8953400 131.3995171  87.1881294
  80.6608963 126.0716248 100.1053524  81.5986919 125.8862972 100.0559711
  80.2575302 125.2211761 100.2793217  65.6183147  12.6337033  67.1869421
  66.1167812  13.4427815  67.0722437  65.6040525  12.4933510  68.1336880
  31.1687851   2.0925789  56.1110441  31.7185235   2.4351197  56.8158094
  31.5092230   2.5075512  55.3184835  79.9617100 124.4867039  92.4072742
  79.1178751 124.3533039  91.9755650  79.9047089 123.9683247  93.2099342
  92.1466541 140.1480770  53.3850527  93.0004311 140.0890636  52.9563236
  91.8303776 139.2451096  53.4142351  40.3737879 143.7696838  65.9354115
  39.8902225 144.5941734  65.8841753  40.4181051 143.4613609  65.0303125
  77.2438192 125.5202579  76.9375038  77.6582909 126.3664436  77.1060514
  76.4001131 125.7411480  76.5430403  66.1046219 113.7917614  95.4303360
  65.8146286 113.0332661  95.9371185  65.4116631 114.4406700  95.5526352
  68.4906435 123.7882137  13.7668554  68.1821823 124.6210003  13.4097139
  67.8246975 123.1532001  13.5032312  83.5480118 114.2446327  80.0057125
  84.1406822 114.7357178  80.5747604  84.1254044 113.8003254  79.3848896
  81.4806938 135.8762169  18.5271016  81.2567520 135.0868034  19.0199605
  82.4308395 135.9519386  18.6149541  77.1763945 132.9463196  64.7837782
  76.6950941 132.1783257  65.0916290  76.9357109 133.6412621  65.3964376
  29.0357399  38.3090573  13.9652673  29.9131322  37.9278546  13.9321748
  28.5641408  37.7699070  14.6001951  48.2079601  24.5923024  76.3407993
  47.9212046  25.0228863  75.5354357  47.5857687  23.8753682  76.4637136
  81.4870071 123.1307983   0.4128114  81.0401726 123.9759636   0.3652040
  81.9124031 123.1327343   1.2702886  84.0928078   3.4885388  98.4062958
  83.9320374   4.3499260  98.0210590  83.2563305   3.2430725  98.8016224
 101.2744999  89.4300461  78.0191565 101.7472076  89.2993832  77.1971416
 100.4490757  89.8386288  77.7584505  13.9164138 129.9274158  90.2394104
  13.6086082 130.5493069  90.8987522  13.1222641 129.6498108  89.7827911
  28.6631775 127.3506260  96.2961483  28.9662528 128.0139446  95.6761646
  29.2844462 126.6291237  96.1977005  55.1580954 120.5252552  75.5726576
  54.5997524 119.8875618  75.1278782  55.3447342 121.1863136  74.9060249
  62.1049213 124.5888138  54.2235374  62.1253204 123.9912033  54.9709892
  61.3357878 124.3186951  53.7218380  27.8280044 133.6658382  56.3257599
  28.1120133 133.8130283  55.4235935  28.0731058 134.4674873  56.7878342
  63.9180994 115.3664112  95.5530453  63.4052420 114.5772648  95.7275581
  63.5225630 115.7398033  94.7654152  45.0418329  22.8287678  74.7442818
  44.4360828  22.0876866  74.7352505  44.9963284  23.1861286  73.8574553
  18.1394875  11.8155842  72.6720715  18.6128271  12.6232033  72.8718853
  18.3227444  11.6532498  71.7467117  54.2560101 133.2552910  62.9146433
  54.5167780 132.8601265  62.0827293  53.3169079 133.0813980  62.9784584
  59.4532633   4.1567307  63.8037729  58.9029646   3.5237866  64.2650557
  59.1088200   5.0101738  64.0668917  67.2059298 128.1927872  59.9106359
  67.1057320 128.6202812  59.0600824  66.4620304 128.5059452  60.4252052
  57.5004721 145.7121468  66.2935495  58.0688190 145.8848763  67.0441341
  56.6128492 145.8174610  66.6359854  49.9748421 137.9558277  70.4387474
  49.6787214 137.0455837  70.4411840  50.8350515 137.9289722  70.8577347
  70.1366711 117.4875450  81.9052410  69.9092722 117.2204590  82.7958488
  70.2650928 118.4342384  81.9645119  64.7698784   2.6375561  66.6161489
  65.3595877   3.3334332  66.9063902  65.0872564   1.8527871  67.0629454
  43.0023575   0.7529335  76.0201311  42.7833748  -0.1256103  75.7095957
  43.6725998   1.0622292  75.4107475  61.2663364   3.0426960  39.6605086
  60.7845831   2.9368000  40.4808331  62.0512629   2.5064926  39.7727776
  81.4490318 139.6206665  63.8619614  82.1637821 140.1733398  64.1780519
  81.8052387 139.1894531  63.0851698  62.2694063  41.6054898  50.4976034
  61.9464684  40.8572750  50.9997034  61.9359779  41.4615040  49.6119785
  47.0164919   6.9804268  62.6210928  46.5941429   7.0579987  63.4765673
  46.7143059   7.7472573  62.1343803  63.3916187 124.5425320  78.6509085
  64.0045261 123.9652634  79.1062450  62.7633715 123.9486027  78.2400799
  79.8761129   4.2510300  53.4368324  80.7856178   4.0022736  53.2720613
  79.8871088   5.2081375  53.4439516  42.7181387  23.5056858  70.6484842
  42.8017902  22.6387387  71.0455179  42.3696947  23.3357029  69.7733116
  55.4926443 126.6924477  90.3957844  54.9987221 126.3527679  91.1420250
  55.0068283 127.4700737  90.1209736  67.6547623 109.1793633  47.7243185
  67.4450922 108.2669449  47.5249290  67.1882915 109.6835136  47.0576334
  83.3333683   6.9157868  84.0962696  83.0101299   7.2021180  83.2420063
  82.7661037   6.1821442  84.3333817  75.8603859   3.1953221  48.8440990
  76.0907030   3.0689602  49.7645426  76.5465355   2.7356510  48.3602238
  81.5652466 120.3489113  32.1019125  80.7229710 119.9150753  31.9656157
  81.8476868 120.6048679  31.2238765  40.4109240   2.8928452  39.0373588
  40.0055456   3.6885052  39.3820739  41.3175726   3.1434422  38.8600826
  61.8668556 137.7515984  71.2644434  61.2159920 137.9043579  70.5794096
  62.2842884 138.6034107  71.3924694  61.7574263 112.9282951  76.9977522
  62.1524954 112.6874256  77.8356886  60.8526611 113.1526566  77.2152233
  72.7534294  35.1046162  81.8385029  71.8005705  35.1741391  81.8973827
  72.9255486  34.9531155  80.9091759  77.7593708 135.1630974  32.2134018
  77.4611282 136.0719013  32.1767259  77.1490002 134.7347450  32.8135633
  57.4914026   0.1154404  75.9137344  57.8618908   0.9732037  75.7058668
  56.6220236   0.3086834  76.2645435  78.5755777 133.2860756  53.7981844
  78.0014467 133.4565353  54.5448780  79.3205786 133.8724136  53.9301300
  38.5137510 128.0001831  53.3273649  38.3021212 128.9257812  53.2060480
  37.6633596 127.5694084  53.4139585  65.6341505 111.8468666  62.3345995
  65.7029104 112.1649265  63.2347918  64.6942186 111.7375565  62.1903372
   9.7768384  19.2735272  74.9430799   9.9737543  19.7652607  74.1457987
   9.5657372  19.9444752  75.5923080  70.2587080   9.4426041  75.3242493
  69.3712807   9.6140366  75.6394005  70.1407146   9.1637783  74.4161987
  50.0719547 115.8409691  98.9340878  49.8752594 115.1948833  98.2557678
  49.2907381 115.8530807  99.4870663  80.0749779 142.9111958  75.0755930
  80.8740425 143.2219124  75.5012512  79.9512959 143.5054016  74.3354225
  65.5114746   8.1862812  67.7149773  66.0654068   8.4556561  68.4476614
  65.3287697   8.9980297  67.2417641  96.2102985 107.2714520  53.3189821
  95.7323360 108.0521965  53.0393028  96.4543438 107.4523640  54.2266941
  50.7928133 138.6401176  44.6067619  50.5028725 137.8148365  44.2180824
  50.3017282 138.7046909  45.4258442  86.3059807 143.4353828  55.7119513
  85.5581284 143.8595676  55.2912283  86.6284370 142.8150082  55.0582027
  48.0371904 145.6097507  57.6432323  48.7733793 145.0232220  57.8171492
  47.9195309 145.5714989  56.6940641  53.6331367 132.4440193  93.2304096
  54.5628357 132.3370838  93.4315491  53.6143589 133.0805588  92.5157833
  51.4167404 109.5926857  51.7052078  51.9699383 108.8159752  51.6219759
  50.6870556 109.4322777  51.1068296  65.4596090 143.3295155  65.6291628
  66.1631727 142.7342033  65.8876944  65.1388121 143.6937809  66.4541626
  55.7191277 127.8754997  77.1896124  56.4403868 127.9335976  77.8162193
  55.7794762 128.6831188  76.6793823  40.2752829 108.1524181  49.9633741
  39.8502779 108.7831402  49.3821764  40.9599733 107.7547073  49.4255495
  70.8345413  12.7377205  71.8110085  71.6245413  12.5918084  72.3314285
  70.8573580  13.6704998  71.5973663  52.8639841   2.9854946  71.1152172
  53.6113405   3.5823231  71.1536551  52.1069813   3.5364704  71.3141966
  56.1819077  12.4778824  58.7383461  56.1878300  13.3844357  58.4311438
  56.6761017  11.9968300  58.0745792  46.2788820 113.1299114  43.8039160
  47.1263504 113.3095646  44.2110443  45.9609842 113.9882183  43.5237789
  26.1371613  11.4964943  34.9591732  25.5210662  10.8043175  34.7192860
  26.5756965  11.7217331  34.1386914  62.3211241 135.2363586  80.1245880
  61.8641901 134.3979263  80.0577736  62.2293282 135.6289959  79.2564583
  52.6869822   3.9503651  76.8725824  52.6665258   3.3189469  77.5916910
  52.0604086   3.6078148  76.2351656  74.2351103 135.6565762  51.8490458
  74.7755194 134.8727226  51.9478703  73.7816811 135.5313492  51.0154104
  37.1820498 144.2881203  29.9129525  37.3803210 143.5216236  30.4509107
  37.3105240 145.0327969  30.5004636  44.9629545   0.3411942  74.1915655
  45.6491518   0.5764275  74.8160934  44.9839544   1.0402947  73.5380745
  83.7604237 132.7725220  47.7963161  84.1310406 133.5127640  47.3157835
  84.5199585 132.3232365  48.1671047  68.9970255   8.7443524  79.9371767
  69.9425697   8.5954647  79.9404144  68.8578463   9.4148045  80.6060314
  48.5864401  23.5156613  51.3987112  48.3489275  22.6705723  51.7803288
  49.5295525  23.5881405  51.5454197  61.8394613   8.6843090  99.3563461
  61.9525719   8.6277657 100.3051567  62.0687962   9.5883923  99.1412544
  54.6121120 126.0456467  82.6497364  54.8919821 125.3417683  82.0645428
  55.3279972 126.1327171  83.2791519  62.6348972 145.3931522  94.3456841
  62.3414660 144.4921207  94.4808388  63.4953356 145.4300499  94.7634315
  62.7376461 142.3324013  52.1287489  63.0185175 143.0095768  52.7441931
  62.2212219 141.7257881  52.6593733  27.6880670   4.6853619  66.7706060
  28.0744553   4.7819119  65.9001923  27.4395013   3.7623864  66.8212748
  62.1866179 128.0612373  39.5841646  62.2667742 128.1472397  38.6342120
  63.0617428 127.8061581  39.8762536  59.3281651 138.4572220  69.1832829
  58.7982130 138.1304741  69.9103451  58.7026596 138.9037991  68.6127234
  69.3974543 136.1773968  40.1356077  69.7844410 136.4365196  39.2993426
  69.6111727 136.8956184  40.7311916  98.3320141  20.0854664  82.4777603
  97.3987865  20.2289753  82.6350117  98.3632469  19.3205242  81.9032097
  53.9116907   8.8930111  64.5942068  53.5831308   8.4714394  63.8001347
  54.5273781   9.5538788  64.2773199  56.8036652  29.1838627  56.2719774
  55.8961248  29.4879132  56.2595510  56.7426729  28.2572918  56.5043402
  61.9777107 146.0595989  68.5861683  62.1777487 146.9754696  68.3928013
  62.1269464 145.9755135  69.5279169  15.1311934 144.4908142  94.2545033
  15.3742051 145.4067326  94.1193485  14.4687629 144.5181370  94.9449158
  25.5999207 133.6091423  62.6034832  25.2847815 133.1481075  61.8260765
  24.8037314 133.8878918  63.0558348 102.8708458 118.2138443  73.0898237
 103.1832027 117.3596954  72.7913570 103.6661720 118.6889839  73.3305502
  47.9236269 135.0514603  60.3065205  48.0702734 135.9958172  60.3604031
  46.9774771 134.9621296  60.1922703  50.3496790 122.2796917  39.7355294
  50.1277971 121.3986874  39.4341350  49.5226908 122.7603722  39.6999407
  79.7960901 121.4564800  37.7001882  80.6004143 121.0783958  37.3447299
  79.5220423 120.8407879  38.3799362  46.5958977 115.9433174  73.6575270
  45.8206177 115.3834248  73.6163902  46.2936163 116.7946053  73.3410454
  47.8435040 132.9999542  53.2208586  47.4079800 132.7422714  52.4083614
  47.2111320 132.7908230  53.9083195  86.2333775 112.0678520  64.2756701
  85.2972603 112.2030640  64.4227552  86.6524982 112.4195480  65.0610924
  83.3483219 129.8743343  70.3123999  82.7369499 130.4522038  69.8557663
  83.8758659 130.4626179  70.8526278  67.8294373   3.6673909  32.4706531
  67.1050358   3.0898934  32.2298861  67.4522924   4.5468693  32.4481106
  91.8811417 108.0964947  81.9342327  91.7179012 107.4882221  81.2134075
  92.5293159 108.7098312  81.5879440  58.1814671  12.6018792  48.1427479
  57.5876427  12.8682976  47.4408674  58.8319016  12.0493203  47.7093458
  36.9189024  16.2052327  63.4074306  36.6273618  17.0544796  63.7390804
  37.6883841  16.4072781  62.8751707  31.6350079 135.7917404  44.3161583
  30.6786561 135.8206367  44.3442392  31.9053602 136.7040253  44.4204760
  67.3049259 115.3146935  44.9967766  67.4444342 115.9678936  44.3111420
  66.3893747 115.4274464  45.2522802  11.6389048 120.6235600  48.9376020
  11.7017210 121.5783787  48.9128399  10.8112252 120.4265308  48.4990168
  69.1366625  17.8059559  38.1104851  69.4017315  17.4106007  38.9409494
  69.9029684  18.3047657  37.8272939  34.1167688  15.9642201  51.3475895
  34.0410900  15.6534748  50.4453993  33.5486054  15.3805905  51.8503809
  93.3129025 124.6363831  91.7184353  94.0777493 124.0768623  91.5836430
  92.8047752 124.1885853  92.3948383  59.4378948 140.4777527  42.3096180
  58.9850760 139.7880459  42.7948952  60.2149343 140.6694317  42.8346872
  62.6697922 135.9321785  51.7419386  63.4971666 136.4135075  51.7441273
  62.4324560 135.8680344  50.8168507  61.9979906 121.2662411  85.4310989
  61.5983963 121.3216305  86.2991333  61.3165236 120.8848095  84.8776150
  62.8011036  15.5057316  62.7613640  63.2953405  14.6913510  62.6678848
  63.4617376  16.1954670  62.6977301  76.6721869 138.8014889  83.9566517
  77.2170210 138.0250359  84.0851593  75.8540869 138.5977077  84.4098854
  52.2558880 141.4496422  80.6685162  52.1438026 141.0803986  79.7925377
  51.7848492 142.2824192  80.6394672  61.5016365 146.3230705  51.8889189
  61.3626719 145.9183502  52.7451468  62.3340225 146.7876244  51.9758415
 102.8878212  22.6182347  80.2864265 102.6939964  21.6817646  80.2453804
 102.0287704  23.0399494  80.3071117 114.2617321  17.9523259  77.0931625
 113.9505482  18.1880741  76.2191916 114.2638493  16.9951420  77.0965481
  96.2154198  24.7167569  57.6782322  95.4489326  24.9965649  58.1786633
  95.8987331  24.6394902  56.7782497  41.0655260  11.1787396  72.7965212
  40.1403379  11.4238148  72.7824736  41.5152407  11.9174939  72.3863649
  23.3989143  44.1195660  72.7124453  23.6146450  43.9974575  73.6369896
  22.6064157  44.6563320  72.7202892  49.9324369 120.2349281  80.7044983
  49.9327707 120.9245300  80.0406551  49.4567919 120.6141376  81.4435387
  87.8035736  41.6118222  71.1592531  87.7310181  42.2828083  70.4804802
  87.3029423  40.8707791  70.8179855  51.8624592 127.8707409  75.2359343
  51.8401766 128.3558846  74.4110870  51.0031557 128.0255985  75.6281757
 111.7413330 144.2812634  43.6494303 112.0331383 144.8099232  42.9067373
 111.2329865 144.8865700  44.1892624  94.2461300 130.3843975  78.5189486
  95.0363541 129.8585129  78.3955336  93.6493206 129.8107624  78.9995480
  41.8504381 123.9441013  44.6043730  40.9711838 123.6410713  44.8309088
  42.2841120 124.0729427  45.4479122  77.9293299  17.2231846  39.9269867
  77.3488998  17.3737126  39.1808796  77.4549246  16.6003590  40.4776764
  42.4709892 138.0357456  51.2455320  42.6901531 137.4325275  50.5353737
  41.9935799 138.7463856  50.8173943  73.5576487 127.8387547  72.8073692
  73.8780451 128.7407398  72.8101492  74.2656565 127.3343277  72.4067307
  70.9138680 138.5566139 100.2239609  70.1616478 139.1479778 100.2501965
  71.2482166 138.5544395 101.1208630  34.9015141   0.2887993  65.0704098
  34.6078420   0.4187470  65.9721327  34.7690368   1.1387234  64.6505308
  87.0839405 131.1359978  58.6436129  86.4677429 131.8443203  58.8302040
  87.5039864 130.9561825  59.4847155  49.8571348 126.8934345  32.8817439
  49.1621637 127.5484848  32.8173137  49.6003056 126.2100697  32.2626400
  60.8819723  10.6847744  97.0048714  59.9911976  10.9777050  97.1970940
  61.0578251  11.0150128  96.1238194  38.0245233 110.5095673  10.2063791
  38.0576444 109.6405220   9.8065034  37.2217941 110.5028915  10.7277337
  62.9216528  31.4501744  74.9546576  63.7028694  30.9050351  74.8611259
  62.9508114  32.0415478  74.2025518  46.4902592 112.2671509  71.2004948
  46.5841627 113.1041527  70.7456970  47.0013571 112.3719597  72.0030117
  29.0855074 126.0827255  85.3776360  28.8448215 125.9798908  86.2983513
  28.8628507 125.2425957  84.9765873  77.0517206 124.5618439  35.4284954
  76.4211845 124.9101067  36.0588670  77.8324270 125.1028919  35.5467963
  31.6059923 134.6698380  40.5297375  32.0692325 133.8605499  40.3136492
  32.2699118 135.2233791  40.9408760  60.5915117 111.2330246  70.2240944
  60.9363699 110.5745697  69.6209764  60.8347750 110.9129333  71.0927725
  50.1623583 145.5925751  93.3675098  49.4964314 144.9620724  93.0932045
  49.6828365 146.2352467  93.8902473 116.8233395 139.7518253  53.7075377
 116.1560440 139.4053936  54.2999363 117.1681976 140.5219841  54.1593742
  61.1727047 140.8881092  54.1510391  61.4359474 140.2657223  54.8289537
  60.4432726 141.3710785  54.5395088  78.0415297 122.2167110  60.9638453
  77.1503401 122.4853611  61.1870861  77.9554892 121.3025093  60.6935453
  84.8173141   9.1655140  62.1804237  84.2996407   9.0507393  61.3835096
  84.5944691   8.4083252  62.7219296  51.2769747  21.0749417  62.6261139
  51.1071539  20.9339886  61.6947079  52.2252417  21.1930828  62.6814890
  32.5646806 135.5689240  87.6077461  33.4708571 135.5932903  87.3003674
  32.0484924 135.4038048  86.8187523  76.9656897  26.6333752  30.4551744
  76.9238663  27.0941143  29.6171951  76.3301039  25.9227734  30.3697777
  89.8151779   7.1863919  87.8873825  90.6850243   7.3787575  87.5372505
  89.9788666   6.6025715  88.6280537  52.0720387  29.0164357  52.3849010
  51.4724588  29.5430737  51.8563366  52.8662539  29.5471363  52.4465179
 119.2093605 142.7902889  62.9986811 119.0096498 142.7516460  63.9340162
 118.3686501 142.6363468  62.5677061  32.2850156  33.2665806  25.5294299
  32.5569057  32.8423100  24.7156119  31.9415975  32.5537091  26.0680509
  75.4043627 123.2348156  52.1553421  75.2757454 123.8303947  51.4171219
  76.0813713 123.6542511  52.6863432  48.8293457  -0.1292057  34.7866488
  48.6578894   0.8072739  34.8858571  48.0063295  -0.5508823  35.0337720
  68.3041668 128.8738155  78.0743456  68.8881493 128.2133198  77.7015972
  68.8330603 129.3124676  78.7407446  70.7369614 113.7778664  53.4867811
  71.5420580 114.0185642  53.9451694  70.2099466 113.3290958  54.1479063
  35.7749367  10.3788071  29.7288370  36.3786888   9.6459179  29.8496580
  35.7192159  10.7880764  30.5923319  27.4222875 129.7401142  73.0297947
  27.8521109 128.8875103  72.9623222  27.9756570 130.2405167  73.6294699
  64.0037155 104.0083885  54.9295664  64.1689968 104.9442577  54.8153019
  63.5960150 103.7350845  54.1077900  49.0977526 140.2388763  79.8477077
  49.0354824 141.0877895  80.2855396  48.1893635 139.9907780  79.6759129
  36.4257073  13.5601025  90.2300739  35.8699584  14.0902882  89.6588516
  36.0970140  12.6675396  90.1227856  71.2109995 111.6676998  38.6866403
  71.1482430 112.3930740  39.3080258  71.2603569 110.8853531  39.2359447
 105.8271217   1.2857132  41.8034124 106.5535355   0.7677536  41.4566040
 105.0931549   0.6725579  41.8428612  59.5155716 143.9106655  81.1250305
  59.6788120 144.0867519  80.1984406  58.5616350 143.8837528  81.1992836
  76.6713095 138.3856487  79.2338419  76.4398623 137.6808453  79.8387480
  77.6196718 138.4778690  79.3251467  49.0485668   6.3553791 106.8808746
  50.0046539   6.4008503 106.8890953  48.7845469   6.7114144 107.7292633
  66.7079401 110.3265572  78.0970812  67.4178410 110.1054001  77.4942875
  65.9482098 110.4656315  77.5316620  70.3361416 127.5760841  80.7394028
  70.8743620 127.8339291  79.9910307  70.2819729 126.6223812  80.6781960
  64.0646219   1.7676621  62.9035807  63.5307121   1.7953568  63.6975622
  63.4946299   1.3699704  62.2454119  57.8431892 126.6927052  87.0903397
  58.4108210 127.3745155  87.4497223  58.4111834 126.1924171  86.5044022
  49.4016504 122.5000095  69.0653896  49.2767334 123.4170914  68.8212729
  50.2986479 122.4605083  69.3971586  67.1738863 146.3394833  32.7875519
  67.4620867 145.9408665  31.9664097  66.3324833 145.9228134  32.9737115
  73.4832573   4.5274620  49.5830917  74.1401672   4.2973976  48.9259958
  72.8985596   5.1377659  49.1337681  68.3812189 140.3698635  15.2603030
  68.6900282 141.2186337  15.5772519  68.7189484 139.7393417  15.8964014
  73.0212736   8.9254837  98.9365482  73.6816311   8.2331734  98.9071083
  73.5258341   9.7341996  99.0238857  71.1647749  19.1468411  31.8799090
  72.0066023  19.3248539  31.4605379  71.0204363  18.2110386  31.7396498
  46.7841721   8.2568913  76.6219378  46.4903116   9.1638642  76.7073011
  47.2545242   8.0798321  77.4365902  39.8561859 140.9639549  56.7951441
  39.7975659 141.7764568  57.2977781  38.9604020 140.6269836  56.7792606
  75.0666142 138.3167267  40.4899836  75.9399319 138.4205532  40.8678246
  74.9127436 137.3720169  40.4984617  82.5192356 122.6285934  89.4364166
  82.5075340 122.3775673  90.3600407  82.8685379 121.8607998  88.9839554
  57.2629070   0.7104760  43.3264112  58.0936337   0.2661782  43.1569338
  56.9659519   1.0002880  42.4638224  53.5650349  10.6422024  48.1392050
  53.1964016  10.9604531  48.9632511  54.1685867  11.3324528  47.8644085
   5.7329971  95.7247829  73.9752102   5.5026513  95.0670910  73.3190060
   4.8920739  96.0169029  74.3269920  75.9108734 127.8734398  52.5546551
  75.9988594 127.1845627  51.8959188  76.5022421 128.5652637  52.2581863
  64.4606781 115.6028271  33.5206556  63.7378025 116.2276840  33.5774708
  64.3898153 115.0812531  34.3201375  55.3847075 101.5534592  49.1388798
  56.0755062 100.8920097  49.0999508  54.9513006 101.3980293  49.9780655
  89.4162083   4.2653256  85.3117180  89.4978333   3.4376030  85.7854939
  89.7956848   4.9170952  85.9011459  78.9199114 115.9351635  72.3745584
  79.6834564 116.2971210  71.9248724  78.8605118 116.4370155  73.1874800
  74.5525265  26.2136059  40.8593512  74.4005299  27.1124630  40.5674553
  74.8202705  26.3009053  41.7741823  53.3536005  19.4152813  90.3546810
  53.6578417  19.9793415  89.6436977  52.4004841  19.5020848  90.3381443
  83.9018726 103.2170582  61.9197559  83.8829041 104.0897274  62.3125982
  84.0742779 102.6275826  62.6539421  69.7042131 145.1794434  21.6436672
  69.4665432 144.2733574  21.4467812  68.8987589 145.5700970  21.9825745
  62.8886223 129.3377590  75.3086662  63.2919121 128.6671066  74.7574759
  63.4731340 130.0921249  75.2344084  72.2244596 115.6913757  65.4919243
  72.4898911 114.8338509  65.1596165  72.6386166 116.3171864  64.8977280
  24.3334460 116.8940735  64.1433001  24.3476653 117.6357555  63.5383749
  23.9412570 117.2447109  64.9429703  24.5416689 134.7003841  55.9615421
  23.9144564 134.1867638  56.4704990  24.8947191 134.0818691  55.3219891
  95.5910397 136.9643116  68.9328671  95.8085823 136.0587215  69.1537762
  95.2743626 137.3416138  69.7535944  73.1821728 117.7080822  64.1047287
  72.6427364 118.4948540  64.0258217  74.0411949 118.0327415  64.3747425
  53.8696861 124.5332813  88.5924149  54.3238926 125.1708984  88.0416203
  54.3092060 123.7028122  88.4097099   7.6999462 125.8140278 107.0137596
   6.7578667 125.6560326 106.9524670   7.7717745 126.6875839 107.3984337
 103.2257366  26.7967015   7.5277400 104.1443825  26.5426236   7.6159048
 103.2100487  27.7242070   7.7637899 109.2983055   2.7169304  24.2388821
 108.8485718   3.5598259  24.1797328 108.5956097   2.0786076  24.3613529
   0.3248625 130.3703880  86.3962841   1.0427695 130.9964466  86.3019848
  -0.4602212 130.8710384  86.1743927  74.6405220 140.0428772  64.8096037
  73.7097025 140.2622223  64.7683907  74.8609018 140.1074696  65.7388449
  98.2611561 103.8665867  68.4292889  97.8012753 104.6079922  68.0355072
  99.0320301 104.2551613  68.8428116  69.2538261  24.0735989  82.4717140
  70.1714087  23.8948994  82.2659683  69.0623379  23.5101300  83.2214260
  88.0816174   8.8131409  82.3193645  88.5316372   7.9761868  82.2044182
  87.6591682   8.7423401  83.1753826  81.8028355   1.1679726  75.1092434
  81.4767456   1.0876255  76.0055923  81.5944862   2.0678978  74.8583412
  61.2890625  36.3359051  51.4110565  61.4725256  36.1608486  50.4880571
  62.0439100  36.8406849  51.7137432  52.8024960   8.1935196  87.6367760
  52.8368664   7.3403721  87.2041225  53.5961103   8.2232266  88.1711292
  26.2857938 137.0139503  64.7850370  26.2014222 137.3713303  65.6689978
  25.4190397 136.6598320  64.5861197  62.2276878 125.1745319  61.2941360
  62.2089195 126.0569096  60.9236193  63.0449724 124.7960186  60.9700871
  56.4992714 110.1562786  61.2515211  55.7309246 110.6882858  61.0445213
  57.2441721 110.7117939  61.0218477  35.7177901   7.3872547  71.2771940
  35.6537104   8.3026486  71.0048294  34.9547911   6.9657307  70.8817434
  21.6994071 119.0914631  40.1935148  20.7640910 119.2724323  40.1004505
  21.8177700 118.2302856  39.7927642  83.9699841 141.1115265  34.8054910
  84.5163822 141.2015915  34.0247369  84.5319176 141.3981056  35.5254459
  67.5846243   3.2308846  80.2019691  67.5868940   3.8326626  79.4575930
  66.8337536   3.5044461  80.7288361  35.5672550   1.1400013  18.2015458
  36.0513353   0.8184414  17.4409620  35.9756207   0.7017689  18.9481489
 100.9924412 100.3038406  81.0053730 101.4515781 100.0039196  80.2208519
 100.7421589  99.4988918  81.4588547 105.1035595 139.2227936  71.8842030
 105.9496403 139.5241261  72.2152185 105.1720333 139.3137455  70.9337950
  21.4824510   2.1136837  52.7841043  21.6163898   2.1767121  53.7297916
  20.8043623   1.4458161  52.6822233  50.2942324  29.1799145  58.6059093
  49.4308376  28.8990002  58.3028173  50.5824518  28.4791546  59.1907835
  67.6078796 126.2562466  57.4621534  68.3958673 126.7719173  57.6335955
  66.8852234 126.8357372  57.7033806  84.8318195  80.0233746  77.4392509
  84.6226215  79.3022776  78.0329609  85.3629303  79.6212912  76.7518854
  63.7097645  15.2233677  72.0595312  64.6385956  15.0105267  72.1501303
  63.2533884  14.4493656  72.3894978  65.1643610 145.6243992  70.1667595
  65.5293083 145.0438690  70.8346081  64.4147587 146.0392189  70.5936766
  34.1156077   3.1512814  69.8389006  33.6029005   3.2784539  70.6371403
  34.8839331   2.6566773  70.1239872  59.2492580 128.1553841 105.0926208
  60.1213837 128.1849194 105.4860115  59.3706369 127.6688385 104.2772865
  70.7615376 134.6041775  88.5623264  70.9704733 133.9523602  89.2314434
  71.3354445 135.3439903  88.7611771  49.1374731 135.9368801  89.1416168
  48.2383871 136.0396290  88.8296509  49.3463516 136.7764950  89.5510674
  59.8937559  13.1053906  30.0289464  60.2504873  13.0338745  29.1435862
  60.0637817  14.0124302  30.2831244  74.4755077  12.5284081  46.6124630
  74.1643953  12.6754647  45.7192564  74.9622202  13.3232766  46.8304777
  46.8643093 118.8515377  51.4693117  47.2936487 118.0491257  51.7660189
  47.5704622 119.3749619  51.0903549  46.6520882 130.5186939  27.5029159
  46.9895697 130.3680420  28.3858871  46.6813231 129.6579361  27.0852280
  37.0413518 131.2914181  47.9838085  37.5275803 130.8686638  48.6916876
  36.7086911 130.5660343  47.4552345  62.5004959 127.5876236  60.0797701
  62.4613667 127.8339577  59.1556406  61.8556023 128.1523609  60.5057001
  47.3428440 103.2829285  26.4051628  47.0485592 102.6261902  27.0362973
  47.7317381 103.9735413  26.9418669  97.7786350 132.2132301  69.4485044
  97.9102230 131.9415188  70.3568459  98.0521870 131.4564800  68.9301157
  81.4427853 136.1497879  48.4216118  80.4858875 136.1415863  48.3992290
  81.6699696 135.5836964  49.1592789  50.0549793   7.3824578  53.8433218
  49.7212601   8.1008416  53.3059263  50.3576279   6.7308121  53.2108736
  77.3124456   8.7089329  37.0638633  77.1409178   9.0614777  36.1906385
  78.2124090   8.9723568  37.2559810  81.9323826 132.0449257  10.6381309
  82.2200680 131.1320210  10.6464803  82.4349117 132.4479485   9.9301326
  67.1811724   5.5677204  63.5811853  66.9145489   4.7058945  63.9011669
  67.3701239   6.0696488  64.3740273  66.7894173 129.4983673   2.2132526
  66.8451214 130.2840519   2.7571502  67.1550179 128.8025188   2.7594778
  48.8066673 130.6293488  39.2092991  48.5544920 131.5030670  39.5080590
  49.7603083 130.6144619  39.2904115  34.7557926 130.5033493  69.2617321
  34.0601873 129.9434662  69.6065378  35.5346632 129.9469566  69.2646408
  52.8629589 126.2546730   4.1386679  53.2056522 125.4589272   4.5455965
  52.8082705 126.0426998   3.2068360  72.2785711 145.6032944  22.9345512
  71.3906431 145.2461910  22.9516149  72.7750969 144.9850750  22.3983574
  70.7099485 125.9820271  43.7863398  70.6804943 126.0599422  44.7399092
  71.0988474 125.1218033  43.6282206  69.2808914 134.0624714  33.6824417
  69.3020916 133.3566666  33.0361986  69.8716879 134.7279263  33.3297968
  59.0767145 137.9203129   8.4292024  58.8944101 137.2613525   7.7593040
  58.2128191 138.1927681   8.7385279  66.9379091   4.6936016  40.0443649
  67.1056271   5.0288563  40.9251070  65.9868240   4.5937233  40.0031948
  69.9316359 144.0412617  26.8015718  70.3176975 143.8510323  25.9465861
  68.9875937 143.9741039  26.6583896  97.1277905 124.8165035  44.3869257
  97.8425980 124.7611713  45.0211334  97.1447372 123.9740372  43.9328337
  64.2659760  36.4332180  27.8251362  64.1981936  36.8224507  26.9532800
  65.0814009  36.7853909  28.1819177  74.5947075 118.2020855  23.2440972
  74.3602991 119.1158962  23.4060693  75.0727701 117.9346943  24.0290761
  55.6169653 144.6703911  55.1003361  54.9885845 144.7491360  55.8180904
  55.2879429 145.2664185  54.4274855  56.6558886  11.6050225  66.4606571
  55.7614183  11.9297963  66.5639925  56.8961716  11.2843018  67.3299313
  88.5094166  15.1978283  31.1876822  88.3801270  15.5341702  30.3008938
  87.9588223  15.7550030  31.7378068  84.4755650 111.6169262   0.2958338
  84.6695709 112.5537109   0.3281299  84.7103024 111.2935925   1.1656532
  46.1338568 126.3230801  38.8749337  46.2369871 127.2047615  38.5168266
  45.5978870 126.4440918  39.6587205  73.5593081  28.5854512  36.5366888
  72.6702213  28.2319050  36.5644503  73.4509754  29.4812756  36.2173200
  63.7137270 144.7758579  17.8495526  64.2334509 144.3956566  17.1413374
  62.8936863 144.2823029  17.8364456  90.1743221  39.4547253  48.7957811
  89.8530197  39.7294026  47.9369688  90.6312275  38.6304837  48.6281824
  44.3035603  12.4842148  42.1177340  44.3025780  12.6986580  43.0506039
  45.2299690  12.3987561  41.8925953  92.6230907 114.2028618  64.5781565
  92.3894310 114.9220467  63.9912939  92.6515579 114.6026421  65.4474068
  60.1507664  17.5622540  65.8340645  60.8032894  17.1118527  66.3703299
  59.8273516  18.2685833  66.3933086 104.4457245   0.8724957  20.6398726
 103.5789394   0.7519322  20.2520728 104.9905872   0.2067547  20.2201796
  44.1425037 117.8496933  47.6630688  44.3902826 117.1618557  47.0452356
  44.3589067 117.4887371  48.5227823  60.7282543  14.7101956  43.0881691
  60.0832319  14.2006474  42.5977325  60.2842903  15.5358296  43.2817125
  60.1389647   8.5553627  47.6842308  59.4942570   7.9768162  47.2769642
  60.1385307   9.3390351  47.1345901  83.8925934  13.5467701  74.2896461
  83.5681915  13.0622177  75.0487280  84.2601013  14.3503552  74.6576405
  59.7558546 123.7260818  76.3173532  59.4242287 123.4302521  75.4695702
  60.6482363 123.3823013  76.3586664  84.3088627 117.4507427 100.5374434
  83.8135147 116.9628620 101.1953446  84.2789841 118.3584976 100.8396389
  61.5382862 145.6567287  64.4766378  61.2825632 146.3485718  63.8665581
  62.3143387 146.0016251  64.9182510  64.3809700 125.0011349  67.3375893
  64.7026587 124.4306850  68.0356789  63.5960674 125.4085922  67.7038336
  58.0158329 133.3707333  53.7020540  57.4876118 132.5728512  53.6777401
  58.4191322 133.3646202  54.5701218  18.6192882 124.5606613  48.2226133
  17.9190373 124.6059799  48.8736343  19.3129742 125.1163483  48.5779190
 104.5673561  17.4138623  76.5318298 105.0184917  16.5716725  76.5904951
 105.2687359  18.0530529  76.4063787  84.2914581 141.9909763  70.6661367
  84.7776794 141.8785477  69.8493290  84.0819645 141.0995197  70.9448099
  45.8092165 121.5401077  65.4118490  45.8148766 122.0578861  66.2168980
  46.0120487 122.1701813  64.7204018  57.3751020 113.9206505  53.0171537
  57.5199413 113.4595108  53.8433456  58.1001186 113.6426830  52.4574089
  78.2615948   1.7630368  33.4311581  78.9016676   1.6288548  32.7322054
  78.6950445   1.4350777  34.2190623  63.6840010  30.6744366  62.6989985
  62.8997564  30.5841046  63.2403231  63.8991356  31.6061192  62.7426147
  48.6938667 124.3743610  51.4182281  48.3714437 123.4830856  51.2844229
  49.0934467 124.6126175  50.5816889  53.9598370 141.7509174  28.5761285
  53.9565229 140.9442616  29.0914202  53.3653975 142.3368740  29.0446663
  43.5332060 108.8169575  68.7731457  42.8734636 108.9794445  69.4473648
  44.3278170 109.2300034  69.1111088  71.0667515  99.9735832  46.1346817
  70.1807690 100.0379658  45.7781410  71.6391993 100.1220131  45.3820181
  88.4047031 119.3411160  71.0594082  88.9788532 119.8444176  71.6367006
  87.6823044 119.9370193  70.8612299  84.4520760   3.8017159  66.9571114
  83.8516426   4.1544705  66.3003969  85.0650024   3.2632046  66.4565516
  61.7139959 136.8874550  82.3996162  60.9600067 136.4117146  82.7480412
  62.1322346 136.2683201  81.8013000  82.6464558 127.1879387  71.2903547
  83.2173061 127.7465916  70.7628345  81.8012524 127.6372051  71.2861061
  46.1281204 123.5187721  48.7516117  45.6905699 122.8315544  49.2541170
  45.7636404 124.3348980  49.0941286  51.3793850  27.9689770  40.8990431
  50.5037260  28.1806164  41.2225533  51.3140202  27.0592289  40.6086493
  16.1697817  43.6990147  42.4317360  15.2485192  43.4516888  42.5113535
  16.1960649  44.6160298  42.7049255  66.0635519   1.7248040  37.4581289
  66.7314434   1.4732628  36.8202615  66.2404156   1.1732941  38.2202220
  71.6566610 139.5480919  42.1651840  70.8828831 139.2975903  42.6699162
  71.6753912 140.5038643  42.2140265  57.8980160  14.9020939  15.7307887
  57.0191908  14.5230275  15.7452202  57.9390287  15.4418736  16.5202093
  76.5258598 112.2985649  63.6733723  77.0002031 112.6385307  64.4320917
  77.1243906 111.6622162  63.2821465  52.2650814   1.0365181  30.1847768
  51.7629576   1.2049942  30.9820986  53.1782007   1.1510163  30.4480958
  32.5202703 132.9139805  47.8277302  31.6123295 132.8042126  47.5451946
  32.8816366 133.5641670  47.2253132  59.1217899  14.0574437  60.5537510
  59.5325422  13.2892018  60.1570988  58.5504389  14.4041806  59.8685074
  60.6004429   2.5068550  44.9777842  60.0756216   1.7266541  45.1569271
  59.9626064   3.2190495  44.9311209 108.2507706 134.0074730   7.6155812
 108.2715034 133.9210987   8.5686505 107.8587532 133.1896496   7.3094404
  70.0579405 122.0526981  56.8950987  70.1174116 121.4143562  56.1843204
  70.9500551 122.1149158  57.2364187  57.2360468 132.5360870  29.9213815
  57.0546627 132.7624035  29.0091777  57.9709578 131.9245625  29.8748636
  50.4381895 131.7737198  71.3050461  50.9443760 132.2278881  70.6314421
  50.4621172 132.3618317  72.0598888  50.6044483 118.5811996  59.2002058
  50.6264782 118.0217934  59.9766111  50.1432133 118.0603886  58.5427523
  92.2465611   8.3278351   8.7814480  92.9909515   8.7572460   8.3598804
  92.0362568   8.8902932   9.5268619  31.5744877 129.4934845  47.8080893
  31.8241930 129.8007011  46.9366026  31.3216734 128.5796833  47.6765776
  92.2165680 122.3287392  27.7587056  92.2087669 121.7285442  28.5043120
  92.7773190 121.9001675  27.1120930  54.7832918   2.2186165  40.1858187
  55.5293369   2.5079613  40.7111120  55.1259422   1.4948922  39.6613693
  56.0933018 130.0831890  23.1083655  56.5819311 129.6663380  23.8180876
  55.8058119 130.9195614  23.4745073  60.0789738 115.4498005  49.0922403
  60.2837515 116.3587761  49.3114901  59.1257048 115.3959560  49.1601801
  79.6966839   5.9373932  31.8308377  79.4322300   6.6315346  31.2271237
  78.9020014   5.7330494  32.3237419  77.0175266 123.2547092  40.8104420
  76.7525673 124.0950775  41.1843395  77.3400116 123.4726524  39.9359512
  49.7947598  80.3966141  38.5038662  49.6825981  80.6088924  37.5772667
  49.3427944  81.1015892  38.9675069  70.1202202 104.1513538  54.5756674
  70.9556866 104.4207859  54.1940451  69.6380091 104.9691010  54.6980953
  35.4707146  32.8692227  40.1025677  35.3871703  32.9502659  39.1524673
  34.8061466  33.4623890  40.4528952  69.0701199 140.7254505  12.6552641
  68.1639433 140.9919357  12.8104150  69.3024969 140.2068710  13.4255254
  59.3158817 130.7298851  29.8307347  59.0406799 130.7238197  28.9139700
  59.9780464 130.0409317  29.8865938  71.6323471 140.0704765  39.4515538
  71.9081783 139.3657112  38.8655019  71.8999386 139.7764397  40.3222847
  54.6359491  25.2850514  55.7092714  53.7470245  25.0151234  55.9398651
  54.6395874  25.3048878  54.7522831  81.8245029 110.1598835  17.5204957
  82.0664024 109.5633125  16.8121076  80.8759975 110.0612926  17.6032627
   3.9206915  19.4065647  41.7702961   3.8840991  19.0555172  42.6600456
   4.6585589  20.0161534  41.7834854  53.0562162 136.8384266  45.2750683
  52.9918194 136.2355328  44.5343924  52.8449583 137.6956367  44.9052143
  57.4384785 122.1803188  20.7610035  58.0298567 122.8459167  20.4096127
  57.0658302 122.5814629  21.5461445  44.5318651 136.3764668  61.9396639
  43.5950518 136.3867569  62.1358919  44.5920372 135.9587860  61.0805035
  49.3862247   5.5931359  49.6176624  49.3804789   4.6415596  49.5142031
  49.7393799   5.9218102  48.7909317  35.1506019 137.2945213  36.2416220
  35.9227467 136.9640064  35.7825089  35.4680729 138.0563259  36.7264819
  38.5809827 137.7702332  56.9024467  38.2372546 138.6416531  56.7057037
  38.3998394 137.2577953  56.1145163  90.8235168   2.2368603  59.3168831
  90.3131008   2.6141816  60.0333595  90.1675034   1.8907814  58.7118149
  59.1813993   8.2358914  59.6736097  59.3932486   8.4529763  60.5814791
  58.8252115   7.3484593  59.7163963  33.4773874 145.7945251  38.1125283
  33.1676507 144.8914719  38.1818056  34.2604089 145.8220100  38.6623931
  87.8342819 105.5472183  23.4023690  87.6205063 106.4266014  23.0905700
  88.7091732 105.6334591  23.7810040  13.5725784 108.3990288  73.0621624
  13.3069825 107.6028252  72.6020098  12.9086959 109.0461159  72.8239107
  75.8583498   6.4638214  56.5479803  75.9103489   6.7045002  57.4729681
  75.5040884   7.2419434  56.1175776  59.9680710   5.0656967  41.2393093
  60.0064754   5.6665306  40.4951668  59.3286610   5.4598408  41.8326378
  45.7631254  12.1578961  28.8283920  45.5263233  11.2884503  29.1512179
  46.6674471  12.0641117  28.5289884  46.5224791 114.6280098  51.5152025
  46.8186998 114.1283703  52.2760201  45.8908844 115.2533913  51.8704796
 103.7139130 142.9155922  30.8865380 103.2295704 142.9907322  30.0643492
 104.5680237 142.5675392  30.6304288  74.2054653 119.8973656  55.7113647
  73.8654709 120.5448532  55.0937843  74.5693254 120.4176235  56.4277220
  72.1093130 141.7567730  47.4883080  71.6642666 142.5894165  47.3306179
  72.7703285 141.9600773  48.1500959  82.8405762 137.7899742  67.1404266
  82.3670101 136.9873905  66.9217205  83.4836578 137.8875351  66.4381742
  67.1621609 133.3106422  71.2214994  67.6273346 133.8327694  70.5678749
  66.3665104 133.8101482  71.4050055  26.6432667   5.8809643  27.0912790
  26.7102408   6.8097287  26.8695998  25.7162786   5.6730347  26.9742703
  59.6869469 117.6934052  39.4892502  60.4940891 117.6880360  38.9747357
  59.3395185 116.8060589  39.3990707  86.8436813  11.6115170  38.5211229
  86.4474773  12.3245602  38.0202961  86.1254025  11.2607174  39.0476680
  41.7284727   2.9023056  25.7757854  42.4585295   3.0184441  26.3838625
  41.3876486   2.0301991  25.9745097  71.1969376 111.2498379  56.3133907
  71.0495281 110.5844212  55.6412935  70.4879665 111.1160755  56.9424343
  59.2145967 118.4548378  49.8049068  59.2960691 118.3419132  50.7519245
  58.5031414 119.0864372  49.6993399  70.6190252 130.7250690  13.2762170
  70.4719257 130.8628273  12.3404729  71.1416149 131.4788342  13.5500324
 121.4229370  12.6527100  39.7926664 120.8205939  12.8144436  39.0665436
 121.0791422  11.8675022  40.2186918  41.3340187   3.6070614  58.1452322
  41.6585493   3.2364922  58.9659548  41.2753153   4.5474892  58.3137178
  78.6869574 124.0949059   6.0255945  78.6926317 124.3896866   6.9362539
  79.4476318 124.5214367   5.6310296  36.2015867 136.2580013  64.1122341
  35.3140998 136.4136505  64.4352961  36.1251616 136.3248253  63.1604338
  47.2898626 126.0639095  41.6824913  47.0484781 126.8431950  42.1831656
  48.0142355 126.3512135  41.1266375  51.6746521 129.4958210  41.9505310
  51.4808321 129.3211746  41.0295773  52.3053026 128.8185787  42.1951771
  35.6225729  89.9372101  59.1290712  36.5571165  90.0072384  59.3238974
  35.4068613  89.0234566  59.3154764  82.4949265 131.3899040  43.1619978
  81.7463684 130.7939911  43.1898689  82.3856735 131.8735600  42.3432350
  57.3456097  95.8213139  39.1105056  57.6290846  95.1729107  38.4659433
  56.9283247  96.5086651  38.5912275  83.6488342  27.2943096  52.3119640
  83.4994984  26.3877468  52.0434618  84.4761086  27.5345211  51.8946505
  35.1200867 143.7143803  36.4618397  34.3766546 143.4789085  37.0169044
  35.5007982 144.4838619  36.8851495  79.2381573 142.8164959  92.0347786
  78.9504862 143.6602306  92.3834705  78.7003613 142.1715546  92.4941921
  30.8846354  17.8013592  55.8947039  30.7450628  18.5958081  56.4100647
  31.6996598  17.4340420  56.2368202  70.7156944  27.6232128 100.5351448
  70.3432894  26.7533284 100.6795120  71.0046101  27.9070263 101.4024448
  57.6067019 140.9631824  72.5213099  57.6526499 141.8597031  72.8535366
  58.0690098 140.4408646  73.1768131  44.9775171 136.1534882  66.8686914
  44.8170948 136.7819881  66.1647892  44.1076326 135.9546089  67.2150707
  45.7359982 142.9945278  85.0296688  45.8811951 142.1637726  84.5769119
  45.0959921 142.7874947  85.7106686  62.6809740 119.0382862  64.8517323
  61.9853115 118.8619518  64.2183304  63.3959007 119.3997574  64.3278551
  61.9469929  84.7806072  53.6652517  61.8813181  84.4473457  54.5601559
  61.1799765  85.3439713  53.5625744  83.3823109   2.1943264  64.0377331
  84.0353775   1.6081791  63.6554241  83.2249928   2.8520279  63.3603048
  66.8323517 137.5042820  37.5490832  67.2522449 136.7908382  38.0296254
  65.9114170 137.2485352  37.4970078  53.3261108 146.0657310  56.5763283
  54.2007780 146.4529991  56.6111851  53.3580494 145.3449821  57.2053957
  43.0963469 135.7638836  13.5169041  42.5842237 134.9567127  13.4675252
  43.7530136 135.5900192  14.1912913  75.0922108  18.0419331  45.7758904
  74.4520903  17.3514347  45.6035376  75.9398699  17.5997143  45.7294369
  44.0613651   2.8167706  27.3607993  44.5678949   3.2443123  28.0513573
  44.3973732   1.9207936  27.3370576  78.8536644 119.7499943  31.4662337
  78.6023092 119.3133068  30.6523848  78.2966423 119.3505001  32.1343327
  80.2697277 123.1788063  35.4348469  80.0130272 123.9864159  35.8799243
  80.1976871 122.5014400  36.1073136  57.4874353 114.4163609  34.7597790
  57.5740099 115.0923443  35.4319310  58.1547737 113.7680626  34.9847317
  72.5163221 140.2613068  54.1201210  72.5910044 139.6158218  54.8229742
  73.1073999 139.9422932  53.4381485  65.0811243 133.8792229  62.8594828
  65.2483130 134.8056126  63.0329084  64.1280460 133.8152790  62.7979374
  45.1246595 115.5503082  45.8869076  45.2470207 116.0563755  45.0836945
  44.7789526 114.7087383  45.5894423  40.3976727 121.6043663  47.2684479
  40.9505796 121.1539078  47.9068947  39.5999098 121.0769367  47.2281122
  61.8533182 128.4962940  52.3183823  62.6127529 128.3264732  52.8757429
  62.0063829 129.3728256  51.9655561   2.0033012   9.7892170  44.0793562
   1.1741994   9.7996693  44.5575953   2.3455310  10.6781464  44.1738558
 101.6280556   8.1084614  61.9187641 102.3300648   7.5784664  62.2962618
 101.0920334   7.4834042  61.4306879  63.0221748  20.8135395  51.6293859
  63.9410257  20.8598881  51.3651896  62.5775146  21.4423733  51.0609770
  86.1837006 133.7252522   9.7757381  86.8189049 133.0321598   9.9556661
  86.2725449 134.3289185  10.5132580  60.6345129 127.1433067  47.5223351
  60.4322147 127.5299931  46.6704035  60.5951214 127.8782177  48.1343651
  89.5923615 145.4637146  70.6199932  90.0545216 145.9525871  69.9390841
  88.7411785 145.8960438  70.6893587 111.8933964 109.1707039  27.0692372
 112.3291683 109.8922920  27.5227189 112.5063419 108.9163208  26.3794422
  61.1145401 106.4012241  24.9020457  61.0777617 105.6706715  24.2846560
  61.2271595 107.1754360  24.3505549  55.0097227 141.6472816  36.3781142
  54.9042320 141.4223385  37.3025107  54.1880322 141.3744164  35.9699392
  70.5664587   8.1626492  30.4149151  69.9277020   7.7007943  30.9579706
  71.3719749   7.6539307  30.5075598  55.6359673  18.7901478  66.6242361
  54.7883129  19.2145138  66.7569590  55.5478764  18.3360463  65.7862234
 114.0913010 142.9091263  32.5089335 113.6802197 142.0919609  32.2270155
 113.5373020 143.2215977  33.2242537  46.8929672   0.5750256  31.9532371
  47.8227997   0.3484803  31.9713378  46.5776777   0.2263146  31.1194372
  68.0560398  15.9907894  53.3647299  68.4625196  15.2062779  52.9965734
  67.1206093  15.8773403  53.1963968  21.5039206 106.7010689  35.8981323
  20.8478856 106.2124920  36.3952684  21.0467935 106.9750881  35.1030350
  57.4580050 129.3291187  25.3620243  57.5620127 129.3973064  26.3111115
  58.2587719 128.8978291  25.0637007  76.7844868 114.3389034  47.0707846
  76.4020014 113.5185242  46.7594814  77.4104500 114.0711975  47.7436399
  62.3728514 137.4995232  43.6015034  61.4684486 137.2895908  43.8343525
  62.8452349 137.4796486  44.4337845  67.7224159 121.8684959  39.7121954
  67.1313429 121.2810612  40.1831341  67.1570969 122.3325348  39.0946817
  62.4417877 132.2210026  33.3894897  62.0804214 132.9438210  33.9024997
  63.0963421 132.6318932  32.8247261  69.9551296  84.8479366  53.1608725
  70.1167488  85.4317760  53.9019775  70.7368660  84.9318790  52.6149130
  70.5343866  25.7773381  46.8859434  69.9148273  25.5456715  46.1940575
  70.0824261  25.5493718  47.6983452 105.4579353 135.5743217  10.2748108
 106.1826324 135.5331135  10.8987939 105.7278728 136.2356091   9.6375757
  64.6770430 120.9104633  19.6690512  64.5039511 120.5462551  20.5371690
  64.2682123 120.2917194  19.0638649  79.2434454  11.8223362  40.1487398
  79.8764324  12.3353081  40.6511545  79.7367001  11.0576802  39.8517084
  74.6502876 137.4216270  68.4381819  74.9378586 138.3197880  68.2743359
  75.1589680 136.8915653  67.8245831  62.4423695 133.9947796  56.4515495
  62.5066710 134.2026615  55.5194092  63.3309841 134.1164017  56.7859221
  65.0356102 143.0062962  74.9303961  65.6877422 143.3362770  75.5485201
  65.2888250 143.3866692  74.0893030  70.1808310 125.4871273  64.0334511
  69.2655087 125.6593227  64.2542887  70.1453733 124.7517967  63.4216785
  28.5674739   9.8629837  33.6938810  29.2826748  10.4866104  33.8196135
  28.0752587  10.2098637  32.9498196  89.5658875   6.6345387  42.5359678
  89.6616364   7.5305062  42.8589535  88.6287117   6.4531975  42.6070166
  97.0518208 130.2262306  15.4046786  96.1577892 129.9487114  15.6045306
  97.5484657 130.0232315  16.1973715  47.6595163 129.0891266  41.5799904
  47.9920816 129.3489742  42.4391270  48.4017944 129.2127705  40.9884119
  62.1807528 128.5966110  57.6120663  61.7627621 127.9940987  56.9968510
  61.8144274 129.4536877  57.3942184  88.5377121 131.0057259  19.6611893
  88.4889793 131.9496441  19.8124707  88.0954933 130.8744431  18.8224781
  68.9269686 120.9740067  11.2157714  68.2869577 121.1541557  11.9043648
  69.3219662 121.8252754  11.0272408  62.9087543  12.4443035  10.9053373
  63.0654335  11.7992764  10.2156830  61.9617128  12.5828438  10.8930373
  75.9945917  20.3845768  61.8963432  76.4241934  21.2254505  62.0531511
  76.2688446  19.8349171  62.6304483  54.6065664  13.8028698  47.8606272
  54.2851830  13.2991486  47.1128225  54.5812273  14.7129422  47.5650692
  55.6956053 109.2288017  63.7706995  56.1549711 109.4283295  62.9549789
  56.3883114 109.1775513  64.4293070  89.5485687 117.3793125  36.7778873
  88.9945412 118.0203438  36.3325167  90.4426098 117.6747608  36.6057324
  55.9594727 142.6565170  39.1257429  56.3457346 141.9375610  39.6258950
  56.6515398 142.9276276  38.5226059  46.1595631 110.0468826  16.7516267
  46.1372042 110.9232616  16.3673234  46.5191889 109.4912338  16.0601413
  43.6038971 111.0314274  34.7241640  43.4620619 110.6679440  35.5982304
  42.8427982 110.7450104  34.2192602  60.1108742 112.4521065  56.2364912
  59.2719269 112.2463703  55.8240938  60.7555246 111.9634056  55.7247877
  38.5322952   3.5848217  49.9087954  38.6386395   4.4948464  49.6317005
  38.2282090   3.1293850  49.1237259  56.5268087  28.0257969  10.5656898
  56.3724422  27.8870564  11.5001166  57.3330832  27.5437146  10.3819656
  37.2954512 132.2915173  42.1347904  36.7302585 132.8741646  42.6420546
  38.0624604 132.8244686  41.9252872  57.8349686 146.4213848  54.9116325
  57.5100803 146.7207050  54.0624666  57.4692440 145.5424881  55.0117397
  43.4330511 126.9454479  56.2609386  42.9360056 127.5614166  56.7992353
  43.9571190 126.4477062  56.8885040  62.8639364 119.2085743  49.0000248
  63.4090662 118.4220791  48.9780569  62.2782516 119.1151142  48.2487106
  25.7513094 138.2645798  67.4163914  25.0904822 138.3989906  68.0957127
  26.5538502 138.6318016  67.7869368  65.4356146 118.1373119  46.6175699
  65.2450752 117.4501801  45.9789991  65.7816648 118.8607216  46.0949183
  65.6582308   6.4606076  37.7915359  65.3158283   6.1506825  38.6299515
  65.9284782   5.6643753  37.3341274  59.3766832 117.0323944  44.9911690
  58.5546160 117.1173954  44.5082474  59.1225147 117.1041775  45.9112120
  40.6604528 143.3327675  36.0977697  40.0988340 144.0940666  35.9520221
  40.0540352 142.6275921  36.3241100  19.6490443 145.1420212  42.6102018
  20.5519819 144.9288464  42.3746395  19.7299218 145.7314110  43.3600855
  57.0034313 129.5651531 105.7115480  57.8428936 129.1118336 105.6338345
  56.4798832 129.2258167 104.9856105  24.9958849 123.9331722  35.8427858
  25.3208542 123.4415340  36.5970540  25.4804039 124.7583008  35.8679032
  21.4305520 119.6837425  14.5387852  21.8553972 119.8094845  13.6903012
  21.9012332 118.9510345  14.9360704  65.7046747 135.1389027  51.2319326
  66.6299725 134.9333572  51.0984659  65.7094288 135.9847736  51.6799355
  71.8175316 144.4541168   3.3121964  70.9523439 144.7548294   3.5901329
  72.4222708 145.1086426   3.6616555  70.5952263  19.9345188  34.5547462
  71.4939547  20.1926976  34.7593236  70.6530666  19.5317059  33.6883545
  72.7302361  18.1866436  42.6659060  72.3190737  18.8490849  43.2211781
  72.9162169  18.6435490  41.8456221  23.2471442 134.5197678  92.1222528
  24.0435839 134.5047569  92.6529988  22.8403282 133.6671925  92.2766551
  80.4995060   6.5900784  34.9701953  80.9025383   6.9995098  34.2045856
  81.2355328   6.3812619  35.5454302  68.9231205   6.0537987  38.5339880
  68.1014347   5.6996327  38.8740349  69.1710567   5.4520111  37.8321290
  79.1629791 137.5405979  14.6386063  78.4202671 137.1596718  14.1700995
  79.9176168 137.3607159  14.0778947  55.6635761 112.4461937  29.6279883
  54.9006891 111.9680214  29.3030429  55.2948046 113.1853199  30.1116538
  41.8413162 130.6775188 104.1209760  41.7939758 130.3811359 103.2120480
  41.1058569 130.2432537 104.5531168  64.1813803 124.0057659  27.1389794
  63.4177637 124.4556236  27.5005770  64.5612335 124.6343517  26.5251231
  64.5142794 128.9541435  36.3246202  64.8501444 129.6558475  35.7669067
  63.7315035 129.3255138  36.7315316 103.5027504 101.1192513  41.5243864
 103.0310726 101.9417191  41.6559315 103.4455299 100.9583378  40.5825424
  24.9009991   3.4084683  38.9273596  24.6088934   2.6780491  39.4726968
  25.8121157   3.5499077  39.1844368  97.7777958 138.7246704  36.7268991
  97.3666763 138.4193325  37.5355887  97.6254749 139.6696568  36.7227650
  76.4439869   0.1214199  32.2686744  76.0752821  -0.5754871  32.8114462
  77.0585537   0.5747204  32.8457904  69.0516615 141.2006474  43.0609608
  68.3544970 140.8981514  42.4789858  69.5949078 141.7649555  42.5108147
  65.6428909 120.6580544  22.6041031  66.4572144 120.2306557  22.8695107
  65.9254408 121.4615345  22.1672702  76.5684748   0.5433922  81.9890499
  76.3478661  -0.3710003  82.1663761  76.7187643   0.9255390  82.8536892
  64.6148443 126.0452080  15.4096675  64.7733259 126.8273830  14.8811674
  64.7607470 126.3317204  16.3112521  66.4574671 127.4655819  44.9631023
  66.5058851 126.8171883  44.2606258  66.7922354 127.0083714  45.7345438
  78.5963297   4.2678528  27.3003674  78.6678648   5.1572686  27.6468658
  79.3424749   3.8026886  27.6786900  18.9189732 139.5095348  57.6042414
  18.5736084 140.2875137  57.1664000  19.8670268 139.6411896  57.6139641
  78.3076286 107.1744919   9.4387907  78.2147551 106.9124603  10.3547299
  78.1952763 106.3623714   8.9447612  90.7027054   2.5316220  25.3597760
  91.1022091   1.7271691  25.0288892  90.4756069   3.0273991  24.5731020
  85.0189781 144.5248032   8.3206904  84.1054916 144.2656708   8.1997734
  85.5244064 143.7899971   7.9730839  75.9328032 114.3129349  19.4598961
  76.0055113 115.2063179  19.1240072  75.4853916 113.8311672  18.7642241
  29.6922755 133.3426571  38.2760167  29.6692228 134.1423225  38.8015985
  29.7451043 133.6518574  37.3716760  72.7552223 118.4986496  20.3476310
  73.0709124 118.9886665  19.5883882  71.9252253 118.9177513  20.5749774
  35.4546547  20.7544499   6.3068587  35.4571533  19.8377781   6.0313207
  36.0812783  21.1817723   5.7229334 111.0380077  10.2277165  10.6879365
 110.7687759   9.3118935  10.6171131 110.5225658  10.6811600  10.0208998
  67.9915380   7.1589260  29.5558405  67.5187588   7.9401760  29.8428059
  68.6916065   7.4947338  28.9960504  38.3362103 130.0063133  17.6782763
  38.4889293 129.2615795  18.2598948  39.1822791 130.4515839  17.6320887
  56.7974186  20.2791767  31.7729378  56.3330936  21.0832196  32.0056534
  56.1552858  19.5830326  31.9117904  42.0557785 123.5710907  30.7900143
  42.6554441 123.5154057  31.5340090  42.5874472 123.3203602  30.0345707
  57.9644537   7.1123581 106.7540243  58.4930372   7.5098687 107.4459904
  58.4735680   7.2493439 105.9551077  55.1992559 119.6013451  36.4126515
  55.7113314 119.6560574  37.2195053  54.3719149 119.2014790  36.6807055
  35.3129292  21.4675312  11.9686842  35.0070405  20.9584980  11.2179887
  36.1824822  21.1153202  12.1585858  56.4118385  18.1998425  22.0761633
  56.9501591  18.5392361  21.3611412  55.8608818  17.5333958  21.6656566
  50.8374977 143.4898090  23.5351944  51.6525650 143.9119911  23.8065958
  50.3962755 144.1456413  22.9953408  49.8631001  50.8988362  12.8240788
  49.0095425  50.6500416  13.1787181  49.6579075  51.4776593  12.0898533
  39.2466712  95.9491253  22.8047657  39.9874520  95.5127811  22.3839569
  38.4896541  95.7011890  22.2740269  92.5658703 144.1440201  48.6255836
  92.3592091 143.4868717  47.9610014  91.7227745 144.3494511  49.0295935
  43.9871311 136.4963436  28.5771108  44.2328644 136.2882614  29.4785261
  43.8066721 135.6462955  28.1757545  19.0886843 100.2394867  17.2249591
  18.1406903 100.1450348  17.3177910  19.2868209  99.8438835  16.3761544
  70.0552893  23.6220150  41.3351440  70.6939363  23.8809185  41.9994688
  69.5567846  24.4198017  41.1583567  95.0126362 142.5503254  82.0577812
  95.1513386 142.1067524  82.8945827  94.3468571 143.2120991  82.2449589
 103.9956379 132.2193623  62.9839420 104.4076157 131.6222954  62.3594332
 103.7707424 131.6659069  63.7318325  78.1479263  15.1265316  35.8658767
  78.9759350  15.5037670  36.1630559  78.0633116  14.3129139  36.3629770
  82.7371216  10.8152562  24.6988320  83.5398293  10.9940605  24.2090273
  82.1517372  11.5375882  24.4712472  84.4668579 109.2167282  63.7999153
  84.3144226 108.4250355  64.3158817  83.6458778 109.7049332  63.8621330
  72.9622936   1.9049054   8.0845690  72.9466152   0.9533005   7.9824030
  72.0623255   2.1359616   8.3145797  96.1979961 113.4987164   9.4161421
  95.7363987 113.8222313   8.6425155  96.7543411 114.2293549   9.6860743
  30.2279472 132.0594788  45.4054880  30.0964260 132.9258347  45.7906532
  29.5688772 132.0023632  44.7136784  39.2766714  14.1009503  30.4289913
  39.6317458  13.4000569  29.8822618  39.0538025  14.7971516  29.8110557
  56.6711855 104.8804855   3.8891926  56.8729496 104.4948387   3.0366653
  56.6182613 105.8211327   3.7200788  75.4160309 135.8365345   9.7944456
  75.8432102 135.0056744   9.5860642  74.6557617 135.8672428   9.2136848
  87.1344852 128.5704613  59.5966721  87.0967007 129.0640926  58.7774515
  87.3031521 127.6682281  59.3250847  60.1794147   3.6419373  27.0109391
  60.2850819   3.7877064  26.0708237  61.0354424   3.8528424  27.3837209
  37.2923565 123.5227013  44.4065809  37.1570611 122.6550865  44.7875977
  36.9235134 123.4576130  43.5257006  89.2745399 141.6177368  23.6717010
  89.9521828 141.7195225  23.0033684  89.4044209 140.7323933  24.0115929
  60.4128790  93.1732082 106.2528729  60.7560301  93.2906055 107.1387031
  59.9515009  93.9904499 106.0644867  46.2465239 128.4957027  24.7864938
  45.6634426 129.0396214  24.2569709  45.6619072 128.0285168  25.3833175
  45.4520845 111.7717838  67.4322414  44.6586418 111.7644215  67.9676151
  46.1473799 111.4985752  68.0307055  62.1266222 135.6073856  46.9690847
  62.2462368 135.8827496  47.8779888  61.3247490 136.0485458  46.6887188
  88.3626080 118.1875992  39.6171498  87.4285698 118.2624626  39.4216824
  88.3941746 117.7847767  40.4848862  45.8069706 107.2758293  30.5771470
  44.9532604 107.5748730  30.2641225  46.4369965 107.8446102  30.1346707
  59.5867443 118.0122185 105.1095363  60.1146126 118.7809467 105.3254878
  59.1418076 118.2481766 104.2955431  76.6141939 131.5722561   8.3701056
  76.7049551 132.5247383   8.3422738  77.3725891 131.2451553   7.8862959
  67.9067516  34.0368824  14.0741706  68.3710051  34.7022610  13.5662580
  67.3734951  34.5364170  14.6925151  92.0460129 138.6596680  24.4119143
  91.2495613 139.0887547  24.7245979  92.7593422 139.1771603  24.7855520
  80.4305172  90.0388432  17.5861251  80.9505367  90.7339287  17.1827936
  80.9632874  89.2503738  17.4826348  55.7784796 117.7904987  23.5814118
  55.1937056 117.1329212  23.2047582  56.6403818 117.3741436  23.5788321
  83.1149673  16.6530018  13.7027752  83.8375473  17.1951466  13.3862567
  82.6166725  17.2313671  14.2801964  53.9938688 136.1231327  40.1565981
  54.9272156 136.0491467  40.3556395  53.9571953 136.1928082  39.2026424
  86.0795975  19.4329052   5.1607978  85.7040119  18.7905102   5.7628644
  86.8289661  19.7949009   5.6337202  83.8316631 111.0715866  19.1927838
  84.1109467 111.9871140  19.2000604  83.0968666 111.0501957  18.5797167
  54.9463701  15.5458813  45.7102871  55.6667137  16.1761074  45.7228994
  54.9678898  15.1751690  44.8280573  82.4197292 121.0482979  14.3637133
  81.5590572 120.6814098  14.5658505  82.9677105 120.2856445  14.1785026
  51.9493961  25.4584294  17.6066458  52.6280785  24.8619252  17.9225338
  51.6013288  25.0320607  16.8235254 106.9218636   1.9087868 101.7757335
 107.6144028   2.4977856 102.0752277 107.3433304   1.0510140 101.7226096
  57.7128506   1.5955906  56.9677877  57.8260279   1.1610966  57.8131533
  57.7980661   0.8925419  56.3238287  61.2637568   7.8767472  58.2018089
  60.5565214   8.1694393  58.7766027  61.2158155   8.4620457  57.4459267
  45.3519821 140.3495216  34.5986319  44.4781685 140.0868702  34.3093204
  45.2244902 141.2124920  34.9926734  93.2794666 145.3162766  38.0964136
  93.8855743 145.7429790  37.4907804  93.6601448 145.4664326  38.9617300
  65.9661627  19.1858654  33.3999109  66.5264606  19.9553852  33.2991099
  65.2182627  19.3575459  32.8277230  56.3442039   3.2902890  19.0689480
  57.2684383   3.1771355  18.8470840  55.9512711   2.4334984  18.9023948
  50.4303265  17.1393948  23.1864786  50.2815676  16.6687756  24.0066075
  49.5613050  17.2141629  22.7922106  70.2448511 128.1916714   1.2947676
  70.1220465 129.1015339   1.5654886  69.5190668 127.7201080   1.7035508
  94.9324989  43.0118161   7.6192540  94.9550819  42.1959095   8.1192535
  95.3480434  43.6557560   8.1927538  58.4715748 132.3964787  24.6989083
  58.8860512 131.9913483  23.9371276  57.8151178 132.9866791  24.3288136
  66.2094927  14.3475514  18.7913454  66.2418890  13.6962681  19.4920647
  65.6061506  13.9767247  18.1473827  46.2783337  25.1811581  34.0128660
  45.8606720  26.0016804  34.2746496  45.5501890  24.6064167  33.7768102
  67.5836468 137.5452709   2.6036420  67.7245617 138.4701252   2.4010721
  67.2337914 137.1733570   1.7940083  56.6757298 145.7062626  32.1064353
  56.8731546 144.8634815  31.6978168  57.0483065 146.3550568  31.5093684
  69.7223806 136.8663406  37.4286652  69.1385269 137.6149845  37.5506783
  70.5971718 137.2511292  37.3747230  79.4295931   3.4294110  44.0528297
  80.0082684   4.0079766  43.5562229  79.8890972   2.5899296  44.0718985
  75.0086308 111.8466663  13.9131474  75.8503151 111.8717480  13.4579897
  75.1635456 111.2846470  14.6723390  63.9403152 135.8059311  17.0394683
  63.0230665 135.9430408  17.2762930  63.9229822 135.6483936  16.0954797
  60.7860661  28.0368023 108.2226462  61.2804127  28.3208447 107.4537715
  59.9457502  27.7420216 107.8716398  71.5464163   1.2666016  16.3503659
  71.9784355   1.0268574  17.1701896  72.2527742   1.5964489  15.7949483
  69.9202347 127.5789261  58.4781551  70.6869173 127.2518063  58.9487076
  69.4229937 128.0628777  59.1375351  87.1989346  22.9283123  33.7647319
  87.3658085  23.2013302  32.8625965  86.4710712  23.4800320  34.0511942
  92.6985455 143.6883163  19.9201643  93.0729961 143.5176086  20.7843876
  92.2490120 144.5279884  20.0155115  61.6464710  26.7802983  29.9207401
  61.6044903  27.6595288  30.2967978  60.7475090  26.4553051  29.9705839
  86.6538048 143.2764912  48.8113880  87.0105171 143.1300640  49.6874857
  86.9080544 142.4978828  48.3160496  40.3686666 122.6073360  59.2319059
  40.9512615 123.3629704  59.1555452  40.8656693 121.8824291  58.8527822
  72.1878147 118.5591984  11.4724255  72.2681475 117.6946354  11.8753076
  71.9606972 119.1412067  12.1976244  80.4620361   6.2858849  13.2014894
  79.9669886   7.0964508  13.0825639  80.2467918   5.7587033  12.4320853
  64.1472101   5.9132176   5.6877720  63.4493732   6.5366726   5.4863775
  63.7440634   5.2892380   6.2913913  85.7166672 117.7314186  32.5523305
  85.1874924 117.7637005  31.7553544  86.5891075 117.4785233  32.2504735
  86.2168503  94.3190384  91.9169172  86.8182659  93.5893440  92.0654520
  85.8537674  94.5100117  92.7817484  88.8852406  13.5983639   8.1880105
  89.0020466  12.9203682   7.5224900  88.2530880  13.2248192   8.8020784
  36.7350388   0.1068764  36.4253545  36.7896366   0.8951454  36.9656253
  36.3035989   0.3968125  35.6215954  48.8700533 119.8996353  38.3296418
  49.3556738 119.6194839  39.1054797  48.6771154 119.0872765  37.8615713
  98.2417107 133.2440376  19.4494081  98.2864571 132.8973007  18.5583413
  98.8468647 133.9856720  19.4484949  76.0612917 128.8735867  29.3891907
  76.3504410 127.9793549  29.5707703  75.1079130 128.8374043  29.4665980
  31.8583369   7.1935540  10.2575362  31.3809276   8.0034523  10.0775719
  31.3879848   6.7960530  10.9903336  93.2678509   0.5572491  56.5717888
  92.3667622   0.7601910  56.3206291  93.3146572  -0.3984184  56.5444613
  96.1682606  29.9122792  24.3301654  96.0375023  30.8602314  24.3532062
  96.0943604  29.6380215  25.2442503  39.5514297  10.4950219  30.6026602
  39.1289806  10.1922398  29.7988629  40.4793692  10.5580883  30.3764319
  27.6012802 122.2797203  40.1576138  28.4740591 122.6145840  39.9518108
  27.7478170 121.3679695  40.4095364  54.7634935  64.5388174  23.0483484
  53.8345337  64.3451881  22.9227448  54.8109102  65.4948425  23.0491447
  74.2056465   9.2708569  33.7763071  74.3808842   9.2142182  32.8369904
  73.4740257   8.6706143  33.9200830  21.0506225 140.2915382   9.6515113
  20.7200742 140.6064987   8.8102233  21.4480495 141.0624313  10.0564814
  58.4648180 137.0733261  22.8550839  58.3487558 137.5183010  22.0155883
  59.3645763 137.2759724  23.1111979  58.3333731  91.4470577  14.2255247
  58.6164808  92.1852875  14.7650599  58.6439133  90.6735134  14.6960735
  56.6040373 128.8733006  16.0732234  56.2282419 128.9108276  16.9527674
  57.2084045 128.1315994  16.1024356  94.0400028 112.0998001 108.3763544
  94.0487099 111.1517620 108.5082046  94.1358471 112.4648476 109.2560058
  59.3319130  99.9881649  20.4067183  59.9004269  99.9607468  19.6371245
  58.5985231 100.5439091  20.1430488  71.7806005 142.9488754  39.2155552
  71.9815302 142.0251656  39.3659449  71.2929869 142.9569054  38.3919048
  73.7953091 133.8892269  46.6930771  73.9073992 133.4249973  45.8635235
  74.0315771 134.7952652  46.4943409  42.5626326  13.2636338  17.0272291
  42.1942759  13.8176518  17.7154160  41.8418264  12.6879769  16.7717063
  42.8107119 114.6762562  51.7952442  43.1853819 113.9702225  51.2685823
  43.5585499 115.2294540  52.0209551  54.5783949   0.9677582  33.5244942
  53.9688206   0.7576351  32.8170323  55.2266455   0.2639466  33.4990430
  58.9671612 136.6019917  40.1091051  59.0873432 137.3209858  39.4887495
  59.5619392 136.8063259  40.8307123  75.4841757   8.4692746  13.2132876
  75.9744835   7.6681881  13.0286455  76.1014318   9.0230732  13.6913466
  56.9596958 127.0573807  39.7338820  56.6145468 127.8711605  39.3666410
  57.0391560 127.2325134  40.6715631  54.6491194 133.9801311  26.6744471
  54.5911217 134.5912457  27.4088931  54.9238920 134.5209408  25.9340024
  42.8210163 138.4543324  34.1149926  42.2312975 138.8006878  34.7846961
  42.9205179 137.5290012  34.3388367  77.6076889  21.8107777  43.5622787
  77.4492168  21.0605984  42.9892635  77.8760195  22.5126248  42.9692984
  46.7281866 101.6714001  14.0336335  47.4232292 102.3050499  14.2114902
  45.9698725 102.0072174  14.5115626  91.5998268 110.4440498 105.7892322
  90.8705616 109.9095535 106.1034121  91.7605114 111.0692215 106.4960446
 103.6598492 109.2462063 101.3249865 104.4912052 108.7759590 101.2620714
 103.6204720 109.7710896 100.5255004  63.8283730 144.6253109  22.6790524
  62.9827595 144.9169254  22.3382664  64.4555521 144.8575687  21.9942665
  55.9296703 129.3504238   5.0946856  55.0687647 129.1952801   5.4832804
  55.8904648 128.9140606   4.2436364  51.1565924 130.0889969 107.2658997
  50.8808994 129.2735577 106.8472412  51.6571999 130.5473995 106.5909966
  23.0640006 121.7668056  48.2078505  23.6106229 121.9434261  47.4421883
  23.6560321 121.8676662  48.9532089  72.2501087   5.9579068  31.6230917
  72.9451132   6.6032677  31.4938164  72.5148439   5.4743080  32.4055767
  41.1786127 129.9145985  20.0175905  41.2798643 130.7384109  19.5408154
  40.2978420 129.9598789  20.3896523  81.9637394 138.5534954  27.6532841
  81.8029690 138.1103706  26.8202043  82.2111416 137.8509140  28.2544518
  33.8052773 125.5467129  33.0368614  33.3041334 124.7311783  33.0365658
  33.3516049 126.1068439  32.4070501  85.9362793   4.1946488  12.8011358
  85.3987694   4.4422512  12.0488048  85.3043461   3.9414578  13.4740329
  45.1351976 124.7931480  36.7049599  45.5954313 125.2334499  37.4194932
  45.5841780 123.9528275  36.6127229  30.8252096 100.9537983  32.6120305
  31.6913056 101.3306999  32.7671361  30.9039593 100.0450897  32.9023337
  69.6159172  29.4791584  15.3432918  69.6352816  28.5243397  15.2785206
  70.3653717  29.6968823  15.8975029  87.1960926  12.3683720  22.5473285
  88.0921745  12.6325875  22.7558017  87.2716999  11.9003754  21.7157698
  74.9731350 124.0395927  23.3640385  75.7415915 123.4797573  23.4748936
  75.0472116 124.6892166  24.0631270  36.3586545   0.9135609   4.4081825
  36.2925053   0.0637226   4.8436621  35.6324792   0.9203129   3.7846005
  65.8399391 126.8807220  22.7895522  66.3375139 127.2783756  22.0750427
  64.9507427 127.2172165  22.6784658  27.0108604  26.6434269  27.1579838
  26.8456721  25.7635479  27.4967527  27.0014143  26.5394192  26.2064981
  67.5651884  19.7539883  51.3425875  67.3998547  18.9512997  50.8480406
  66.8656683  20.3494244  51.0735750  69.6261263  12.2223931  35.5239677
  69.4730902  11.5151387  34.8973894  69.4406605  11.8306046  36.3773942
  84.7736263  13.6191349  49.1725826  83.9192772  13.3950692  49.5415163
  84.5759678  14.2368870  48.4686279  86.0906792 118.8216305 105.3488281
  86.2310219 117.8983879 105.1386889  85.1813316 118.8643932 105.6446206
  60.5373383 140.5208015  93.3872112  60.3559971 141.3205338  93.8809427
  59.8316240 139.9225330  93.6327227  32.6061821 123.8894081  23.4263802
  32.4913883 124.8117542  23.6551380  32.8808093 123.4724712  24.2430663
  72.7492762 131.5406132   0.2448398  71.8787479 131.6874027  -0.1251176
  72.5995016 131.4658356   1.1872875  55.3726959 103.5398293  26.2563944
  54.6759653 103.9513016  25.7450414  55.2417374 102.6004601  26.1272717
  97.7351284   1.7454319   8.7358439  97.6291943   0.9493428   8.2150275
  96.9811535   1.7479496   9.3255520  67.0901203 128.2584095  30.1414132
  67.9271555 127.7996826  30.0694251  66.5820932 127.9488659  29.3915319
  68.7430477 125.0511837  93.4054121  69.1757202 125.6753922  93.9879748
  68.4669542 124.3380165  93.9810868  84.2424202 116.7884064  18.9448202
  84.6213627 117.5718403  19.3434203  83.5232925 117.1178532  18.4057975
  73.8209343  10.2667122   4.2788106  73.0670071   9.6776848   4.3083900
  74.4322777   9.9056893   4.9207973  52.9888630 144.9394703  44.5735168
  53.9212465 144.9685860  44.7880983  52.8618908 145.6621075  43.9587784
  74.1119766 113.9550209  81.9009686  73.3245230 114.0762806  82.4314785
  74.7324467 113.5235691  82.4884224  53.4576082  23.5240536  19.5224702
  53.3713388  22.9870777  18.7347889  54.0175104  23.0089550  20.1033521
  35.3086305  16.5153675  21.1283755  35.3565955  15.7082730  20.6160140
  35.8800030  16.3564282  21.8797088  49.7872829 126.9669247  40.0939226
  50.2350235 127.7576828  39.7931433  50.0578308 126.2884903  39.4752479
  43.0309963 140.5432987  37.2177219  43.6602688 139.8899269  37.5232744
  42.2720957 140.0319672  36.9369411  40.1284122  35.0633602  68.2672358
  40.3001833  34.9110012  69.1964912  40.5615711  34.3356304  67.8211308
  34.3866062 111.4947987  14.0312290  34.4328666 111.2834454  14.9636567
  33.5572720 111.1154366  13.7405074  62.8579760 132.3890400   6.2392199
  62.6228762 133.2153320   5.8170813  62.3885584 131.7220592   5.7382011
  71.0317802 134.8157597   8.4389704  70.1255178 135.1067638   8.3377975
  71.1149454 134.0772247   7.8357512  50.1099968   3.0195217  26.0238004
  49.4343519   3.6274128  26.3241363  50.2407646   3.2430058  25.1022887
 121.2496570  17.8384762 102.2276952 121.6449482  17.1859532 101.6496154
 120.9407119  17.3352604 102.9810586  77.6824570 141.1279297  65.9527874
  77.8666353 140.8212471  65.0649500  77.6995659 142.0825577  65.8848000
  57.9990149 127.0674610  21.7073536  57.6109505 126.5497017  21.0019684
  57.6186323 126.7051888  22.5075412  80.6800556 137.1435356  42.0575762
  81.2648392 137.8975964  42.1327639  80.7705879 136.6859436  42.8934288
  71.8626022 144.7846889  19.5973253  70.9720469 144.8723602  19.2575359
  71.8279839 145.1850796  20.4660726  35.9189987 130.1822948  16.4072418
  35.3516150 130.5977917  17.0565987  36.7809153 130.1579571  16.8228602
  57.5102520  94.0141869  36.8129015  58.1916857  94.4083786  36.2683868
  57.1463108  93.3137703  36.2714291  86.9297791   2.3236161   9.1324890
  86.1842823   2.1026688   9.6907425  86.5399551   2.7542382   8.3716726
  54.0224075 115.8307266  22.5544930  53.4843540 115.2115440  23.0477858
  53.7012196 115.7637119  21.6552830 102.6649475 125.9778595  16.3769639
 102.9834557 126.8693829  16.2356699 101.8084049 126.0919666  16.7887247
  36.2975955 136.7305756  31.7001653  35.4712963 136.9460106  31.2676716
  36.3089323 135.7739735  31.7320895  60.0147104  16.1305790  30.0990844
  60.9578848  16.2925511  30.0784302  59.7170401  16.3354855  29.2127204
  72.6523685  28.3438282  58.2991982  71.7974854  27.9165440  58.2458067
  73.2654524  27.6974850  57.9490328  68.9612675  10.3522473  41.1747313
  68.7613869   9.4563179  41.4460278  68.2049227  10.8638268  41.4618826
  42.0102930   2.9185658  98.9934059  42.4356413   3.6772614  98.5937842
  41.6527414   2.4272709  98.2537993  39.3566895 100.8054638  31.5762568
  39.9548912 100.1589584  31.9509745  38.9060998 101.1814499  32.3324537
  70.2755070  14.7016125   9.0533435  69.8978996  13.9237004   8.6428863
  70.0532293  15.4179936   8.4586710  14.1844499 121.8214130  31.3608766
  13.8389134 121.2816238  30.6499147  13.6145759 122.5903225  31.3765240
  77.8475094 105.9332943  24.2469788  78.2635641 105.3058720  24.8381424
  78.0795527 105.6266594  23.3704162  53.3766651  14.9686222  11.0971081
  54.2719412  15.2107983  11.3338745  53.4338856  14.0432721  10.8589721
  60.7543373 108.9544678  23.1563783  60.6668711 108.1457996  22.6517558
  59.8926592 109.0839291  23.5525942  40.0447655 128.8668919  39.0846848
  40.2915049 128.2794762  38.3703375  39.0915728 128.9302158  39.0243101
  45.9656191   0.0545864  26.2870622  46.3786507   0.8208924  26.6850734
  46.6972589  -0.4702015  25.9621930  27.6533270 131.0714436  98.9600726
  28.3004713 131.0386086  98.2555469  27.0928741 131.8143749  98.7360545
  85.3444481  20.1119786 106.9904061  86.1366940  20.4446965 107.4121573
  85.6383228  19.3436985 106.5008911  43.2944822 123.4913635   7.4717301
  43.9411879 122.8004837   7.6155645  43.6806154 124.2686749   7.8753501
  65.7449627 140.0985527   1.9986883  65.3774071 140.0124550   2.8783047
  66.3726330 140.8176327   2.0707078  63.8189459 124.0030479  19.8757958
  63.8446760 123.1160069  19.5170319  63.4774065 123.8927078  20.7631564
  80.9305477  42.9631405 103.1463411  80.4261780  43.7747746 103.0905785
  80.2755165  42.2687703 103.0755248  95.4532051 145.2501011   5.2745295
  95.2755165 144.3154144   5.1695353  95.1330757 145.6472206   4.4645676
   6.5249312  45.4663449  48.7462044   6.2156081  44.9640637  49.5000362
   7.3009002  45.9260540  49.0667868  61.5018082 146.2411308  16.5014482
  61.5739679 145.9451103  17.4088597  60.6944990 145.8384037  16.1816144
  67.0670700 134.2942142  36.4247894  67.8296185 133.8152599  36.1002064
  67.3229027 134.5875645  37.2992778  56.0720491 133.8525581 109.5113091
  55.3428030 133.7500477 110.1228009  56.0681534 133.0456161 108.9964695
  37.9703808  69.0487652  28.0019712  38.4610915  68.8586788  28.8015342
  37.0543599  69.0577870  28.2795668  81.6699123 114.4232368  24.5959449
  82.3841476 114.2225170  25.2007627  81.8746185 113.9197159  23.8080406
  65.6529856 125.5300617  95.9286519  66.0525846 126.3092899  95.5421873
  64.7204828 125.7397747  95.9805413  38.9611387   1.9145756   5.0033957
  38.9157152   2.8662186   4.9109620  38.0813718   1.6100579   4.7808915
  91.7843056 119.9761772  99.7710653  91.4209652 119.5164680  99.0141698
  91.4966106 119.4611549 100.5248668  88.0918121   6.9709854   7.6580620
  88.2743549   6.7810898   8.5783088  88.7191677   6.4342480   7.1737385
  79.6226978   7.8946762 103.1574389  79.3268919   8.5032635 103.8344570
  79.8907566   8.4568577 102.4305745  37.5497222 125.9951401  36.2461805
  38.3665609 125.5114460  36.1235380  37.1510792 125.5993938  37.0212293
  41.4849186   6.4228039  26.0115194  41.8272781   5.9751206  26.7852116
  41.1831760   7.2701149  26.3390064  66.3550091 119.7451115 106.3497149
  65.7795048 119.4784546 107.0665994  66.1905479 120.6824207 106.2465423
  67.7361679 104.2307091  30.1186204  67.3506403 104.4190598  29.2629766
  68.5174990 103.7143326  29.9208522  42.6384640 125.9579372  27.6043868
  42.0238161 126.4811611  27.0899248  42.6220274 126.3561630  28.4746623
  14.6263671 126.2538815  31.9285893  14.2399359 125.4667759  32.3124647
  15.4111159 126.4153290  32.4523616 104.6667862  22.3843174  11.7195046
 104.7043800  22.5683575  10.7809174 105.4323101  22.8302937  12.0818770
 118.6456108 138.8371372 108.0515456 118.8274860 139.4630241 108.7525536
 117.7699852 139.0705585 107.7432729  51.3670588 105.4016876 107.4943345
  50.6112480 105.7686996 107.0357638  51.0253382 105.1425076 108.3500680
 103.9156437 144.1448593 107.4735878 103.6088943 145.0508976 107.5087596
 103.2712841 143.6538696 107.9834508  49.5848656   9.2082672 104.5965686
  50.1669884   9.2049008 105.3564059  49.5794487   8.2998352 104.2949732
  68.5758829 137.2936630 108.1851486  67.8378630 137.3905849 107.5833505
  68.1905270 137.3966503 109.0552792  29.6015429 137.0139217   3.1581503
  29.7618842 137.4918652   2.3444588  29.6954513 137.6732445   3.8456821
  68.6894846 118.7223339  29.9929047  68.2484198 119.5135117  29.6835065
  69.4970322 119.0405560  30.3964329  27.0092678 138.1525421  96.4648672
  27.1883726 138.2661819  97.3982700  26.3290858 138.7975883  96.2712284
  52.8126860   0.0542622 102.2276845  52.6111603   0.9767132 102.0704880
  52.2655582  -0.1863880 102.9753276  62.6079464   1.5664940  28.3309960
  63.1300449   2.2037487  28.8183904  62.7462578   1.7961960  27.4121189
  71.2710428  21.3955670   5.8384556  71.1237001  20.6099682   5.3118050
  70.4992151  21.4546948   6.4014995  54.0135527  95.4050827  99.1375967
  53.5949135  95.4094028  98.2768091  53.2916784  95.5200386  99.7555896
  79.2268133   2.2231560   5.5171877  78.4934950   1.9394665   4.9712974
  79.9563742   2.3224144   4.9055308  59.6584463   0.9631424  28.9475465
  60.5480766   1.3083439  29.0225577  59.6226883   0.5817871  28.0703235
  22.6488853 116.5592480  80.2684339  23.3809304 116.7403030  79.6788915
  23.0219746 115.9980965  80.9482464  62.5488043   5.8078938   2.8065726
  62.7344084   5.7093888   1.8727207  63.0428219   5.1026421   3.2246533
  72.8862572 129.6096134  99.1032752  73.1119204 130.0798225  99.9058994
  73.2680845 128.7396526  99.2199417  50.1215267   1.9664460  38.6162257
  50.9568977   2.3881989  38.8175035  50.3579950   1.2119274  38.0767798
  11.3668334   5.7006436  28.8481569  11.6126502   5.3646641  27.9862261
  11.0621047   6.5922623  28.6796808  71.9040680 124.1196632  85.0593241
  71.9802189 123.4522724  84.3773922  71.9333982 124.9507809  84.5854005
  57.0529509  48.2587033   2.3472449  56.3547373  48.7722378   1.9410184
  57.8596830  48.6140232   1.9741957  55.6843901 126.5883636 106.6866201
  55.7748222 126.5607929 105.7341006  54.7422314 126.5172100 106.8399217
  90.2599049 119.9581242  43.4639740  89.4195557 120.2976608  43.1561470
  90.9045696 120.3362274  42.8659105  70.0126934 128.5275841 107.2549310
  70.8973265 128.2462883 107.0214062  70.1445818 129.2934418 107.8137606
  80.6854534 145.1072025  19.2481411  80.5154514 144.1742802  19.3784595
  79.9007463 145.5424786  19.5813000  87.2447109 103.3120441  21.8098998
  86.8854046 103.6649895  20.9959197  87.2902298 104.0657043  22.3982501
  53.9127302  13.1455021  98.8174518  54.6150732  13.1870442  99.4664689
  54.3518782  13.2918339  97.9796156  61.7438555 143.4362984 105.1102742
  61.6314507 143.6327171 104.1802123  62.1544504 144.2212391 105.4729267
  46.4591122 143.3276081   9.1586196  45.6312799 143.4955120   9.6088779
  47.0056391 142.8958988   9.8152572  34.6972013 125.1466751 104.7457924
  34.2072630 125.7593536 104.1973236  35.6152940 125.3215408 104.5390102
  59.3279314 143.0139256  93.6056288  58.7918663 143.1904411  92.8325101
  58.7637472 143.2402325  94.3450292  45.9723282  99.6457005  37.5078034
  45.2738523  99.7904778  38.1460834  45.7267714 100.1865864  36.7572188
  96.1615086 106.8065166  86.1465772  97.0044136 106.5908337  86.5455946
  96.0609722 106.1689281  85.4397520  40.8865786   8.7780075   7.3157364
  41.4504480   8.0356007   7.5327653  41.0448742   8.9349251   6.3848478
  40.6105232   1.4218502  15.2706623  40.2012300   2.0615177  14.6879661
  41.4008331   1.1461335  14.8063123  79.2236900 110.6415558  83.0526909
  80.0633812 110.6397629  83.5122069  78.5984612 110.9723949  83.6975630
  88.5551357 118.4527779  13.2917857  87.6923847 118.8444042  13.1556809
  89.1547966 119.0199757  12.8071010  74.5694447   6.8321877  29.8277497
  74.6213579   7.5746613  29.2258596  73.8167953   6.3269120  29.5204425
  49.2308950   1.3606148  18.2284665  49.3502283   2.0324974  18.8997030
  50.1034594   0.9865551  18.1062150  61.7143297  13.4141426 107.3148983
  61.1905861  12.7350884 107.7401104  61.1743975  13.7090092 106.5815791
  90.7131290 101.7310619 107.7597355  90.6163692 101.9697475 108.6816359
  91.6091824 101.9854450 107.5392442  51.7357731  10.8092099  70.5592998
  51.9383383  10.8896618  71.4913543  51.7618656   9.8676567  70.3889307
  75.2768326 127.4978828 108.7730716  74.4110489 127.7431011 109.0994374
  75.5539227 126.7813396 109.3440564  61.1965370  11.4744835  -0.3365249
  60.7825375  11.3224297   0.5130145  62.0908642  11.7405587  -0.1229431
  65.9385157 143.6837196  16.2572861  66.1275482 144.5363426  15.8654535
  66.7942190 143.3475876  16.5237868  73.3250618 113.4571648  36.7412281
  74.2091036 113.3014965  37.0736074  73.4308434 113.5015774  35.7909274
  71.5180016 134.4321918  11.3940632  70.5941677 134.4233704  11.6444349
  71.5103626 134.3031120  10.4456365  68.3590364 101.7119217  21.9858861
  67.6597023 101.9954014  22.5747824  68.1223917 102.0841503  21.1363697
  65.0835562   9.3776112  45.4779768  64.5606327   9.3112068  46.2769556
  65.8862066   9.8206024  45.7531786  35.9107232 104.5643806  12.3620105
  36.2065339 105.2048111  11.7150426  35.1359844 104.1648006  11.9665968
  58.3672094 116.4336777   8.2160330  58.9981604 117.1448231   8.1046641
  58.8893223 115.6982708   8.5366821 108.2963371 133.3371925  10.3033531
 108.2542706 134.2336941  10.6361508 108.1786728 132.7881718  11.0785699
   4.3318682 125.0338364 107.1323510   3.7340193 125.4926491 107.7225173
   4.4543295 125.6368542 106.3991331  40.4121494 145.7478046 101.7540630
  40.2291727 145.4761219 100.8546522  41.2914467 145.4135323 101.9310548
  85.1371765 132.5863743  18.3004451  84.7708893 132.8553391  19.1428936
  84.4233036 132.7168369  17.6762700  74.1712761  20.6508808  45.0427008
  74.5368004  19.7940998  44.8224068  74.1375923  20.6581478  45.9992838
  64.2694569 136.9053078 104.9843162  63.5024500 136.6738129 104.4605418
  64.9867964 136.4081097 104.5913114  63.2664442 116.2227821  86.5735158
  63.6398125 115.5139160  86.0497554  63.0247641 116.8919945  85.9332212
  43.8465977 127.1288013 106.1098950  43.6023664 126.8971443 107.0059522
  43.5333395 126.3963032 105.5792853  71.7185450 125.8346272   7.6652563
  71.9925642 126.6779137   7.3046774  71.9949675 125.1931095   7.0108235
  73.7910128  14.4836026  89.8566922  74.5144224  14.4816380  90.4835149
  74.2142677  14.5722370  89.0027436  76.0153055  22.6503163  72.0607599
  76.8541050  22.5559025  72.5121292  75.3716326  22.2977238  72.6752528
  55.1541710 139.3257904  88.3693370  54.3915462 139.0824413  87.8445371
  54.9411058 140.1931381  88.7136348  48.8812208 141.2458420  95.0666221
  48.0434704 141.6998577  94.9756488  49.0176439 141.1820126  96.0118982
  62.0731068 145.5121517  26.3891172  62.0944548 145.3467274  27.3316717
  62.9796362 145.3954124  26.1048603  20.8223677 136.6424274  20.2855873
  21.1371517 137.5310993  20.1200414  20.9900284 136.1728477  19.4685090
  75.5374670 144.2674732  85.6702312  76.0472107 144.9828720  86.0504874
  74.6334648 144.4580555  85.9205993  73.6159611 144.2723083  17.6932216
  72.9457140 144.4463730  18.3540523  73.9602757 143.4092045  17.9228580
  63.8168383 121.8054295  25.4211903  63.2402754 122.2946835  24.8343062
  63.9551258 122.3919201  26.1649179  63.8583708  16.3257580  87.7710756
  63.6553431  16.6915112  86.9101223  63.4408903  16.9246083  88.3902081
  69.6588516 131.0283566   2.2915828  70.2672815 131.7670727   2.2731432
  69.4216871 130.9363747   3.2143641  56.7179918  91.9534874  20.2663159
  56.6844988  92.3162174  19.3811405  57.2962236  91.1942768  20.1923203
  58.1894636  31.5128689  94.6430846  59.0699959  31.1417752  94.6994957
  58.1979465  32.2445851  95.2601501  22.4043870 138.9506912 106.8765076
  22.1993566 139.7029209 107.4317969  22.3863435 138.2014465 107.4719449
  37.0945358 129.1557789   6.3382608  37.8474474 129.0418625   6.9182432
  37.4413157 129.6377373   5.5874628  80.6511211  80.6791592  34.1043282
  80.1023006  81.2676716  34.6226764  81.0008812  81.2315464  33.4052086
  68.3359051 125.9200478 105.1092818  68.5823011 125.5276489 104.2716982
  68.7317038 125.3484631 105.7672101  67.3478270 142.0452881  37.0683861
  66.6346502 142.2736073  37.6646113  67.3427916 142.7413177  36.4113069
  31.6334796 118.8401222   8.7251478  32.3702335 119.1682720   9.2406523
  31.6767144 119.3323135   7.9053223  27.9407191 123.7701130  30.7242227
  27.4102998 124.4867706  30.3759694  27.5347662 122.9783058  30.3713989
  49.6670675 116.8367481  75.2306517  50.4173803 116.2815952  75.4429372
  49.7689724 117.6032162  75.7949051  79.0836287 133.6646938  97.4302455
  79.8383093 133.8607788  96.8750521  78.7866354 132.8038120  97.1354302
  83.1600952  10.0131588  42.2113085  82.7684689  10.4969006  42.9385281
  83.7897682  10.6241780  41.8286991  68.3373880 136.7001343  80.7419857
  67.8520727 136.2140942  81.4086755  69.1634750 136.9302845  81.1672386
  83.2753944  14.7450238   2.8063041  84.0394783  14.6986752   2.2316276
  82.9785633  13.8383084   2.8837025  65.3571987 122.2737408  16.7662299
  64.7813511 122.8775501  16.2971354  64.7610044 121.6808224  17.2236502
  52.7373886 131.2207508  15.9535503  52.9649639 131.4216995  15.0457740
  53.2391644 131.8503666  16.4712751  69.2737627   2.5305538  22.1231198
  69.0361834   2.1479969  22.9677701  70.2233839   2.4227219  22.0699549
  89.5234299 143.2900047  32.3076177  88.8804054 142.9020786  32.9011321
  89.7259045 144.1407681  32.6967692  57.9114199 123.6486912   3.7512943
  57.8304195 123.7413788   4.7005463  57.8376007 122.7071571   3.5954118
  26.6851115 119.6948719  10.6488979  26.6660547 120.0312519  11.5448415
  26.0934019 118.9425945  10.6628680  89.9823761 136.7199993  27.8761268
  89.4604015 136.0968781  28.3815861  89.8167801 136.4858627  26.9628978
  78.4460449 139.2498302 106.8723893  78.7058783 138.7150192 107.6225215
  78.3840561 138.6295509 106.1460012  52.3535824   8.3833580  32.7218509
  52.0970535   8.1783562  31.8227410  51.5260506   8.4444218  33.1990218
  81.1988258 133.4845161  20.0283289  81.0725117 132.5541973  19.8418295
  81.4562416 133.5112572  20.9498787  68.9759254 111.4712143 104.8613381
  68.6135292 110.6541729 105.2038916  69.8618889 111.5099049 105.2216195
  33.7159538  11.8440895  49.3138266  33.6122298  12.0777207  48.3913898
  34.4393492  12.3912983  49.6196079  68.7175417 139.7622108  29.0505505
  69.1204166 140.5880165  29.3188143  68.9022112 139.1602898  29.7715330
  74.6327114 129.8725224   4.9534097  75.2361202 130.4639053   5.4032916
  75.1803970 129.4067383   4.3214932 108.5689640 138.9822674  64.2057570
 108.3825016 139.8620033  63.8778313 107.7949619 138.4702206  63.9713153
  53.9460135 115.9722996  26.2187576  53.7925005 115.7135773  25.3100610
  53.3905649 116.7414093  26.3459182  49.4942713 114.0858746   4.0562844
  49.8615170 114.1143036   3.1727937  49.6320295 114.9679852   4.4014311
  57.3176908 136.6272354  12.5955367  57.1849775 136.0672951  11.8306267
  57.8530741 137.3517513  12.2720015  59.4702244 140.6907177  21.1943531
  59.7999191 141.3214493  20.5542636  59.8312426 139.8507786  20.9108138
  27.5814271 140.1543045  45.9920788  26.6686034 140.1669025  45.7042837
  28.0778265 140.4447937  45.2269459  90.7250118 121.6011906  96.7524704
  90.6791306 122.4031258  96.2318643  91.3280201 121.0361862  96.2693771
  82.4199963  98.8665485   2.8789550  81.8530083  99.0117073   2.1215339
  81.8160534  98.6835003   3.5986593  84.8238754 141.2016582  39.5559406
  84.5225334 140.5060291  38.9715457  84.7550964 142.0003891  39.0329385
  53.5320807 143.3175468   3.3864838  52.6837730 142.8807163   3.4625608
  53.4984827 144.0206051   4.0351859  94.9563503  19.3442707   9.8859334
  94.1179657  19.6106701  10.2632594  95.6132889  19.7560482  10.4472649
  65.8666134 126.2982845 102.0417758  66.8088484 126.1372566 101.9918712
  65.5681324 126.2570381 101.1332395  89.4309902  18.1242352  97.2285660
  89.4832325  17.8004818  98.1278368  88.4932041  18.1553250  97.0392939
  25.6078243 115.2728653 100.0432446  24.9219012 114.7543240 100.4637977
  25.8321381 114.7787476  99.2547246  49.9581289  96.1030483  97.1269056
  49.9954176  95.4588890  97.8339382  50.8313608  96.0799408  96.7355391
  53.0853796 113.9326191  99.7114667  53.7100124 113.2095718  99.6543416
  52.8821993 114.1461182  98.8007709  50.9558153  95.8811665  14.7214043
  50.8815861  96.5196037  15.4307079  50.2958536  96.1536312  14.0838742
  60.1816607  17.8790264   0.2459521  60.7174444  17.1586209   0.5779193
  60.7293653  18.2989865  -0.4172866  89.1637039 129.4829750  46.1624575
  88.7251186 130.2260303  46.5768671  88.5509205 129.1885471  45.4886246
  39.4805336  99.3927574  12.9692471  39.8094606 100.2648926  13.1870115
  39.5023489  98.9146709  13.7982154  37.0413709  73.3452892   3.9337033
  37.5658154  73.0035257   4.6578503  36.6149020  74.1232204   4.2931151
  16.3337684   0.6524258 107.0432972  17.0881987   0.1591473 107.3653895
  16.4019966   0.5990963 106.0900226 107.1721268 109.9898911   6.3969463
 107.7191639 109.8116970   5.6319416 106.9943142 109.1267300   6.7705363
  52.5643396 118.0439186  29.2474031  53.4078598 118.3851242  28.9502811
  52.1570921 117.6902103  28.4566617   0.6188708 121.3821888   8.2895428
   1.0244303 121.4773273   9.1513401   0.2510386 120.4984951   8.2941836
  59.4466400 128.9810753   8.8430524  59.7844601 129.8615932   9.0067208
  58.7394333 128.8737965   9.4791198  74.5521736   2.5804501  43.9020014
  74.6601629   3.0652790  44.7202349  75.3535080   2.7594261  43.4099960
  92.1934223 137.8367615 107.3264667  92.3277760 137.6403809 108.2536208
  91.3251686 137.4847031 107.1304473  63.7402296 128.6206913   8.3748746
  63.9696646 129.5496368   8.3492309  64.2734194 128.2231998   7.6864415
  87.1910381 118.4631920  16.5293765  86.8752480 117.7079201  16.0333288
  86.7799664 119.2167759  16.1058521  59.7747231 145.4040718  99.5523926
  59.9711037 144.5019531  99.2997321  59.0871763 145.3233910 100.2134534
  77.4398947 139.6385002   6.5887576  78.1609964 139.9215794   7.1509933
  77.8688955 139.2473316   5.8277190  62.7625751   5.4103356   8.8610756
  62.4609709   4.8209458   9.5523661  63.6238527   5.0717717   8.6165392
  81.0115242  13.6229115 109.5218745  80.9874058  12.6726990 109.4090609
  80.3612232  13.7999897 110.2015685  43.8756227 112.3003292   2.6220080
  43.5148811 113.1777096   2.7496797  44.5081758 112.1956825   3.3327535
  38.8277173 133.8716221  10.9997058  38.1984735 134.5833778  11.1166942
  38.3071995 133.0738640  11.0938823  44.3091822  23.1810170  46.8936634
  44.5687246  23.1899624  47.8149605  45.0625515  22.8076344  46.4362144
 104.0033913 128.7964153  29.2112327 104.2102242 128.4335041  30.0724792
 103.5742950 129.6310234  29.3997765  99.0031052  24.1677075   4.8431873
  98.9266205  23.2339840   5.0394374  98.3898926  24.3120175   4.1225111
  76.5205860 130.9406471  15.6964600  75.8825541 131.5928459  15.4070187
  77.2976971 131.1134911  15.1649904  56.9486237 141.7844296  21.5124822
  56.4643621 141.3887501  22.2371602  57.8000307 141.3472366  21.5263534
  55.1579237 145.2006626  16.3659894  55.0065613 145.3419876  15.4314590
  56.1048794 145.0821972  16.4400184  52.6326847 112.7719498 102.6266452
  51.8934584 112.3588943 103.0729153  52.4755526 112.6042843 101.6974374
  58.1534910 117.0435810  47.3185205  58.1951427 117.3004723  48.2396650
  57.5214863 116.3249683  47.2986174  38.0493999   0.8043747 101.8176266
  38.3755088   1.7028981 101.7673423  38.8196826   0.2821999 102.0417609
  77.3512793 126.6372490  23.3950257  76.5401840 126.2244892  23.6916471
  77.0621920 127.3877048  22.8759050  87.7006531 140.5239010  92.5174578
  87.1756172 140.5344486  91.7171749  87.3120499 139.8297024  93.0497297
  65.9250402 145.6877613  10.9798646  65.3480434 146.4271832  10.7886541
  65.4105759 144.9155140  10.7449412  77.1779346   3.9249878  51.2508535
  76.6593266   4.6128064  51.6682053  77.8348446   4.3973236  50.7393837
 101.6470814 139.1889381 107.2529688 102.2568321 139.0342712 106.5315040
 102.1564198 139.0014362 108.0414132  58.4719467 140.3353024  96.0052212
  58.2475901 139.6461105  96.6304549  58.2783842 139.9540424  95.1488289
  39.3473959 112.0302296   1.0668032  39.5448494 111.2519073   0.5457814
  39.3191648 111.7132950   1.9695702  24.7095776 142.2758865  21.1300516
  24.6543241 141.5787697  20.4764342  23.7984514 142.4745178  21.3459778
  93.0091286 135.3394699  18.6850441  93.7415409 134.8886871  19.1052985
  93.3911705 135.7414055  17.9048371  76.7737103 119.0069866 101.1526635
  76.1551619 118.4707260 101.6487124  77.5205183 119.1174507 101.7411389
  43.4158850  96.1593533  10.4349935  43.4946728  96.1546898  11.3889337
  42.5701809  95.7455254  10.2624881  58.2042170 133.0263901  80.3979763
  57.3031330 133.3449841  80.3453454  58.3541059 132.5920105  79.5582827
  93.4045887   2.5425415  18.7367749  93.6115074   2.7616482  17.8282535
  93.8752174   1.7250042  18.8991487  35.6252432 141.0866070  14.2525208
  35.6336713 141.6028690  15.0585210  35.2966452 140.2286243  14.5210719
  67.1907187 125.6173801  19.7524023  67.3652840 124.7382736  19.4163465
  66.3259983 125.8386230  19.4066536  47.5603056 129.3291950  48.9958429
  46.6196918 129.1873837  49.1024733  47.7015352 129.2976284  48.0496454
  32.0863080 136.6522121  15.6676523  31.8672252 135.8715820  16.1764280
  33.0424953 136.6489506  15.6237832  67.8373003   1.4651757  92.1055889
  68.3438349   0.8672791  91.5558910  66.9249535   1.2815075  91.8817234
  71.9292688 140.7435513  82.7160740  72.4584341 141.0849285  81.9951820
  71.4433050 141.5031624  83.0370998  53.2282829 108.4368801  91.4796448
  53.8007641 108.6015797  92.2288990  53.4213924 107.5347805  91.2244034
  29.3393922 120.9643269  85.5585480  29.9336576 120.6744385  86.2506771
  29.0465379 120.1549625  85.1397514  75.5234623 104.0986252 107.8076649
  75.3358126 103.3625698 108.3901119  75.6533623 103.6971188 106.9485092
  77.7065897 141.0335445  93.5216808  77.9733849 141.4554405  94.3384171
  76.7883396 141.2810421  93.4130859  29.7974730 101.5172386  84.3025017
  29.6933842 102.3655891  84.7334194  29.5463490 101.6781807  83.3929634
  67.1831322 119.4149208  70.1281643  67.8839159 119.8136234  69.6122503
  67.2580767 119.8238564  70.9903622  57.3413134 115.0473213  97.5055122
  57.9898930 115.6813240  97.1995449  56.6152239 115.5828190  97.8252983
  74.3878031 105.7851219  85.8244324  74.8362494 104.9677467  86.0412788
  74.3650198 106.2717056  86.6484261  43.4251499 120.1322842  91.4433575
  43.1192064 119.3772507  91.9459057  43.4347057 119.8280144  90.5358505
  69.0246773   2.2996216  89.0195751  69.2296839   1.5724354  88.4318638
  68.6397552   2.9662114  88.4506035  58.8403177  93.8389778  12.6065580
  58.8471842  94.1057014  11.6872922  58.2709503  93.0698395  12.6285402
  63.5466003 146.4546204  13.7547723  63.6576843 146.7144299  12.8402273
  63.6353207 145.5015850  13.7455026  72.9436016 125.6120396  79.9167919
  73.7470961 125.1959515  79.6045589  72.8978395 125.3788567  80.8440304
  64.7889566  97.6531219  74.9994230  64.7875690  98.3004665  74.2943192
  64.7888947  98.1738186  75.8026075  65.4337978 137.3224449  96.3418674
  65.1380730 138.2123661  96.1500072  66.1872482 137.1911049  95.7662773
  79.3031406 104.2889786  82.8700924  78.7779093 104.7406387  83.5306740
  79.3305779 103.3793354  83.1668091  61.4014196   2.3245221 105.7459831
  60.9094286   3.0603581 105.3816795  61.3598156   1.6496830 105.0684166
  49.9081039 111.2141418   4.9738542  50.7698154 111.4213562   4.6122686
  49.5765924 112.0516205   5.2978078  54.3093061   5.1379948   1.5496389
  53.3912516   4.9216729   1.3865224  54.7208500   4.2980175   1.7528573
  58.0408621 122.7072144  65.1341677  57.8380585 121.9461823  64.5901728
  58.2275963 123.4064770  64.5077515  22.3704076 107.3703003   4.9456445
  22.5516438 106.5202236   4.5447103  22.7987194 107.3280621   5.8006326
  75.4977703 130.0170708  86.4402008  74.6475458 130.4197216  86.6168976
  75.5403852 129.9564648  85.4858685  75.2026033 130.1640892  83.4701824
  74.6520853 129.8523235  82.7518749  75.5604792 130.9939861  83.1548786
  85.7239628   7.4318676  79.1419744  85.4933167   7.4299698  78.2129860
  86.6799831   7.3852425  79.1514969  71.5762186 120.7413006  98.0704403
  71.4426565 119.8004627  97.9555511  72.1776009 120.9855175  97.3669243
  57.3399258 119.5094872 107.6525497  57.9297066 120.2235794 107.8943539
  57.8667927 118.9447498 107.0871162  31.9533253 129.5109272 109.3149471
  32.6357031 130.1814461 109.2834282  31.1406207 129.9882317 109.1478348
  83.9414406 107.0296574  10.6889287  84.7105885 107.5847244  10.5603162
  83.6828327 106.7700863   9.8046342  67.9791069 114.1681385  64.4712496
  68.0583525 114.9970913  64.9432468  67.4088907 114.3686771  63.7290478
  81.4566517 126.5003014   7.4281923  81.4088345 127.4203491   7.6879350
  80.7603073 126.0739040   7.9277078  56.6197824 112.5035763   6.8082849
  56.0310125 112.4240208   6.0577813  56.4674234 113.3886337   7.1394674
  33.1124568 104.6674061  97.9625416  33.7582850 105.1178265  98.5068417
  32.9723597 105.2557945  97.2206497  64.9589348 125.0022411 109.5096016
  65.7394648 125.5165386 109.3034458  65.1538897 124.1266727 109.1755199
  93.9302921 116.0659599   8.7482492  93.7823772 115.2037621   9.1367952
  93.3432007 116.0920906   7.9926816  67.7241135 117.3302364  88.3607101
  67.5482035 118.2430553  88.1325626  66.8600321 116.9549084  88.5301876
  46.4614439 134.8177814  81.9703770  46.9000006 134.4330025  81.2115383
  46.6373205 135.7559299  81.8984413  68.3116627 143.4670353  99.8472691
  67.8441191 143.6713314  99.0373898  67.6222801 143.3733273 100.5046940
  67.4900484 127.1149635  39.9726701  67.0112848 127.1877956  39.1470122
  68.3850813 126.8975163  39.7121644  69.6702433 130.5285072  17.4842206
  70.2179909 131.2553501  17.7807180  68.8810587 130.9477425  17.1412031
  80.1830959 111.9573498   7.3089734  80.4417419 111.0822773   7.5980893
  79.3217325 111.8330765   6.9104329  65.4000378 119.7806835   7.4466649
  65.8850765 118.9770603   7.6341859  65.6437731 120.0034237   6.5482179
  94.6367550  11.0321026 107.9304028  93.8938141  10.9578305 108.5293674
  94.2592430  11.3800698 107.1225452  54.9749804 138.5869217  74.9825811
  55.5945396 139.1924286  75.3896999  54.1759777 139.1017723  74.8696470
  66.6857195 120.1674652  72.9755449  66.5534449 120.7591248  73.7162685
  66.3470936 119.3249798  73.2785082  54.7179556 128.5646725  93.9913940
  55.0247478 129.0924454  93.2541275  55.0769711 127.6926231  93.8275051
  98.2379436  10.7510739  97.6545811  98.4618568   9.9261933  98.0854797
  98.3939362  10.5856400  96.7247772  44.1524315 123.6310863  10.2153913
  43.6186981 123.0247688   9.7018377  43.5791159 123.9087391  10.9298459
  14.2788947 122.2416878 102.6559448  14.2884028 122.7582073 103.4617710
  14.7688842 121.4488125 102.8738785  30.6382298 125.6713772   8.1072751
  30.2558184 124.8075485   8.2615129  29.9181247 126.2829971   8.2609121
  83.3521938   3.4538441  24.6628896  83.5824108   2.6015740  25.0328485
  83.3999348   4.0575199  25.4041997  68.8357496   1.3483219  15.5989686
  69.6925783   1.6305046  15.9190313  69.0312386   0.8203011  14.8248807
  80.0721264 102.9925728   3.2602063  80.1270008 102.5535583   2.4113885
  79.4599867 103.7144566   3.1173555  61.1378050 101.5607643  85.3495979
  60.3059959 101.0872555  85.3388309  61.5571594 101.3271141  84.5214844
  44.1656923  82.5439072   3.2810823  44.5247793  82.3730278   2.4103967
  44.7840214  82.1270847   3.8812105  54.4398928 115.0144672  30.5580274
  55.2578831 115.3198433  30.9502736  53.9175367 114.7098255  31.3000242
  93.1690693 120.3708744   7.4243013  93.2858181 119.7694016   8.1597081
  92.3173809 120.1361752   7.0558111  73.2072639 130.7485104  38.8860941
  72.7830553 130.3964043  38.1035972  72.8736591 130.2087975  39.6027923
  56.7598820 135.6992340   9.9760667  56.5914440 136.6189766   9.7713128
  56.3709402 135.2163887   9.2468110  54.3402052 138.9520168  51.0154859
  55.1964092 138.7734699  50.6265584  54.3378782 138.4498119  51.8303624
  66.2565613 137.5378799 106.8032074  65.9782600 138.4192944 107.0519638
  65.4597473 137.1174431 106.4798641  85.9687138  66.7952919   2.6746503
  85.3937149  66.6543341   1.9224874  85.6178761  67.5771189   3.1011335
  91.0140800 113.4758091  94.5520592  90.9111309 113.6359882  95.4901218
  91.9289684 113.2123661  94.4530487  87.8462791 145.1898575   1.2579767
  87.2279453 145.5901241   0.6466905  87.2959995 144.8270893   1.9521085
  71.1156511 120.1844501  81.6284466  70.1970768 120.3282833  81.8559551
  71.1055422 120.0163746  80.6861687  66.7926121 116.7158890  65.6661510
  66.9352818 117.3376369  64.9524927  66.7500257 117.2597408  66.4526939
  56.6644764 103.7904835  81.0982609  57.2398758 103.0862331  80.7996368
  57.1749830 104.2506123  81.7645264  50.7566404  86.2925053 100.1560593
  51.7009449  86.2349510 100.3016949  50.6608534  86.2944412  99.2036629
  51.7608690 129.0664959  69.7174597  51.0350943 128.7393951  69.1859674
  51.3881683 129.1720676  70.5927801  61.7486715 110.4078484  55.1370144
  61.5583277 109.7340775  55.7897377  62.6087332 110.7463074  55.3859615
  21.3622856 135.4417610  17.7809373  21.8749690 135.7530117  17.0349447
  21.7973685 134.6326065  18.0496637  45.4215860 124.1024494  90.6385612
  44.7298145 123.5326672  90.9747601  45.2562046 124.9496746  91.0521984
  76.9428492  98.8718987  90.7168198  76.7807245  98.3961296  89.9022102
  77.5622034  98.3217049  91.1963272  70.1763439 104.0953159  91.4167690
  69.3965912 103.7280560  91.0004330  70.6525898 104.5183468  90.7023048
  30.1513433 125.0267220  95.9899330  29.6631241 124.2046547  96.0356712
  31.0103607 124.8157883  96.3557625  60.1201344 128.7419415  69.4551992
  60.9154987 129.0726376  69.0377474  59.8647833 127.9893494  68.9216948
  39.3231344 121.7113686  11.4861528  38.5182929 121.8018532  10.9759847
  39.2711949 120.8323860  11.8615667  53.1360960 126.0313034  53.2286406
  53.0410671 125.9112167  54.1735125  53.9514399 125.5797482  53.0106115
  44.9628496  13.8077526  95.9818840  45.0180912  12.9570179  96.4171124
  45.8498669  14.1632061  96.0373497  89.6734524  88.5536289 107.9531288
  89.5117188  87.9695225 108.6940002  88.8051987  88.8699341 107.7035141
  86.5092278 127.6861095 101.9398403  86.4671993 126.8539810 101.4686584
  85.6935406 128.1320095 101.7116928  67.9106617 145.0302505  73.1230640
  67.0310116 144.7993088  72.8245354  68.4227657 144.2309189  73.0004263
  73.2781410 110.0720978  76.2491846  73.8560963 109.5363903  75.7058477
  73.7445354 110.9020042  76.3490009  46.6968298 121.8716240   3.0146638
  46.5747213 122.4484158   2.2605840  46.0604811 122.1817493   3.6589567
  33.5815144 107.8506851   9.6396772  33.4131908 107.4156761  10.4755346
  32.7381182 107.8347969   9.1872827  68.9603996 145.6685543  13.4556142
  68.3274841 145.4467773  14.1386072  68.7843609 145.0422859  12.7534524
  61.5915012 129.0580845  30.1720373  61.9769001 128.6636639  30.9544221
  62.3260784 129.1550732  29.5660535  53.6424828 140.9188271  86.5083694
  52.6880503 140.8589268  86.4671516  53.8354349 141.8283653  86.2808990
  95.7509327 124.4763184  97.1405315  96.4110947 124.4759178  97.8336525
  95.2726173 125.2959156  97.2658062  86.1430073 123.2651234  53.1069374
  87.0057297 122.9896545  52.7970028  85.6282711 122.4584579  53.1308031
  36.2385917 110.3270149  99.7504520  37.0852971 109.8820877  99.7873116
  36.2991452 111.0126305 100.4156590  50.7024908 112.4158478 100.6723213
  51.0041904 113.2662201 100.3528309  49.7489452 112.4948215 100.6996632
  38.9831781 122.5602913  92.9232979  38.5061908 122.2892666  93.7076759
  38.7941432 121.8771458  92.2800159  48.1575680  97.6895905   9.2504159
  48.3430433  97.9019928   8.3356897  47.2020102  97.6688385   9.3024770
  89.7742844  17.1313649  16.6418115  89.6268082  16.8452816  15.7403413
  89.0548706  16.7406445  17.1378080  25.5547571 112.5076962  72.1383524
  25.7549334 111.8079948  72.7601099  25.4367828 113.2857800  72.6832342
  82.5747108 143.4898090  75.8174610  82.6982021 144.4215488  75.9987164
  82.7586365 143.0571747  76.6512680  58.4451294 133.2630730  83.1051159
  57.6943731 132.6782513  83.2079983  58.3813334 133.5783958  82.2035980
  37.6721573  98.1388950  30.6086198  37.8813314  99.0317249  30.3341428
  36.7499280  98.0272293  30.3778497  39.5782733 126.7322636  94.6808147
  39.2895007 125.8787251  95.0038147  39.9022651 127.1857357  95.4590321
  55.6815720 123.1206608  91.7060661  55.2588034 122.2637844  91.6490746
  54.9578190 123.7383747  91.8101978  25.4580951 120.2061081  84.5640469
  25.8449626 120.9844303  84.1630745  24.9198818 119.8223972  83.8717175
  74.2360497 123.5597801  29.8481981  74.6341991 123.1895924  30.6360284
  74.7967148 123.2596016  29.1328088  51.8712807 113.1167507  63.3452797
  51.4967251 113.7156200  62.6992989  51.6051531 113.4790325  64.1903591
  26.3719583 135.4598808   9.4551793  27.2406507 135.0991821   9.6326772
  26.5386128 136.3613224   9.1797582  80.5619621 103.8610935 102.8511143
  80.1178932 104.3466949 102.1559715  81.4074421 103.6201668 102.4725151
  90.6005287 135.3007317  65.6291437  91.5331936 135.5002689  65.5480766
  90.2372169 136.0449600  66.1091042  78.1298494 129.4375229   5.6676713
  78.9235067 129.6559620   6.1561719  77.7038908 128.7603283   6.1932222
  64.4675350 124.1292953  71.8577719  63.8520241 124.8614311  71.8209505
  64.0808868 123.5228729  72.4894190  69.6802664 112.2677517  19.7864477
  70.4166222 112.3115540  20.3964464  68.9645195 111.8951988  20.3013746
  73.8451290 107.7034473  97.8988361  72.9265642 107.7504826  98.1639004
  74.0256405 108.5582638  97.5077629  69.2170000 105.3911304  94.0091801
  69.4769716 104.8209286  93.2856274  68.2990265 105.1719666  94.1689205
  58.0625725  93.7131596  16.0004178  58.8923979  93.4882355  16.4211694
  57.4191093  93.6828995  16.7084256  46.5557146 118.0743122 107.8793621
  46.7056084 118.7084866 108.5805035  45.9329319 117.4494362 108.2507133
  98.4559727 121.1233234  24.5427457  98.1503487 121.7565536  25.1922456
  97.7746201 120.4512787  24.5243684  63.6422968  86.0248661  87.1477795
  63.1720638  85.7436275  87.9326534  63.5807419  86.9799900  87.1610451
  70.0774431 133.2511616  83.0813694  69.3277168 133.4888840  82.5358105
  69.8776293 133.6255741  83.9393425  87.4202728 112.9004574  95.3878307
  87.8526783 113.5151672  94.7950459  86.5835381 112.7080154  94.9646664
  99.8895073 109.5886803   0.7045308  99.3595886 110.3229237   0.3941957
  99.2587948 108.8842773   0.8536664  12.3077917 119.5514297  85.4037952
  13.0702233 119.0949535  85.0480461  12.6759183 120.2059364  85.9973717
  51.1789560 133.8067532 107.6521683  51.0779190 133.8155174 108.6039829
  51.2953281 134.7268200 107.4151802  69.8605776 122.5154781  15.7539121
  69.1953325 121.8586254  15.9594003  69.5322800 122.9508972  14.9672357
  38.4246206 142.1479797 105.1349163  38.6737633 142.9156303 105.6495762
  38.2469082 142.4934959 104.2601204  76.8852139 101.5358067 102.5079060
  76.7757416 102.0499611 101.7079639  77.8332567 101.4688396 102.6217175
  42.1956825 122.3597240  62.2544384  41.2648916 122.5828934  62.2618055
  42.5292587 122.6962662  63.0861187  96.9685745  10.8676606   7.7274743
  96.4273930  10.0988942   7.5476400  97.8307247  10.6404286   7.3792020
  72.7858067 112.1371174  98.2618141  72.6332140 112.3708820  97.3462200
  72.0626974 111.5501881  98.4828663  64.8518038 139.0028286  23.8317243
  64.8315907 139.3962479  22.9593412  64.2492247 139.5368862  24.3493310
  68.3662081 131.3230896  27.9418755  68.8758898 130.7653046  27.3542285
  67.4552488 131.0891533  27.7639580  43.7434053  89.2262363  93.8932323
  43.6528158  90.1504421  94.1252995  43.8305044  88.7757587  94.7333050
  63.6851263   4.1365795 105.2200031  64.4497919   3.8836174 104.7027779
  63.2064867   3.3188038 105.3555965  39.2546344  91.8496990  26.5895120
  38.4270859  92.2997284  26.4195958  39.3702722  91.2689590  25.8374444
 116.1849499 123.3522797  20.8396093 115.5223942 123.0736637  21.4717714
 115.8904171 124.2152882  20.5485956  39.0767288 127.2549152  70.1372480
  39.6993542 127.7145576  70.7005358  39.6224689 126.8189144  69.4827986
  63.1048775  94.4613647  34.4427911  63.4547377  94.8925018  35.2224962
  62.7157116  95.1706314  33.9311925  61.7725945 128.9744282 106.0996246
  62.2992611 129.7308159 105.8413124  62.1478510 128.6952496 106.9347763
  71.5411091  93.4123707  94.2300415  72.1602535  93.4463120  93.5008335
  70.6802893  93.4778595  93.8165951  38.4153152 111.2590981  93.6925507
  38.1157732 110.9006977  94.5280457  37.6359081 111.6646194  93.3126736
  28.3959079 116.0396099  94.1647148  27.5984359 116.4146328  93.7910366
  28.8741899 116.7921638  94.5127773  31.8346906 121.1888885  19.9655095
  32.3771214 121.2269020  20.7532636  31.7307186 122.1032047  19.7019616
  77.7040052  98.7001324   4.1708604  77.8264904  97.7784538   3.9433900
  77.0017004  98.6950302   4.8212186  53.1845474 118.2937145  89.8562527
  52.4792242 118.0103397  89.2744827  53.4694958 117.4922562  90.2952290
  65.2603149 113.4292316 104.9661636  65.2198839 114.1681099 104.3590069
  65.4061460 112.6667595 104.4061661  60.4078007  99.0209579  51.1061668
  61.3219500  98.7754917  50.9636497  60.3121424  99.0459347  52.0582485
  65.6897211  89.0280056  32.0446149  65.7546329  89.6092129  31.2868444
  65.1058197  89.4865131  32.6488248  78.7321615 116.0903740  78.8385296
  78.1084490 116.6239357  78.3460617  78.4940577 116.2285137  79.7552919
  94.4449711 130.7640553  90.1258850  93.6451244 131.1797905  89.8039436
  94.2976284 130.6568146  91.0655785  68.0016375  94.5528316  85.5906963
  67.6609612  93.8275909  86.1143398  68.1427860  94.1756630  84.7223377
  55.5850029   7.8683548  88.1506920  56.1918449   7.1372395  88.2666779
  55.7721472   8.4537011  88.8845730  54.2187119 135.8033180 104.8021603
  54.3500900 136.1698627 105.6765842  54.6609402 134.9548244 104.8292160
  79.8362494 130.2818298  12.2889367  80.3268337 130.9660053  12.7444116
  79.0152979 130.7039452  12.0357744  86.9712639 145.6803513  79.0247965
  86.7707157 146.5972137  78.8366842  87.4202251 145.7018948  79.8698997
  57.1524334 136.3124657  15.5460397  57.1923256 136.6945744  14.6693269
  56.3443565 135.7993984  15.5471555  57.0562792 117.4637890  85.3668022
  56.7644119 118.3739471  85.4182911  56.3696861 117.0198822  84.8690319
  34.5610642 115.8761692  -0.1531275  35.2764249 116.4425278  -0.4424819
  34.8965263 115.4508591   0.6360570  71.7771006  99.1905499  82.0207214
  71.8933392 100.0529766  81.6220379  72.6613092  98.9198112  82.2679043
  47.3733187 100.1652241  85.1908493  46.8436432  99.3904495  85.3790188
  46.8740225 100.8926296  85.5620670  63.7015629  94.9558735   4.9517385
  63.7904310  95.8990765   5.0885335  63.7743998  94.5787811   5.8285085
  97.4576378 122.4764538  67.1841526  96.8120289 122.8375816  67.7916193
  98.2930946 122.5629234  67.6432514  52.5191164 128.3580875  95.4048824
  52.4802351 129.0703964  96.0431099  53.1537580 128.6551476  94.7527885
  88.9982986 104.1892624 107.8476048  89.3926811 103.4110165 107.4538803
  88.0833912 103.9474392 107.9914665  58.4463072 140.5442429  90.8337975
  58.0027914 141.3897514  90.9019184  58.6277723 140.2952766  91.7400646
  31.1143494   3.1814652  76.6397524  31.2772727   3.2614689  77.5795889
  31.2340760   4.0681343  76.2995815  46.1575890 100.8520412  64.3592548
  45.8725739 101.1274624  65.2305412  47.0952129 101.0438824  64.3421936
  68.8450718 108.8095951  23.7769548  69.0619373 108.5596657  24.6751443
  69.5441008 108.4272003  23.2465211  87.0679855 113.4893036  60.4369450
  87.7095318 113.6545753  59.7460556  87.5655651 113.5715675  61.2505054
  62.3869944 116.9198990  91.4103222  62.8166723 116.0966969  91.1780357
  62.0882988 117.2783279  90.5745411  23.1682515 104.8193359  90.6031513
  22.4483132 105.1344013  90.0566578  23.6629987 104.2316723  90.0320911
  51.3208342 114.7760391  87.2516441  51.2466002 113.9920521  87.7957916
  50.4547167 114.8763275  86.8566608  60.3893232  99.0780163  39.3201160
  60.0128412  98.5291290  38.6322069  60.6948853  98.4571934  39.9815130
  64.6964598  86.6893864  90.1119041  65.4061985  86.4135265  90.6919098
  65.1100397  86.7794609  89.2533779  70.7371283  84.4561386  80.2828884
  70.9134483  85.0933933  79.5907545  71.3772964  84.6598244  80.9647369
  61.9187737 102.1106911  70.3735447  61.7926121 101.4364719  71.0411787
  61.4785957 101.7644310  69.5972872  41.6189909 125.0092316  18.2867757
  41.3441896 124.0932846  18.3286706  41.4565134 125.2667713  17.3793069
  89.0272522 129.9617672 109.8180294  88.5889912 129.3298721 110.3879929
  88.7600040 129.7120762 108.9334679  73.8735676 139.1265583  11.5836278
  74.2271852 139.4837856  10.7690278  73.8933849 139.8618698  12.1961347
  74.5278454 134.5850754  94.6670151  73.8691425 133.8958836  94.7527504
  74.1729784 135.3192616  95.1682949  99.6187019 144.3275356  22.4672738
 100.2505207 143.9378834  23.0715886  98.9480400 144.7080421  23.0344335
  78.2692099 132.1936989  89.5599174  77.6964140 131.6323471  90.0824261
  77.9182720 133.0755806  89.6838760  76.6775179 113.7674236 101.7101669
  76.0742807 114.3643761 101.2674618  76.3029146 112.8983498 101.5666008
  69.7954369 131.4545918  68.1712914  70.6161261 131.5629387  68.6518764
  69.9867344 131.7842388  67.2932434  74.0410280 138.8041592  28.4566346
  73.2366848 139.2353344  28.7453500  74.0648270 138.9500904  27.5109235
 100.9282684 124.9246597   2.5954667 100.3395748 124.4990826   1.9721261
 101.1302090 124.2438793   3.2373372  46.4714479  93.1581211   6.4433996
  45.7205677  93.7516594   6.4320413  46.4977837  92.8223133   7.3393670
  74.0632439 146.1749458  15.8916417  74.0661335 145.4709053  16.5401403
  73.2394505 146.0607052  15.4177705  67.4225187  98.9454460  40.0974321
  67.7618599  98.2759285  40.6914282  66.5837574  98.5958576  39.7966003
  37.5370765 114.8995972  14.9391118  37.6410437 114.2789936  14.2178193
  36.6106820 115.1394749  14.9170343  58.3498812 103.7193394 108.4252453
  59.1907930 104.1511059 108.2746696  57.9180431 103.7315273 107.5710773
  52.8304338 118.7647533  84.3333435  52.1549463 118.1001282  84.1983414
  52.5591993 119.4976521  83.7805939  33.3780885 112.4995613   0.3630773
  34.2841887 112.7606010   0.1985303  33.3044338 112.4784088   1.3172094
  44.5932245 139.6118927 103.9143276  44.9981213 138.8334846 103.5317326
  44.6908426 139.4928551 104.8590660  82.4008846 138.3200264   0.8593694
  82.3408890 139.2063046   1.2159578  82.6708698 137.7805996   1.6025678
  35.4672909 105.9336090  85.5156612  36.0285091 105.3309917  86.0036373
  35.9414983 106.0952282  84.7000408  88.4270191  99.5782375 101.6291809
  89.3237305  99.9123955 101.6073895  88.0875587  99.8585129 102.4791431
  72.2539806 127.4804497 102.8088951  73.0577993 127.9918194 102.9016399
  71.7009306 127.7698421 103.5345840  65.9974766 108.1655598 100.2658367
  66.3340187 107.7032185 101.0334301  66.3067293 107.6499748  99.5210171
  32.1709490 114.1919136  94.7305489  31.5457344 113.4707165  94.8027229
  31.9501615 114.7739792  95.4576588  25.2300024  75.0954771  94.8214817
  25.0177288  74.3808270  95.4218578  25.6496620  74.6655941  94.0762901
  43.9390230 107.6460266 105.3806019  43.1633854 107.0949936 105.2757931
  44.0329838 107.7497196 106.3275146  45.7381582 145.7914829  98.4023094
  46.3516474 145.1869488  97.9846954  45.3376770 145.2791214  99.1046810
  57.2211647 114.1681767 105.8821297  58.0157948 114.1170406 106.4133453
  56.5648746 113.6868382 106.3859463  71.3474035 105.0776768  88.7108707
  71.2249422 104.2998886  88.1665516  70.9823608 105.7937241  88.1910133
  47.2167110  84.1356087  74.4256783  47.3165464  83.7864208  75.3113031
  47.2473764  83.3645439  73.8593340  63.8789272  89.8612499  53.2153034
  63.9062071  90.2485085  54.0902424  64.5995855  90.2806187  52.7451849
  29.5825839 105.9769058  47.8187895  30.5104423 106.2101078  47.8492546
  29.1261363 106.7751980  48.0845594  65.0796604 112.9559231  73.0560303
  65.6967306 112.7694130  72.3484468  64.4343233 113.5431862  72.6624584
  43.4401560 112.8239536  76.8044758  43.3279419 111.9756603  77.2334719
  42.6370811 112.9441452  76.2976694  61.9595718 117.0161629  94.1690922
  62.1860981 117.2718430  93.2749271  61.4503241 116.2121773  94.0665817
  64.1985226 128.2446194  84.7898674  63.6973047 127.4403286  84.9244595
  65.0598192 127.9443550  84.4996262  77.4045038 124.5752811  68.8765717
  76.7066336 125.2289295  68.9208031  77.2292948 123.9877415  69.6116400
  92.6196003  98.3878040  68.8098574  91.6747379  98.3573055  68.6596870
  92.8466606  99.3133163  68.7198639  34.5738673  83.8408375 102.0479584
  34.9882364  84.3073177 102.7738571  34.8224401  84.3396091 101.2697124
  61.5154409 115.3669071  84.2512512  60.8382463 114.7242641  84.4625473
  61.6671991 115.2551842  83.3127785 101.3273525 120.8713913  76.1141920
 100.9044170 120.1438046  75.6581593 101.9144535 120.4512787  76.7427158
  50.9180450  97.2594833  87.3381233  51.5421772  97.9701233  87.4853802
  50.6949282  96.9508648  88.2163048  89.9487495 112.2878265  66.5916634
  90.0693989 112.5206661  65.6710863  90.8345985 112.2773743  66.9541502
  39.5158720  98.4376812  58.3835363  40.3579903  98.6717319  57.9932976
  38.9837480  98.1414700  57.6450634  89.9741459 136.7389393  67.7973413
  89.3829632 137.4208641  68.1162786  90.8305836 136.9801426  68.1502819
  40.8136606 139.8187828 100.0416279  39.9152565 139.7964764 100.3711700
  40.9290361 138.9756489  99.6033955  60.1936626 118.7707233  63.2736111
  59.4959831 118.8764191  63.9203739  59.8662281 118.0987263  62.6757479
  48.0370235 139.8414993  83.7206364  48.3604908 140.7334042  83.8475513
  47.2792149 139.9412727  83.1444359  41.3293409  98.5625362  95.0903320
  40.5050039  98.9360905  94.7786236  41.7228508  99.2574978  95.6179905
  64.1468048  98.0899525  63.0003405  63.8876104  98.9099026  63.4207487
  64.7274446  98.3588982  62.2884655  51.4980412 105.7787132 100.5004597
  51.1070013 105.5384731  99.6604538  50.8888912 106.4150429 100.8749676
   9.9269199 116.0191727  80.2124405   9.5379728 116.2702370  81.0502434
  10.2939892 115.1492882  80.3698826  90.8511066 131.5171623  27.3339820
  90.8058834 130.6069946  27.0411062  89.9382019 131.7704487  27.4706340
  65.6409979 110.9867191   6.3509981  66.2713575 110.3537560   6.0071317
  66.1419582 111.5062237   6.9797937  45.9551573 113.2596684  86.8148327
  46.1282825 113.6777306  85.9713364  46.4018679 113.8151836  87.4536514
  53.9276648  98.7872124  45.8113813  54.6387863  98.9795399  45.2001953
  53.7350178  99.6277523  46.2268448  85.3577518  16.5517216  61.5026951
  86.0221291  15.8629208  61.5223646  85.7231236  17.2524052  62.0428514
  69.4278526  99.4379902  99.0860081  70.0344563  99.3367290  98.3525181
  68.5618544  99.3039608  98.7008858  93.3661556 145.5823040  67.5057316
  93.8474274 144.7675228  67.6497746  92.6861668 145.5811214  68.1794119
  69.5789909   7.6361542  52.7296305  69.7791195   7.7811127  51.8048763
  70.3399134   7.1644097  53.0682707 115.7119179 132.9473877  66.7533875
 116.4950275 132.4027538  66.6737413 114.9835300 132.3284245  66.7026138
  65.0838280   4.2906933  81.6923237  65.7488108   4.9784737  81.7237854
  64.7855186   4.2043667  82.5977421  63.8947344 115.7518005  80.1310062
  64.2775536 115.8697128  79.2616558  63.0713606 116.2388515  80.0982094
  72.3828363  22.8322010  58.9728689  72.3690271  21.9366627  59.3105936
  73.2490492  23.1639653  59.2091846  82.5852013 103.1993008  76.7640018
  82.2669983 103.7808514  76.0735178  83.5375214 103.2913303  76.7346764
  46.5477848 132.3759270  72.2631216  46.3149452 131.6388321  72.8276682
  45.8101320 132.9807472  72.3424673  96.3941383 133.7816620  93.8872814
  95.8178043 134.3451214  93.3709717  96.4223099 132.9578018  93.4007740
  47.8076124 117.2777081  92.2253418  48.3246803 117.4678421  91.4425755
  47.3745441 118.1056309  92.4332619  80.5139923 124.3469238  72.2742844
  80.5704784 125.3018856  72.3071957  81.1197948 124.0476513  72.9522705
  81.2957954   9.0866261  47.6603699  81.2191963   9.8698693  48.2052517
  81.8932152   8.5160141  48.1438255   9.3628490 145.8376217  44.4923019
   9.1059953 145.6762314  45.4001617   8.5756767 145.6451416  43.9828491
  93.1119728 125.4091549  65.4816818  92.2881508 124.9232101  65.5191946
  93.2637882 125.5514431  64.5473719  58.7226295  99.2201996  62.2609425
  58.8794565 100.1643372  62.2454214  59.4163704  98.8531303  61.7130280
  82.8630161 135.5650043  63.7675095  82.2702026 135.3958607  63.0352640
  83.2905674 134.7239208  63.9287519  63.7958193 113.4322262  87.9324055
  63.3497429 112.9356098  87.2463894  63.1224775 114.0159416  88.2818699
  79.2643309 146.1987495  70.9263039  79.4725084 145.6384277  71.6739225
  78.4373951 146.6180611  71.1641741  45.5345106 129.2389107  78.6819124
  44.8262596 129.0813637  79.3062449  45.3309631 128.6693001  77.9400587
  58.1121159 100.8482170  26.2839738  58.1681108 101.0260868  25.3451101
  57.2177696 100.5333042  26.4151613  80.4320431   1.7976551  77.3271036
  80.3263092   2.7239113  77.5441027  80.4610825   1.3547688  78.1751871
  89.6505260 108.6383629  63.0428076  90.0177765 108.3901978  62.1944141
  89.1668987 109.4456005  62.8675556  44.3000126 118.7011433  50.7023287
  44.3609142 117.8169346  50.3408051  45.1505566 118.8501263  51.1153841
  90.0887489 119.0000057  24.2012811  89.6563244 119.6175766  24.7910666
  90.7536030 118.5760593  24.7439408  61.5737343 115.2173805  59.8778725
  61.3124132 116.1319923  59.9847794  61.1260033 114.9318790  59.0814686
  56.3913059 108.3935165 102.6386738  56.3520098 109.1756821 102.0883179
  56.0667610 108.6838722 103.4910870  79.4067335 130.4465580  87.8463745
  79.2404032 131.0541821  88.5670376  79.0168333 129.6211243  88.1342220
  46.5374804  98.0421162  97.4911690  45.8304167  97.9946995  98.1346321
  46.1667728  98.5427570  96.7644119  62.7349854 113.2303143  96.5280724
  62.2264671 113.7356567  97.1623230  62.9252720 112.4060249  96.9759274
  56.0867453 126.7455578 104.0515995  56.6573286 126.0528374 103.7187099
  55.3457308 126.7572689 103.4457970  92.6730728 136.2936306  89.7585011
  92.9524708 135.7238388  89.0419006  92.7118015 137.1767616  89.3913364
  97.2798443  77.0858526  63.5627890  98.2219505  76.9729185  63.6889362
  97.0141983  77.6819754  64.2630005  30.1605868 136.7860508  50.6616354
  29.6554828 137.4499321  51.1310673  29.7052550 135.9643745  50.8453560
  37.7403188 131.4056015  72.1670198  37.1356392 130.6636524  72.1566725
  37.2273898 132.1374130  71.8241119  89.9729443 116.2025642  99.6504021
  90.4725361 115.4898071 100.0486565  89.1608524 116.2374496 100.1558971
  61.7732525 103.9534950 104.2477036  62.3781633 103.7934971 103.5233307
  61.1928701 103.1923199 104.2476654  68.3193016 135.1267242  69.8025751
  69.0519953 135.2721786  70.4011059  68.4931278 135.7111645  69.0647125
  59.0997458 103.7470627   6.1764280  58.1973362 103.7159538   5.8587495
  59.6224165 103.9294720   5.3955499  56.7752790 144.4405460  74.2105150
  56.7804337 144.9309540  75.0325251  55.8480501 144.2873955  74.0287924
  57.5653982 141.9567966  87.8960228  56.7930698 141.7828178  88.4340477
  58.2202673 142.2804070  88.5146141  43.4320498 107.2843266  89.9596310
  42.5515461 106.9745255  89.7475719  43.9914942 106.5171051  89.8386765
  89.7602463  97.4690914  89.7262859  90.1694489  97.3228073  90.5791569
  88.8315773  97.2887135  89.8720932  71.6044807 106.2055111  77.2668362
  71.7975521 106.1385536  76.3317013  72.0933533 106.9752979  77.5578117
  51.4414883  79.4544649  77.4131727  52.3343992  79.1239595  77.3146629
  51.2227678  79.2841434  78.3293533 118.7252235  99.3962669  68.8765287
 119.4556999  98.7912941  69.0055418 119.0252209 100.2196026  69.2616749
  73.2361555 112.3471355  47.5487661  73.7159634 112.3756599  48.3765364
  73.4027052 113.1993103  47.1459055  61.2023544 115.5692959  63.0044079
  60.9798050 114.6644497  62.7853966  60.4265690 115.9047222  63.4537077
  40.0587606 134.9702168 108.6912441  40.8053827 135.2941513 109.1950893
  39.8199487 134.1478157 109.1188526  34.5990539  88.8237000  92.2552013
  35.5184531  88.9036942  92.5092411  34.3910646  89.6615219  91.8416405
  71.5112591  86.2208462  78.3515072  71.0226440  86.9890308  78.6470938
  72.0285273  86.5365219  77.6105547  59.6824932 113.4603214  80.3750420
  59.5127344 113.5384369  79.4362545  58.9741611 113.9539051  80.7884026
  70.4595852 122.7555180  99.7157192  70.9686518 121.9867611  99.4586372
  69.5734358 122.5710583  99.4043541  46.3580465 135.7991600  34.3414545
  45.9124422 136.2153816  33.6036038  47.1340466 135.3935719  33.9547324
  84.6025467 117.1794796  45.2420378  83.6679173 117.2966862  45.4122305
  84.8118019 117.8444862  44.5861340  98.8030338 114.6161556  75.3078508
  99.6174526 115.1162243  75.2541351  98.1149960 115.2810764  75.3344011
  70.5795097  95.7861328  63.8521099  70.0359249  95.0074482  63.9720392
  70.0599813  96.3558674  63.2849073  62.8962994 132.0457840  87.7631760
  63.2008410 131.1386204  87.7396488  63.5550928 132.5325108  87.2678757
  18.6875641 121.2437725 102.8790760  18.5062504 121.5836906 102.0028305
  18.8724470 122.0222473 103.4044552  78.4218454 111.3986874  66.9075632
  78.9238548 112.1891975  66.7092752  79.0395641 110.8324242  67.3701715
  71.9443321 126.5162086  65.7878637  71.3368464 126.0918427  65.1819754
  71.7479610 126.1233139  66.6383362  62.7441597 133.7890720 107.4955177
  62.1000099 133.7327003 106.7897320  62.9396677 132.8780460 107.7146912
  98.7775898 133.8864994  90.9605217  98.8341236 134.0644360  91.8993378
  98.3440018 133.0350113  90.9038162  57.6346827 121.7515182  99.7479153
  58.4529829 122.2443485  99.6868038  57.3291016 121.6815662  98.8435078
  50.1779413 145.6332493  70.9977007  50.8718061 145.1858234  71.4820433
  49.7361231 146.1714554  71.6544867  83.8231564 121.4269733  84.4182682
  82.9975128 121.3374901  84.8942375  83.7328434 120.8379459  83.6691952
  85.5551052 108.0221367  70.7446146  84.8934078 108.6212254  71.0902691
  85.0741386 107.4571323  70.1398993  57.8337479 130.3523636  36.5492383
  58.2309818 130.8867836  35.8616010  58.3179235 130.5834770  37.3419515
  26.6181803  87.1987915  87.3956490  27.4896908  87.3745823  87.0409679
  26.0778427  87.9193306  87.0714664  24.3901706 103.3240604  62.5289917
  24.3048596 103.1954670  63.4736681  25.2876115 103.6348534  62.4096584
 103.9336205 130.4283237  94.1236782 104.2731285 131.2176704  94.5454597
 104.1950417 129.7145748  94.7054482  16.6588938 137.5263309  71.6248608
  16.3083196 137.2135448  72.4588251  17.3770535 138.1095123  71.8705797
  74.8660946 123.7679195  32.6081824  74.7133017 123.3913040  33.4748101
  74.3802214 124.5925903  32.6163626  67.8454351 125.7952976  42.6651716
  67.9899073 126.2643051  41.8433475  68.4986687 125.0956631  42.6596928
  70.2817631 129.2770290  82.8478336  70.4141569 128.6147213  82.1695614
  71.0365391 129.8597336  82.7641678  52.1606398   1.1350708  87.5643444
  51.2686968   0.7905369  87.6086617  52.1155310   1.9758301  88.0196667
  33.5775232 100.8758259 101.2948036  33.4873748 100.6742764 102.2261906
  33.7136054 100.0250816 100.8777237  95.9985924 126.4991760  93.2712555
  96.1981297 125.7065868  93.7694645  96.2173367 126.2749577  92.3667622
  86.5705872 105.1741695   0.0743619  86.6194344 106.0065079   0.5445234
  85.8392525 105.2848339  -0.5331954  68.5545635  13.7635975  30.7574312
  68.6629009  12.8279381  30.9277955  68.9467525  13.8969021  29.8944990
  38.5789156 134.3036556  88.3616066  38.9060712 133.6264420  88.9537048
  39.0821576 134.1814709  87.5565910  68.6969852 124.0152645  84.7801971
  68.9262342 124.6899605  84.1410923  69.4510984 123.9764500  85.3684521
  77.3725796 130.5353260  70.6484079  78.2121134 130.7633972  71.0476542
  77.5919819 129.8774624  69.9886227  69.0183163 125.2291775  55.3014803
  69.4419193 124.5575333  55.8359766  68.3450794 125.5999470  55.8720112
  69.2477036  12.4279385  43.6094999  68.4517908  12.2091465  43.1248522
  69.7029543  11.5922146  43.7121964 102.7148056 105.0116348  99.2898750
 103.1723118 105.7903290  98.9727783 101.9818211 104.9012470  98.6842632
  49.5790339 131.5887451  79.9226284  50.3588343 131.1813450  79.5455742
  49.6159077 131.3620472  80.8518600  95.3792381  95.5233479  62.8323555
  95.4563236  94.9999046  62.0346689  95.0813293  94.9032307  63.4978914
 100.9626389 121.1765575  88.6640930 100.4718018 120.3719807  88.8313293
 101.4120865 121.3588428  89.4893169  24.1928005 138.6490154  33.6205292
  23.8079715 138.8368702  34.4765925  23.5852456 138.0301476  33.2154131
  51.3360596 115.0631809  61.3360119  50.9065819 115.6695938  61.9393682
  50.6778526 114.8881435  60.6634378  85.4055882 138.6458206  61.8546343
  85.8484459 138.9280033  61.0543299  86.1163521 138.4269905  62.4572563
  71.8541384 129.6377277  54.1933918  70.9489489 129.9380779  54.2749548
  72.0183945 129.1502571  55.0006247  16.0310316  13.0583744  23.7116185
  15.9527242  12.9965000  22.7596418  15.1302016  13.1559067  24.0202085
  80.4174614 125.6643009  56.4572096  80.3153229 126.6136742  56.3902092
  80.6026840 125.5080891  57.3832369  63.6237001 122.1259880 107.2109032
  63.7182140 121.8152714 106.3104916  63.4642315 123.0658436 107.1244526
  38.8623238 126.2866974  86.8920612  38.0129766 126.6932106  86.7200565
  38.8253522 126.0360622  87.8151226  53.1980991   5.8877926  72.2949553
  53.5184765   6.7880135  72.2384357  52.5311375   5.9135609  72.9810524
  62.3468256 126.2479877  68.5749769  61.6266155 126.1882687  67.9473114
  62.7604342 127.0901585  68.3855152  55.9206295  14.5696621  96.7055702
  56.0149384  13.6419850  96.9217682  56.4088583  15.0261288  97.3907852
  42.8278828 105.4567051  72.4573803  42.3218966 105.4595089  73.2699108
  42.2488546 105.0447845  71.8160677  34.0146589   0.9951001  86.9808674
  34.7214770   0.4966908  87.3910141  33.2221794   0.7006150  87.4297333
  84.4155693 133.5945511  13.9957658  83.8220787 134.3446350  13.9588109
  83.8502693 132.8521252  14.2089979  52.6561737 145.4294777  63.9927530
  53.5176039 145.8336926  64.0965605  52.6615095 144.6936989  64.6049929
  77.2818995  95.9941292  17.6374856  77.9853392  95.6066513  18.1583158
  77.2321987  96.9011593  17.9392282  54.3276215 124.2633533  68.8955355
  54.4131804 124.2440605  67.9423618  54.1421890 125.1796913  69.1008663
  40.1238394 112.3157120   5.6913987  40.1069212 113.2387352   5.4384652
  40.7917452 112.2669888   6.3753263  20.9773850 142.2142982  81.8845463
  21.4732075 141.3980675  81.9490910  20.8968997 142.5177860  82.7887821
  66.8159676  88.5497665  63.7166262  67.1663094  88.9974689  64.4867277
  67.5815773  88.3856106  63.1660557  85.6149006 116.6561985  75.7514906
  85.8820152 116.2701035  76.5856457  84.6608067 116.5792751  75.7465696
  79.6589184 120.2381420  67.7750683  78.8528919 120.7535934  67.7456665
  80.1646709 120.6250000  68.4897614  97.2232628 122.3885822  10.2218190
  97.6494694 123.1348896  10.6432477  96.3098049 122.4446583  10.5023328
  62.3464775 102.3821545  18.7406102  62.8568697 103.0122280  18.2319585
  62.4200487 101.5631580  18.2506505  60.2490807 117.7350044 100.5045128
  60.2639341 116.9646931 101.0725117  60.8188248 118.3669376 100.9430027
  36.5638494 134.5545864  94.7629070  35.9200406 135.1747417  95.1051807
  37.0022058 135.0296307  94.0569210  40.6732845  98.8737774  63.3652878
  40.3542089  99.7479916  63.1412745  40.1170301  98.2794666  62.8616953
  72.2789526 115.3493881  42.1028090  73.0299473 114.8433971  42.4129915
  72.2202826 116.0873699  42.7095795  56.1510992 115.9069824  92.3848534
  56.6683245 115.5292988  93.0962372  56.6716957 116.6494083  92.0782280
  63.3205795  84.2956829  78.4669781  64.0557718  83.9185429  77.9837704
  63.7256193  84.7352123  79.2146349  51.9489813 128.0204487  86.9259644
  52.2604322 127.2681141  86.4227486  52.7073097 128.2938766  87.4421024
  66.1122608 112.2855759  85.2826977  65.4154062 112.8713131  84.9868202
  66.3171434 112.5853252  86.1683655  93.3301926  86.0316658  90.4600620
  92.4296284  86.0036850  90.7832241  93.3342361  85.4365158  89.7103882
  23.8164568 112.9027367  85.0399113  24.4070530 112.1650314  85.1922989
  24.3765426 113.6759758  85.1079941  35.6899118 117.4523354  99.4902897
  35.2527332 118.3032513  99.4579887  35.5910420 117.0985603  98.6063766
  67.7651262 101.8778229  89.2193508  67.7049351 100.9413719  89.4082451
  67.9801559 101.9208717  88.2876110  76.4367342 102.3208141  80.6433964
  76.0180712 101.6633511  81.1989975  76.1689043 103.1588078  81.0205746
  20.3694749 105.9015751  74.7428799  20.5170989 106.0892105  75.6698275
  20.7244635 105.0215721  74.6171474  44.1491747 130.9035015  69.6579838
  43.2838631 131.0124588  69.2635298  44.1700077 129.9893284  69.9409676
  37.9824853  29.6155148   3.0631009  38.5894752  30.1450520   2.5460092
  37.1170878  29.8417836   2.7223340  28.6809349 126.3830566  99.6975613
  28.1045175 126.6870308 100.3986931  28.2299900 125.6233215  99.3292141
  57.0838404 136.7398167  95.5613899  56.6856432 135.8813572  95.4174805
  58.0007076 136.6233349  95.3123379  98.5892010 112.9490852  77.5285864
  97.6458645 112.9124355  77.3704147  98.8802433 113.7318707  77.0608425
  36.7653537 105.8214378   4.4828264  36.7218399 105.3809929   5.3315584
  35.9118176 105.6552601   4.0827123  53.7479496 139.7426701   1.1071721
  53.5603476 139.2495728   1.9058553  54.0551710 139.0831852   0.4851381
  45.0428247 144.4022179  91.7268944  45.7197475 144.9567699  92.1148109
  44.7681093 143.8254929  92.4397373  74.8378038  92.4013042  81.9477463
  74.4472837  91.8688488  82.6407242  74.7345972  91.8753910  81.1546612
  71.4204216 118.7574863  53.4774876  71.1805964 119.1848469  54.2997265
  71.1526394 117.8459549  53.5943365  66.7266035 116.1061478 106.7353916
  67.1061277 115.6267738 107.4718666  67.4816227 116.4602375 106.2654972
 117.0138550 103.9155769  86.5283108 117.2854805 103.8561916  85.6123829
 117.2494030 104.8054504  86.7907619  26.9034481  90.5720425 104.3155766
  27.5464940  89.8921013 104.5165920  26.8053865  91.0584545 105.1341248
  34.4492602 111.7782688  65.6888866  34.9267745 111.8621922  66.5142155
  35.0927496 111.4247417  65.0747442  60.7076263  90.1002026  36.9844031
  61.4208126  89.5075798  37.2218895  61.1413527  90.8355808  36.5515780
  64.4417238 104.7724915  49.2128706  64.5860386 105.7109261  49.0915060
  63.5719824 104.7130585  49.6081591  39.8007011  85.1532459  95.9808731
  39.2875695  84.3576717  96.1222649  40.6939363  84.9082184  96.2223816
  70.8909798  97.1876526  77.3205662  70.9507132  98.0280018  77.7749586
  71.8009758  96.9275093  77.1775103  65.9632444 120.4520988  80.4941273
  66.5346479 119.7435474  80.1980114  65.8941984 120.3245735  81.4402771
  27.7955842 109.6126747  90.8406639  28.6527252 109.5025444  90.4290676
  27.7451015 110.5469799  91.0425472  67.6889133 106.3683414  49.0236282
  66.8409967 106.5814686  49.4132996  67.9935694 105.6056881  49.5153427
  64.6514606  98.0077648  40.1815462  64.0680122  98.1856918  39.4438744
  64.7093439  97.0529461  40.2162504  70.5081081 140.8627892  59.7585535
  70.4555941 141.7422676  59.3844223  69.8346806 140.8512306  60.4386950
  82.1127224 119.8719597  61.2869835  83.0690193 119.8512554  61.3230658
  81.8398476 119.9363327  62.2022009  84.7303581  91.1291313  80.5966663
  84.4966125  90.9753513  81.5120602  85.6182480  90.7810879  80.5144691
  70.8640003 122.8659153  62.7208376  71.2042809 123.0789280  61.8518925
  69.9152374 122.9604530  62.6363134  61.2731218   0.1170235  38.1367707
  61.5387821   0.6265240  38.9023161  60.3693008   0.3857498  37.9720902
 114.4654083  75.7420588  93.1598949 114.2076874  75.1123142  92.4866772
 115.1672459  75.3041220  93.6414146  53.8434410 113.3456612  58.6430264
  53.1283474 113.1456375  58.0389929  53.9750862 112.5352478  59.1350937
  62.3533297 110.8670044  75.2584028  61.8250275 110.4153728  75.9165525
  62.3133326 111.7894268  75.5109262  55.8580828 105.0877762  71.3238001
  55.8061075 104.1839695  71.0128880  55.8577776 105.0131798  72.2780895
  74.9999380 110.4561424  40.5848980  74.7025490 110.6604576  41.4714909
  74.2978477 110.7744408  40.0174570  57.4993277 109.0549374  65.8985662
  58.0118513 108.2721138  66.1004162  57.5918055 109.6083164  66.6740990
 120.2698135  98.4545708  76.0158682 119.5607758  98.5154533  76.6560173
 120.1034260  97.6342869  75.5514574  46.0009956 119.9932671 101.9105148
  46.1860991 120.6989479 101.2908459  45.1521158 119.6481419 101.6338921
  50.7035685  72.6712465  94.0157032  49.9399185  72.2810793  94.4409561
  50.7506609  73.5574913  94.3742752  50.9371233 127.4853134  57.1151209
  50.6655884 128.3901882  56.9611502  51.6666126 127.5556278  57.7308607
  42.7859020 111.0429478  89.3163967  42.7215481 111.8808937  88.8582230
  43.0825186 111.2735081  90.1967907  70.8885574 100.2282715  78.4193707
  70.7748413 101.0769176  78.8472652  71.5202093 100.3954506  77.7198744
  76.5185308 127.1921921  62.3367119  77.2742271 126.7690659  61.9291306
  76.6859293 127.1273136  63.2769251  37.2386885 118.4334755 103.8776875
  36.7588997 119.2300892 103.6509037  36.6880989 117.7213860 103.5520840
  36.0571909  11.1871415  89.0010166  35.1395321  11.3143330  88.7602711
  36.1481881  10.2400952  89.1061020 102.0941639 121.3340950  63.8037062
 101.7309093 120.5510044  64.2172813 102.3843765 121.8786812  64.5354366
  53.8290930 100.0868320   1.9980470  53.1533718  99.8033333   2.6138822
  54.6540594  99.9175644   2.4530259  40.9730911 101.3100529  59.4000149
  41.0827637 101.3714981  58.4511042  41.7176580 100.7850742  59.6936798
  69.2370892 111.9880199  72.2362852  69.9123192 112.1802711  71.5856409
  69.3826675 112.6314640  72.9298401  42.2727823  31.3102894  81.5497112
  42.1338987  30.3648930  81.6060638  41.5744448  31.6872769  82.0849037
  67.2317743 120.5277634  64.8492908  67.4690199 121.4466667  64.9740267
  67.0002317 120.4638290  63.9227200  38.8969660  92.9604149 103.4351349
  38.5094237  92.5223255 102.6774216  39.7193050  92.4944973 103.5864925
  45.8278131  88.8926315  56.0757685  45.0503302  89.2910385  55.6845903
  46.5100765  89.5575714  55.9830713  66.9264126 127.4792576  94.2290974
  66.5652943 128.3449268  94.0381718  67.8732491 127.6162434  94.2601395
  51.2732124 116.1367989  84.0543556  50.5180454 115.8228111  84.5517159
  51.1661768 115.7487488  83.1859112  43.4600687 105.7812214  95.4578876
  44.2374849 105.6216240  95.9930420  43.0267572 104.9293613  95.4049110
  67.3285007 106.9415188  18.3364431  67.8360844 106.3735867  18.9161340
  67.8279209 107.7574158  18.3030073 101.2139130  14.6279698  77.9332209
 100.8241653  14.0083485  78.5499907 100.4757404  14.9431591  77.4116945
  59.0442228 129.5567703  87.8246117  59.3023872 130.4769707  87.8777885
  58.8047886 129.3229771  88.7214088 114.1427326  97.9560947 109.4684982
 113.6475945  98.7573528 109.2980194 114.9487591  98.0604744 108.9628696
  49.2073631 115.7021809  72.3853016  48.4873629 115.6708241  73.0152607
  49.2112255 116.6062260  72.0707750  37.4385619  10.1441555  82.5379467
  37.7514076   9.6681862  81.7686462  37.4002433  11.0578137  82.2550869
  69.9101210 115.6812477  88.3295727  69.6262217 115.3161240  89.1676235
  69.3623495 116.4567947  88.2083416  94.0404034 130.8447266   3.3205549
  94.1415119 130.6667042   2.3855058  94.9199104 131.0800934   3.6160318
  93.8311195 103.1070995  68.2856035  94.1076279 103.7185287  67.6030159
  93.7249470 103.6512566  69.0658951 108.4994411   5.2330857  50.5418015
 109.0801907   5.7083206  51.1360312 107.6420307   5.2681523  50.9659052
  72.5936794 108.3369350  89.6447659  72.7552176 107.9139328  90.4881001
  71.6411924 108.3270550  89.5503998  26.9948673 130.6465721  20.8470082
  26.4393473 130.0231361  20.3790784  27.2196174 130.2009773  21.6638112
  75.5869961 132.2332382  67.7898264  75.5590582 132.6609421  68.6457062
  74.7605705 132.4772549  67.3730469  82.1065426   1.8574887  52.9589891
  81.7421246   1.9782811  53.8358259  82.7222919   2.5827198  52.8535318
  51.2280226 123.1608582  49.6352816  50.4875803 123.4438229  49.0987062
  51.3836241 123.8918686  50.2333212  70.4165697 112.7805614  93.9706516
  69.4720507 112.8827190  93.8537216  70.6547546 112.0645237  93.3817577
  28.3253074 138.6954308  82.1356106  27.7136612 139.2605782  81.6636658
  28.7574625 139.2785931  82.7596378  84.3040848   3.7704258  43.1051588
  84.6984863   4.3375569  42.4425602  85.0360870   3.2577782  43.4480906
 113.2103539 134.5684719  42.8049803 113.8051224 134.2198944  42.1409273
 112.4394512 134.8496628  42.3121500  77.1364689  90.6342602  14.1914046
  77.7213955  91.2927055  14.5663083  76.3655424  91.1290359  13.9137244
  44.8640442 142.0980167  60.1193905  45.2224255 142.1183109  61.0067368
  45.1047802 142.9451847  59.7444296  57.3359489 113.1088448  46.4531374
  57.4088621 113.5630226  47.2925663  57.7874756 112.2762108  46.5913010
  51.9205284 140.3484821  93.3244324  52.0455599 141.2970066  93.3543491
  51.1335802 140.1940250  93.8470078  38.3548903 116.0312843  37.5533009
  38.8487220 115.3373814  37.9901838  37.8277206 116.4244175  38.2488370
  49.4006443 104.6840382  45.7082558  49.7550488 103.7954044  45.7391834
  48.6412859 104.6190262  45.1291323  92.1193981 117.2306538  50.1519203
  91.3446331 117.7775860  50.0222158  92.7373981 117.5286198  49.4844437
  50.8543205 138.5319519  81.4492512  50.4995966 139.3643761  81.1370468
  51.0051441 138.6714458  82.3841476  49.2118120 113.1122398  57.7116251
  49.0573978 113.2471657  58.6466026  49.7084951 113.8831043  57.4372101
  71.4485502 123.4737301  60.0710487  72.0604515 123.0458164  59.4721365
  71.4192247 124.3832207  59.7740650  80.1631165 123.4354305  55.0476360
  79.4922161 123.4308434  54.3649244  80.0114918 124.2499733  55.5269766
  65.9283304   8.9728146  18.7674630  65.8878708   9.4149380  17.9194498
  65.7017469   9.6520214  19.4027352  83.4093094 133.0899334  86.0157394
  83.0999279 132.2185612  86.2631989  82.6097965 133.5925961  85.8597183
  96.5338612 101.7511845  46.2467766  96.5257549 102.1426010  45.3733015
  95.6155586 101.5509510  46.4280415  91.4872456   3.7208920  63.2138920
  90.7944202   3.8699990  62.5704718  91.3331985   4.3815499  63.8891935
  67.8172064  14.0951901  72.8100729  68.1512499  14.8181134  73.3411360
  67.3165417  13.5582142  73.4242582  48.9030075 140.2740383  74.3516588
  49.1373920 139.4112396  74.6935463  49.4721794 140.3930855  73.5913229
 105.3799820 129.6402645  66.6518784 104.4669914 129.9174404  66.5753984
 105.8254051 130.0805950  65.9280443  57.2580910 124.4834900  89.7444534
  56.6565466 124.9924850  89.2010403  56.6879654 123.9407539  90.2890968
  90.7562733  93.9633942  63.5315800  90.6689453  93.0266953  63.7082577
  89.8560810  94.2734718  63.4329414 108.7355328  97.4738312 109.1384125
 109.1282272  96.9695187 109.8509312 107.7926064  97.4066257 109.2887688
  33.2052851  11.1296254  55.5033112  33.0920553  10.6072598  54.7092390
  33.9354753  10.7136135  55.9615660  98.6724663  99.7245216  78.1480122
  98.1415749 100.4911804  77.9321003  98.3263779  99.4223118  78.9877272
  72.5287104  90.8092213  91.0667706  73.4854555  90.7950211  91.0408783
  72.3020506  90.2838802  91.8341541 116.5695190 112.0230103  80.0711346
 115.8292770 112.2962761  80.6129932 116.7566681 112.7831554  79.5203352
  48.0483961  16.3676815  73.6108637  47.1475840  16.5236454  73.8944960
  48.3999872  17.2411900  73.4388590   7.2851782 141.7531776  94.5367146
   7.6471739 141.6567135  95.4175568   7.7084666 142.5378799  94.1884327
  34.9271774  -0.0010032  75.9229946  35.3354025   0.5180722  75.2300692
  35.3942299   0.2527027  76.7190647  74.0877628 100.2177334  67.3229551
  74.0379572  99.6560860  68.0964565  74.0570879  99.6104813  66.5836668
  81.1280251  13.4304314  63.3299065  81.5882874  14.2682629  63.3792830
  80.2266598  13.6374264  63.5767365  98.5468960 101.2923241  31.6954398
  98.3234310 102.2119617  31.8388486  97.7226639 100.8227825  31.8234825
  52.5656366 143.3745861  53.2582903  51.7542458 142.8731632  53.3385897
  53.1941414 142.9022121  53.8042593  49.9737072  97.9584217  64.9842215
  49.4062757  97.3867989  65.5014277  50.7133961  97.4028301  64.7384357
  61.7862225 131.8982601  60.5490780  61.4092350 132.7431965  60.7944298
  62.7237368 132.0705509  60.4618359  53.2696152 105.8478546  70.6645584
  54.1174984 105.5669117  71.0086489  53.4304571 106.0110569  69.7351933
  45.2878141  84.0360737  61.4131403  45.7616472  83.4091854  60.8665848
  44.4425774  84.1432667  60.9768820  94.4272709 102.9739666  95.5277252
  95.3674603 102.9453945  95.3503227  94.0220737 103.0352211  94.6626854
  66.1085320 142.3787308  47.6914978  65.8512449 142.3958111  48.6133146
  66.5042162 141.5157604  47.5692272  70.8261824 141.1194038  67.8406620
  71.3992691 140.4099846  68.1313944  71.1555815 141.3530064  66.9728136
  58.7224579 127.3274803  14.9134314  58.7786627 126.3719463  14.9079239
  58.1077862 127.5353146  14.2097163  48.6880970 124.3572998  72.6502562
  48.9728260 123.4644413  72.8451252  47.8039169 124.2552376  72.2980642
  83.2650566   1.1056977  43.0036497  83.5165882   1.9924527  42.7455235
  83.8068676   0.5348759  42.4588203  68.6202145  94.0685844  78.9811087
  68.8029766  94.6844196  78.2714701  68.1742191  93.3369732  78.5544157
  64.8575640 138.7294960  83.0489349  64.5046043 137.8644276  83.2570362
  65.3172827 138.6071396  82.2183132  30.1020265  95.0314331  56.4265871
  30.6398606  95.8191490  56.3460684  30.6787109  94.3185616  56.1518669
  68.8701105  93.8779163  30.0188541  68.4817171  94.3679714  30.7435751
  68.4082747  94.1930389  29.2419147  75.3386164 116.6096973  41.5335608
  75.1168871 117.4100018  41.0575485  74.9914646 116.7509270  42.4143362
  66.9824743 131.1024666  76.6897821  67.2630453 130.5251694  77.3998737
  67.6160049 130.9461117  75.9894800  57.5147963 125.4514313  50.1320362
  57.8397274 124.5510864  50.1268625  58.2076740 125.9536552  50.5608988
  90.3075123 108.5480404  78.4726667  90.9069824 107.9208374  78.8770056
  89.4367123 108.2527351  78.7386227  56.0292244   8.5712986  55.9055233
  55.6322622   7.7310448  56.1349249  56.8059158   8.3383541  55.3968859
  59.4506693 123.5791302  30.6246185  58.9229631 124.2334652  30.1667953
  60.1337194 124.0864468  31.0631466  53.3490515  98.4410477  98.2677269
  53.0909872  98.8239956  97.4292850  52.5278759  98.3451748  98.7501240
  70.8311129 112.7901936  43.0461788  71.3241386 112.1328259  42.5552368
  70.0410461 112.3322010  43.3330011 101.7450047  97.2274399  73.6071444
 102.6254368  97.3450375  73.2504320 101.1618614  97.5228691  72.9079342
  32.8502750 130.6561089  45.5078411  33.3848238 130.5744362  44.7180176
  32.2399330 131.3668728  45.3115368  44.6103144 109.4906425  91.7225552
  44.1527319 109.2242622  90.9251213  44.6181536 108.7042618  92.2682476
  52.7970982 124.0125275  72.4282932  53.5582018 123.4929943  72.1693802
  52.5568008 123.6722946  73.2901096  77.8267717 101.0284519  62.3403692
  77.2717857 101.8070793  62.2959900  78.6246443 101.3275719  62.7764368
  84.4155598 106.4644337  68.9680910  84.7195721 105.6271458  68.6177397
  83.4608364 106.3967705  68.9557505  51.8177176 136.8570328  47.9677248
  51.2260103 136.1231709  47.8016758  52.2872972 136.9775677  47.1423769
  96.6003323   0.8788472  58.4208965  96.2963581   0.0280171  58.1047916
  95.9899616   1.5087586  58.0376339  45.6161642  46.7708540  24.5621943
  45.3671980  47.5977564  24.9750876  46.4879799  46.5825987  24.9096560
  74.0675497 110.0291348  63.4471321  74.8711205 110.0518036  63.9667416
  73.8987255 109.0973282  63.3076334  69.5792627 114.8147202  61.2187624
  68.6307096 114.7444057  61.3261461  69.8953676 115.1132870  62.0715046
  85.0878906   6.4877587  56.2345839  84.4869328   5.7442837  56.1863136
  85.1440620   6.6900902  57.1684647  59.2077065  84.1756916  78.8213873
  59.8828983  84.6433067  79.3129969  58.8448477  84.8332500  78.2279348
  76.2333965 124.9911404  27.5472188  76.2039185 124.0943909  27.8807044
  76.6062927 125.5017853  28.2658410  62.9061079  89.1144562  44.6094847
  62.4572659  88.4379005  45.1164770  62.2990513  89.3241978  43.8997507
  39.9792337 128.9506435  78.9081192  39.3677616 128.9016151  78.1733179
  39.5503640 128.4606647  79.6097088  49.6679449 127.1475983  69.1559553
  49.5663595 126.4348125  68.5252094  49.9711800 126.7181778  69.9558783
  81.4435482 123.0432892  16.3923800  80.5184841 122.8124523  16.4773190
  81.7447567 122.5488949  15.6300902  56.7786789 132.3274040  15.1504175
  57.4686146 131.9620228  15.7042352  57.0022345 132.0368099  14.2662183
  48.8432169 114.2346954  60.2918625  48.7508917 113.6084938  61.0099030
  47.9487133 114.3784714  59.9829483  50.3845263 141.1960697  64.4349766
  50.6986761 141.4297676  65.3084326  51.0628748 141.5193176  63.8420343
  37.9402590   3.4301548  58.8918543  38.5524035   4.1434651  59.0727043
  38.4971499   2.6977997  58.6277485  60.1058435 121.1564159  25.6235504
  60.3291845 121.4217186  26.5157199  59.1833925 120.9055138  25.6721091
  67.9997444 134.9360275  65.4082918  68.8767290 135.1115036  65.7493782
  67.4098682 135.3381348  66.0459375  84.7083759  86.0543919  74.1056585
  83.8184929  85.7575130  73.9153814  84.6188927  86.5893078  74.8943853
  90.0371170 106.5930462  35.1104403  89.1191292 106.5002632  35.3652191
  90.4973602 106.7657089  35.9317803 105.7299614 127.0062637  66.3089275
 106.5579987 126.9688129  66.7876530 105.4858017 127.9316616  66.3247347
  91.4906216 130.0428867  44.4623518  90.6841373 129.9840641  44.9745655
  91.4957333 129.2464828  43.9313650  92.6552105 140.9077358  13.5632554
  91.9970894 140.6192684  12.9308835  93.4236431 141.1150742  13.0315057
  35.7643557 133.6982632  31.7171001  35.1033282 133.2314777  32.2283483
  35.8853173 133.1607914  30.9343314  90.4165936 113.4804916  47.0101976
  90.9552002 114.1548634  46.5962267  89.5158958 113.7668228  46.8585777
  51.9521284  99.6062660  40.2998543  51.1107683  99.3153858  39.9480867
  51.9841290  99.2354107  41.1817122  77.9876757 113.6339378  71.4360523
  77.6613426 113.8832092  70.5714130  78.2066679 114.4647121  71.8580580
  34.5881248 104.1506004  41.4381933  34.8445654 103.2286549  41.4160204
  33.7932372 104.1653538  41.9712639  90.8328724 112.5093174  36.1357403
  90.4401112 113.3059597  36.4925671  90.2945423 112.2977352  35.3730750
  60.2389812 124.2970085  63.0442381  60.8030796 124.8980236  62.5576115
  59.3607235 124.6668243  62.9540300  60.9625530 106.6873074  56.0195446
  61.0574102 105.7463646  56.1673784  60.2158880 106.9409370  56.5621281
  40.7889271 129.6807098  92.5639057  40.7877541 130.3485012  93.2496738
  39.8780179 129.6339417  92.2735786  56.4701796 100.8879566  76.9309187
  55.6257343 100.4841709  76.7306757  56.7208815 101.3329124  76.1213541
  46.9429874  92.0328140  62.1426392  46.6213942  92.7079201  62.7401686
  46.2642717  91.3579845  62.1561146  28.7286854 134.3873882  94.2138100
  27.8658581 134.7939396  94.1333199  29.3341136 135.1243877  94.2946148
  65.1928616 141.7006302  39.2509246  65.0138187 141.4234734  40.1494551
  64.8530006 140.9889221  38.7085223  58.0001640 133.7487698  39.0060329
  57.7787924 134.2422104  38.2162619  58.6742926 134.2749119  39.4360924
  62.4114466 108.8855648  35.5050707  61.6105890 108.3692265  35.4142284
  62.8301430 108.8313007  34.6460128 101.5304947 107.1702099  59.9701500
 102.3737717 106.8961525  60.3307247 100.8946323 106.5775299  60.3709507
  66.3046789 132.1250725  60.7718039  67.0229053 132.3685074  61.3558626
  66.0685539 132.9405880  60.3297424  55.3811741 136.6566753   7.4160475
  56.3037682 136.7641258   7.1847379  55.2202225 135.7171440   7.3287880
  64.6792698 136.3677692  69.4775534  64.9788189 135.7337189  70.1290798
  63.8252258 136.0383224  69.1977215  48.5775089  94.4103527  55.5898857
  49.2460442  93.7273407  55.5370808  47.8051853  93.9632893  55.9361315
  46.7569399  85.3934574  79.3767023  47.0284796  84.6210098  78.8808966
  46.4835453  86.0226250  78.7091446  59.9478531  11.5025597  59.6659851
  60.5774403  11.3614350  58.9589262  59.1625643  11.0330754  59.3846893
  53.4947252 128.9054489  59.0748453  53.7190485 129.2772198  59.9278975
  53.6194372 127.9627228  59.1841507  67.7954531  98.4342098  63.4096479
  67.6654577  97.4928570  63.2948017  68.3087730  98.5087204  64.2141199
  87.5474167 106.6338825  57.3374605  86.7517185 106.8797112  57.8093386
  88.2534409 106.7764473  57.9678822  58.7567234 109.0056419  68.5113811
  57.8494263 109.0277481  68.8156128  59.2417479 108.6059093  69.2333174
  53.9785337 107.8914165  50.2413750  54.3532515 108.4543610  49.5639467
  53.2960749 107.3949337  49.7897243  63.0664444 127.3832321  10.8351374
  63.1756973 127.6411247   9.9198306  62.1224356 127.4305725  10.9862709
  84.9590206  33.8928585  67.6653910  85.8099842  34.0342312  67.2505379
  85.0252628  34.3432598  68.5073948  53.9317846 117.4582767  41.0389233
  54.7788095 117.1055508  40.7662201  53.9756393 118.3875942  40.8138227
  49.1515827   9.7301560  73.0545378  49.9905682   9.8848706  72.6204872
  48.7262726  10.5876046  73.0662584  37.2151542 119.0503407  48.3985758
  36.6195750 118.3590508  48.1093884  37.7517724 119.2414665  47.6293278
  61.1361742 103.7155724  44.2822075  61.4313221 103.8745689  45.1787806
  60.9689474 104.5884609  43.9267635  71.6138315 141.2985325  93.6711216
  71.0083008 141.5182590  94.3791294  71.7344666 142.1203613  93.1954288
  87.6146126  13.2146817  13.8057315  88.0472565  13.2416802  12.9523146
  88.3258820  13.3164006  14.4381702  52.7191401 140.9006882  73.4177113
  51.8879318 141.0786343  72.9776382  53.3860016 141.2051487  72.8022146
  85.8204842 121.2793922  26.0915041  85.2605152 121.0051441  25.3652406
  86.6922569 120.9630680  25.8544636  43.4415483 116.8078518  66.9279099
  43.9617920 117.2663116  66.2680626  43.3102369 115.9324741  66.5636206
  55.0162411 133.3469296  49.1236973  55.9483480 133.1459618  49.2074442
  54.5785284 132.6758671  49.6474457  27.3974776  90.6896877  71.1649370
  27.6376486  91.5477753  71.5145540  26.4974642  90.7994366  70.8580780
  88.3878326 129.1236210 107.2666454  89.0541077 129.5699692 106.7440605
  88.6711121 128.2094955 107.2857571  62.9743290   1.1838227  44.7836113
  62.8215981   0.3477936  44.3431997  62.1152449   1.6055947  44.8014498
  52.6666927 134.3119907  86.0643196  53.3565092 134.9498844  86.2473106
  51.9227505 134.6063423  86.5898037  95.0668907  97.4484444  14.8302460
  94.4762135  96.9023800  15.3490400  95.6539822  96.8258190  14.4014192
  68.9621592  96.1978817  81.8356991  68.4983158  96.4061165  81.0247040
  69.8135185  95.8691025  81.5470505  61.8254280 115.6057930  70.6539440
  62.0243025 115.5021000  69.7233915  62.6560593 115.4328823  71.0971022
  54.8341131 109.7137356  48.4421921  54.3916512 109.2615414  47.7238750
  55.3344107 110.4092503  48.0153513  15.7320237 115.4821110  75.7582664
  16.2959683 114.7098827  75.8014727  16.1651230 116.0601330  75.1301432
  64.8720598 120.7616520  77.5469685  64.2255688 120.0562191  77.5215483
  64.9864626 120.9482193  78.4788132  58.3025980 106.6934681  61.9087505
  58.8271523 107.4410915  61.6221571  58.8866329 106.1966991  62.4817801
  65.2728891  91.0798931  45.2743721  65.5287218  90.1584148  45.3151035
  64.3229675  91.0598278  45.1582479  48.0510664 112.4958134  53.9182806
  48.8636971 112.0027733  54.0313005  47.5784969 112.0246220  53.2320690
  63.1944942 114.6110153  36.1599493  63.5628796 113.7282467  36.1951447
  63.9095259 115.1804352  36.4440513  74.5877361  95.1636314  12.6205674
  74.5222139  95.7693672  11.8823186  73.6805725  94.9381924  12.8266565
  54.1388178 112.6737785  80.9141254  54.9708843 112.2028446  80.9601212
  53.6554432 112.3820496  81.6870975  68.8360262  92.9667282  90.1574898
  68.1284380  92.3451138  90.3282356  68.4675503  93.5804367  89.5220184
  23.3672833  99.2440987  45.1035595  22.5321126  98.8065624  45.2687454
  23.7346649  99.3955898  45.9743690  43.8503361   3.9742070  67.6162004
  44.2380619   3.2437401  68.0982018  42.9134655   3.9140015  67.8029490
  41.3854647 114.4798088  57.9193735  41.6484451 113.5672569  58.0390310
  41.1751604 114.7861004  58.8015223  49.4468784 119.7262383  69.2369413
  49.2965984 120.6693077  69.3021727  50.2216053 119.6450615  68.6806631
  76.9396257 119.8938370  58.9723635  76.1562777 119.3504810  58.8865948
  77.5248909 119.5808887  58.2826185  50.3391027 110.1368237  55.7449198
  50.1759338 110.1866341  54.8030424  50.1432705 109.2283630  55.9742069
  60.4115343 132.6387596  95.0325394  60.6989288 133.2840157  94.3865681
  59.6340990 132.2391987  94.6424389  36.6219425 125.0350285  73.4889603
  37.0724154 125.2082539  72.6623440  35.6950569 125.1650715  73.2884455
  92.5411701 106.2090683  53.4538651  91.7622757 106.5958023  53.8538551
  92.5416946 106.5445423  52.5573778  87.9222870 128.4243107  64.9786425
  87.6981068 128.1081104  64.1034317  87.0881271 128.4422493  65.4477739
  82.4560165 140.7328224  57.0049477  82.8875256 141.5811920  57.1064520
  82.1991253 140.4869175  57.8936386  71.2175703   6.6641121  58.7025070
  71.8821859   6.3934975  59.3359804  71.4879608   7.5414925  58.4317207
  58.2151842  94.9192047  55.7604122  58.5615301  94.1261387  55.3513622
  58.2694769  94.7471333  56.7004538  49.4967461  14.5131283  66.3727570
  50.2471924  14.1585713  66.8495750  49.8835754  15.0711422  65.6980610
  64.2876053 131.5768242  43.2969284  64.8954105 131.3734818  42.5859737
  64.8504257 131.7413521  44.0534973  52.0699787 105.4208755  79.1096783
  52.7689886 106.0536575  78.9447212  52.4885416 104.7301102  79.6233749
  82.6188183 121.9080830  92.0267105  82.5580692 122.3236370  92.8868580
  81.9977951 121.1808395  92.0676613  57.6288557 119.4812489  74.5913696
  56.8384504 119.6268177  75.1112747  57.7913475 118.5405064  74.6608305
  71.3531494 109.9811268  53.7079144  71.6671515 109.1602612  54.0871477
  72.1179199 110.3480530  53.2643795  55.8841705 115.2906704  59.2058134
  56.0051966 115.1233864  60.1404810  55.1815557 114.6952629  58.9449453
 103.0716324  91.4089680  60.7306957 103.1436825  91.3947487  61.6850710
 102.9037666  92.3267460  60.5168247  26.6013122 133.6087799  76.1955452
  26.2393165 134.1759968  75.5147696  25.8722949 133.0420971  76.4478016
  56.6911268 124.3242073  41.1852980  56.8228626 124.9353313  40.4604435
  55.8638716 123.8872814  40.9828663  32.3135400  96.4497662  87.8381157
  33.1578517  96.8437386  87.6186657  31.6790533  96.9325638  87.3084259
  60.7405758 124.5485401  58.7477827  61.4970970 123.9958954  58.9439631
  60.1258326 124.3749046  59.4606447  49.9197578  90.7720947  48.5178566
  50.8636284  90.6191158  48.5618114  49.5379448  89.8966694  48.4539747
  65.6436920 121.7448997  55.0629234  65.8859777 122.2311401  54.2748213
  66.2329292 122.0773125  55.7400703  40.7925320 129.9303913  84.2634869
  40.4079008 129.0546131  84.2274666  41.6554594 129.7970581  84.6556759
  78.4803724 124.3969250  62.9387426  78.3392715 123.6467838  62.3611498
  79.0074873 124.0494251  63.6582041  65.6498909 108.5801697  73.1607771
  66.2933207 109.1962814  73.5109758  66.1403513 108.0555439  72.5279665
  99.5053482  87.4683952  53.9560175 100.1211452  86.8284512  53.5989475
  98.9417839  86.9592762  54.5386219  85.2443695 130.3036594  50.6629848
  85.7547760 130.7171249  49.9667311  85.7947922 129.5820713  50.9672546
  88.2737160 131.8620872  56.1559010  88.6550903 132.7382660  56.2115002
  88.0388546 131.6454029  57.0581865  52.4877644 120.9004211  97.7162838
  52.7338839 120.4388618  98.5179138  51.7451286 120.4039383  97.3724365
  58.6390495 112.8020859  75.0513983  58.5453176 112.1730042  74.3360710
  58.7789917 112.2615910  75.8289003  90.0472450 130.7739258  65.0074291
  89.5456219 130.0077534  64.7288799  89.9784946 130.7710743  65.9621525
  77.7755976   6.3370209  90.4360485  78.0026579   6.3089352  91.3654995
  77.6765728   5.4184227  90.1858234  18.2805836  88.7559700  52.3266649
  18.1309807  88.3106232  51.4926863  17.4512076  88.6693096  52.7966166
  80.9065533  13.3771019  41.9078588  80.2643585  14.0418415  41.6589546
  80.8459949  13.3309822  42.8620291  54.1155005  99.0610790  51.3380957
  53.9722061  99.1521168  50.3960705  55.0431824  99.2631054  51.4598799
  68.9321136  11.9265442  78.4408283  69.8708916  12.0168667  78.2772064
  68.8644743  11.8074780  79.3881798  65.3243017   9.8038845  63.1873465
  65.6138945  10.2547627  63.9804888  64.5748711   9.2797261  63.4699011
  66.5166473  77.7909708  94.7592068  66.6642523  77.6720285  95.6974411
  66.7439651  76.9456482  94.3719196  51.7070532 108.6967659  58.0730772
  51.0633850 108.9088535  58.7490559  51.1832476 108.5066319  57.2948074
  31.1415005  12.7298527  74.0299654  31.2443137  13.5469799  73.5421467
  31.7735958  12.7969914  74.7456312  30.6458473   4.8564511  60.4269171
  31.2449217   5.4335480  59.9533176  29.7780800   5.2259426  60.2635765
  49.1238356 128.6808205  75.7372141  49.0337801 128.0996037  74.9820328
  48.7867355 129.5233154  75.4325771  30.6482196 113.6288548  51.6442728
  29.8522878 113.3407974  52.0912075  31.0500383 114.2526627  52.2489548
  57.2657537 105.2598858  55.0185585  57.6793432 105.7007217  54.2763662
  56.4312887 104.9421215  54.6737099  87.6873589  93.6103821  79.9147034
  87.8152370  94.5298672  80.1479912  87.9345894  93.1266975  80.7028389
  60.8146715 120.3732300  82.9638577  60.4783916 119.9465179  82.1757793
  60.3351450 121.2002754  83.0115700  65.1297569  98.0488300  55.4201794
  64.8081493  98.2375050  56.3017702  64.9857473  98.8605976  54.9338531
  66.1739731 103.7397671  40.8400583  66.7186356 103.9468193  40.0806522
  66.0426712 102.7929592  40.7896328  85.0253487 110.6789589  77.4999237
  84.6314049 110.5223083  78.3581257  84.2862034 110.6696796  76.8917990
  76.9796467 109.3642902  92.3727322  76.8056488 108.4266949  92.2897625
  76.9093704 109.5388031  93.3112526  30.6478405 130.8904457  64.3829012
  30.0591445 131.5238571  63.9724684  30.5606532 131.0557652  65.3216791
  73.1633949 117.7850628  14.6001208  72.9417562 117.0326805  14.0514648
  72.3227119 118.0858421  14.9451125  67.0538902 125.3772926  91.0926628
  66.2464333 125.5753517  91.5670300  67.6904011 125.1735210  91.7779064
  64.1403246 106.6602135  74.2573261  64.3674183 107.4367809  73.7458563
  64.3855619 105.9240818  73.6967850  77.3288298  18.0435543  18.2468259
  77.5196028  18.8450795  18.7340689  77.7127647  18.1915264  17.3825717
  29.0362740 123.6031151  82.1105099  28.5825682 124.1234303  81.4474392
  29.5288610 122.9532433  81.6092587  72.4546671 126.3109779  83.6700630
  72.3600721 127.1545124  83.2276344  73.3588600 126.0493946  83.4961796
  65.4188442 111.3347721  50.1945543  64.7808456 111.0561752  50.8514929
  66.2400246 111.4195347  50.6790209  14.6112871 118.0773354  84.2053509
  14.3610930 117.9121494  83.2963085  15.5180740 118.3793926  84.1530895
  67.8234005 103.3977604  67.7928209  68.3727837 103.0043888  67.1148396
  67.2210360 102.6990891  68.0482483  64.9938297 132.8843021  74.6261168
  64.0974569 133.1997681  74.5110893  65.0000525 132.0230103  74.2085457
  73.2190704 141.3558197  36.0964918  73.6315298 140.9389019  36.8529892
  72.4717712 140.7939911  35.8912516  43.4724951 115.8680820  57.0076036
  42.7102423 115.4775238  57.4350071  43.6920166 115.2569962  56.3043165
  53.3415365 132.1186543  51.6760111  53.2630110 131.2320518  51.3238811
  52.5956964 132.2076511  52.2693300  58.8649225 121.1259651  44.1591120
  59.1737843 120.5209446  43.4847355  57.9252195 121.2070370  43.9959621
  27.4305439 128.1482029  42.1108627  27.2933698 127.2020245  42.0643568
  26.7339540 128.5181522  41.5685225  32.2047544  96.7489433  52.3384714
  32.4789977  95.9709930  52.8240824  31.5803432  96.4199066  51.6918802
  75.4549694  19.5592861  50.7792616  75.6860733  20.3687077  51.2349558
  74.5032072  19.5008068  50.8627319  52.9976368 125.7690144  76.3207531
  52.9596663 126.5232372  75.7325935  53.1201553 126.1494637  77.1905088
  66.4195633 105.5055714  66.4453793  67.0268440 104.9217987  66.8999720
  66.7513895 105.5449963  65.5484056  69.5287418 106.7645836  57.5182152
  69.7330952 107.0241928  58.4165859  70.3820038 106.6863918  57.0915222
  69.0542984 107.5467968  52.3367691  68.2581568 107.2367859  52.7683783
  68.7525368 108.2337093  51.7423677  67.9828024 112.7106762  10.9599507
  68.7459183 112.3169422  11.3828695  67.4470282 111.9647598  10.6901681
  59.5786285 114.2456913  25.5334711  60.4967833 114.1463375  25.7851624
  59.1850185 114.7389698  26.2531757  58.8064289 119.5321178  41.3018084
  58.5666656 120.3278160  40.8268213  58.7765884 118.8404274  40.6408215
  61.2603712  78.9567852  63.2238865  60.4248190  78.6300325  62.8902483
  61.5629053  78.2737303  63.8223362  91.6849995 135.7387543  33.8186121
  92.3992157 135.4215527  34.3713403  90.8893585 135.4610920  34.2725825
  68.6819696 145.9483337  51.8549061  68.4172153 146.0410976  50.9397364
  69.4056702 146.5661621  51.9586849  68.3152008 104.3981743  50.6865025
  67.9536343 104.8405361  51.4544964  67.7389860 103.6461544  50.5498695
  46.3401222 123.9943504  18.6180449  45.5142021 123.6756229  18.9820528
  46.6252327 123.2984829  18.0258250  72.8625822 143.0589390  52.7187490
  72.4031878 142.9012108  53.5435581  73.7263250 143.3761120  52.9825258
  74.0199089 143.6766338  24.9072599  74.7405100 143.0650520  25.0586963
  74.1323233 143.9592171  23.9996552  32.3035145 137.7431583  27.7816916
  32.3096752 138.1149197  26.8996549  31.7966557 138.3672714  28.3011222
  58.3388615 131.5969658  68.0293226  57.4806643 131.1899662  68.1479788
  58.1856060 132.5288677  68.1852388  79.5383930 103.8128471  78.9162350
  78.7254286 103.3229733  79.0400934  80.2307701 103.1653309  79.0487623
  65.4898739  85.7587719  38.5786986  66.2465382  85.2046394  38.3873105
  65.8582211  86.6341019  38.6984897  67.2786379 133.0248451  83.3060932
  66.3779593 132.7395725  83.4598064  67.7401924 132.2289562  83.0419922
  96.5160465 139.8797131  40.9966135  97.4373055 139.9400425  40.7438850
  96.3964653 138.9642429  41.2492990  74.2454290 142.4222660  49.1383791
  75.0217819 142.2812748  48.5965014  74.2002249 143.3719063  49.2496061
  70.3061152 127.3151207   4.9505031  71.1081839 127.7612305   5.2223557
  69.7257614 127.3826027   5.7087034  62.0100546  94.5198822  23.3317089
  61.3536978  95.0915718  23.7299490  61.5466166  93.6975956  23.1726217
  57.3991728  95.3122044  19.3936265  58.2613420  95.7084465  19.2675567
  57.0437002  95.7526684  20.1655483  96.3932991 125.6466198  79.1867781
  97.0363331 125.3869247  78.5270023  96.4333439 126.6029263  79.1968727
  72.3199320 111.5650749  70.3894758  72.2146606 110.6162834  70.4598570
  73.2289457 111.6854763  70.1148319  54.7571754 141.8854427  16.5119028
  54.9376917 142.2770405  15.6573319  54.1573763 141.1638355  16.3228035
  72.9658842 102.2035599  53.7836742  72.5353575 101.4218807  54.1298771
  73.5040760 101.8803978  53.0610752  71.3865137 121.2175179  44.5611095
  72.1355724 120.8598232  45.0377560  70.8067369 121.5545082  45.2441406
  32.3562407 124.4158745  58.9603281  31.8820357 124.1082668  58.1878376
  32.3532224 123.6674023  59.5570040  47.8976917   4.0380841  56.5855026
  48.0600262   3.1834298  56.1861944  47.0867205   3.9210968  57.0803452
  77.5840759 104.4825649  76.6930819  77.6417398 103.6033440  76.3190699
  78.4128523 104.6001911  77.1573257  61.5911198 137.2120667  34.7377920
  61.3415337 136.8398094  33.8919973  61.2247610 138.0963230  34.7277761
  86.3084507 122.4175835  17.5267529  86.6663265 122.0700932  18.3437049
  85.4582882 121.9873047  17.4355268  65.7558632   6.1291867  59.6255732
  66.0427952   6.8791275  59.1045189  64.8391247   6.3152676  59.8285532
  93.4000969 130.0796509  24.5896626  93.5404015 129.1378021  24.6870208
  93.2965183 130.2101994  23.6470795  82.7841854 116.1327076   0.8646097
  82.0338917 115.5397606   0.9058021  82.4111366 116.9728756   0.5978052
  87.0528221 142.5984383  66.9186974  87.1988487 142.2668743  66.0327101
  86.6375160 141.8706512  67.3813772  73.9168453 142.2358799  55.8326244
  73.3518171 141.6658688  55.3110313  73.3148193 142.8492546  56.2540102
  77.4686432 122.9539776  24.0885210  78.0875921 122.8163052  23.3714604
  78.0189943 123.1643105  24.8429108  70.0458097 140.9068489  71.0526180
  70.0285006 140.9092522  70.0955772  70.5176735 141.7063904  71.2856436
  59.5312309 130.9977150  41.7663479  59.0838623 130.1867008  41.5247822
  60.2609444 130.7138634  42.3169661  85.0065231 142.6343727   4.1846687
  85.6202030 141.9789696   4.5164382  84.2196655 142.5168228   4.7168961
   6.9464415 102.0360279  16.6368032   6.5701658 102.7166271  16.0787487
   6.7497969 102.3219204  17.5288939  85.7727623 117.4404812   8.2562196
  85.7296753 118.2373810   8.7847209  84.9625683 116.9734955   8.4605259
  64.8603201 111.5968132  45.8932734  65.6727552 111.8679523  45.4658842
  64.3040895 112.3753452  45.8662558  94.2586708 133.3912945  67.0796871
  94.2382336 132.5406551  67.5181198  94.4892979 133.1880474  66.1731911
  27.9665422   0.7362538  48.6596727  28.2693219  -0.1435966  48.8842010
  27.6077700   0.6480198  47.7766514  51.2890816 113.7253952  48.6690664
  51.7158508 114.3747997  48.1101656  50.4542160 114.1274929  48.9089823
  90.1751614 129.7022438  40.2971315  90.6858063 130.3252506  40.8141804
  90.1311398 128.9172363  40.8430767  43.3017969 121.6293240  55.9416294
  44.1209984 121.6113377  55.4468393  42.8219938 122.3761368  55.5834484
  73.8599539 131.6123295  48.2921982  73.9055347 132.4295330  47.7958679
  73.6952543 130.9396553  47.6314354  87.7069283 108.5770130  13.8778877
  87.6551628 109.0656185  14.6993589  87.5813389 109.2384434  13.1974709
  42.8606367  98.6276245  41.6363001  43.0538368  99.4340324  42.1144247
  42.1313000  98.2340717  42.1152735  54.7030306  96.9904327  41.1016369
  54.3786097  97.0723438  40.2048206  55.3617096  96.2974167  41.0556984
  91.7436695  98.6418724  71.9150114  91.2394810  97.8540993  71.7114401
  91.9039631  99.0501499  71.0642242  74.5938063 115.7194042  49.0865898
  75.5041265 115.7194328  48.7907124  74.5317984 116.4751530  49.6707392
  24.2672467  72.0829678  71.3892508  24.0173888  71.7606783  72.2552395
  25.1218247  71.6851044  71.2230110  58.1501579 120.7690144  56.7536402
  58.0684042 121.2139416  57.5971985  59.0477848 120.4367447  56.7441082
  57.9694128 116.9708824  59.5158529  57.4541473 117.7626419  59.6703053
  57.3341942 116.3303852  59.1956997  63.6537886 118.1762981  38.9624906
  63.1362343 118.9437008  38.7186456  63.0490780 117.4401569  38.8694549
  20.3817272   4.5926934  53.8164043  20.3729701   4.1293698  54.6539545
  19.5136464   4.4338017  53.4457016  39.7246051 104.9991894  82.7760792
  38.9394593 105.4684067  82.4939251  39.7619128 104.2306423  82.2067165
  68.6017609  84.3382263  41.2121248  67.8373623  84.3573666  41.7879391
  69.3109608  84.7001553  41.7434168  47.0141125 128.5462952  14.2501736
  47.7632332 128.6671734  14.8336422  47.0528746 129.2931652  13.6527467
  24.2849398  10.4863053  65.2092075  23.8109446  11.3172417  65.1759577
  25.2085423  10.7361393  65.1814175  64.9834967 105.8296585  39.9645495
  65.3100824 105.0507832  40.4150200  65.7554913 106.2004471  39.5370317
  66.5441561   0.0852852  55.4707670  65.7522106  -0.0746555  54.9574757
  66.2383938   0.5679016  56.2387753  51.3774490  95.7958031  53.5385895
  51.2796688  94.8707485  53.3128881  52.0366621  96.1232567  52.9266691
  58.7984037 120.6523418  46.6201305  58.1969452 119.9771023  46.9340181
  58.7722731 120.5719185  45.6666708  41.8190384   7.1383171  50.0494766
  41.8945551   6.9305020  50.9807873  42.6394939   6.8268471  49.6672821
  71.7099094 121.3328838  35.8577991  71.0305691 121.9516468  35.5897212
  71.2818766 120.7730865  36.5055966  32.3795819 133.9052677  36.0592222
  32.2996783 134.8392868  36.2527609  32.8435898 133.5430908  36.8140483
  59.4762754 125.8429718  39.7640777  60.2116489 126.4296722  39.9408221
  58.7298059 126.4275074  39.6324086  84.6518135 119.9136448  36.4343905
  84.6746540 119.6603966  35.5115843  84.6416283 119.0832996  36.9104576
  68.4549379 127.9746056  66.3839149  69.2008114 127.8427982  66.9691753
  67.8368998 128.4951305  66.8970585  81.7758656 110.4308033   1.1410559
  82.1329975 111.2840366   1.3874020  81.1642933 110.6233025   0.4303164
  48.9138699 123.8401794  48.5882950  47.9851294 123.6190891  48.6575127
  48.9607286 124.4497013  47.8517342  35.4793906 145.1655579  61.5557623
  35.2582002 145.4418087  62.4451399  35.5791306 145.9835243  61.0687208
  47.3072147 103.7548828  23.8361621  47.2345352 103.7369633  24.7904301
  47.2884464 104.6852684  23.6119533  71.9849396 106.4353466  56.6706324
  72.2949600 105.5325890  56.5989351  72.1126127 106.8026161  55.7959652
  83.9172935 115.6433105  60.0312233  84.1337013 115.4552174  60.9444714
  83.2210159 116.2983322  60.0800896  90.8280277 118.6910820  21.4205933
  90.2863312 117.9598331  21.1238194  90.7033730 118.7118721  22.3694134
  59.3272209 126.7617035  67.8072071  59.4091511 126.6782284  66.8571806
  58.3836842 126.7997456  67.9638147  52.5014925   1.0603886  48.5393047
  52.0652199   1.7355996  48.0196953  52.1572065   0.2352791  48.1974030
  75.3581285 112.4158096  49.4437218  76.0493279 112.5348473  50.0951099
  75.5654240 111.5806866  49.0244102  46.1416817 133.6334991  40.2946234
  47.0592833 133.3749390  40.2086449  45.7072687 133.2280350  39.5442128
  42.4321413  28.2981091  10.4508078  41.5843296  28.7402516  10.4066479
  43.0744934  29.0046292  10.3841007  36.6458035 104.1401005  63.1396675
  35.8910322 104.6251965  62.8061485  36.3727450 103.8382721  64.0060234
  55.2117872 111.9329739  51.0047865  54.8902941 112.4468994  50.2640057
  56.1534405 112.1037006  51.0240459  76.6787386 111.1062622  24.7187805
  76.1811304 111.8849087  24.4691396  77.5837612 111.4110851  24.7839451
  57.5680828  99.1910076  41.1809635  57.9199553  99.8041153  40.5355835
  58.1284237  99.3037128  41.9487810  73.6286211 121.7122555  53.6162901
  74.2547798 122.3053741  53.2011127  72.9671717 121.5527439  52.9430294
  64.4852591 115.0572586  49.9932194  64.7900629 115.9239292  49.7244978
  65.0999689 114.4492054  49.5825577  78.9645624  11.0815602  69.8280668
  79.2988729  10.6403332  69.0471792  78.0158854  10.9624272  69.7828293
  63.9966106   3.6076336  46.6065884  64.1213512   4.4787674  46.9831562
  64.7672462   3.4724884  46.0551405  83.9831543 107.0540047 104.1617682
  83.2853317 107.2377872 103.5328897  84.7178841 107.5929165 103.8685384
  70.3845692 118.1351471  69.6381903  70.8807421 118.7598038  70.1671934
  69.9174118 118.6774254  69.0026379  39.2778254 136.1650944  68.4759331
  39.0702534 136.1842918  67.5417042  39.1448116 137.0664310  68.7694120
  74.9727678  15.3210049  38.7767315  74.8136806  14.4533520  38.4050894
  75.7689047  15.2161198  39.2976856  90.1533127 138.7354565  50.0544167
  90.5226326 139.6176815  50.0932026  90.5986214 138.2583809  50.7546473
  74.4782066 130.4761314  33.2648683  74.9365997 130.7184029  32.4602485
  73.5507107 130.5819893  33.0532765  95.8997917 113.9811897  48.8905621
  96.6320896 114.3025112  49.4166183  95.2494144 113.6978340  49.5331812
  92.5466442 116.8200684 105.7689684  91.8406582 116.1750221 105.7273369
  92.8398705 116.7957687 106.6798236  47.9151535  87.4710274  27.4048400
  47.5445032  86.5885639  27.3944855  48.6387682  87.4342251  26.7793322
  46.3440084 124.8447227  76.2047768  46.3511562 123.9235592  75.9446764
  47.0582151 124.9204731  76.8375540  73.9346170 110.9989548  52.3309565
  74.2220926 111.9083405  52.2497129  73.8115740 110.8697605  53.2713842
  85.1720905  92.8402615  55.0704575  84.5893478  93.3785534  55.6060696
  85.8519936  92.5468731  55.6770039  36.9484568 120.2776432  34.0904713
  36.4796829 121.0870457  33.8871217  37.8322864 120.4212856  33.7521744
  79.8216772  97.3981762  80.6416988  79.9195528  98.3260250  80.4278088
  80.4278755  96.9510078  80.0511074  39.7062683 136.0780907  65.6748343
  39.7481728 137.0217705  65.8295488  39.0527844 135.9776402  64.9826622
  57.4866390 122.5946140  51.7344952  56.6192389 122.2058201  51.6218567
  57.9200888 122.4614906  50.8915043  35.1135278  88.8507557  31.5254402
  34.3540835  88.2690239  31.5581632  34.9057317  89.5509338  32.1441483
  72.0237303 128.0191040  19.4526303  72.9445124 127.7775288  19.5527673
  71.7703056 127.6512623  18.6060488  43.9278889  17.5341778  64.8928642
  44.1961527  17.7934056  64.0113449  43.6195660  16.6333943  64.7942209
  40.5337667 115.1587296  42.7207422  41.2430620 115.3032398  43.3470392
  40.0608397 115.9906387  42.6983452  27.6373339   4.2425995  40.1605701
  28.0696487   3.8537484  39.4002223  28.2926869   4.8325520  40.5330038
  86.2808323 135.5067253  20.8837223  86.3785267 136.4526653  20.9927750
  86.2935543 135.1601982  21.7759013  51.0812998 143.8948631  60.3622484
  52.0221090 144.0420055  60.2650118  51.0155964 143.1594086  60.9713602
  43.2995081 100.5045700  46.9310951  44.1192150 100.7445049  47.3632383
  43.5033321  99.6944904  46.4637041  65.2221680 132.9138565 104.0712275
  65.4737186 132.8092003 103.1536224  65.3932810 133.8359451 104.2628106
  43.5785151 107.1396065  65.6765842  44.2162752 107.5658607  66.2491226
  43.2167196 107.8516579  65.1490355  44.0115261 110.3062344  24.3861055
  43.9116955 110.4426956  23.4439564  44.0664673 111.1892319  24.7515178
  33.5296512 129.3748569  42.6481247  33.0198431 128.7255764  43.1326485
  32.8758502 129.9798393  42.2977400  77.2768545 114.7695732  56.0315084
  77.3277140 114.1788673  55.2800322  77.7849722 114.3322468  56.7147350
  64.7861290 130.9668922  39.9738216  64.1335487 131.2701130  39.3426132
  64.7033930 130.0133228  39.9644852  23.7150383 116.9125748  25.9503770
  23.7358475 116.9243622  26.9072771  24.1920733 117.7007675  25.6907058
  83.8216400 105.9632206  29.5728660  84.4996452 106.1122131  28.9138150
  83.8356590 106.7528725  30.1136780  38.8026619 106.8581676  19.6078002
  38.4722304 107.0667362  18.7339878  38.1105375 107.1494102  20.2014112
  55.3289175 127.0129013  50.0357151  54.9230671 127.2018242  50.8817816
  56.1287498 126.5350342  50.2551222  40.7398224  13.2385712  65.6206417
  39.7854471  13.1688767  65.6439638  40.9668159  13.6914044  66.4328241
  83.7301826 123.1288719  26.7151546  84.4167042 122.4857903  26.5380621
  83.1240463 123.0408764  25.9795666  66.5714884  93.0857849  53.2035208
  65.7807302  93.6231232  53.2504463  67.2813988  93.6833286  53.4384632
  84.1613007   0.2045517  57.7747059  84.4254875   0.9825306  58.2658243
  84.9679375  -0.1030750  57.3612785  85.3431225 125.9439564  64.5281029
  84.4085789 125.7391930  64.4974899  85.4047775 126.6937160  65.1199532
  35.2069783 121.4910698  65.9084034  34.2779350 121.3293552  66.0725975
  35.5493784 120.6459808  65.6171703  95.3683949  87.7708626  52.7947044
  96.1033440  88.3079052  52.4986315  94.7087669  87.8680515  52.1079254
  85.8619022 116.7521286  35.0444412  85.9811783 117.0326996  34.1370916
  85.1021862 116.1704540  35.0173807  63.2971048  16.3631611  33.7631750
  63.6691332  17.2098904  33.5164595  63.1719685  16.4233380  34.7102499
  33.5313845  89.0433884  41.9726610  33.0833054  88.7740040  41.1708593
  32.8809333  89.5597553  42.4485970  67.6603842 132.4351883  52.6784706
  67.8652000 133.2839203  52.2861433  67.1809721 132.6505566  53.4784794
  81.1549568 103.2218266  36.9561028  81.4118958 102.6913166  37.7102757
  80.5950546 103.9055824  37.3238373  66.6860580  97.7761745  33.0716228
  66.5381861  98.5494518  32.5271940  67.1468973  98.1097889  33.8414025
  47.9122066   3.0020600  46.5011978  48.6563587   2.4571972  46.7573309
  47.5975370   2.6101189  45.6865835  55.6326199  83.4928131  19.4204438
  55.3956175  82.9299927  18.6833584  56.2219763  82.9568958  19.9511886
  46.5941572   7.2361927   6.5674567  46.2480783   6.3611679   6.3919640
  45.9662676   7.8292828   6.1548692  68.0986309 138.8162422  33.4750724
  67.5924397 139.1009712  34.2359495  67.6508427 139.2124557  32.7275896
  78.9004183 106.1275482  92.1723080  79.8179340 106.3986778  92.1424484
  78.8237858 105.6310272  92.9870605  48.6504507   9.3130474   0.2688673
  49.2953920   8.6130696   0.1673541  48.8123894   9.6627026   1.1450820
  42.1778250 123.1715584  49.5191765  41.2268972 123.0773258  49.4635725
  42.3788071 123.9131451  48.9483166  97.5129700  11.6153126  51.6331720
  97.5481224  11.5387230  52.5866556  97.3816395  12.5497704  51.4726305
  49.7275591 122.6526165  17.1956801  48.8036489 122.8906822  17.1185005
  49.9553680 122.8669930  18.1003213  77.8308535 128.4491253  47.9781437
  77.5617313 129.2638969  48.4023523  78.6340427 128.6768436  47.5098848
  93.4878063   1.6947060  35.1793718  93.6581230   1.2561303  34.3457747
  94.1837215   1.3854580  35.7592821  81.0205269   0.4008179  57.6352882
  80.6441212   0.0718384  58.4515762  81.9486713   0.1734429  57.6907778
  75.4085684 133.5291195  15.1080143  75.8913231 134.1821575  15.6146872
  74.5561028 133.4732533  15.5397642  70.8226585 125.0879383  27.4415302
  70.8940983 125.1333523  26.4880824  71.7247200 125.1617527  27.7530909
  72.1393871 101.5706635  58.8197756  71.6206169 101.7135239  59.6114159
  71.5676737 101.8507481  58.1049776  75.2403927  81.3985157  19.9340427
  75.4645824  82.2363567  19.5290899  74.3315125  81.5039635  20.2151895
  67.5367355 124.4995213  78.9538240  67.7494335 124.2988491  78.0423832
  66.8511438 123.8722610  79.1834736 104.4501400 115.6242752  71.9536734
 103.7332153 115.2132225  72.4366665 104.4267273 115.2095509  71.0912991
  43.5570574 114.7492695  69.7698975  42.7568150 114.9718285  70.2456188
  43.4845543 113.8090229  69.6058893  71.4450312 113.7066269  59.7203779
  71.2152624 112.8318119  60.0336313  70.9135818 114.2988110  60.2524662
  58.2960272   6.4794140  33.5684156  58.2611179   6.1237698  34.4564080
  57.8657055   5.8168679  33.0279660  52.2982597  92.1036434  38.0080938
  52.5145864  91.9271278  37.0925164  52.7091646  92.9481983  38.1927609
  65.4961967  93.0589104  15.3461015  66.4264679  92.8741550  15.4753077
  65.1638651  93.2411575  16.2250638  37.9247022  15.4990559  40.8316946
  38.1621861  16.1130886  41.5265417  38.2385516  15.9136944  40.0280762
  50.2760887 116.8595028  49.8120880  49.5772505 117.2361469  49.2773008
  51.0766268 117.2674179  49.4819689 101.3426495 121.6310024   7.6775730
 101.8814564 121.6883564   8.4666425 100.4523373 121.5015125   8.0043793
  62.5730515 135.2833176  39.9179506  61.9410610 135.1432037  39.2128372
  62.3503160 134.6228218  40.5739784 103.3108139 123.1490326  43.6301517
 102.7916622 122.7047920  42.9598093 103.3665848 124.0556335  43.3281565
  49.4283962  96.6445351  48.8974285  49.5721674  97.0784473  49.7384310
  50.2794647  96.2679291  48.6736393  42.9583549 109.5117664  42.5257254
  43.6557865 109.1082287  42.0090246  42.6822233 110.2671719  42.0067453
  74.0093708 143.5565948  79.0522623  74.0830421 144.4965935  79.2171621
  73.0679750 143.3991432  78.9800406  73.3732462 114.4670773  58.0489826
  72.9121780 115.2859497  57.8670692  72.9716349 114.1397762  58.8538504
  57.6143742   0.7525807  40.6538343  58.0668736   0.1752167  40.0389099
  58.2634974   1.4192467  40.8783865  39.1423392 141.3241673  52.4564981
  38.3719587 141.3076305  53.0243683  39.8460388 141.6511726  53.0169535
  44.4294691 129.8413086  60.6043148  43.9863586 130.6657887  60.8045959
  45.2783251 129.9134350  61.0407448  58.9568472  83.3446503  33.2463527
  59.3318796  83.2798576  32.3680639  59.5667124  83.9048195  33.7264705
 105.7880116 109.7513771  35.1860142 105.7588863 109.1540623  34.4386220
 105.9825420 109.1882706  35.9352160  44.8746014  76.1335993  37.4852228
  44.6224022  75.8302879  38.3573651  45.2661800  76.9941235  37.6348591
  78.6672258   9.9554329  80.0092793  78.5307217  10.9019928  80.0496006
  79.0376616   9.7302990  80.8626938  69.5133018  91.9670391  39.2789555
  68.6436081  92.3615742  39.2141080  70.0790215  92.6812267  39.5724392
  43.9120960  23.6899739  52.0162487  43.4183025  24.4294911  51.6619682
  43.7471342  23.7212544  52.9586077  78.0592012 124.6112156  19.9325490
  77.1298504 124.5843506  20.1601720  78.1193447 125.2793694  19.2497671
  41.6351461  19.3440037  82.8066730  40.9560156  19.8037129  83.3003044
  41.6615152  18.4688549  83.1935406  47.9652309  79.7149992  61.4701271
  48.1152534  80.6559372  61.5615416  48.6376238  79.3108606  62.0185709
  26.3638234 113.3241177  40.8414984  27.0933628 113.0713463  40.2757168
  25.6293011 112.7906990  40.5379105  41.0269833 122.6896763  39.8299360
  41.7209721 122.4786282  39.2053795  40.7141924 123.5524559  39.5578980
  35.7135582 105.6351852  56.7820168  35.2012253 105.0506878  57.3406839
  35.0594211 106.1171246  56.2759876  43.2550859 112.7794743  42.9232979
  43.4509850 113.0646420  42.0308113  44.1131878 112.6459408  43.3258629
  43.2513332 134.3495369  26.5617108  42.9473543 133.9435482  25.7499170
  43.6755848 133.6379242  27.0411396  25.4294133 125.3611088  69.5392084
  24.5083308 125.2169418  69.7561216  25.8401752 125.5839252  70.3745890
  79.6273232 141.0555363   7.6259035  79.8711252 141.2284088   8.5352486
  79.8094988 141.8766022   7.1688569  37.8057003  92.7079105  33.2346320
  38.2477164  91.8901348  33.0063677  38.0371928  92.8575134  34.1512895
  13.6389029   8.4156399  32.2598362  13.7893403   8.8943272  31.4446926
  13.4025979   7.5317746  31.9784379  60.5860758 128.7039852  16.4001966
  61.2943363 128.9344311  15.7989562  60.1165819 127.9970169  15.9574759
  46.2386513 141.3960648  15.9075809  47.0051622 141.9057274  15.6450307
  45.7975388 141.1856651  15.0845468 112.0164776 128.3194065  54.3151617
 111.7239094 129.1909885  54.5815849 112.9645920 128.4051323  54.2153311
  94.6568775  89.0094852  16.1866903  94.0760994  89.4785500  15.5876017
  94.0780926  88.6855698  16.8768513  73.6000776 110.7210350  37.5801039
  72.7510977 111.1060810  37.7973819  74.2322063 111.4161205  37.7631402
  64.6019268 138.8158703  47.7104950  65.5271292 138.7787151  47.9531002
  64.4434309 139.7385979  47.5112724  64.4512892 131.9331932  12.6242137
  64.4465923 132.2318745  13.5336089  65.1087523 132.4811172  12.1955502
  40.0955868  98.4930897  26.1114550  40.4123545  98.7122154  26.9877386
  39.8234272  97.5777435  26.1771011  67.3772192 130.7984638  21.6003299
  67.4470520 129.9094868  21.2523580  66.8902779 130.6979370  22.4182630
  82.2529507 103.9506626  59.7486734  83.0314732 103.3940506  59.7313356
  82.0233822 104.0125751  60.6758738  73.5822773 111.1108112  45.1964521
  73.1178808 110.2762699  45.2605200  73.3455229 111.5787411  45.9972095
  36.1540318 114.2538834  24.2532825  35.7322979 113.6705112  24.8841953
  36.5277696 114.9546051  24.7876430  36.1250567 139.1572857  22.9274392
  36.5648246 139.9717045  23.1715083  35.8503342 139.2957687  22.0210290
  36.0040832 116.7032051  29.6600509  35.7836962 116.3568497  30.5247498
  35.1613379 116.7883205  29.2142177  63.5046434 115.7023048  17.8381801
  64.0586138 116.2447357  17.2768271  63.1393147 115.0426197  17.2486162
  32.8493881 100.8011055  14.8744297  33.5047817 100.1662064  14.5853078
  32.1687555 100.2708530  15.2889192  69.0000105 121.1039066 107.9344646
  68.6804676 120.7669258 108.7714639  69.7145081 121.6951752 108.1713805
  26.0835242 110.7645988 108.6249301  25.9141493 111.6793728 108.8501745
  26.2522459 110.7771969 107.6828016  71.6963863 106.8610859  53.5497618
  70.8337784 107.0985222  53.2095194  71.9534206 106.0946941  53.0371141
  55.4006624 143.6303329  24.2833686  55.6606531 142.8643608  23.7715888
  55.7900476 144.3716526  23.8196230  48.2316828 132.9405403  30.4999924
  48.1320333 132.1828461  29.9236226  48.7685633 132.6209068  31.2251306
  94.3564129  74.0102863 100.5458745  94.9120998  73.3203030 100.9083065
  94.7501659  74.8244238 100.8595177  56.9394350 105.1100254  30.8433437
  56.8377161 104.7734451  29.9530649  57.8750896 105.0244999  31.0262895
  88.4174061 114.0740681 106.3624977  88.6735630 114.3753815 107.2341748
  88.6752319 113.1524658 106.3422944  64.0622616 132.0173454   1.9885229
  64.9015713 132.2778893   1.6091725  63.4091377 132.4897575   1.4723009
  48.5067606  95.8129311   6.9791734  48.2528162  96.4160633   6.2806207
  47.7346706  95.2633286   7.1135205  66.1850500 120.3311634  28.6070108
  65.8207035 119.6670532  29.1922021  65.7056761 120.2163601  27.7864909
  56.9376326 120.2331734  79.5047474  56.0364008 120.4431057  79.7495842
  57.3947525 121.0737896  79.5302391  65.4887581 136.9502640  57.7893734
  65.5427790 137.8932858  57.6344156  66.3819361 136.6337585  57.6541090
  38.8529873  90.2427959  24.4393396  38.5913086  89.9576092  23.5638857
  38.0399323  90.5409336  24.8471212  86.4412022 135.0348091  36.6653371
  86.9222069 134.9024391  35.8484268  86.2573624 134.1500854  36.9810939
  34.7709012  11.6312867  46.1956930  34.7397089  11.0742932  45.4178619
  35.6405616  11.4782410  46.5651512  95.0724030 137.4427319  13.8534284
  95.8098412 137.7105808  13.3050895  95.4465961 137.3502922  14.7295976
  67.8021097 105.1526737  36.5485168  68.5028839 105.7918930  36.4198971
  67.3596478 105.1085281  35.7008672  84.0886593 106.5904427   2.6853165
  83.6015320 105.8640480   2.2963500  83.5178661 106.9161797   3.3812505
  48.9777088 134.7716904   7.9756147  48.9217472 135.2919960   7.1741283
  48.1028843 134.8288536   8.3598542  59.6633053 138.4144020  38.1751513
  60.1898813 139.1072464  38.5737991  59.2295790 138.8390064  37.4350023
  51.3260555 118.5066795  26.7924356  51.4116240 119.4483948  26.9410586
  50.5660772 118.4231758  26.2165117  46.9396734 121.1124134  17.6360464
  47.2136164 120.6324959  18.4176230  46.1541462 120.6545067  17.3368716
  70.6857204 101.4257908 106.8798342  70.3054571 100.5648613 106.7053934
  70.4579067 101.6079903 107.7915024  34.5009327 123.7787914  51.5429163
  33.9431834 123.0790901  51.8828678  35.3170013 123.6956120  52.0362186
  44.5942211 104.3033600   4.1768622  45.5385017 104.4392586   4.0987670
  44.4187784 103.5285568   3.6428934  68.5345650 140.8285332  61.7179346
  67.7071190 140.3607273  61.8307114  68.3257151 141.7387009  61.9281816
  36.2484741 110.7768726  33.8129091  35.8476973 111.6448689  33.8597345
  36.0079718 110.3571415  34.6388721  62.5225163 131.2134171  18.0901599
  61.8992376 131.1419868  18.8131058  63.3817959 131.1811066  18.5106683
  52.9164648 120.2003288   8.0643660  53.5119390 120.2262211   8.8133448
  53.4020901 119.7274208   7.3885262  65.5224133  18.2309895   6.9546574
  65.9351873  17.3866635   6.7730910  64.9656582  18.0666714   7.7157438
  69.6065664 118.4309769  58.3072567  69.2762852 118.1539822  59.1619062
  68.9585829 119.0614986  57.9929447  64.3414688 117.0988464 106.0969355
  64.1625309 117.8373241 106.6790497  65.1213312 116.6854382 106.4672705
  59.0020895  97.4310112  49.3456554  59.4081640  97.8273678  50.1165247
  59.2133951  98.0295563  48.6291885  79.6128845 113.8683510  16.4523661
  79.3806934 113.4875679  17.2993183  78.7735796 114.0041542  16.0126424
  23.3488417 121.6810417 103.9188828  22.5081682 121.9890594 103.5803165
  23.5725594 122.3056889 104.6088120 108.0194378 121.7599201  16.6749990
 107.5389290 122.5818348  16.7739522 107.7461147 121.4239693  15.8213818
  47.3413849 127.8121376   7.7905571  46.9838572 127.3239040   7.0489126
  46.7779636 127.5752640   8.5272270  52.0648479 120.5090714  55.4962778
  52.4929190 119.8680592  56.0638094  52.5661659 120.4800129  54.6813726
  60.7608557  97.0628548  44.0760612  60.1977682  96.5745068  44.6766281
  60.5454016  96.7160416  43.2103014  59.2753983  93.4336090  39.1199803
  58.8367939  93.5426998  38.2762051  59.1754532  92.5036335  39.3234015
  66.9795990   5.0117188  28.1002259  67.5170422   5.3304749  27.3751187
  67.0028496   5.7191449  28.7446165 124.2273808 122.4704075  78.0457640
 123.7688732 121.7344379  78.4511709 124.7612095 122.8374863  78.7504005
  77.4501610  17.1341496  43.9245749  77.3137045  17.9225140  43.3991385
  77.3679256  16.4131146  43.3004141  51.3205290  13.5263043  96.6034611
  50.4396391  13.2224827  96.3844677  51.8851137  12.7750378  96.4215764
  52.1802044  17.1690541  19.9240935  52.5694704  17.6037960  19.1653430
  51.2613058  17.0475178  19.6851754  72.7374935 110.4569340  42.3733854
  72.6166773 110.5920982  43.3132601  72.3057079 109.6216869  42.1940708
  96.1460400 138.8097763  11.5291142  95.8937073 138.2029247  10.8332014
  97.1018600 138.8387871  11.4866793  64.9207640 128.3717918   0.6296308
  65.1931572 127.9242134  -0.1714401  65.7346725 128.5147858   1.1126857
  94.3147373 119.8477173  11.8688893  94.4496155 119.4494152  12.7287722
  95.1903820 119.8902035  11.4846003  48.6584759 100.2435493  34.6304011
  48.5908699  99.7466373  35.4457188  49.4376516 100.7875252  34.7453523
  58.9645958 131.9651413  46.9622612  58.9169216 131.2327290  46.3478231
  59.8640728 132.2835255  46.8860817  56.2073469 138.8495636  42.4422550
  55.9233427 138.5337639  43.3000660  56.0900211 138.0990601  41.8598461
  63.3493853 115.4400635  27.0583916  63.5639811 115.2324867  26.1489439
  62.6742029 116.1157703  26.9969320  66.4669609 104.8772812  57.1142626
  65.6408596 104.9995804  56.6464663  66.6998243 103.9627647  56.9540310
 114.2785549 112.5584698  39.9750400 114.0354061 111.7871380  40.4870510
 115.1140594 112.8398132  40.3478861  51.5692425 141.7081833  34.5469546
  50.8027315 141.7179203  33.9737177  52.1244144 141.0135269  34.1927433
  50.4202557 122.5427437  53.2851267  49.9215460 123.3111286  53.5628033
  50.9640789 122.3238850  54.0418196  33.7408590  95.2747822  40.5183315
  33.7856698  95.5854130  39.6140456  33.0640078  95.8163166  40.9243393
  50.2679682 145.5941582  62.1391582  50.4232025 144.9656391  61.4341068
  51.0995340 145.6344509  62.6114988  68.5725546 127.7078819  13.8998926
  69.4729328 127.5808144  13.6008918  68.6197138 127.6087856  14.8507798
  26.6409063 121.3569832  24.7861743  26.3107061 121.4870262  23.8971925
  27.5717878 121.5726662  24.7298551  47.5211430 106.1956882  92.0131036
  46.9292068 105.8493042  91.3453754  48.3625078 105.7790470  91.8267199
  60.8052111 135.7039165  37.7913570  60.5990982 136.6236877  37.9580069
  60.2026939 135.4460430  37.0937157  48.6700583  95.2366447  10.3962636
  49.3873549  94.8749352   9.8757982  48.3694983  95.9950066   9.8954833
  22.9865599  96.9676113  22.1048832  23.1942701  97.1326160  21.1851764
  23.6405993  96.3282490  22.3871636  57.6483536 120.0797367  28.2456946
  58.5109520 120.4945755  28.2372808  57.1555328 120.5380344  27.5650167
  40.9763098 114.0553761  15.0375378  40.4352951 114.3469906  15.7713592
  41.3302040 113.2123852  15.3210270  54.8310375 138.0136776  20.8012748
  54.3307686 138.8238049  20.8995533  55.7304287 138.2598591  21.0174227
  78.8550758  79.5677280  32.6368308  79.4892931  79.9203968  33.2610273
  78.1597662  79.2011786  33.1831098  78.4976673 116.8943119  34.0136981
  78.6190510 115.9697437  34.2297554  79.3573666 117.2891903  34.1593695
  70.0044012  92.0040607  22.7469635  70.7212257  91.5744114  23.2136488
  70.4016542  92.7876377  22.3669291  75.7740688  83.1301880  13.3745718
  75.0798321  83.2379246  14.0246952  76.5120077  83.6272526  13.7275732
  43.9057636  20.4685002  36.5401053  44.2177248  19.8027401  37.1530175
  43.0079794  20.6488209  36.8188596  85.1536179 137.3105431  36.4295530
  85.6791973 136.5128517  36.4903021  84.7623730 137.2736931  35.5567408
  73.4768391 115.0404930  46.4725018  73.6369562 115.3970623  47.3462629
  72.5585461 115.2443027  46.2952232  55.3020906 122.5482655   2.5085968
  54.9641514 122.4278164   3.3960199  54.5238400 122.5312996   1.9515824
 100.1516724 115.6346703  62.4799871 100.2993965 115.1250839  61.6832924
 100.5051804 116.5012074  62.2790384  50.9484339  98.3892632  25.2854681
  50.0858593  98.3136082  25.6934762  50.7813072  98.2778549  24.3495774
  73.1969976 123.7941360  95.9687706  72.8365231 124.0614128  96.8142589
  73.4509850 122.8799152  96.0949072  67.1357775  28.9608746  34.2980218
  67.9482937  28.6794834  34.7185731  66.4484262  28.4801464  34.7591996
  59.0089941 125.2743816 105.3941041  58.4767294 124.7417450 104.8031499
  58.4413767 126.0072422 105.6327637  82.2446918  80.9635735  26.6208839
  82.5069332  81.5682888  25.9267783  82.5732517  81.3652134  27.4252272
  62.6733208  11.5186386  40.2501488  63.3860254  11.0931092  40.7268047
  62.7462053  12.4435025  40.4858637 104.8806286 104.4763947  27.9877853
 105.4481888 103.7481499  28.2403350 104.9391460 104.5056343  27.0328236
 120.9823990 138.9876556  50.8268356 120.1766109 138.7688160  51.2948608
 120.7479572 139.7418404  50.2860117  80.1462936 101.9546795   0.7706267
  80.7929420 102.3854160   0.2115692  80.4811096 101.0649586   0.8824864
  61.3627577 129.9892712   4.9068862  61.3925266 129.2934227   5.5634964
  62.0207405 129.7359943   4.2594793  83.1773853 116.1546135 102.8520575
  82.5073910 115.5623531 102.5106438  82.6913643 116.7851639 103.3834996
  45.5279064 137.8645039 107.5526250  45.4952002 137.2139645 108.2540240
  44.6245623 137.9279709 107.2425040  48.0144358 121.5056705  43.0564928
  47.6563454 121.3688660  43.9335823  48.5378075 122.3034382  43.1332159
  78.9064884 101.4417458  16.0493433  79.2637634 102.3257065  15.9645021
  78.8546467 101.2939739  16.9936466  58.4178877 107.1764851  10.6291687
  58.8572788 107.1108055   9.7813171  59.0129137 106.7437363  11.2414622
  57.1900892 140.9879875  40.8176279  58.0444384 140.9125900  41.2426376
  56.6034222 140.4659367  41.3649082 103.3120346 129.4614029  41.8595886
 103.3862209 129.5450783  42.8102350 103.9304829 130.1048279  41.5135288
  97.2955608 127.8113365  32.1356845  96.7557716 127.3461246  31.4966035
  97.9776287 128.2319546  31.6121364  60.6273127 129.0536308  25.3570509
  61.0380125 129.7616196  25.8533478  61.1072302 129.0317726  24.5291424
  68.5143375  87.4310112  38.0860877  68.3669472  86.5168858  38.3287406
  69.1824770  87.7369118  38.6994791  64.6270943 111.3331509  89.6036371
  64.4296932 112.1872807  89.2192849  63.7705183 110.9287739  89.7414311
  71.1583900   5.2686959  51.9677401  71.9016981   4.6711426  51.8861961
  70.6499577   5.1289254  51.1688662  63.6341190 126.9096088  47.4550629
  62.7149677 127.0741081  47.6655960  63.8578415 126.1250973  47.9557943
  23.3198309  74.7512627  13.4601533  22.6860189  75.0337362  12.8008163
  22.8595734  74.8518324  14.2933893  75.7994652 111.1117554 102.0756760
  76.6289234 110.8818626 102.4944552  75.2687597 110.3180504 102.1436598
  79.5827723 133.3601952  50.0007343  79.7730494 132.4279308  50.1051712
  79.1627932 133.4243011  49.1429806  91.8536091 123.2840157   2.4937706
  91.3093662 122.6969147   3.0185035  92.5455093 123.5673237   3.0914718
  41.7866659  94.5163345 103.6909690  42.4605417  93.9990234 104.1320016
  41.1914015  93.8661194 103.3179959  95.8667183 115.9096718  18.2021046
  96.7630577 115.9542084  17.8692043  95.7833672 115.0208473  18.5474682
  53.9667225 130.3161812  46.9660854  54.1329193 130.6604862  47.8436184
  53.1950474 129.7593403  47.0694542  60.3674030 101.9911003  22.0656586
  60.1098537 101.1839581  21.6202188  60.0647783 102.6910114  21.4870667
  67.0085526   4.3057518  61.0985422  66.7113161   4.5740490  60.2291203
  66.8593979   5.0736409  61.6501999  86.3804150 115.5535221  26.5315533
  86.7584991 115.7721615  27.3833060  86.8821335 116.0757542  25.9056282
  56.6100025 108.4033871  43.2853603  56.6563463 109.0788364  43.9620113
  56.8644285 107.5970364  43.7340307  60.8048868 115.9646320  12.0840919
  60.7512426 115.5708218  11.2133050  60.3373194 116.7956543  12.0003486
  74.0172195 141.7026424 106.7041370  74.3212414 141.0517216 107.3366810
  74.7060966 141.7313766 106.0401668  62.2128439 126.1757469 108.4965157
  63.0540371 125.9832096 108.9107113  62.2168636 127.1253490 108.3762568
  78.5009432   0.1742344  20.3382397  77.8420639  -0.1202697  20.9670281
  78.8425112   0.9865551  20.7120109  63.1984186 137.0092201   3.8115391
  63.5709190 136.3145161   3.2685170  62.4974489 137.3815632   3.2765335
  56.1186981 129.6929359  38.6813664  55.7771444 130.2853298  39.3511772
  55.7902813 130.0497055  37.8560853  51.5760899 145.4846001  46.8984699
  51.3488960 144.6542645  47.3169851  52.2282028 145.2495670  46.2383652
  74.2766380 111.5524864   2.3435821  73.6739922 110.8290672   2.5159627
  74.1288567 111.7733955   1.4240211  44.0368366 136.5958691  25.3319526
  43.9452362 137.4122429  25.8232570  43.6409140 135.9313202  25.8957386
  63.0142975  17.7692204  53.4823895  63.7909317  17.7663403  52.9228687
  62.2789049  17.8120022  52.8711605  24.9568462 142.8468609  34.3789148
  24.0035224 142.7743149  34.4252133  25.2293324 143.0033875  35.2830625
  40.7880735  95.9144878  32.6484132  41.6162729  95.5945587  33.0061412
  40.5475950  95.2672672  31.9854569  87.4928951 139.3335819  26.9761515
  87.5915051 140.2620983  27.1867990  87.0798111 138.9545345  27.7519846
  75.3806067  93.8012123  28.4077239  76.0158253  94.5039368  28.5452342
  75.5690241  93.1689453  29.1012359  94.3805408 127.0025349  61.4653349
  95.1688385 127.0912361  62.0010233  94.3202877 127.8305721  60.9889317
  34.9243784 122.1409798  33.4049201  35.0099897 122.4787807  32.5134087
  33.9812279 122.1318626  33.5680556  78.4208918 132.1668911  62.4380684
  77.8331089 132.6071072  63.0520344  78.3284187 131.2365150  62.6432085
  57.8754139 112.2354984  13.6067176  57.6897526 112.4940205  14.5094490
  58.6925268 112.6854229  13.3919549  96.8678379 116.0259151  14.0462804
  97.6687336 115.6306171  13.7019980  97.1736431 116.7519855  14.5899141
  48.9572382 132.6056385 100.5684962  49.3769264 133.1644726 101.2225547
  48.4009600 132.0165920 101.0782131  54.2199278 141.3347530  41.5396070
  54.0085173 140.4324913  41.2999010  54.7455215 141.2542343  42.3355341
  68.4652805 128.0752373  32.5270581  68.0718756 128.4808445  31.7544317
  68.6449814 128.8075256  33.1167150  15.9602904 119.9223804  41.4387655
  16.8278992 119.8435307  41.8353367  16.1089349 120.4192734  40.6342554
  63.5912228 101.6774559  43.8585520  63.3727741 100.8740997  44.3309069
  62.9766846 102.3287773  44.1967297  71.3604689 119.2014980  30.6815243
  71.9764805 118.4810352  30.5484700  71.6064787 119.5736504  31.5284085
  76.4670610 112.3514843  88.9670714  75.7441568 111.7315197  88.8707050
  76.1859703 113.1250095  88.4783324  58.7007427  14.0514355 100.9099808
  59.0176916  14.9545651 100.8998998  57.9977942  14.0515309 101.5596696
  51.4493656   4.4562607 108.8506817  51.5173483   4.1510468 109.7553677
  52.0867538   3.9272957 108.3709196  54.7568083  82.2279358  16.9708395
  55.0339222  81.4144707  16.5492773  53.8137913  82.1230602  17.0971584
  51.0213804 101.9458294  35.3182983  51.1768198 102.0967770  34.3859434
  50.5441713 102.7224827  35.6103730  57.8172922 113.7343025  18.9793301
  57.0018005 113.3412838  19.2903638  57.6051092 114.6593475  18.8547993
  63.0995274 135.7949638   1.2670730  62.7889633 136.3932419   0.5874877
  62.8217459 134.9288559   0.9688780  89.5619488 102.5277233  88.2726988
  88.9237404 103.1121540  87.8636059  89.4894218 102.7118015  89.2092284
  65.5502367 114.6178055  66.7019796  64.6467590 114.6788311  66.3917589
  66.0214472 115.2823353  66.1993837  84.9180508 126.7060471  28.1313586
  85.6204033 127.3533726  28.1937742  84.2862320 126.9730377  28.7990069
  66.2632227   0.9588127  42.4104738  65.8004522   1.6423207  41.9258165
  66.2106800   1.2363224  43.3250523  58.1801367 138.7867832 103.1991305
  57.3316479 138.9786148 103.5985043  58.5882711 139.6444130 103.0802383
  85.2274990 125.7378960  16.3496399  85.8207130 126.4148140  16.0238850
  85.6544971 124.9132824  16.1174405  86.5148640 125.2705860 100.6481697
  85.8922768 124.5916462 100.9082999  87.3674774 124.9302292 100.9191480
  47.3922873  18.7981396   5.0728476  48.3290005  18.6914425   5.2384299
  47.0267630  17.9214077   5.1911432  17.0175588 121.7077351  24.4953847
  16.6960490 122.4054146  25.0664401  16.3514769 121.6313648  23.8122058
  49.8316908 112.5695229  42.2696018  49.2176008 111.9784927  41.8339300
  50.2108717 112.0441055  42.9741526  31.4480782  95.0385284   8.9664757
  31.5525246  94.1349125   8.6684662  31.5311241  95.5642319   8.1708795
  58.4149361 130.8994675  27.2485256  57.5099564 130.9978008  27.5444460
  58.4335279 131.3224983  26.3900757  91.0389709 111.7765522 108.2007732
  90.9432030 111.1391926 108.9084684  91.4150620 112.5487804 108.6231988
  49.0179253 125.6561375  57.2670126  49.4735956 126.2967300  56.7209005
  49.4554329 125.7113075  58.1165838  81.1275673 115.2728939  33.8650227
  80.6289005 114.9918652  33.0978251  81.0654354 116.2280083  33.8543749
 100.8499718 108.5794544  10.7578194 101.0518742 108.0433178   9.9909925
 101.3769817 109.3701744  10.6427062  76.6635942 103.9702320  17.1034539
  77.4804020 103.7955284  16.6359746  76.2395668 103.1148720  17.1726406
  54.9444914   0.2399330  77.5653553  54.5378065   1.0390454  77.9004192
  54.2302895  -0.3964920  77.5321007  54.6006536 127.2615051  25.6310058
  54.5809793 126.6485310  26.3659239  53.7189102 127.6331234  25.6053972
  56.4678621  78.7712288  68.8534927  57.3410797  79.0903521  69.0812778
  56.4050388  78.9002514  67.9071093 102.7430248 108.4323597  26.5270710
 102.2259998 107.7503204  26.0984254 103.5301304 107.9805756  26.8313694
  46.5366745 119.6993160  92.5196811  45.6733942 119.5606899  92.9092499
  46.5285063 120.6143093  92.2386869 100.5561066 112.7392006   1.6856711
  99.7582912 112.3599339   1.3170689 100.7473755 113.4889698   1.1221965
  58.4263992 119.2303848  22.4959469  58.5872698 118.7130642  21.7068148
  58.8667345 118.7456131  23.1940365  44.1180658 100.1638603 109.4303108
  44.7518969 100.8810139 109.4169919  44.3869638  99.5931530 108.7104393
  76.9188643  96.0902691 106.6799163  76.3955593  96.3343811 105.9165099
  77.0351124  96.9088173 107.1622970  65.9696484 107.8431225  43.3435631
  66.7725992 108.3453369  43.4823942  65.4972935 107.9124832  44.1732073
  48.5492325 118.4613037 101.5152546  47.6395273 118.7505245 101.5860918
  48.9275217 118.6480236 102.3744776  53.4020758 111.1256313  28.4736538
  53.3157587 110.1762867  28.3868814  52.9392099 111.4786625  27.7138138
  56.9057322  84.3529224  28.6193824  57.8548145  84.4287968  28.5207939
  56.5513134  85.0539970  28.0724692  34.0597844 101.9447994  24.7325969
  33.3090758 101.4171028  24.4601917  34.2836905 102.4605942  23.9579678
  48.4696674 105.7576656  27.8500652  49.3894386 105.5099010  27.7558923
  48.4022856 106.0930538  28.7440467  76.8098021 140.9256077   9.3170917
  76.1013985 140.3251553   9.0850163  77.3544598 140.9686184   8.5311329
  48.8468647 125.2392101  67.3274040  49.6161318 125.2479553  66.7578554
  48.1401014 124.9130440  66.7703247  51.9681597 110.8517170  48.8208246
  51.7379236 111.7770004  48.9049339  52.7291393 110.7414818  49.3909073
  84.9864292 108.2223225 107.9598237  85.6177902 108.8874340 108.2341264
  84.3420506 108.1975746 108.6672086  82.5339127 114.3727112  20.4540825
  83.3727264 114.6400833  20.8297467  82.0578098 115.1927280  20.3232384
  53.7847996 109.7347260  56.6245699  53.5480499 110.6446648  56.4451361
  53.0747986 109.4068813  57.1765184  60.1854992 121.4780712  28.5688162
  60.8478022 120.9335899  28.9944029  60.0955725 122.2385979  29.1430545
  55.3812695  11.7598610  15.8386350  54.7567177  12.3669701  15.4416597
  55.3936529  12.0006829  16.7649627  35.1300001 110.2710056  47.0896626
  36.0791302 110.3949547  47.0942307  34.8264623 110.7165146  47.8806257
  74.2669916   8.4302121  41.7226315  74.4351578   8.7687283  40.8432245
  75.0553465   7.9341107  41.9431162  68.2021189  93.7561226  83.0730256
  68.3331156  93.2199574  82.2909793  68.2644653  94.6579552  82.7583321
  18.0613065 103.6999893  24.7410083  18.7923563 103.5375786  25.3371811
  18.4534788 104.1657639  24.0024376  68.1666946 109.8337078  37.1395350
  69.0257263 110.2110291  36.9499993  67.7113008 109.8399734  36.2976265
  82.3414898 121.6754150  29.5635509  83.2753372 121.5533829  29.3924499
  81.9762993 121.9422626  28.7199545  67.0668364 102.2025681 109.4136401
  66.4361000 101.6639233 109.8914155  66.5306616 102.8501129 108.9560037
  62.0267010   5.5455761  16.6797936  62.6884079   4.8564511  16.7388463
  61.9971561   5.9251480  17.5580204  64.0764952 107.4678898  32.9513836
  64.6654606 106.9629002  32.3907375  63.5419130 107.9758930  32.3411465
  73.9712954 120.7475471  23.8784552  73.3428907 120.9530163  24.5706367
  73.9469099 121.5090656  23.2990432  33.2348490 115.3977299  20.5786705
  33.7367392 114.6968174  20.9946680  32.3284817 115.0910187  20.6042743
  55.5265522 131.0830879  27.2499847  55.0941610 131.6878796  26.6470861
  55.0599337 130.2553368  27.1345448  46.5223360 113.5761547  18.5660541
  45.6111336 113.2931137  18.6424577  46.7843294 113.3051968  17.6861835
  80.4683018 135.0090981  38.9662337  79.9122238 135.5537128  39.5233750
  80.0057602 134.9723339  38.1290150  92.1970177 112.0183754  15.1869822
  92.8248405 111.6194534  14.5845485  92.6040363 112.8457737  15.4438341
  70.0818348 115.1006794  21.2786293  70.8275461 114.5241547  21.4452243
  69.3947697 114.7781849  21.8618751  77.4561310   5.8063965   4.1107726
  78.0137253   5.8918362   3.3374548  77.0950603   4.9220543   4.0491891
  70.3064251 110.7569790  36.3959384  69.9303627 111.5030956  35.9289050
  70.7268238 111.1427021  37.1645212  54.9266243 142.0920181  13.7640452
  54.8826027 141.3807678  13.1249797  55.8544970 142.3243237  13.8003337
 103.4128284  94.8450756  14.1879785 104.3388462  94.8412514  14.4302857
 103.3921242  95.2640343  13.3275855  83.5047436 118.3323956  34.2547989
  83.8254356 117.7237606  33.5892582  83.7385941 119.1981792  33.9201999
  49.0474701 146.4681530  28.7255526  49.1614199 146.4350224  29.6753669
  48.8695765 145.5619144  28.4739089  67.8209305 126.6707230   7.1158904
  67.2005844 126.6502666   6.3872010  68.1890488 127.5539875   7.0923358
  63.9823389 136.8554115  32.2759986  64.4206333 137.5547409  32.7608490
  64.3271303 136.0476303  32.6565742 104.4569778 142.7946377  79.3707228
 104.2480946 143.1187820  78.4946299 103.9593410 141.9808197  79.4499493
  49.7484207 111.7679405  10.5844116  49.6385813 112.6548672  10.9272361
  50.1535559 111.8914223   9.7260123  69.6093893 103.6338234  32.5697255
  69.6902704 102.7339363  32.8857875  68.6684704 103.8090134  32.5839591
  68.6739016 118.3490372  10.4324770  68.8150120 119.2409420  10.7500112
  68.6681938 117.8110409  11.2241578  93.6379528 134.4466114  87.7431782
  93.3140373 133.6226273  88.1069931  93.0293846 134.6505356  87.0330390
  67.5999355 109.2766094   5.8892226  68.3310843 109.3053818   6.5063334
  67.9731750 108.8982105   5.0931472  69.2875385 112.9472733 100.9496435
  70.1511335 113.1370735 100.5830237  68.9418077 112.2459602 100.3975048
  70.2853060  92.8813171  13.8965273  71.1126900  92.4016285  13.9362037
  69.8695183  92.5754070  13.0904400  88.5389996 131.0925770  22.7962565
  88.5824776 130.1879501  23.1060934  88.5078621 131.0178375  21.8424869
  58.6865044 141.1691856   5.6060112  58.4323168 142.0888710   5.6821835
  58.7035465 141.0026741   4.6635598  88.1276989 136.7942619  31.3113093
  88.1829929 135.8525181  31.4734364  89.0287971 137.1054459  31.3974833
  82.7577496 114.1260147  77.2147235  83.6969280 114.0685368  77.3904213
  82.3474789 113.6851501  77.9587325  39.6876788 132.4123001 103.7856289
  39.8850679 133.0951214 103.1445106  40.5371571 132.1872330 104.1650566
  62.4312115 124.0849209  90.8012506  62.8177404 123.4240532  90.2267142
  62.7629328 124.9176884  90.4655596  61.2743044 139.1910648 101.1890581
  61.0001040 138.7812996 102.0095059  60.7555294 138.7503242 100.5161180
  56.4460182 103.5408211  73.8464578  55.6112576 103.9726925  74.0278062
  56.2298107 102.6092529  73.8054928  46.1682606   7.1120434  19.7807717
  45.8959675   6.2903767  20.1893759  46.0479307   6.9644432  18.8427055
  50.5929136  77.1902895  20.6995678  51.2319660  76.7326021  21.2457991
  50.7873631  76.8993855  19.8086143  83.5079193 145.1337528  30.9415984
  84.0183067 144.3725491  30.6653690  83.2253075 145.5423450  30.1234221
  92.0729351 143.4274673   8.5813230  92.0952702 143.9177704   7.7595371
  92.1237469 144.0984917   9.2620397  88.0185604 119.3479538   3.7576592
  87.3596191 119.6377373   3.1267440  87.5244904 118.8480186   4.4074205
  45.2823210 136.9055462  12.2593594  44.4204283 136.5404224  12.4594915
  45.0948620 137.7258396  11.8030536  49.3620491 136.6061401   5.7534862
  48.6395597 136.5598774   5.1273042  50.0987816 136.1966991   5.2998191
  51.7027998  92.3117065  12.4715567  51.1059189  91.6311550  12.1604168
  51.3142633  92.6140499  13.2924449  95.4776859 144.6264839  17.4398756
  95.9140873 144.5822048  16.5890932  95.9297752 143.9743328  17.9751778
  72.5029564 108.9731884  28.4635305  72.0386076 108.8177776  29.2860031
  71.9561005 109.6039581  27.9952288  66.8306875  97.5919914  99.8898169
  67.6263285  98.1140518  99.7866841  67.0489788  96.9544601 100.5696233
  69.6262074 131.1808395  36.5704274  70.1517010 131.9398594  36.3174796
  69.7473097 131.1105061  37.5173259  73.2625198  99.7556973   0.7058352
  73.7178850  98.9749622   0.3906893  72.4267149  99.4278717   1.0377833
  55.3052092 128.5168648  21.1831951  55.8059072 129.1221523  21.7301464
  54.5500660 129.0271473  20.8906102  30.3550625  86.7142391  87.1926125
  30.5327296  86.9050884  88.1136140  30.2676845  87.5745964  86.7822632
  96.8814659 113.6464977 102.7615824  96.6774178 112.7250576 102.6017853
  97.7812958 113.7497425 102.4519494  58.2454586   3.5514431  23.6900258
  58.8880825   3.6607437  22.9890823  58.4203815   4.2760830  24.2904663
  87.7716732 138.1882381  20.8826089  87.4336624 138.6044693  20.0896811
  88.6813259 138.4810543  20.9376717  94.3390846 103.0849648  14.9245691
  93.6267662 103.2167339  14.2988884  95.0766850 103.5689545  14.5531821
  79.6267748 105.9034729  18.3287954  80.3595543 106.2867069  17.8467214
  79.8425198 106.0510349  19.2496169  68.6594009 115.9745884  14.1811669
  68.4786320 115.2469730  14.7762513  68.1293344 116.6969109  14.5180857
  88.3901024 120.8362675  98.4766170  88.5005093 120.8643341  99.4270142
  89.2390060 121.1093330  98.1287130  69.3537903 140.9650421   9.4992799
  68.5210037 141.3574696   9.2371714  69.2083025 140.6731606  10.3992057
  54.0767622  10.3319531   4.4896248  54.4493151   9.5091133   4.8064479
  54.4527149  11.0010414   5.0616491  61.7077827   2.7308255  13.0901289
  60.9793997   2.1154480  13.0063975  62.0405006   2.5889664  13.9763618
  42.3870945  97.9958153  56.8870068  41.9742537  98.8521576  56.7753839
  43.2071733  98.1829929  57.3438072  85.2227116   1.3336640  34.6835971
  85.4050636   0.3996735  34.7867727  86.0865211   1.7400246  34.6133685
  73.0097198 115.6190968  19.6536350  72.7924347 115.7792377  18.7352824
  73.0081749 116.4879990  20.0551677  30.1475954 102.9503441  22.2195745
  29.3431878 102.5620174  22.5636196  30.5551744 103.3684349  22.9780650
  68.4606171 135.7176399   8.1232160  67.9161978 135.0770473   7.6655239
  67.8716707 136.1199474   8.7615955  26.7372894 105.1213264  17.1214008
  26.1921930 105.7659626  17.5725675  27.3356676 104.7996998  17.7957439
  48.2222080 140.9042740  28.0969834  48.8905144 140.2448940  28.2835770
  48.2031918 140.9623718  27.1417379  70.2435017 135.3268147 109.2485400
  69.6657562 135.9669113 108.8329464  70.6243801 134.8385334 108.5186475
  25.0588846 143.1824684  37.2545862  25.6629372 143.8763046  37.5190711
  24.6375489 142.9083443  38.0691767  39.6763158 135.7079983   4.4899166
  39.4179726 136.1340046   5.3072381  39.0677190 134.9747849   4.3992090
  41.1018801   6.8534737  18.5196018  41.4656830   6.7503910  19.3989491
  41.8539047   6.7530804  17.9359865  94.4696236 109.8287201  24.7397947
  93.5693359 110.1511288  24.6976233  94.3803883 108.8898659  24.9035788
  78.6677885  99.1514397  68.8238534  78.3438683  99.8153782  69.4325312
  79.4800997  99.5203686  68.4770592  87.0831585  76.8304873 105.7271310
  87.7135849  76.5019798 106.3681253  86.9923592  77.7603531 105.9353262
  42.4988270  99.2176437  22.8109789  41.6197395  99.5214939  23.0370641
  42.5272799  99.2567539  21.8550038  53.5702801  21.3430004   6.3208038
  53.3093357  20.4793339   6.0010880  54.4807100  21.2319928   6.5947121
  76.9995356 143.3765984  12.1060002  76.8810654 144.0216064  11.4087474
  76.6248131 143.7919617  12.8827155  52.0705891 102.2437668  39.3913054
  52.8254366 102.8252697  39.3002248  52.3818398 101.5333271  39.9522305
  68.0597496  82.0399094  37.5667310  67.9069901  81.8339348  36.6445231
  68.8256168  81.5175629  37.8051353  50.6891012 110.7555866  96.2092014
  50.7733440 109.8552704  96.5231355  51.3740969 111.2363434  96.6738340
  55.7263231  84.0331841  52.7783251  55.0299501  83.9969826  52.1225977
  55.2935171  83.8024712  53.6003256  59.1442204 104.5534801  23.0713320
  58.9233875 104.4785690  23.9996910  58.3056879 104.4668102  22.6179171
  19.0820932 103.2554150   7.0193583  19.2542338 102.3454571   7.2613829
  19.9474835 103.6634731   6.9908196  49.4892120 142.0053768  25.1064754
  50.0458193 142.3537827  25.8029175  49.9434757 142.2394848  24.2971134
  43.1657076 141.2353897  31.1980295  43.0254459 140.3195286  31.4383316
  43.8007545 141.2007618  30.4826617  33.5626245 109.2170429  16.3977337
  34.1342139 109.9698162  16.5488994  32.6966858 109.5138073  16.6775799
  44.6661043 118.8277245  54.1748905  43.7837648 118.5089302  53.9849424
  44.7345400 118.7890434  55.1288605  44.4791842  98.9714146   6.2211478
  44.9652719  99.7592354   5.9776360  43.9502192  99.2390728   6.9726694
  59.3554258 114.6334362 100.0786784  58.4226847 114.5646286 100.2823570
  59.7814226 114.7161579 100.9318598  50.9452200   1.2894612   8.1008279
  50.3681421   1.4335327   7.3508567  50.8580208   2.0847016   8.6263883
  59.7716856 127.8812790  27.9086041  60.0793219 128.4707928  27.2200799
  60.3775120 128.0252838  28.6355615  52.9070282 129.2692471  23.2577753
  52.6263142 129.3395424  22.3453665  53.8410950 129.4774723  23.2377052
  54.5114851  97.4102783  31.8048048  55.0752974  97.5639725  32.5629091
  54.8910427  97.9493046  31.1108232  22.5923586 129.3538857  22.7656984
  23.2359362 129.8012638  22.2162509  22.9382634 129.4353962  23.6544824
  58.5210943  80.8180237 105.4435255  58.9368916  80.9544659 106.2948328
  59.2516232  80.7387829 104.8301106  45.1429605 114.1425896  25.0092578
  44.2374372 114.0127373  25.2910471  45.4079294 114.9629688  25.4251742
  37.2293448  82.1377659 100.2006789  36.4199328  81.8918800  99.7527667
  37.9224944  81.7210102  99.6887227  90.9257889 108.9779949  60.5555590
  91.8000412 109.0237808  60.9426316  91.0712147 109.1118240  59.6189841
  66.7495203  92.5490093  40.0058937  66.0918283  92.3031044  40.6564379
  66.5140486  93.4416199  39.7528267  62.4590349 129.5976067  81.9714245
  61.5821123 129.7931099  81.6412505  62.9221773 129.2305946  81.2184032
  78.9406061 136.2593937  98.5372540  78.2655001 136.5551853  97.9265400
  79.1836023 135.3887463  98.2223483  81.5267658  83.6148739  27.3905182
  80.7723999  83.0397987  27.2621870  81.2136555  84.4818401  27.1325111
  36.9157696 102.9971409   9.3022406  37.3464322 103.7882805   9.6260619
  35.9865761 103.1392002   9.4829375  78.6799192 108.2796669  25.4305840
  78.2919931 107.4780273  25.0796986  78.0430984 108.9639664  25.2246308
  61.5618134 101.6061306  32.2248888  62.0746469 101.4155483  31.4394498
  60.6525517 101.5941048  31.9260120  47.8265905 139.1080379   8.9350390
  47.8564024 139.0935802   9.8916656  47.2260857 138.3995438   8.7033862
  69.9941587 134.1541862  36.2230754  69.6911526 134.2153168  35.3171611
  70.1446056 135.0618744  36.4870691  32.0502186 116.3602734 106.6576272
  32.2744584 116.0221577 105.7906630  31.2830186 116.9128036 106.5081453
  83.3193398   7.4146920  16.7448437  84.1509533   7.6426106  17.1604156
  83.5618210   6.8234520  16.0321939  62.4537325 111.1722755  98.7416705
  62.1632433 111.4625168  99.6063133  62.0435286 110.3151417  98.6264273
  69.5759487 128.1040287  97.2895178  69.5920944 127.1804523  97.5404700
  68.8376999 128.4714222  97.7755591  94.2560291 142.0734596   9.3139660
  94.9869251 142.4942589   8.8612455  93.4766197 142.5024605   8.9608127
  74.6992397   4.2607098 100.6111952  74.9069595   4.2574005  99.6768113
  75.1682615   3.5043221 100.9635004  74.9627876 108.2726669  29.4886684
  74.5370388 108.1626415  30.3388810  74.2958736 108.6830425  28.9381623
  60.1276398   1.9632225   8.9793599  59.4814968   2.6556950   8.8407826
  60.5013514   1.8072872   8.1120324  67.8458166 121.3636780  98.9461502
  67.3264503 121.6472244  99.6985408  67.5407934 121.9128513  98.2239278
  75.0670862 136.3326168 107.0561382  75.7737541 135.8117294 107.4376213
  74.4246912 136.4172363 107.7606963  27.0848203 124.3049908  98.8481542
  27.5844884 123.5816860  99.2268213  26.1693454 124.0601063  98.9829441
  54.2700863 126.6133022  34.4031453  53.5468769 126.5653801  33.7779284
  55.0575399 126.5301514  33.8653350  51.8756771 119.9043655 106.8342929
  51.5928555 120.4323196 106.0876270  52.7885675 119.6890068 106.6432812
  85.9302044 103.6734200  94.5515569  85.0359535 104.0119362  94.5958146
  86.4171982 104.3450832  94.0741118  57.1309090  96.3466644  85.2197179
  57.3181915  97.2195148  84.8743280  57.6399136  96.2949181  86.0287102
  74.9662113 113.8184929  66.8365105  74.5546103 113.4319687  66.0635861
  75.7151413 114.3044472  66.4912804  69.2388535 113.0080605  15.5489552
  68.6040974 113.0822086  16.2615693  69.4326639 112.0721149  15.4972517
 105.9378910 104.2259693  10.9217489 105.7863903 103.5219860  10.2911282
 106.7218399 104.6711159  10.6000316  69.3195629  99.2710304  16.3096547
  70.1936054  99.6459103  16.4180624  68.8248062  99.5954037  17.0621371
  13.7997103 145.4554749 106.5326014  14.3696105 146.2227440 106.5848743
  13.3686578 145.4186726 107.3864585  57.9737329 132.5139713  49.5142031
  58.5526609 132.2603989  50.2330732  58.4875584 132.3496151  48.7235069
  73.4800196 103.1553841   9.5777309  72.8018475 103.4554195  10.1829541
  74.2724943 103.6115742   9.8607564  25.3536344  98.1882763   7.6258498
  24.8444986  98.9977932   7.6670086  24.6962786  97.4938297   7.5827849
  48.7019825 142.6304340  15.3552318  49.2704678 141.9849396  14.9352407
  49.2045927 142.9372501  16.1098695 112.2088051 105.4028511   2.4705909
 111.5370846 106.0337734   2.7293551 112.8794575 105.9310627   2.0376356
  13.0318153 119.4649506 102.7832010  13.0026519 119.6730518 101.8493518
  13.9597571 119.5189667 103.0117586  28.9693427  97.1459579  94.5716675
  29.5042038  96.8060970  93.8542803  28.4324026  96.4016438  94.8435434
  63.6255884 118.0520630   9.9801153  63.6126232 119.0086269   9.9477947
  64.5333099 117.8317642  10.1892591  90.0768661 118.8657665  15.4551220
  89.7136021 118.3087254  16.1435807  89.5295238 118.6887264  14.6900690
  67.2001123 137.6118279  55.0329598  66.3011026 137.4122047  54.7718915
  67.2447252 138.5679626  55.0263938  80.3759861 142.3233223  20.4560995
  79.5771933 142.2522545  20.9787011  80.3562164 141.5569210  19.8829710
  75.5178881 106.3891125   4.9984670  76.3906193 106.2405300   5.3624725
  75.6712532 106.9227505   4.2187575  91.6393089 108.4193039   0.7510714
  90.8874702 107.8448772   0.6061426  91.2771416 109.1762352   1.2116258
  68.3333349 131.8861198   7.7092558  69.1127157 131.8572140   7.1543086
  67.6722765 132.3217869   7.1712786  75.2341938  98.2162952  11.6514969
  74.3372965  98.3790588  11.9435775  75.7381344  98.1321239  12.4609375
  88.2153511 134.1449070 106.9993451  88.2402515 133.8243771 107.9009388
  88.6036301 133.4384727 106.4831855  47.2135305   6.5016156  10.3306162
  47.6764917   7.2333031   9.9225402  47.5908232   6.4389305  11.2080848
  29.4202805 108.5031605  26.1192584  30.0053167 107.7502441  26.2033963
  29.6679711 109.0807915  26.8412113  17.0465934 117.4188614 103.9759555
  17.9826212 117.4862766 104.1644754  16.6536486 117.1510029 104.8066633
  73.0666161 131.1453247  22.4836612  73.3025837 130.9555149  21.5756273
  73.4559536 130.4301357  22.9868126  97.7310371 103.7659836 101.5615346
  97.5881577 103.4873867 102.4660780  98.6763573 103.9029312 101.4995768
  15.6399226 112.0345497 104.7182062  16.0335851 111.6968536 103.9137074
  14.9331033 111.4199066 104.9153199  89.9682999 102.3126698  99.5754405
  90.5815887 101.8714142 100.1631459  89.1210365 102.2398758 100.0148460
  49.5009518 125.0227928 105.0530570  48.8976526 124.5578098 104.4733586
  50.3603220 124.9057484 104.6480634  21.0951304  29.0365773 105.7414325
  21.1895442  29.8552113 105.2544697  20.5220795  29.2590504 106.4751523
  93.0255413  83.5906792 108.3264750  93.8321114  84.0323639 108.0607737
  93.0064583  83.6796761 109.2793368  74.9034262 118.9191628  10.0222194
  74.0384769 119.3255711   9.9681491  75.2123880 119.1298294  10.9033525
  31.3329363 108.6866474   3.6894971  30.7550240 109.1000175   3.0481169
  31.3050771 109.2698956   4.4479623  66.8893433 110.0110245  16.9687009
  66.2907505 109.2775726  16.8273771  66.3509035 110.6822586  17.3879313
  51.2686586 103.8530350  42.9037237  51.7636442 103.5195160  42.1553993
  51.8085575 104.5632172  43.2506895  44.4960880 121.7027760  23.7170482
  45.0127840 121.6978931  24.5227981  44.7540045 120.9009838  23.2622600
  85.9050369   1.6913967  45.3153896  85.0544262   2.0921021  45.4946518
  86.5427780   2.3341065  45.6259632  44.8538160  96.6952610   4.8974133
  44.5752048  97.4193859   5.4579997  44.5091867  95.9128380   5.3278470
 101.4633369 135.3827953   2.3801701 101.6886997 135.2809048   3.3048654
 100.7903004 134.7204876   2.2232920  57.4561167 138.3963776   5.4208755
  58.0009937 139.1830730   5.4420781  57.6008081 138.0282307   4.5492300
  35.9986329 106.0083675  95.8817967  36.6521239 106.4403152  96.4318892
  36.1344051 105.0737476  96.0376307 106.4923573 143.2178783 107.6910967
 105.6858063 143.5960865 107.3408678 107.1739769 143.8473511 107.4557545
  64.2926025 129.2184067  25.1555991  64.2833567 130.1271057  24.8549271
  65.2195168 129.0191269  25.2873349  29.6089649 130.9884930 108.8657482
  29.6802926 131.9165039 109.0892270  29.2549205 130.5786037 109.6549717
  79.4806957 131.7451000 104.4649240  79.8115969 131.5074539 103.5987475
  78.7648678 132.3556232 104.2886379  72.4400043 121.7715931  16.6095126
  72.9852962 122.5393009  16.4376831  71.5471315 122.0674515  16.4321029
  80.3870583 135.4797554  24.2988181  80.9226036 135.6530094  25.0730324
  79.7455549 134.8323345  24.5913124  72.0648623  91.1266041  31.9863677
  71.4318419  90.8042145  32.6279092  72.8563452  90.6146336  32.1527004
  78.1479883  89.2953014 103.4821775  77.2569895  89.5288754 103.7425550
  78.6806440  90.0427437 103.7539204  64.5148325 139.2140675   4.4109678
  64.3278503 138.3616352   4.0177414  63.7958765 139.3567467   5.0265747
  85.7974434  23.2484036   6.0925895  86.1218739  23.5574131   6.9384599
  85.3356075  22.4349957   6.2958300  61.4787388 113.7171173  28.2505417
  60.8484602 114.2093086  28.7766004  61.8083858 114.3525982  27.6151371
  96.7037392   8.9109402  53.8889790  96.4746952   9.1911583  54.7751236
  97.6362514   9.1111355  53.8079834  27.7263355  99.4489193  29.0500546
  27.0789051 100.0870895  28.7503839  27.8191066  98.8398075  28.3175159
  52.3471212 125.0333786  95.9978136  52.5212145 124.3851471  96.6802438
  53.0866337 125.6390095  96.0485038  53.8774061 124.4890976  80.3888901
  54.7636318 124.2758751  80.0966986  53.6406565 125.2687263  79.8865422
  77.6437807 132.7278709  83.0723437  77.0626640 133.4196568  83.3885106
  78.2052946 132.5260830  83.8208159  42.5223064  77.4428511   8.7550890
  41.6299486  77.7686691   8.8724542  42.5173187  77.0379639   7.8877538
  79.3024683 137.6415253  54.2965698  79.4575644 137.0698261  53.5446835
  79.1872215 137.0418453  55.0336790  37.1391010 105.8717632  91.9520303
  36.7347836 106.5516281  91.4130124  38.0334949 106.1807823  92.0962473
  80.6735992 118.3433437  11.3827205  80.8761978 119.2788315  11.3754880
  79.9745178 118.2446861  10.7363594  51.9793558  97.4266624  32.8258944
  52.8252935  97.6110935  32.4177241  51.4941311  96.9379425  32.1611094
  42.5278234  93.2702351  97.9120537  42.4531555  94.2083073  97.7369269
  42.3342991  93.1847095  98.8455769  68.2517958  85.6930351  26.7334104
  67.5375795  86.2987804  26.5353942  68.0939960  85.4243660  27.6384783
  79.0966892 100.4722404  13.3208823  79.7913551 100.9408092  12.8581583
  79.1522551 100.7904053  14.2219448  59.5737648 136.4437199  43.3233500
  58.6174917 136.4239883  43.2861567  59.8448372 135.5977726  42.9668188
   1.4083272  91.8871880  15.3462887   1.5468091  90.9471798  15.4622173
   1.4873624  92.2514534  16.2279332  75.9081507 135.6927681  40.0818968
  76.7963076 135.8402157  40.4069757  75.5085754 135.1137543  40.7309771
  87.9738426 124.7397232  95.6452092  87.2915459 124.0683842  95.6425461
  87.7247620 125.3315449  96.3550945  64.2250824 135.1775742   7.9638195
  63.8419676 135.1484394   7.0871186  63.5940123 135.6743526   8.4845883
 108.3755589  62.0265818  24.7081208 108.8435936  62.4268246  23.9753270
 107.9015636  61.2925339  24.3173122  62.4554634 108.9954185  31.4088321
  62.8194427 109.0511799  30.5252934  61.7575645 108.3439732  31.3396955
  88.7757301 124.4976521  35.9396982  88.4716511 123.5986805  36.0646749
  88.0485058 124.9374294  35.4992771  95.2735710 112.6996803  79.7013839
  95.5694580 113.3781338  80.3083261  95.9268379 112.0047188  79.7820266
  79.2709541  86.0894489 104.5499053  78.9174938  86.1620903 103.6633279
  80.2152634  85.9959316 104.4243547  71.5239620  97.9701233  10.9838033
  71.4038754  98.8694286  11.2888491  71.4202118  97.4345493  11.7703319
  90.9062958 126.0889912   1.6324237  91.3403416 126.7968941   2.1085617
  91.0727406 125.3080368   2.1602853  65.6217909   8.3521061  25.4977703
  65.1547194   8.9258175  26.1051774  66.4881134   8.2426625  25.8898664
  47.1217489 106.9565105 103.8837447  46.7095757 106.2350464 104.3589696
  46.4725161 107.2140503 103.2292237  54.4826365  11.8382244  23.2496142
  54.9070883  11.3866024  22.5201559  54.1145849  11.1352520  23.7849665
  68.4005165  91.9886494  97.5637790  68.0620193  92.0016289  98.4590348
  69.1348791  91.3754559  97.5942501  56.0805130 122.3357296  97.4899765
  55.3728008 122.3457432  96.8455621  56.4385271 123.2231426  97.4663647
  74.9366379  84.0672112   6.1411291  75.2335739  83.9290905   7.0405644
  75.1467991  83.2489014   5.6911963  28.4169173 114.7834587  25.6151175
  27.5906968 114.3043232  25.5517530  28.6960340 114.6606445  26.5224457
  76.5889215  89.5808887 110.0419135  75.9696674  90.0231171 109.4612293
  76.6746235  88.7008953 109.6751669  55.8286715  94.0693760   5.5728519
  55.8728361  95.0004482   5.7905245  56.4718771  93.9562416   4.8730516
  97.9738140 118.4969044  22.6957512  98.8906479 118.7717915  22.6865458
  97.4955368 119.2461777  22.3406839  34.7856092  81.9359493  34.4119763
  34.5058489  82.8036976  34.1204405  35.3676605  82.1080685  35.1521277
  66.6405010  19.2498570  13.7783158  66.1015224  20.0191861  13.9623547
  66.5168571  19.0890293  12.8428626  40.3314495 102.3756981  95.1541682
  39.9704051 103.2619190  95.1764222  39.6395135 101.8450260  94.7594019
  67.1013641 121.0951900  35.2742410  67.5463152 121.3595104  34.4690180
  67.5088644 120.2619457  35.5106187  63.0466270 116.8998337  24.5505667
  62.6893854 117.7379990  24.8439693  62.4118376 116.5801907  23.9093995
  81.4227009 104.9293995  14.6152270  81.7142963 105.2077866  13.7470663
  82.1065235 105.2400684  15.2086067  16.8696558  98.3328915  19.2342031
  17.5736856  97.7104092  19.0522814  16.2986445  97.8750706  19.8511171
  93.1637001 117.0839691  88.1107482  92.9707527 116.5154076  87.3652729
  93.5549068 116.5011501  88.7615331  69.0247965  33.4244519  89.7051748
  69.6951199  32.8186398  89.3891271  69.3893528  33.7844639  90.5137011
  91.4436722  99.9618816  94.6085497  91.9530678  99.1691208  94.4404122
  91.9137001 100.4030228  95.3161546   4.6793204 134.9011421   2.3552512
   5.0621253 134.8959923   1.4779475   3.7425356 134.7701740   2.2085798
  41.9086933 110.6912041  95.7531166  42.8150797 110.6554604  95.4474735
  41.4746666 109.9679184  95.3006744  82.6785088  96.9601154  78.5373783
  82.5096989  97.7905369  78.0922508  81.9398785  96.4026737  78.2926130
  42.4940252 104.7597218  75.1989937  43.0717850 105.5225754  75.2209711
  42.3144579 104.5686626  76.1195850  72.8975916 103.3936119  17.1931402
  72.3214960 103.1258202  16.4771501  73.7818336 103.2713127  16.8476049
  51.4284754 136.1334801  65.5079031  50.5189800 136.3496017  65.7136679
  51.9078445 136.9485664  65.6564474  86.3582516  98.5901737  90.3699493
  87.0698452  99.2157364  90.5061054  86.7070961  97.7575779  90.6882763
  46.5842199  78.3182621  96.5000534  46.8422985  77.8593636  95.7006550
  47.1688747  77.9721308  97.1742916  59.1428423 113.1079674   5.8532182
  58.1977987 112.9849052   5.9425393  59.3580914 113.7842083   6.4955560
  62.0515299 142.5586796  86.1374378  62.1511650 142.7677631  85.2086830
  61.7114592 141.6639709  86.1463833  23.4231400 106.3595200   0.4186574
  23.8461781 107.2162914   0.3619996  23.4829283 106.0037804  -0.4679640
  86.2411785 114.1562271  50.9578180  85.9147072 114.8166847  51.5689087
  87.1808624 114.1103840  51.1342192  68.7926531 104.3994331 109.0044403
  68.1554699 103.7689590 109.3401814  69.6425486 103.9887619 109.1633606
  25.7111216 101.2072468  11.4419690  26.0332036 101.5338993  12.2820798
  25.9183168 101.9036961  10.8188573  19.9516177 110.5467606   3.7782422
  19.2175102 110.1578522   4.2536966  20.4400921 109.7974777   3.4373609
  60.0626469  97.7947235  89.1569614  60.6238127  98.5624027  89.0474224
  60.5269670  97.2469807  89.7898960  55.1485395  90.7044125 108.8949585
  56.0961580  90.8395100 108.8932228  54.7807884  91.5862274 108.8366985
  48.4734058  68.2311583   5.3336278  48.6618280  69.0697384   4.9123040
  49.2424917  67.6921034   5.1488248  87.3662949 107.8473949  91.4677811
  87.8803635 107.5042152  90.7368946  86.6568947 108.3376598  91.0523033
  88.9308262  90.4059696  62.5459051  89.8199081  90.7296944  62.4011326
  88.9433098  90.0631046  63.4395027  52.0836210 101.4551258 103.1115723
  52.4148893 102.0230579 102.4159145  51.1346054 101.5780926 103.0896091
  23.9926553 111.2787628  97.3884010  23.2358932 110.9169388  97.8495121
  24.7111821 111.2108898  98.0171585  26.9272614  97.5362778 105.7883739
  26.1557317  97.8957844 105.3505135  27.6543641  98.0712700 105.4700470
  10.9389746 110.9998035  79.8889399  11.4823437 110.2733135  80.1942348
  11.0235620 111.6654873  80.5715370  86.7632198 111.4645481  92.6830292
  87.2263813 110.6384754  92.8219700  86.2848759 111.6111469  93.4990788
  61.5398932 118.1176758   0.4594652  61.8467188 117.8045845   1.3103906
  61.5092278 117.3328590  -0.0876673  77.6062632  76.1086416  19.8214475
  78.0218410  76.6741562  20.4723874  76.6804171  76.3498497  19.8507825
  66.0738754 102.6900959   4.0697328  66.4841938 101.8383312   4.2192785
  65.6105518 102.8793240   4.8856679  82.3477268  99.0575886  77.1126652
  82.0629501  99.5886707  76.3689661  83.2875156  98.9380741  76.9757223
  73.2365370  86.6830254  70.5074120  74.1770363  86.8607616  70.4973173
  73.1265402  85.9413815  69.9123478  46.5209770  61.4642382   8.1311170
  46.5556860  62.0318365   8.9010946  45.8635187  61.8685341   7.5649682
  47.6831436 101.9914532  68.8409376  47.3934984 101.9406986  69.7518492
  46.8827534 102.1614075  68.3442259  53.4813070  81.3293457  79.4501638
  52.7194500  81.4242554  78.8785028  53.1124401  81.1170292  80.3075409
  79.1933012 113.3673859 101.2882233  78.2576942 113.4347725 101.4788246
  79.2322445 112.9832172 100.4123688  84.9734592 129.4064617  24.8176137
  84.9734116 129.7518158  23.9248887  85.8174038 128.9629269  24.9028055
  68.6203432 123.6740017   0.2093164  67.8739691 123.2587910  -0.2228411
  68.4440422 124.6124649   0.1426450  65.3497934 133.0093479   4.6292058
  64.6903563 132.3719883   4.3550912  65.1668882 133.7858200   4.1001836
  42.6220226  59.6618557  78.4103441  43.2723522  60.3554201  78.5211039
  43.0213404  59.0566683  77.7854252  94.9779034 101.4988899  17.1114103
  94.8979187 102.1295738  16.3958207  94.2299652 101.6846752  17.6791326
  39.4631290  85.9233856   3.2015077  39.5121956  85.1498222   2.6398794
  39.6022034  86.6603851   2.6067582  91.3251877  91.6699791  72.2960615
  91.8401432  92.1597290  71.6548109  90.4593849  92.0772839  72.2693777
  50.8123636  57.4031115   4.4918767  51.2352228  56.6662741   4.0508691
  50.0240707  57.0273018   4.8837797  77.8404093  95.1544189 100.5095100
  77.3524714  95.9627914 100.6666470  78.7150860  95.4482746 100.2549076
  51.6262960 100.6506443  88.4420300  50.8372688 100.5735970  87.9056263
  52.3376560 100.3788662  87.8620815  72.2996426  99.6205139  91.7313290
  73.1010675  99.1555309  91.4910316  71.8786573  99.8200893  90.8951569
  56.7572832  96.7486095  64.6786785  56.9133043  95.8281326  64.4674492
  55.9806919  96.9826889  64.1704035  48.7676477 102.7113628   1.2938348
  48.3242798 103.3145237   1.8903676  48.3933592 101.8543243   1.4978734
  63.0337381 105.1870155  68.5872316  63.5794973 104.4025898  68.5320330
  63.5917759 105.8908176  68.2563257  82.3413849 135.6494617  13.7493173
  81.6280079 135.9944153  13.2123510  82.6734352 136.4111805  14.2244569
  49.3998051 130.2339268   8.7428418  49.6359348 129.6070671   9.4265977
  49.3805504 129.7151947   7.9386178  51.9515848 105.8935642  54.4534683
  52.3567533 106.3858128  53.7394953  52.6230764 105.8635807  55.1349592
  43.3805943 122.8995037 102.7481747  43.5730791 123.4752369 102.0080948
  42.9206610 122.1554470 102.3595047  97.2525883 119.7729397 101.0290337
  97.8903008 120.1998615 101.6011238  96.9036293 119.0530109 101.5545464
  79.3465233 129.0025711  80.0740623  78.9172029 128.1916809  80.3467655
  80.2369976 128.7367153  79.8447084  85.3555679 132.8008747   5.9125844
  86.0032177 132.1005249   5.8332864  85.5415821 133.3836079   5.1763479
  43.3908033 101.8751907  78.3251667  43.9413691 102.3773289  77.7243614
  43.4804821 102.3253250  79.1651487  86.1709976 111.6088390  71.0460186
  85.4518223 111.0215187  70.8134985  86.0493279 111.7783260  71.9802046
  35.2392960  93.4010124  71.9712019  34.6690249  93.9960098  71.4843845
  36.0392118  93.9049244  72.1209955  66.4691544 116.8955040  62.5804329
  65.5281305 116.9678020  62.4208307  66.6636658 115.9674454  62.4496269
  63.3543158  80.8534718 103.2331467  64.1206074  81.3103771 102.8863525
  63.4938335  80.8363533 104.1799641  30.2875853  78.3435774 103.9168644
  30.8312559  78.2630110 103.1331730  29.9390888  79.2341518 103.8760853
  62.6538277 112.0254517  93.6433029  63.5434437 111.9521523  93.2976913
  62.7672625 112.3887444  94.5215893  62.3818779 123.8684940  84.1684914
  62.4025679 122.9655647  84.4855213  62.3846912 124.4016075  84.9634838
   0.5061001 100.7309628  60.7858181  -0.1588939 100.9332848  61.4439058
   1.2475178 100.3954792  61.2897873  30.7376575  70.4622889   6.1195604
  31.2131453  70.9842634   5.4732744  29.8611450  70.8464146   6.1396638
  87.9411316 110.1438618  81.0774803  87.4284267 110.6456947  81.7111397
  88.2969666 110.8030128  80.4815578  58.8510990  89.5983410  71.3910866
  58.7675381  90.2857113  70.7302046  58.2064772  88.9391422  71.1338711
  36.1403275  99.9589539  27.3790208  35.4037762 100.5515289  27.5292913
  36.8480039 100.3155327  27.9159395  79.5441961  69.0735292  97.2589302
  79.8572922  68.1906986  97.4559307  78.7137651  68.9369440  96.8029118
  65.8245850  73.9328861 104.6320629  65.5437946  73.6694002 103.7557220
  66.6383934  74.4157171 104.4877434  82.0337296 107.3890305  91.9170666
  81.2341022 107.7843857  92.2642422  82.3866940 108.0480194  91.3192463
 110.3899193  95.9098244  94.0322113 110.5304813  96.8474865  93.9008427
 110.9087563  95.4912949  93.3452797  49.5771790 113.9610958  97.1595001
  49.3994188 113.0231667  97.0893574  50.1567602 114.1508579  96.4217281
  66.9405794 115.8472157  99.1681099  66.2486506 115.2281189  99.4008923
  66.7636156 116.0718441  98.2546234  26.6500020 118.1418037  96.9453430
  25.7489562 117.8258801  96.8779278  26.9179225 117.9134178  97.8354549
  95.3985691  86.5738487 109.7180557  94.9714851  86.3968277 108.8799095
  94.7368526  87.0381260 110.2307129  65.6497335 128.0847168  77.3380613
  65.7954693 128.3012867  76.4171410  66.4137173 128.4408188  77.7916574
  40.1500797 123.6000252  82.4721336  40.4612541 124.3006039  81.8989086
  39.8939633 124.0467358  83.2790279  41.4704800 110.3687096  86.2807846
  41.7293501 109.4479561  86.2430859  42.2976446 110.8485222  86.3233089
  44.3376398  74.6876049  87.9533386  44.5091820  73.7593460  87.7947617
  45.2063799  75.0814247  88.0335426  56.2091875 108.9296627  84.0596294
  56.6116619 109.7453213  84.3578720  55.5705070 108.7151337  84.7395515
  87.9291821 116.9713688  74.4867229  87.0633125 116.9275284  74.8924065
  88.5407066 116.8629932  75.2150917  58.1137133  84.3390751  94.8439312
  58.0536652  84.5508194  95.7754803  57.7280617  85.0950146  94.4011402
  40.8588600 101.0640907  24.7767679  40.8508158 101.8861580  25.2670423
  40.2855778 100.4820919  25.2756158  65.8274794  90.2976608  87.5898170
  65.8945990  90.2381706  86.6368294  65.0131369  90.7767963  87.7431297
  79.1025114  83.4381008  98.8109493  79.7177029  82.9623795  99.3690395
  78.2926702  83.4702110  99.3202209  45.6466961 102.5709343  20.9989492
  46.1574078 103.2231236  20.5192987  46.2179518 102.3008633  21.7179529
  54.7797775 116.7883778  84.0375042  54.2061234 117.5359821  84.2055607
  54.4480276 116.0980892  84.6116829  28.4772754 127.2599888  26.1654607
  28.7658596 127.8254986  26.8818132  27.9563880 126.5797424  26.5922777
  65.9327316 123.8253689  46.2526178  65.0188494 123.5625648  46.3620663
  66.1386204 123.6035824  45.3445148  52.4678564  93.3230114  86.6282654
  52.7432251  94.1916275  86.9213581  51.9883156  93.4852123  85.8158779
  63.2792282 101.2420273  96.9665909  62.7714443 100.4563236  96.7639732
  63.8213873 100.9906101  97.7143097  92.8648472 132.2891617  97.6060104
  92.5164413 132.8341484  98.3115864  93.0629921 132.9066563  96.9019699
 108.8233280 122.0679474  83.1226158 109.3313980 121.7077446  82.3957443
 109.3480968 121.8762302  83.8998508  28.6864710  93.3197784  82.8816414
  27.9736710  92.7133274  83.0825710  28.2902837  93.9720726  82.3039055
  35.4488754  77.8369379  87.4967289  35.2740431  76.9763565  87.8776073
  35.9575367  78.2958651  88.1652260  44.5410347 116.3422871 108.9011860
  44.2374134 116.5855598 108.0266190  44.2347622 115.4431629 109.0195560
  69.5756292 103.2024574  18.2696763  70.0314760 102.3726845  18.4107343
  68.8171959 103.1611252  18.8521711  77.5057077 118.9518356  61.5935278
  77.3425245 119.1429234  60.6698990  76.7159557 118.4977341  61.8873262
  98.1829357 104.5339489  79.4505548  97.4140739 105.0295830  79.7323895
  98.5301876 105.0311661  78.7099981  88.1652927 121.3360119  39.8345987
  88.6721897 120.5277729  39.7568456  87.4794197 121.2532520  39.1720620
  49.3320751  93.0636597  18.5703508  48.8890457  92.3676682  19.0556852
  49.9340439  93.4524155  19.2049638  17.0793724 105.2319813   9.0825692
  17.8732038 105.7045078   9.3331472  17.1903205 104.3597603   9.4609395
  71.4458752 110.5125904  91.6592884  70.6051970 110.3001976  91.2538528
  72.0191813 109.7853947  91.4169407  50.5099726 105.0210762  88.5453320
  50.9578991 105.7491779  88.1146812  51.2088728 104.5352077  88.9831734
  61.5848064   1.1301403   6.4342729  61.5818882   0.1905041   6.2517682
  61.4994144   1.5414601   5.5741826  75.8682394 144.2402267 105.5550957
  76.2148523 145.1212025 105.4137516  75.3870487 144.3017006 106.3802719
  66.0300541  97.3058414 106.9640923  65.5446863  97.8744411 107.5618744
  66.9086885  97.6844120 106.9338894  23.2885551 100.4154968 102.8506756
  22.5281239  99.8999214 103.1192875  23.1147218 101.2934208 103.1901646
  79.4690466 109.4106007  68.4750271  80.0178432 108.7517071  68.9003611
  79.2712450 110.0409317  69.1676950  86.5466309 101.7461014  68.8844442
  87.4071121 101.9588280  69.2457676  85.9695625 101.7071247  69.6471453
  23.9855409 139.7535515   2.8785363  23.7223172 138.8396358   2.7703897
  23.2005453 140.2562428   2.6610128  57.9704762  83.0301952  75.3993750
  58.7366390  83.6029625  75.3652525  58.3092880  82.1960926  75.7245302
  68.8147545  81.3442802  89.4240856  68.1400394  81.9233990  89.7785091
  68.6098146  81.2805271  88.4912586  72.7111769  65.6320715 108.5029602
  71.8249178  65.5405903 108.1530857  72.6240110  65.4244947 109.4333076
  53.1970167 102.0109558  79.3694925  53.4250593 102.5599289  80.1197243
  53.6103201 102.4431133  78.6220551  59.2537451  93.1154537   7.3985425
  59.1182375  94.0629101   7.4123231  59.9224854  92.9788780   6.7274514
  59.1470242 111.0296726  90.6807613  58.8835192 110.2089024  90.2646637
  58.3235264 111.4866257  90.8518791  59.4284248 127.3629475  96.4153481
  58.7326384 127.3267651  97.0717049  60.1170540 127.8866482  96.8249226
  53.6421633 104.3808842  73.8564539  52.9520369 104.2874336  74.5131302
  53.7276840 103.5080338  73.4729910  85.3915501  94.3706989  96.9450760
  86.0359097  93.7155247  96.6771698  85.9099388  95.1524544  97.1358013
  78.4782648 112.9375648   1.5029374  79.4124222 113.0411816   1.3217107
  78.1648874 113.8279629   1.6617242  70.0768089 130.8041191  59.6674776
  70.9916210 131.0832882  59.7050095  69.9941540 130.1593018  60.3700495
  74.1007662 104.4792843   6.3594953  74.7088194 105.0553894   5.8962480
  74.1127014 104.7952271   7.2629682  84.5448875 133.4878349  95.0194454
  84.7606182 134.4100094  94.8805618  83.7162209 133.5051823  95.4982376
  81.0654736  97.7591801  84.8305511  81.2788677  97.4244976  85.7015705
  81.8629456  98.2034779  84.5426846  42.0800257  67.1710110  93.9203167
  42.7479362  67.5648642  94.4815731  41.2741661  67.2231865  94.4342327
  60.6866217 108.0208302  95.1879120  61.4436197 107.9270649  95.7661819
  59.9722767 107.5892448  95.6566048  55.5243254  68.4041452 104.0539265
  55.3670931  69.3186522 104.2888546  56.4681482  68.2877302 104.1629028
  82.1507168 113.0611515   8.9784948  81.4799690 113.3944607   8.3824865
  82.9713631 113.1625652   8.4963266  61.9078302  91.2913990  19.2010824
  61.6851425  90.5233383  19.7271386  62.6568556  91.0121155  18.6745874
  74.9517584 134.9503231  86.5703869  75.8060074 134.9352264  87.0019722
  74.5003843 134.1756058  86.9054985  64.4979525 116.7466831  69.4394875
  65.4276037 116.6550732  69.2307234  64.0715981 116.8588352  68.5898542
  53.0071115  94.8627281  82.6651764  52.5548363  95.7054234  82.7045250
  53.8581562  95.0284958  83.0707264  96.5588665 119.1230297  83.1833458
  97.4433517 119.4693279  83.0650330  96.6236782 118.5586643  83.9537525
  24.5550013  89.4842815  93.8175106  24.0597510  89.3125534  94.6184254
  24.4354725  88.6956978  93.2882690  64.8142099 112.8337002  98.8644123
  64.7122145 113.6028671  99.4249535  64.0712643 112.2734833  99.0889549
  60.5602503  66.8677855  93.4226990  60.6637001  66.2558174  92.6939869
  61.3094521  66.6914415  93.9917564  79.7532225  77.6763916 100.9160995
  79.8127556  78.1421804 100.0819969  80.4929924  78.0047512 101.4271259
  76.3230515  73.1807852  83.6637211  76.1900091  73.7869740  82.9349804
  77.1023846  72.6811218  83.4204006  54.4187689 100.0041580  53.9154816
  54.1391993  99.3880463  54.5925903  54.9660730  99.4826508  53.3283424
  54.8650932  92.9985905  56.5025282  54.8983955  93.8219166  56.0154295
  54.9753904  93.2570267  57.4175549  65.5242348 117.3165607  97.1528053
  64.9757004 116.7593861  96.6006279  65.7986116 118.0295086  96.5760326
  10.1390421  90.1145840 106.8894672   9.2384529  89.9990845 107.1924973
  10.1491523  90.9868526 106.4954281  69.7670698  93.4113312   3.1934682
  69.5782471  92.9146385   2.3973028  68.9915657  93.9567661   3.3250753
  64.2198467 121.1892700  63.4574413  63.3463478 121.3885212  63.1205034
  64.5463181 122.0266724  63.7866974  21.9879389 128.3170700  91.4446068
  22.6921344 127.6690674  91.4237881  21.5282083 128.1448841  92.2663307
  68.7042379   7.3310738  83.9192104  68.3935404   6.4257126  83.9165878
  67.9387856   7.8462391  84.1740036  54.9768209 143.1759644  93.9984417
  55.0286436 143.6139965  94.8479557  54.0399981 143.1367683  93.8059330
  52.3416328 101.5041351  99.1121006  52.9223728 101.8226814  99.8031235
  51.6084433 102.1194935  99.1128540  97.7172661 129.3492126 100.4514694
  97.8547859 128.5313988  99.9734592  97.6626110 130.0188541  99.7696781
  21.6680098  96.7475605   2.1956102  21.3868761  97.6299858   1.9537107
  20.9683967  96.1774349   1.8766633  33.7348676  78.8394737  91.9901466
  34.4230771  79.4815588  92.1642780  33.3004832  79.1621351  91.2005711
  40.2665901 138.2718372  53.7870550  39.9526739 138.9383888  53.1759834
  39.6240950 137.5653267  53.7216425  82.6927376 103.3483791  88.0068874
  82.8667545 102.5557041  87.4993324  82.0342922 103.0821609  88.6486149
  65.8588982  93.2092762  23.2795183  65.2443123  92.9593468  22.5895540
  66.4520836  92.4617577  23.3542005  85.3949833 117.1954250  41.6179180
  86.3096333 117.2972298  41.8811512  85.3583431 117.5595760  40.7334518
  25.1106620  98.6789799 108.1518173  25.0824356  99.1326809 107.3094463
  24.1914415  98.5620499 108.3917999  35.6546330  97.7608967   3.2203237
  35.2185321  97.0314884   3.6607782  36.1167669  97.3557758   2.4864713
 102.2680378 117.9324436  12.0841638 102.8975773 117.2114277  12.0902959
 102.4038506 118.3618164  11.2395231  64.4462585 129.7529316  87.6058960
  64.3350840 128.9729309  87.0623302  65.3942871 129.8726273  87.6620102
  43.4790182 122.6729584  92.3267937  43.1339502 121.8313694  92.0286560
  43.9736509 122.4620342  93.1186771  53.3843565  86.8122005  61.5608644
  53.0003881  86.5884590  60.7130766  52.6396418  87.0858192  62.0963621
  27.9532170 109.2438984  61.3889313  27.8053832 108.3353901  61.6515684
  28.4101248 109.6368790  62.1325970  71.1862135 117.7051735   0.3354684
  71.8390322 117.6035690   1.0280935  71.6886616 117.6491547  -0.4773291
  57.8663969 123.8587093 103.5189438  57.0411825 123.4454155 103.2650948
  58.5392046 123.3432961 103.0740738  43.6048746  77.1945238 108.6130714
  43.2184553  78.0295944 108.8768387  43.3056831  77.0658445 107.7129745
  63.1015635 105.8996010   2.1826402  63.3832026 105.5538654   1.3356630
  62.5586891 106.6569424   1.9636670  47.4507427 109.6401978   4.7792760
  47.9599524 110.4420280   4.8976175  46.5652275 109.9456882   4.5823900
  23.3953190 104.2947388  78.1947041  23.0490494 105.1756191  78.3374166
  22.6317024 103.7749481  77.9438114  62.1754074 106.7111397  38.4695005
  62.8016043 107.4043274  38.2606769  62.4306917 106.4127731  39.3424487
  78.7545300  67.3642349  18.2134572  78.6368608  66.7471218  18.9356462
  78.0288935  67.9816818  18.3053819  54.0094328  86.0854149  23.4090558
  54.8357868  86.5005970  23.1620923  53.9276743  85.3411961  22.8126565
  76.9261599  75.4700232  81.7855167  77.0733309  74.7458220  81.1771584
  77.5987959  76.1126518  81.5600872  77.7934456 114.0608597  26.8110029
  78.2339621 114.6897697  26.2394658  76.9016933 114.0084171  26.4671079
  84.1135406  79.8067284  94.7194576  84.1779137  80.7551765  94.8313904
  84.9796009  79.4778061  94.9602509  61.0980701  90.7513428 107.9907513
  61.2787867  91.5962029 108.4027863  61.0087681  90.1417923 108.7233543
 101.6792393 120.2122211  98.8973331 101.1546898 119.6439648  99.4613838
 101.1254597 120.9785366  98.7479115  40.2194357  70.5547857  35.1202623
  40.2895117  70.0603819  35.9368936  39.2961287  70.8018494  35.0683347
  96.7088127 141.5019417  33.3077852  97.3858166 140.8264160  33.3472863
  96.7678642 141.9498539  34.1516534  48.6490822 101.2483120  16.6514531
  48.0242538 100.6231403  16.2840501  48.8224554 101.8615150  15.9371892
  57.5389194 102.9752731  85.6438255  57.7134752 102.0408440  85.7561207
  57.0383453 103.2206154  86.4219475  70.8538485 122.9689026  91.6567993
  70.5084085 122.1638298  92.0424938  70.8894920 123.5877895  92.3861408
  51.3155413 115.9625244  23.8177530  50.5762672 116.3111210  24.3159334
  51.2684345 116.4113235  22.9736081  31.3296843 124.2778969 105.9256268
  30.8822083 125.1100826 106.0788250  31.8305540 124.1242599 106.7267323
  79.7076130 122.3846626  22.3506967  80.0326824 122.7551937  21.5301648
  79.6295595 121.4468384  22.1756879  34.5170474  95.1152897  99.5542240
  35.1751018  95.1467609  98.8598156  34.8483253  94.4603157 100.1686287
  26.7735887  90.3385067  95.6761360  26.2266421  90.9730339  96.1392307
  26.1810136  89.9241829  95.0489044  55.1380730 135.5047512   2.9571859
  54.6379852 135.5267620   2.1413080  55.8675623 136.1060810   2.8072683
  63.9677286  86.0952091  93.9868832  63.6903667  86.2154007  93.0786610
  64.0102148  86.9823837  94.3437386  67.2800779 111.5342331   1.2983362
  66.9618082 111.7301273   0.4171029  66.8648338 110.7016659   1.5233842
  50.5557632 119.2175579   7.3706857  50.2261353 120.0333214   6.9937269
  51.3902044 119.4593716   7.7725068  70.0765085  89.5257568 105.6760502
  70.6256199  88.9474487 105.1466560  70.6744671  90.2056026 105.9866810
  49.8260689 121.5539074 105.3079033  49.9973679 122.1351337 106.0488987
  50.1713228 122.0247364 104.5493889  64.9936914  93.8138390  61.7619896
  64.6952581  94.1935730  62.5884104  65.1076317  92.8829384  61.9534683
  58.4730244 104.6299744   9.3172304  59.0243340 103.8696289   9.1324273
  57.8359509 104.3138599   9.9578897  81.1790180 121.1314106 107.8080845
  81.8521976 121.2077713 107.1318913  81.4847946 121.6989708 108.5156250
  11.2996829  97.3273087  58.4752226  11.9380879  97.9212856  58.8700199
  10.5202985  97.8670025  58.3428431  90.3418446  98.5353374   7.7002279
  90.3853607  97.9066658   8.4207288  89.5962620  99.0955448   7.9158727
 109.2956800 123.9765263 105.9236526 109.0375108 124.7870064 106.3626385
 110.0514693 123.6647701 106.4214706  70.0089407 114.5983505  91.2970829
  69.4820642 114.7006035  92.0896626  70.6390905 113.9116764  91.5153217
  32.8491521  77.3726177 101.4841461  33.2831025  77.4553728 102.3333073
  33.4529305  76.8498039 100.9565639  44.3150425  76.7512941  94.0891933
  43.8817883  77.5120306  93.7021446  43.6660051  76.0502291  94.0301132
  58.1341934 134.0272236 106.4867496  58.2765341 134.9696636 106.5749264
  58.2067871 133.8609219 105.5469131  11.3996673 116.4764595   1.4687578
  10.7235432 116.0861778   0.9148923  11.1958718 116.1652851   2.3507253
  53.8559246  89.4340706  51.5395021  54.5962334  89.1161346  51.0226965
  53.9867163  90.3810501  51.5878868  91.5322304 112.3357105  73.7789440
  90.6650543 111.9339275  73.7260532  91.3614082 113.2773781  73.7609529
  78.4594202  95.0263786  74.4090319  78.5659742  94.8290348  73.4784746
  77.5708389  94.7362709  74.6151733  46.1276913  86.4086819  90.4143810
  46.2488127  87.0430183  91.1209106  45.3143167  86.6779327  89.9875832
  64.4169855 130.9831142  58.6065006  64.7407866 130.1719189  58.9981079
  63.5547018 130.7541275  58.2597113  58.5529089 120.5353165  89.2916298
  59.0760183 121.1273193  89.8321152  58.4460211 119.7510624  89.8299217
  48.1007051 126.9110203  97.6084232  48.1771517 127.3680687  96.7708683
  47.1724606 126.9759560  97.8328609  73.4960175  92.6145172   0.5836145
  72.7917147  93.0764389   0.1288453  73.0669165  92.2018814   1.3331739
 120.9533418  86.2188053 106.3951969 120.0886045  86.1646461 105.9883404
 120.8706445  86.9204044 107.0410728  79.1684914 119.5217800  77.8407621
  79.3104219 119.3369579  78.7691593  79.4750404 120.4212761  77.7260208
  69.9744225 114.0610313  49.6586084  70.8358669 114.3103218  49.9932766
  69.5695686 114.8886871  49.3991518  53.6002588 126.5695000  78.7653303
  54.2558670 126.8810654  78.1413603  53.2384300 127.3673725  79.1509724
  54.2091274  75.6614351  50.4564381  55.0272083  75.2211571  50.6869507
  54.2486000  76.4980841  50.9197855 104.5021629  66.4603853  68.4134150
 105.2519417  66.2692165  68.9768982 104.8352242  67.0946026  67.7785397
  84.5569706  90.7156277  83.7261105  84.4160271  91.3582230  84.4214153
  85.3703690  90.2737141  83.9696884  49.1391659 110.2872086  88.9778805
  48.5118961 110.6017303  89.6289062  49.5696115 109.5435715  89.3997288
  41.3667965 109.3120575  70.0177193  40.4835653 109.3777752  69.6546602
  41.2483168 108.8670635  70.8568716  45.4361391  61.2687969  74.0032434
  45.3871536  62.1316147  74.4148064  45.7239580  61.4465427  73.1078148
  78.1189775 109.8324776 107.5496387  77.6364756 109.3453217 108.2175541
  77.5019979 110.4985714 107.2465038  95.6553173  95.5328655  72.0658159
  96.4696026  95.5913830  72.5655603  95.0119495  95.9975624  72.6009560
  33.2883310  99.3093109  55.5065203  32.9122162 100.1557350  55.2649879
  33.6408854  99.4460392  56.3858604 104.2675495  97.6258755  61.3134575
 104.2952061  98.4771729  60.8766890 103.9103603  97.8135204  62.1814680
  87.8368568 126.7427826  53.5797882  87.0827007 126.4379215  53.0752659
  88.5942173 126.5103054  53.0425835  32.8537393 108.8973808  93.3368683
  33.6343527 109.3382835  93.6722374  32.8540754 108.0452156  93.7728119
  47.1798038  92.0856762  13.3575193  46.6043711  91.3347816  13.5033456
  47.7447319  92.1080780  14.1299096  47.7430344  88.3440781  62.5863886
  48.1461811  88.7861061  61.8391800  47.1380854  87.7143669  62.1943045
  43.4337521  78.2200146  41.1820745  43.4010792  77.2640324  41.1464548
  44.1788864  78.4549665  40.6290770  93.6972046 129.4229507  71.1573219
  94.0246582 130.1388168  71.7018700  92.9927063 129.0318966  71.6740370
  69.7394466 106.1652565  67.2535992  69.6981335 105.3287411  67.7170372
  70.4236841 106.0411263  66.5958452  65.2467823 107.2092247  50.4908085
  65.4719019 107.2617531  51.4196730  64.8623943 108.0622864  50.2889061
  74.6554899  90.6979656  84.0595627  75.2186823  90.8351135  84.8213005
  73.9030790  90.2152824  84.4017982  35.1120448  89.0627480  80.2357864
  34.5075703  89.7510052  79.9580383  35.9123206  89.5295811  80.4763317
  60.6906414  94.3307400  64.8770809  60.6591558  95.2406693  65.1724911
  59.7722769  94.0753460  64.7897911  68.1088114 103.8163567  96.6631603
  67.6952314 104.3141556  95.9579086  67.7094889 102.9480839  96.6095448
  34.6013904 117.7832031  96.6139030  33.9394903 117.8966808  95.9318161
  35.3015423 117.2883797  96.1882687  60.1596212  97.3177624  68.8010359
  59.5713139  97.7874851  68.2098627  59.9347830  96.3952923  68.6796284
  79.4465923 132.7137852  85.1795769  80.1861286 133.3032227  85.0316429
  79.6704817 132.2458076  85.9840012 109.0234756  97.6880264  46.0761309
 109.7029877  97.3996258  45.4667711 108.3981609  98.1641197  45.5297279
  89.9089527 124.4019413  73.4183025  89.0549374 123.9706326  73.3887053
  90.4892159 123.7567997  73.8224363  42.8392029 100.7114983  89.5908356
  42.7296734 100.3247452  88.7221241  42.4855042 100.0554276  90.1914215
  80.8468437 115.6072426 101.2078381  80.5664539 114.6931839 101.2538338
  81.6122055 115.5943680 100.6331348 106.1205959 117.9189682  86.6765785
 106.9846058 118.0440521  87.0691109 106.1309052 118.4702778  85.8941555
  59.4307947 142.2914314  74.8231888  59.4580412 141.3602352  74.6032667
  59.4387007 142.3118591  75.7801390  83.8017082  96.2710285  61.5631199
  84.6155739  96.6101170  61.1904478  83.9222050  95.3215599  61.5775251
  42.6749802  93.1861210  88.8131142  41.7888784  92.8299332  88.8778114
  42.6534986  93.7416744  88.0339336  61.7978621 100.2734280   3.2095853
  62.3551035  99.5235062   3.0014554  62.3544550 101.0362339   3.0528299
  56.8490648 119.9134731  87.2156429  56.4169312 119.2257690  87.7221584
  57.5364971 120.2417564  87.7952194  51.9344616 106.9535160  97.3113251
  51.8493700 106.8359756  96.3651943  52.4926186 107.7251625  97.4075794
  49.6931648 138.4256554  13.6002866  49.6231318 137.5573921  13.9970914
  49.8288345 139.0170860  14.3405858  59.8566532 113.3404827  84.6153545
  60.1220179 112.4824333  84.2843437  59.0821934 113.5668182  84.1003609
  63.6526823  84.7598076  61.4479637  62.7883005  84.5719910  61.8137503
  63.6819315  85.7141685  61.3803530  36.1112905 100.8121395  63.1000662
  35.3770161 101.3868237  62.8837061  35.7231879 100.1177788  63.6324739
  50.9631634  94.8427296  73.3907270  51.2561846  93.9427853  73.2476282
  51.5554857  95.3748226  72.8594398  37.6462936 131.3336849  87.0437050
  37.1073198 132.0446587  86.6969204  37.2323036 131.1030293  87.8753567
  87.4499035  79.1986656  79.1605473  87.7648830  78.4782314  78.6146593
  87.8759766  79.9763203  78.8000679  43.8437271  94.2539120  42.7625036
  44.4184113  93.5631752  43.0924273  44.4408894  94.9372578  42.4580765
  47.7720165  93.0097485  82.7692032  47.1203804  93.6706638  82.5351048
  47.7770472  92.4050236  82.0272446  71.7209721  91.4540100  77.2728014
  72.5171804  91.4800835  77.8034687  71.4398527  92.3673344  77.2176933
  69.0068769 117.3875427  60.7216454  68.2881784 117.6351643  61.3033581
  69.0386534 116.4322758  60.7734156  68.4820986  86.4720535  73.8753271
  68.5038614  85.8775234  73.1254721  68.0872822  87.2742748  73.5335588
  65.1872015  48.7070751  86.7658234  65.1476574  48.1220007  86.0092831
  65.8238220  49.3772793  86.5172768  19.4549394  85.0836277 107.1391678
  20.0908661  84.7453594 106.5087700  18.6429465  84.6210766 106.9319344
  58.9978313 116.9054508 107.7477837  59.1070652 117.0679665 106.8108177
  59.0035009 115.9516144 107.8276825  74.6280813 110.4683781  79.2266989
  75.1273870 110.3870296  80.0392914  74.0695810 111.2334728  79.3643332
 101.3680458 105.1782131  57.4407911 101.6343117 105.8305550  58.0887079
 100.4378033 105.3507519  57.2955227  28.8630939 115.7015800   8.2030159
  28.1006002 115.9918785   8.7035799  28.6646891 114.7949982   7.9685569
 112.7562141 127.0734310 105.1930046 111.8067646 127.0607471 105.3139496
 112.9869366 128.0023098 105.2061272  44.3180656 124.0288544 100.4731369
  45.2693939 124.1030788 100.5486298  44.1759014 123.6399269  99.6101475
  49.8704767  87.8219604  94.7201729  49.9029636  88.6815548  94.3003368
  48.9382076  87.6078510  94.7557449  72.4463749 112.2088242  95.6304836
  71.5948439 112.2775173  95.1987362  73.0607986 112.6051617  95.0127220
  94.4476032  78.4529400  77.6976824  93.7669945  78.6504221  78.3411121
  93.9744568  78.0725670  76.9576263  65.4717207  98.9250183  69.5626497
  64.5538282  98.6775494  69.6742964  65.9269142  98.0961418  69.4143057
  79.6843958 127.3332691  51.5122986  79.6571922 127.6174831  52.4259281
  80.5072212 127.6879406  51.1755371  61.4614391  90.6522179  51.5389347
  62.2999620  90.6820679  51.9996071  61.4436674  91.4572811  51.0214472
  75.5531168  75.3959703 109.1386509  75.7398510  75.4991913 108.2055378
  74.9045420  76.0735798 109.3295097  62.2794056 120.4820442  88.1828403
  61.4009094 120.2030849  88.4410191  62.8476286 119.7581482  88.4461594
 105.8672810  92.4399185  57.4957085 106.5861797  93.0700779  57.5436878
 105.1092243  92.9610538  57.2311258  44.0268612  96.2860012 108.5221386
  44.4498634  95.4307556 108.5986710  44.7297907  96.8777275 108.2538319
  98.2275677 136.7420673  77.7532578  98.0179310 137.1348381  76.9058990
  98.6126900 137.4570370  78.2599401  57.3201656 108.1232929  55.0677395
  57.4258184 107.5231838  55.8059311  57.5775814 107.6092339  54.3024206
  87.0666981  83.8724422  64.5341921  87.3926353  84.4276810  65.2425051
  86.4039612  84.4067955  64.0966177  31.3517165 108.6335087 101.7765331
  30.9594584 108.9257145 102.5993252  31.3366556 109.4088268 101.2153721
  67.3637104 100.3571320  68.3542347  66.5282440 100.0254726  68.6832094
  67.8692770 100.5564404  69.1422081  33.7541604 114.4047070  65.3183365
  34.0707779 113.6352253  65.7915115  32.8010178 114.3552303  65.3911448
  77.2921801 101.6294575  75.9547949  77.4013329 101.3683128  76.8691874
  76.3443232 101.6824627  75.8323526  70.0885868  66.6500139  67.6163530
  69.6513176  66.0025549  68.1693602  69.6390629  67.4727154  67.8095531
  77.5829792 106.7470932  79.1472816  76.7178822 107.0246315  78.8459158
  77.4327421 105.8932209  79.5529413  33.3758450  86.1396122  41.8918467
  34.0662956  86.2095547  41.2325954  33.3529425  87.0017529  42.3070860
  15.7255161 103.1818390  89.8582268  14.8673975 103.1175518  90.2774334
  16.3443041 102.9110909  90.5364799  87.2683525 110.6534672  52.9637957
  87.7335072 109.9689770  53.4447765  87.9205418 111.0062790  52.3584890
  80.7502270 125.7444477  97.2554398  80.2535915 125.4683208  98.0257225
  81.6665745 125.6695080  97.5217533  79.0358496 122.3379040  90.1128769
  78.5437298 123.1574917  90.1610565  78.5169029 121.7165565  90.6236076
  50.2134514 101.3652802  11.8520681  49.3134308 101.5916538  11.6176645
  50.2722454 100.4229927  11.6943780  85.7718658  87.6021099  82.9685783
  86.5291500  87.6231575  82.3835087  86.0400963  88.1218433  83.7263203
  57.6477242  99.6444511  46.4921761  58.5654926  99.4961357  46.7200708
  57.3971987  98.8688183  45.9903145  33.0363035 118.8605404  84.5945930
  33.0405188 119.8126984  84.6926308  32.1355486 118.6034679  84.7915459
  32.2879052 110.6811142  81.1543846  31.9517469 109.8332405  80.8639717
  32.1252108 110.6929493  82.0975876  38.6313009  92.9660606  80.7197666
  39.2717409  93.3960056  80.1529980  38.5637784  93.5396576  81.4830875
  37.5266242 110.1441288  96.0555458  37.9289627 110.8303356  96.5879726
  37.9962802 109.3462181  96.2984180  28.5978699  95.7614422  70.7220221
  29.5432425  95.8823681  70.8107901  28.5052276  94.9261951  70.2637577
  70.3015661  96.1985779  91.7944717  71.2577724  96.1650562  91.8223667
  70.0205231  95.5884457  92.4763680  54.1461945 101.3397312  46.7607880
  54.5305967 101.3501453  47.6373482  53.2965374 101.7676163  46.8667650
  73.8373947 121.3059425   5.5853502  72.9569054 121.3677883   5.2150194
  74.3598175 121.9155598   5.0641290  50.8343267   6.8598633  60.3993845
  51.5214062   6.3318329  60.8059978  50.0672054   6.2874680  60.3884840
  59.8103666  89.4098854  17.8188459  60.7039595  89.6001339  17.5333158
  59.3167877  89.3028259  17.0057336  25.0903845  96.8076897  59.1392851
  25.2531576  96.1521244  59.8175001  24.5135570  96.3679695  58.5146618
  48.6192942 106.5831661 101.0336113  48.2883835 107.4545765 101.2512684
  48.4628868 106.4955330 100.0933456  32.8256392  88.1127644   5.3732816
  32.5711679  88.3651829   4.4857255  32.0118856  87.8156090   5.7803861
  69.3105459 125.5664349  52.5933504  69.9013758 124.8672390  52.3135757
  69.2569494 125.4686356  53.5440302  49.8518848 107.3944569  56.1970139
  49.1745901 106.8240261  56.5604830  50.2978325 106.8522739  55.5463266
  82.8347111 109.3561268  96.1526775  83.7121773 109.1020012  96.4385223
  82.3879242 108.5264587  95.9845543  77.5096369  71.3052464 104.7146893
  77.0337200  70.4910040 104.8782349  76.8284464  71.9408560 104.4951153
  28.8775873 111.6967773  46.2683868  29.3399382 110.8647251  46.3690948
  29.1119242 111.9962025  45.3899431  53.9049482 109.9953651  79.6627283
  53.1430149 110.5747414  79.6602249  54.5183992 110.4037571  79.0518951
  24.7119641 123.1989670  55.3483057  25.6102586 123.0353737  55.6355953
  24.2186117 123.3168983  56.1600494  90.2185726  37.4109221  69.6690416
  90.4671574  36.6914368  69.0887165  90.1840115  38.1782866  69.0979099
  78.7625170  97.9313660  77.0440960  79.5128393  97.3387814  76.9983101
  79.0389252  98.7060547  76.5545177  78.6034584  87.5415039  84.6456909
  77.6754856  87.3412514  84.5232677  79.0488911  87.0394993  83.9631844
  47.5630236  82.7331829  70.5962276  47.0453405  82.5451946  71.3791037
  48.3243227  82.1574879  70.6685591  79.3253231  90.7984161  66.4253139
  78.9929247  91.0892868  67.2745132  79.0089893  91.4563179  65.8061743
  75.6654358 106.4615536  76.1296988  76.1903048 105.6896114  76.3414860
  74.9817467 106.1334419  75.5456257  92.1175003 110.0332832  63.8424683
  91.4480209 109.3839359  63.6271238  91.6783524 110.8763599  63.7301683
  66.3170862 110.0843811  80.6667995  66.6112566 110.1682186  79.7597885
  66.6905260 110.8455753  81.1110497  70.4326344 127.9531956  68.3136368
  71.0721588 127.7632332  69.0000439  70.7690954 128.7394714  67.8837585
  51.2638187 138.7551403  77.6204205  50.5744410 139.0573883  78.2117176
  51.7006779 138.0522156  78.1013346  44.5537853  94.5933819  69.7315121
  44.3460894  94.5596027  68.7977314  44.6330309  95.5273342  69.9256229
  35.7439756 125.6227875  77.5456190  35.3001165 124.7764015  77.5990105
  35.3055263 126.1649609  78.2013941  67.8055954 130.3876877  91.7659950
  67.0369196 130.9172249  91.5539455  67.4643660 129.6765709  92.3083019
  84.8569012 129.8375034  15.5294362  85.1143742 130.5376148  16.1292497
  85.6073475 129.7355747  14.9440614  63.6625290 104.4078636  61.2971687
  63.7917137 103.4741879  61.4638710  63.0994701 104.7032452  62.0126677
   7.1273774  91.6105366   2.9989663   7.3384202  92.5343513   3.1341020
   6.8013436  91.5683556   2.0999852  73.9938498 128.4591770  92.2712040
  74.5859766 128.2581043  92.9959011  74.5244074 128.3289337  91.4852142
  79.7892094 123.6102009  95.5813599  79.8632908 122.9940414  96.3101101
  79.9309444 124.4693851  95.9787941  27.9626322  95.3944874  57.9082012
  28.8180590  95.1601601  57.5482416  27.7655053  96.2475395  57.5213289
  50.6568193  97.8217030 105.0311470  51.2250042  97.1645451 104.6292305
  50.1785278  98.2062912 104.2965984  55.8660555  91.3033867   2.2325746
  55.5129910  90.6040668   2.7825967  55.1315689  91.9045448   2.1086255
  96.0932446  13.0824833  63.2241011  96.0223484  13.3021431  64.1530561
  95.8366203  12.1616154  63.1754684  63.7823534  75.7211351 102.3054981
  62.9540968  75.9150219 101.8666077  64.3744373  76.4158869 102.0174313
  25.8677673 108.9814281  78.7583494  25.8502126 108.2684994  79.3968248
  24.9606299 109.0612411  78.4634495  47.3642159 124.8226929  83.4886551
  46.5412188 125.1360416  83.1135273  47.2897625 123.8686562  83.4662437
  56.0016727  82.1208668  71.4719296  56.8729305  81.8834591  71.1544752
  55.4405975  81.3959694  71.1963272  51.9657707  63.2073832  86.6461754
  52.2354126  63.2889891  87.5609779  51.9194937  64.1092348  86.3287544
  89.1439342 106.9472218  84.3807983  89.2873955 107.8645515  84.1481018
  88.2061481 106.8904305  84.5639992  54.0835953  78.7050819  76.9559622
  54.9756002  78.9638519  76.7244577  54.1854858  78.1752157  77.7465916
  49.5016956  85.3471088  72.9206324  50.1934910  85.2211285  73.5700750
  48.8164854  84.7302151  73.1778526  47.2725153  81.9678783  33.6758494
  46.5910196  81.3578892  33.9581633  46.7924881  82.7090263  33.3063769
  49.7078180 120.1198673  96.8737793  49.8954201 121.0521793  96.7649651
  49.2749977 119.8659229  96.0586643  74.4450474 144.5041466  93.0592155
  73.8334894 144.8144245  92.3914242  73.9257431 144.4708157  93.8626099
  50.4508734  60.7911825  78.1674147  50.4814339  59.8416615  78.0503368
  49.8648024  60.9218502  78.9128590  98.5304928  70.2172899  81.8550396
  99.0908051  70.1381636  82.6270676  97.6773167  69.8936224  82.1441174
  48.1984329  97.7578163  42.0332909  48.7761545  97.4016190  42.7082682
  48.7867355  98.0010509  41.3184690  57.4130535 123.6564541  85.0498295
  58.0731678 123.6259556  84.3573380  56.9476843 124.4795704  84.9010372
  56.7124224 117.3791885  76.1370182  56.6949463 116.4405251  75.9503698
  55.8459473 117.5679207  76.4973354  65.4019165  55.2212000  96.6670704
  66.0027409  55.9660053  96.6895676  65.9700489  54.4532442  96.7279053
  93.3859444  97.7968597  44.4959259  93.6867809  98.6918926  44.3389750
  92.9618835  97.5396824  43.6772251  56.7620325  95.7301807  61.7273951
  57.7186441  95.7623196  61.7369652  56.5006971  96.5176964  61.2501526
  38.2451129 114.6597481  96.1201477  38.7127161 114.1023922  96.7421818
  38.8012743 114.6682644  95.3411388  55.7547426  82.5185585  78.8564205
  56.5631723  82.2254944  79.2768764  55.0816727  81.9270039  79.1929817
  30.4635620 114.5305347  62.0841742  30.1561284 115.4369640  62.0948601
  29.9986267 114.1113758  62.8083134  99.6382618 116.9516373 104.2651367
 100.1035404 117.6627922 103.8246727  99.0061951 116.6412354 103.6167812
  67.6593256 129.1969109 100.4886723  66.9601440 129.7027302 100.9028339
  67.2558308 128.8300419  99.7020149  77.6747513 120.4533863  91.3143635
  77.2024584 119.8745918  90.7159042  76.9880056 120.9514332  91.7577267
  20.0427914 103.7794113  85.9981537  19.8996758 103.6108780  85.0668335
  20.4241204 102.9676533  86.3326168  84.9915695 113.6059189  19.1770307
  85.7412815 114.1132450  19.4881479  84.2915535 114.2508030  19.0754167
  63.8425350 144.6208572  81.0543060  63.2034540 145.2428246  80.7065201
  64.4346523 145.1560974  81.5826607  67.9142904  96.8124008  86.9531345
  67.9629183  95.9510422  86.5384960  68.2969379  96.6824818  87.8208447
  73.3130550 115.2030087  61.6093922  73.3835363 114.8628521  62.5013351
  73.0810499 114.4401741  61.0797787  52.7279711  81.0775185  60.7614040
  52.6262856  80.4980087  61.5164232  53.4141636  80.6671047  60.2351618
  70.7474089 115.2292538  76.4701509  70.2490044 115.1156521  77.2794199
  71.3608885 114.4945431  76.4615488  71.6775656 115.4303932 102.8213501
  70.9526873 115.2736092 102.2162056  72.4078465 114.9320126 102.4545574
  59.2766905 126.6214275  57.3436689  60.1329851 126.2626076  57.5765705
  59.0025187 127.1098709  58.1198645  85.1074886 128.4488678  96.9603729
  85.4769039 129.1740322  96.4564991  85.6474781 128.4059811  97.7495575
  33.3176374 100.3571320  61.2176800  32.9211664 100.0427532  62.0302105
  33.5010862  99.5619774  60.7173777  42.1702003 118.0220795  72.7730083
  41.6451645 117.3140812  72.3997688  41.9030094 118.0598927  73.6913824
  60.2535582 126.1893749  65.3526497  61.1461496 126.2870121  65.0210190
  59.8614788 125.5202103  64.7916555  29.6158051  92.1469116  74.1524029
  30.2567911  92.8547001  74.0860891  30.0535583  91.3900661  73.7627935
  98.6574364  41.3301373  76.9424057  97.7368546  41.4372349  76.7030334
  98.7430859  41.7909956  77.7769709  63.2956409 103.1761837  39.1040587
  63.7968779 103.8788891  39.5178175  63.5361862 103.2231712  38.1787682
  56.5220976  84.4091797  73.4293175  56.7590523  84.1040134  74.3050766
  56.5524578  83.6223125  72.8851223  85.8913326 106.4833641  88.9512157
  85.5379391 107.2186661  88.4505367  86.8048668 106.4207363  88.6723423
  50.6249905 101.0977650  78.9340162  51.5020800 101.4782238  78.8870716
  50.1169491 101.7292309  79.4433069  81.9945049 116.7921066  86.1855602
  82.4590969 115.9637547  86.3047981  82.6787663 117.4596691  86.2343311
  47.2667027 107.9658890  54.2777443  48.2181072 107.9747295  54.1729593
  46.9307566 107.7841187  53.4000587  45.3769207  86.6221142  48.6271238
  44.8598051  87.2427464  49.1405773  44.8549795  85.8197403  48.6248207
  27.3869729 105.8376980  98.7257576  26.9483089 105.9421349  97.8814220
  28.2416344 105.4661369  98.5072994  46.5275192  95.4020691  48.4323597
  45.9421301  95.4768562  49.1859913  47.3280859  95.8500576  48.7055492
  80.9425926  17.1239643 104.6113205  79.9905014  17.2163754 104.5763111
  81.0902214  16.1790448 104.6508121  96.5697670  96.6598129  35.2489797
  97.2916698  97.1060753  35.6916181  96.5553665  95.7847786  35.6367246
 110.6768131  51.3088369 101.6230488 109.9021721  50.8273458 101.9134235
 110.4329586  52.2302771 101.7109013  58.6371994 103.6489487  91.7241669
  59.3130684 103.3176422  92.3154926  58.8254786 103.2279491  90.8853912
  73.3591223 102.2089863 106.3235760  73.2929277 102.7793312 105.5577087
  72.4678802 101.8879128 106.4608479  83.2925510  88.2302856  86.2198830
  82.7287197  87.7409935  85.6207848  82.9238605  89.1135979  86.2281322
  60.6538725  76.0041380  81.9926453  59.9510241  76.2437391  81.3886356
  60.6020021  76.6563797  82.6913071  84.4045162  57.2008085   7.1080533
  85.0721645  57.8280163   7.3856965  84.5832825  56.4158058   7.6257840
  84.2436695 130.7169437  58.2654762  83.9851475 131.4097691  57.6576996
  85.0637531 130.3775692  57.9069948  63.7939787 109.8531723  85.5458164
  63.9756775 109.9654675  86.4788818  63.4588242 108.9595318  85.4729366
 111.1974621  91.6020012  50.0981665 111.9613361  91.7227554  50.6622076
 111.3408566  90.7534027  49.6791840  43.8290644 102.9622936  97.8932476
  43.8597393 103.5213947  98.6695862  44.7288799 102.9560661  97.5668716
  85.4120541  72.8388405  78.5643387  84.4702339  72.9948664  78.4945774
  85.6320477  72.3443842  77.7748156  73.8395309  59.8406744  72.3193359
  73.1923199  59.8425484  73.0245638  73.3634806  60.1688004  71.5564871
  80.2320957  90.2236271   2.4616853  79.3594217  90.4443550   2.7871934
  80.2324486  90.5257702   1.5534154  63.0257845  97.3879337  69.3004751
  62.1162796  97.2049522  69.0647888  63.0345678  97.3646927  70.2573538
  55.8742189 118.3957100  64.1427183  55.1082182 117.9986954  63.7281752
  56.0953236 117.7995300  64.8581982  27.6522970 122.2177792  14.7369766
  28.0794668 121.9784737  13.9144850  28.1965137 122.9195309  15.0941885
  44.6334410  58.1363964  88.5603237  43.9282513  57.8666687  89.1486931
  45.2015734  58.6836720  89.1024876  61.9703341  99.7116470  88.6251736
  62.5623941  98.9869404  88.8264275  62.5432205 100.4051399  88.2978916
  46.7871523 112.4486923   0.6382791  46.0810518 112.8321743   0.1180974
  47.5894403 112.7712822   0.2277891  40.7493305  92.7996254  35.6315517
  41.1650991  92.5085831  36.4431310  40.2688551  93.5897923  35.8785725
  44.0123463 111.8600655  85.4133797  44.6147966 111.5589523  84.7332191
  44.5817375 112.1800327  86.1131287  75.0044203 107.4686432  61.4169979
  74.3065310 106.8173790  61.4879704  75.7406187 107.0835590  61.8923426
  25.3506684 103.9789772  80.0270176  25.0159335 103.5788345  80.8295631
  24.5680594 104.1689873  79.5096731  72.8142834  64.7729921   6.4787999
  72.2456074  64.5049000   5.7570211  73.3709812  65.4556608   6.1042539
 109.5768166  90.0063229  83.0965710 109.2689037  89.3799019  83.7515736
 109.5046425  90.8581066  83.5272503  42.8966236 101.9826126  63.7833691
  42.2534466 102.5954342  63.4270000  42.6782370 101.1434937  63.3778715
  73.3253431  76.6498709  92.9623222  73.7789583  75.8078957  93.0015850
  72.9886341  76.7820930  93.8485336  90.2516365  93.7455082 109.2808723
  90.0853157  92.8231716 109.0862751  89.4905567  94.0238285 109.7903156
  66.2552977 125.7170868  82.5615311  66.7958689 125.8898354  81.7907047
  65.3558636 125.8254719  82.2524834  34.6760583 132.9476166  37.6869273
  35.5637431 133.3051491  37.6665998  34.6319628 132.3724556  36.9230676
  48.7266588  79.5698500  73.9874220  49.6468019  79.5521402  73.7242603
  48.7296343  80.0055981  74.8396826  88.0841255  90.0365543  71.9576788
  88.5670185  89.4637775  72.5534821  87.2916222  89.5447826  71.7424345
  87.8515816 113.2968044  43.3982277  88.5544300 112.8634834  43.8824558
  87.2768688 113.6516190  44.0764856  24.5582342  92.4245358  31.9650173
  23.6617446  92.4251270  31.6295552  24.6628070  93.2852840  32.3704934
  47.8500557  85.8084679  64.6374941  48.3382559  86.6213703  64.5068026
  48.2760000  85.1773739  64.0573883  68.7619591 121.0737610  32.9969192
  69.3290854 121.8389797  33.0920482  68.5747814 121.0294533  32.0592451
  67.1967745 116.6360664  57.0511866  67.8922939 116.5537739  56.3987207
  67.0790672 117.5799751  57.1580362  63.5688448  88.7297821  91.6888332
  62.6842022  89.0003586  91.4430046  63.9119482  88.2949829  90.9081650
  44.6095800  80.9146214  53.5408592  44.9943542  81.1986732  54.3700171
  44.8425531  79.9886560  53.4734583  57.0408297 104.2245197  77.8779078
  57.7864647 104.3813419  77.2985363  57.3871231 104.3692684  78.7584543
  43.4815645 123.9515495  76.2927389  44.2255688 124.1738033  76.8524599
  43.4882593 124.6208477  75.6084681  18.8401937 111.8476772  94.1099262
  18.4841013 112.3194218  93.3570099  19.3538260 111.1369324  93.7261772
  87.9553127 116.2442017  67.1724844  88.4467316 115.7602787  66.5087414
  88.5315228 116.9685745  67.4163818  38.4253168  73.5670519  26.3701820
  38.3838868  73.1331491  27.2223830  39.3202090  73.9023066  26.3153601
  51.4205694   3.9241295  58.0618715  50.8991146   3.1710892  58.3397865
  51.0524797   4.1702824  57.2132540  41.4324093  96.0293865  36.5012050
  41.9622421  96.4559650  37.1746588  42.0198107  95.9487057  35.7497525
  55.5508089  80.0489902  52.1885777  56.4320230  80.0600719  52.5621605
  55.4146385  80.9411621  51.8696356  44.1769314  86.2966156  56.7630005
  44.9232531  86.8625546  56.5656185  44.2298651  85.5952644  56.1137438
  72.1044302 118.9290905  88.6205673  72.7740812 119.3932915  88.1182575
  71.2758780 119.2932796  88.3089542  88.3454323 129.9764824  38.0516028
  89.0771770 130.0786018  38.6601710  88.3287621 129.0404701  37.8519988
  67.6592922 107.6500797  32.9738092  67.3968697 107.4706650  32.0709372
  67.1949863 106.9936085  33.4931326  58.0496788 111.5117168  42.5597572
  57.1282053 111.2798309  42.4442244  58.0318165 112.4175739  42.8685236
  47.2091293  86.9297123  46.3844204  46.5630484  87.4280548  45.8839464
  46.8031025  86.8047047  47.2421789  86.1251640 107.1249866  53.3013487
  85.5108356 107.5597191  53.8928223  86.4889431 106.4069462  53.8193321
  61.0331392 113.2089615  32.3958683  61.4848137 114.0270901  32.1887469
  60.1158094 113.3815002  32.1838164  50.8767891  84.1410923  71.0031796
  50.2213621  84.6465302  71.4839888  51.5151405  83.8828182  71.6680336
  68.0838156 109.3664360  50.4066563  68.2500315 110.2978611  50.5517626
  67.5988483 109.3353176  49.5819950  59.9742699 121.2151051  71.9891739
  59.7368336 120.4947472  71.4052820  60.8066177 121.5384674  71.6444063
  37.6290441  95.4091549  42.1011686  38.1132007  96.0767365  41.6152096
  38.1394458  94.6083069  41.9812918  72.3467827 122.7786446  74.8329639
  71.5745497 123.2908726  75.0727749  72.1987724 122.5358295  73.9189816
  93.7071800 101.8069649  75.9266901  93.4147644 102.4227810  75.2547598
  94.6300411 101.6526508  75.7248449  76.6081762 105.7281017  88.2853603
  75.7081032 105.8737659  88.5767174  76.9452953 105.0549412  88.8764858
  65.1850605 101.5369034  90.4036903  64.4119549 101.3153744  90.9227848
  64.8819017 101.5037346  89.4963741  88.8750553  84.1863346  91.2988758
  87.9954433  84.2410755  91.6723824  88.7608337  83.6891747  90.4889297
  32.8393292 112.9937744  67.7404070  33.0389667 112.2754765  67.1400499
  32.0876551 113.4348583  67.3445940  60.8961821  99.3923569  54.0476513
  61.8507528  99.4209385  54.1125488  60.6182337 100.2945137  54.2060280
  86.9957542 123.8738632  60.3225994  86.5913773 123.2902241  60.9645319
  86.9886684 124.7338295  60.7428789  39.2420673  89.1027737  44.8566294
  38.4647036  88.5560036  44.7426891  39.5407462  88.9121342  45.7458305
  14.9466932 103.5308838  55.8926773  14.8117030 103.3606911  56.8249035
  14.4613886 102.8350067  55.4494286  55.8221960  69.9384165  39.2589045
  56.0165262  70.8755684  39.2442656  56.2302256  69.5967436  38.4632874
  80.6833076 106.1608124  77.3897600  79.9631548 106.6442490  76.9849110
  80.3148651 105.8204556  78.2050133  67.6327133 102.9597282  53.6057758
  67.6752472 102.0350456  53.3620930  68.5413647 103.2586670  53.5708380
  69.6577358 110.5372238  65.9511232  70.2983570 110.1194859  66.5267467
  68.8481951 110.0483322  66.0990047  87.9723930  77.7020836  73.9867973
  88.7881565  77.4693775  74.4302082  88.2019234  78.4555769  73.4429216
  63.5807705 111.9268227  60.2973032  64.0267277 112.7693081  60.2103090
  62.8558922 111.9740391  59.6739626  69.6196795  97.5630093  23.2434607
  70.5184650  97.3127460  23.0294967  69.1604996  96.7311287  23.3591104
  72.4246740 116.3727283  23.0727100  72.9392195 117.1798134  23.0633426
  72.2229290 116.2065983  22.1518779  31.6467142  87.0269680  37.6671672
  32.1035385  86.7478561  36.8736696  31.0273170  87.6915836  37.3657227
  85.2697468 134.6574116  33.1777883  84.5978355 135.1900482  33.6032963
  86.0930347 135.0989151  33.3863854  56.8968534 102.0163822  54.0290642
  56.2870932 101.7301369  54.7091293  56.9558334 102.9648209  54.1440296
  73.4878540  86.4787674  85.3444672  73.1672430  87.2236729  85.8529472
  73.1958199  85.7104492  85.8350182  44.8474789 114.1002655  73.4561348
  44.0186310 114.5781231  73.4860373  44.5988846 113.2032871  73.2328320
  47.4472666 108.1851864  70.3408670  47.7490997 108.4959602  71.1944199
  48.1864548 107.6868343  69.9923277  65.9267664  94.1472054  27.9749823
  65.3542376  93.9963245  27.2228694  65.8690548  95.0892067  28.1347656
  85.0533009 100.8374119  56.1223698  84.7946739 101.7273903  56.3617134
  84.7343922 100.2934647  56.8425369  59.5608187  77.8009176  57.7395535
  59.2916012  76.8828249  57.7102232  58.7621307  78.2776117  57.9655933
  59.9526644 111.0104656  65.8669233  59.6884537 110.0951004  65.7746077
  59.1364574 111.4788532  66.0419989  48.6042643  85.4991627  44.6365404
  48.0952072  85.7321262  45.4129553  48.6562443  84.5437145  44.6620274
  53.3994293  83.4641457  87.6497269  53.5609865  83.4543610  88.5931396
  54.2689133  83.3866501  87.2570133  81.1833477 138.0493164  71.3614225
  80.8765411 137.6616001  70.5418062  81.1180592 138.9935875  71.2188911
  45.5885506  78.4809113  63.0628204  45.4952383  78.7381315  63.9800787
  46.3696909  78.9452744  62.7621269  40.9179163  91.5428352 106.9531155
  41.6944647  92.1023846 106.9640923  41.0150528  91.0138321 106.1613178
  46.5309620  90.8648872  30.6804824  46.0127020  91.2084389  31.4082241
  46.4546633  89.9140549  30.7599854  36.2049818  66.3559866  36.5448880
  36.2401199  66.9767427  37.2726631  35.6061697  66.7582083  35.9157062
  77.8317738 101.2411594  24.7407103  77.7294445 101.2789822  23.7897491
  78.1540012 100.3562450  24.9119234  57.0091152  80.8300877  60.3544998
  57.6781368  80.1999092  60.0870705  57.4875069  81.4872837  60.8599377
 122.3967648 105.7997894  53.6734247 122.2684193 105.3329563  54.4991541
 123.3364868 105.9794044  53.6433887  63.9151478  96.9514179  58.9955235
  63.6077738  97.3205471  58.1675768  63.1204271  96.6396141  59.4284534
  49.3019247 121.4560127  61.8954372  49.4316053 120.9964943  62.7250481
  48.4956980 121.0832787  61.5386534  50.4045868  84.5617390  67.9070950
  49.6595192  84.0567780  67.5813198  50.1725960  84.7749329  68.8109541
  68.3585119  77.2652721  42.8834009  68.9147568  76.9430494  42.1741819
  68.5748386  76.7067766  43.6300707  82.4647236 121.7184353  52.0783424
  82.4503040 122.4944019  52.6386118  83.1979465 121.8676281  51.4813852
  67.0426369  95.1485252  56.9106913  67.5427771  95.8386230  57.3464251
  66.9138288  94.4829655  57.5864649  33.0861211 102.3027706  36.1837101
  32.2755098 102.2312546  35.6796980  33.3089113 103.2330036  36.1482787
  34.4815993  78.7724829  21.4515471  35.1085639  78.0678844  21.6149163
  34.4913292  78.8861609  20.5011702  34.7288108  68.2918692  65.8520508
  35.2532411  69.0549517  65.6093454  34.5764470  68.3949089  66.7914104
  72.7941275 115.1376057  32.5772810  72.1202564 114.6796322  32.0748997
  73.3683538 114.4419575  32.8975415  39.8340631 104.0905380  73.4655857
  39.6950912 104.0655136  74.4123125  40.6362295 103.5867596  73.3278656
 113.7124538  83.7440681  64.2126942 114.6560478  83.8992310  64.1703320
 113.6006451  83.1488514  64.9539328  63.6204052   3.4215813  60.0053120
  63.4889650   3.5735493  60.9411860  62.9489279   3.9545231  59.5794964
  74.5060921 101.3690281  51.7806673  75.1843405 102.0093918  51.5658426
  74.3016100 100.9475613  50.9459257  40.4918337 116.3590622  35.7643342
  40.1522827 116.6144276  34.9065876  39.7106028 116.1785221  36.2871289
  87.6574898  92.8743267  62.7187395  86.8255615  92.6140308  63.1141710
  88.1854725  92.0759296  62.7242184  78.0927324 108.8459015  55.7259750
  77.7254581 108.0851650  56.1761189  77.4889755 109.0101147  55.0015831
  30.9105825 123.4221840  50.1366091  30.7561398 123.0321598  50.9969902
  31.7425156 123.8863182  50.2298832  65.0158644  81.1397362  26.1691236
  65.4156065  80.5160046  25.5629969  64.1211605  80.8202648  26.2860560
  78.7649918 127.6599789  73.5455322  78.0711508 128.2171440  73.8982105
  78.4600830 126.7670059  73.7063408  23.9490557 112.9816151  33.8344646
  24.4963932 113.7628555  33.7550282  23.1744146 113.2793713  34.3114400
  50.5717087 127.0393562  54.1615248  50.7016373 127.1339798  55.1051331
  51.3988018 126.6798496  53.8407326  39.0427661 114.9949551  46.9950151
  38.6714244 115.6818199  46.4413452  39.8635316 115.3659916  47.3189068
  23.2767582  74.5831203  71.2880135  23.5024047  73.6585379  71.1857271
  23.4721684  74.9730349  70.4359484  65.4792213  93.4539223  30.4850078
  65.6820679  93.5781860  29.5578361  65.9134150  94.1846371  30.9251976
  70.7716990  97.7651215  40.5745363  71.4838028  97.2866631  40.9990597
  69.9755907  97.4111557  40.9709692  80.2670193  85.4397011  76.3082504
  80.7632542  84.7071457  76.6734123  80.1123524  86.0195923  77.0539284
  68.2343674   2.0865422  68.1898308  67.9239798   2.8563385  67.7130651
  69.1071129   1.9200497  67.8336906  15.4257250  98.9466667  88.9961338
  14.8693454  98.3701038  88.4724426  14.8626649  99.6892929  89.2145061
  55.7603312  87.4632168  66.2317991  56.6729641  87.6048088  66.4833689
  55.4242277  86.8496513  66.8850994  58.1661177 100.2766037  85.9139442
  57.9107523  99.8037910  85.1218224  58.3099127  99.5910072  86.5662479
  60.3026533 127.3745918  81.8720245  61.0882950 127.2673607  81.3358307
  59.8213053 128.0872822  81.4517975  41.2977171 100.8277416  52.1212339
  41.9425011 100.1999187  51.7951584  40.4872465 100.3234863  52.1925831
  40.4716921  75.3001642  57.5938177  41.1946440  74.6729136  57.6050663
  39.7017217  74.7824430  57.8290653  80.5738926  83.6286068  57.1205473
  81.0405922  84.3442059  56.6888905  80.8397770  82.8447914  56.6397429
  79.1931200 115.2363586  43.3155251  79.2597437 115.4214478  44.2522907
  78.3134270 114.8756981  43.2046127  62.1344805 140.1143837  28.0438042
  62.5200653 140.8695984  28.4878802  62.6888180 139.3772316  28.2998514
  28.5664010  94.1266632  61.4885664  28.7424135  94.0125751  62.4225044
  29.3689251  94.5141029  61.1391687  77.6977825   1.7039376  47.6866531
  77.3062086   0.8336144  47.6128769  78.4548187   1.6763478  47.1015310
  58.0119991  90.3283405  36.3090110  58.9138794  90.3611660  36.6280150
  57.7995682  89.3952656  36.2869382  56.2784338  76.1785889  45.1770496
  55.7008266  75.4183102  45.2447414  57.0912933  75.8299923  44.8110294
  32.1565127 117.6502895  79.5753765  31.8828297 116.9456291  80.1625633
  33.0586767 117.8399277  79.8330021  51.3899374  88.6560535  52.5398922
  52.0077705  89.2760849  52.1524906  50.7987690  88.4272480  51.8226767
  57.8389502 110.6464195  73.6502504  57.5720406 110.8673286  72.7579546
  58.6448383 110.1415730  73.5411358  93.4830093 114.4099140  56.8376637
  94.2585945 114.0845871  56.3806629  93.2334805 115.1978874  56.3549089
  42.1687269 139.5065689  83.8507462  41.8171167 138.8844490  83.2139015
  42.4242544 138.9657021  84.5980167  18.7454677 113.3631325  66.2640476
  19.5286524 113.8309193  66.5539217  19.0368700 112.8537655  65.5078316
  65.4230738 105.2006817  72.1054697  65.2375555 104.5303631  71.4478302
  66.2675667 105.5667686  71.8427038  33.4472275 127.1211052  52.8461599
  33.2439470 127.8842068  53.3870697  32.9000401 126.4216805  53.2034016
  70.9020376  95.4352283  48.1141901  70.8882952  94.7251129  47.4724913
  71.5561819  96.0483646  47.7789450  54.8163366 122.5670815  71.5434027
  54.6643543 121.6409492  71.3552094  55.5351639 122.8148270  70.9619093
  58.9933634  80.7282543  85.2584076  58.9357805  81.5833473  84.8321152
  58.6772442  80.8826542  86.1486149  20.0248241 144.0833473  77.6487303
  19.9398530 143.2699585  78.1461477  19.2913532 144.6226406  77.9443932
  76.0480404  97.0264435  67.9509306  76.7416143  96.9143009  67.3008394
  76.1438560  97.9307270  68.2498169  62.0550346 141.0028553  43.4482431
  62.1463823 141.1191559  44.3939495  62.6529455 140.2860737  43.2362127
  68.3451223  82.6672173  54.3102360  67.7397203  83.3382130  54.6256638
  68.9574337  83.1421471  53.7483263  84.5215988 117.4668598  57.9132557
  85.1797104 118.0457306  58.2980108  84.2842293 116.8693352  58.6223841
  59.1020679 142.1089458  69.7287321  58.8322735 141.8284512  70.6032372
  59.3012714 143.0400562  69.8266745  35.2669406 106.9479656  83.0547142
  34.3238378 107.0159626  83.2035923  35.3585935 106.2374783  82.4198723
  68.7675858 110.9906578  53.3717155  69.6410275 110.6312180  53.2163572
  68.3098125 110.3055382  53.8588428  69.8665810 103.7255669  71.8044424
  69.4970226 104.2621040  72.5057125  70.3326988 103.0243301  72.2596741
  92.7097034 112.3303890  67.1765757  93.0894566 111.6854858  67.7733326
  93.3655262 113.0258274  67.1266079  90.8691216  97.2105408  80.5824184
  91.5003586  97.9066277  80.4001236  90.0178719  97.6016712  80.3859425
  48.7273216 137.7537727  55.4262638  48.4067631 137.3432636  54.6231699
  49.1023684 137.0320606  55.9309435  53.6244869 104.2169571  88.7000370
  53.7619400 103.6728954  87.9245758  53.0128622 103.7154388  89.2391300
  57.8498030  83.0909634  36.4985991  57.0288801  83.0671597  36.0069227
  57.5802374  83.0591583  37.4165058  82.5759029  75.7789993  77.8615618
  83.1763840  76.1328077  77.2054482  81.7384529  75.7039642  77.4040890
  60.7862473  92.6721191  42.0352840  61.3757801  92.8396606  41.3000202
  60.3790236  91.8308163  41.8288755 123.6282754  99.4226360  88.2610607
 123.3729864  99.1700172  89.1483307 124.5440554  99.1534424  88.1895256
  54.3279123 106.8789291  55.8709860  54.6982098 107.0083809  54.9978542
  53.9087200 107.7138042  56.0795546  64.3762350  87.2618294  60.8460426
  65.1271629  87.6949692  60.4401731  64.3049955  87.6662350  61.7106819
  56.2916517  57.0038986  40.2462006  55.7329178  56.2472248  40.4236650
  56.2930822  57.0820808  39.2921996  52.6650906 138.4358501  71.5287352
  53.3003426 139.1058064  71.2760687  52.6479912 138.4705639  72.4851561
  49.8788166  69.5975399  52.4938822  50.6930971  70.0122499  52.7788305
  50.1353741  69.0516567  51.7506266  64.7286081 109.9657726  47.9483318
  65.0387764 110.4309273  48.7252855  64.8304796 110.5961037  47.2352171
  46.6049051  97.7803993  45.7080412  47.3825693  97.4082184  45.2921677
  46.9456482  98.2771683  46.4519119  63.6000443 116.6910648  62.2205544
  63.3757162 115.8023167  62.4963188  62.7661419 117.0757580  61.9506598
  52.7123451 102.4946880  58.1688833  53.2667208 101.7147446  58.1930685
  51.9567442 102.2683811  58.7111759  63.0645657  85.8338547  49.4718456
  62.9575205  86.4379787  48.7371302  63.5921574  85.1177502  49.1181946
  64.3776035  76.9383812  86.1212063  65.0800037  76.4248466  85.7222748
  64.6457005  77.8487110  85.9960842  25.2330709 139.8091984  64.6724367
  25.2466774 139.2856598  63.8712168  25.7856178 139.3238544  65.2851009
  78.4678650  94.9513817  67.4200201  78.4919786  95.5493927  68.1670332
  78.0805016  94.1483974  67.7684450  64.1184473  94.1103077  64.3474865
  63.3922434  94.2690754  64.9505234  64.4546509  93.2500172  64.5986795
  77.4002314  69.7007227  71.8922758  78.2920790  69.4371080  72.1188831
  77.1134043  69.0495968  71.2519646  58.9672947  98.1698704  55.4738235
  58.3672094  97.7713776  54.8434782  59.7849131  98.2812881  54.9887228
  39.8470020  78.5578632  80.1684761  39.2995191  78.8899708  79.4570065
  40.7145596  78.4580755  79.7765446  94.1242790 114.9711990  53.6064196
  94.8515034 115.1552677  54.2009735  94.1694069 115.6666851  52.9503012
  52.4242306  91.1995888  35.0938964  53.2112741  91.7021084  34.8834968
  51.7204285  91.8483162  35.1002502  56.7405558  84.5108700  99.4445515
  57.1033955  85.0664043 100.1344490  55.8642673  84.2840004  99.7558022
  92.8347206  96.6881657  42.0817471  93.4597206  95.9702110  42.1825075
  93.0781841  97.1033096  41.2543297  50.0902700  84.3452930  51.2396431
  50.1040649  85.2082348  51.6536140  50.9363317  83.9582062  51.4645338
  30.4747295  72.4052763  85.3188133  30.0341249  72.4292707  86.1682415
  31.1993527  73.0244064  85.4072952  58.7612820  82.1428680  58.3734035
  59.5761204  82.3981953  57.9408741  58.9930582  81.3651466  58.8810015
  58.2765675  88.6894417  43.8930511  57.4869156  89.1355515  43.5870028
  58.0026865  87.7819443  44.0259933  55.0692081 121.9699001  54.3366289
  55.6353092 121.2430191  54.5962524  54.7170401 122.3054886  55.1610041
  82.0837116 118.7036419  88.5437489  81.2068558 118.8844109  88.8823605
  82.2938633 117.8311443  88.8766575  50.7461214 122.6225567  77.6460361
  51.6604853 122.5948429  77.3642588  50.2803373 122.0910358  77.0004654
  52.7616596 121.7970943  10.8470702  52.9607964 121.8604469  11.7811811
  53.6179733 121.7932987  10.4193473  19.5251977 110.2123356  83.1270504
  19.2512989 109.5040321  82.5443745  19.0142322 110.9693241  82.8404999
  62.9985857 105.0077629  76.6025591  63.1571007 105.2134609  75.6812620
  62.2369528 105.5373192  76.8385983  56.1893606  82.3196507  42.8090382
  56.5877295  82.4250793  43.6729956  56.6629791  81.5872765  42.4146652
  75.0651360  90.1427078  91.3519669  75.9012365  90.4600143  91.0106659
  75.1335049  90.2593040  92.2995758  48.2500029 107.7172470  75.1450634
  47.3535872 107.6346493  75.4703999  48.1609201 108.1816292  74.3128109
  85.6755924 132.6373577  64.6424723  84.9693489 132.8772736  65.2423811
  86.0541153 131.8447495  65.0229120  67.1640635  79.0394068  52.0440865
  66.2888622  79.4094467  52.1595287  67.0096588  78.1142759  51.8529797
  60.2113533 100.8167744  68.5138559  59.4516182 101.3467598  68.2727051
  60.4934263 100.4147148  67.6922655 104.2544842  63.6986732 102.0302391
 103.4707832  64.2273045 102.1805477 104.8883438  64.3109274 101.6566181
  74.0348768 126.1519051  89.0058708  73.4008026 126.4183140  88.3401299
  74.4490385 126.9692135  89.2828369  54.2712307 127.1140671  42.0505238
  55.1900339 127.3739815  41.9835997  54.1386795 126.9405556  42.9824829
  78.3873272  91.6251087  69.7509575  77.7288628  91.8607426  69.0974045
  78.3341360  92.3208618  70.4061890  68.0254030  71.3447142 105.1558495
  67.9197359  72.0217705 104.4875145  67.5198412  71.6647196 105.9029961
  39.1008234 109.6081638  68.7552691  39.4956207 109.6833897  67.8865337
  38.9686775 110.5132198  69.0374899  25.3544283  94.9304867  41.1474562
  24.8122001  94.8209858  41.9286299  25.3554535  95.8741379  40.9869671
  67.7036428  90.8465862  68.2125854  67.5047588  90.8457470  69.1488981
  68.6357355  90.6339359  68.1655264  53.7722206  98.0176544  59.2148161
  54.4810820  97.9528904  59.8547792  53.0071831  97.6634502  59.6681309
  47.4087954  82.8022003  77.3397255  46.6337538  82.9625416  77.8780842
  47.7365923  81.9539356  77.6384306  57.0455742  81.7101860  56.3216019
  57.6391172  81.8077469  57.0661974  57.1299648  82.5323391  55.8387136
  78.2978487  99.5563507  71.9848776  78.2790565  99.6311378  72.9389668
  77.4653006  99.1405773  71.7607784  58.7211847  81.2313080  66.7446136
  58.7464046  80.2818775  66.8636942  58.4872675  81.3511276  65.8242035
  74.9207163 146.5154171  60.0911522  75.4576540 147.0215034  59.4813919
  75.2885437 145.6323242  60.0580931  43.6321354 144.7947884  57.0254755
  43.5795164 143.8779163  56.7556524  44.1467905 145.2176094  56.3380241
  78.9688110 144.4472027  31.3258529  78.1406546 143.9695644  31.3732958
  79.3664026 144.3234348  32.1877289  39.6047854 115.9819603  50.4250717
  40.2738905 116.0849667  49.7483778  38.8314104 115.6743240  49.9523354
  41.0505533  82.6022816  82.8701782  41.4772606  82.7446079  83.7150955
  40.6667948  81.7281532  82.9398918  89.5728207  98.0177116  29.2402434
  90.2186489  97.3661041  28.9672041  89.7848415  98.1957436  30.1565337
  47.5786829 116.6771221  46.7085886  46.7331409 116.2300014  46.7456007
  47.7279711 116.8303204  45.7755947  67.0836973   5.0343209  78.1555557
  67.6514864   4.8928719  77.3980331  66.2075567   4.8074894  77.8438520
  61.7157793  93.4227371  62.2161674  62.3577213  94.0693569  61.9228888
  61.4575624  93.7202072  63.0885601  67.0104027 122.7282143  19.5446050
  66.1643076 122.3426437  19.7719729  67.5051355 122.0073700  19.1549134
  14.3377697  77.0923805  48.9927769  14.6938777  76.2221909  49.1721773
  14.3369102  77.5308990  49.8436213  34.2722082  98.3416271  79.1188669
  34.5870948  98.2826805  78.2168674  33.5751200  97.6878452  79.1724110
  66.0240746 113.8878536  38.1924343  66.3861275 113.8870716  37.3063469
  65.3444672 113.2140350  38.1740761  58.5754919  68.2354641   6.9362938
  58.4579515  67.5294256   6.3007390  59.5140982  68.2349062   7.1240461
  56.7825079  80.3978920  48.0930948  56.1821985  79.8615456  48.6109638
  57.6325846  79.9690723  48.1916714  36.8214822  82.8895378  72.5150537
  35.9350252  83.1241417  72.2404861  36.9434261  81.9963646  72.1931648
  55.8822441  61.7046165  19.3862200  55.1198483  61.1263514  19.3618608
  56.6231585  61.1178637  19.5378578  64.1033554 102.1086597  20.9084487
  63.8986158 102.8423691  21.4880872  63.3176041 102.0002079  20.3726602
  21.2256813 110.4767513  45.9931231  21.4494443 109.9605465  45.2187204
  21.2043357 111.3810921  45.6801796  47.3792887  95.8085251  34.3382215
  47.9792500  96.4600277  33.9751506  47.3276854  96.0231972  35.2696109
  58.2489157 103.4104538  43.0659056  58.9846373 102.8569317  42.8040791
  57.5050163 102.8104877  43.1195927  67.3537397 133.8148785  47.0672369
  68.2338142 134.0111351  46.7460108  67.1523857 134.5325470  47.6677608
  91.6919518 109.2873955  57.7838373  91.7603970 110.0005531  57.1490526
  92.4468136 109.4065094  58.3602238  74.6798754 108.0560493  46.3004208
  75.0329161 107.2968864  45.8364391  73.7740993 108.1216812  45.9979486
  63.0597019 109.3360329  24.5307136  62.4196863 109.5441341  23.8500452
  62.5473976 109.3009377  25.3385139  56.0074663 102.8358364  92.8718281
  56.7946339 103.3183479  92.6192856  56.3169289 101.9469070  93.0458164
  84.2534256  96.3769817  22.7167797  85.0634193  96.2207031  23.2023025
  84.3138790  97.2906303  22.4378109  23.4511399  65.6792974  34.2679644
  23.1173921  65.6230545  35.1633310  24.3624854  65.9540653  34.3688750
  31.1758304 102.4964333  63.3284378  30.3037763 102.5309467  62.9352951
  31.3423705 103.3925343  63.6208391 100.1720619 110.0167942  70.5851269
 100.1884556 109.7219467  71.4956379 100.7777691 110.7576275  70.5623293
  13.7205589  96.3769913  75.9981966  13.9568472  96.8723106  76.7824554
  14.5569932  96.1897945  75.5720901  58.9645863 122.1481991  34.7707033
  59.6492338 121.7000294  34.2740726  58.1502199 121.9013977  34.3323827
  41.7831659 113.9789772  96.7942806  42.5934839 114.2878056  97.1995565
  41.0959148 114.2298889  97.4114975  36.8796825 109.9589920  85.7998657
  36.6848707 109.7441959  84.8876476  37.5331855 109.3114281  86.0641098
  60.4494810   8.6728745  24.8148799  59.5835733   8.3130532  24.6226025
  60.8794785   7.9959565  25.3374863  67.0422268 117.3201275  43.1905222
  67.8339958 117.1434593  42.6824665  66.3321066 116.9567204  42.6614714
  56.4005947 116.3004875  39.5385313  56.2766027 115.5121422  40.0670815
  56.6001892 115.9721375  38.6618471  97.0805168  95.0397015  28.1544995
  97.9515266  94.7775269  28.4525537  96.6492939  95.3750896  28.9404941
  74.9203968 116.5342426  35.7519889  74.4322968 116.4127922  34.9375939
  74.9500751 117.4831390  35.8742142  44.8689032 102.5479412  59.4208145
  44.1758776 101.8880081  59.3998241  45.5977869 102.1157455  59.8659801
  25.5380273 101.4301395  43.4065580  25.9877300 100.5874348  43.3444452
  24.6605611 101.2591553  43.0644369  36.8230820  73.3753204  35.6090546
  37.6721668  73.8131332  35.5490279  36.3385487  73.6865377  34.8444605
  62.0658970  91.8304920  66.1643410  61.6892958  91.4995670  66.9797516
  61.7130327  92.7162457  66.0796833  59.0866327  93.3476162  60.3919601
  59.9809885  93.2360935  60.7143402  58.5334063  93.1551647  61.1490154
  36.5136027  91.1536503  54.3100929  35.7574677  90.7203007  54.7059488
  36.8268895  91.7540169  54.9865818  60.3266859  94.1724873  68.6933231
  60.4021549  94.1523361  69.6473312  59.5657730  93.6243057  68.5016298
  70.5481672 129.8796940  23.6334848  70.3501654 129.2683125  22.9240894
  71.4101076 130.2322865  23.4122038  45.1680183  74.8849869  42.9855633
  44.6768522  75.1006031  43.7783432  45.7502794  74.1730356  43.2507515
  68.8660955 106.9616032  41.1893892  68.6922598 107.1270275  42.1160221
  68.3116484 107.5893021  40.7259083  51.4928341  70.7607365  57.4232340
  51.3700676  70.0257254  58.0240011  51.7421961  71.4924192  57.9877567
  68.4954214 100.0864220  44.9491072  68.3503771  99.3956757  44.3025303
  67.6669359 100.5649471  44.9783182  55.6659460 105.4040337  13.3998537
  55.1875305 106.0252857  12.8508627  55.8977365 104.6893787  12.8067446
  39.8668957  87.2659016  39.1446519  39.9038053  87.7168465  39.9881721
  40.6989908  86.7962456  39.0875292  14.9561322  99.9972057  57.9919815
  14.5425463  99.7355652  57.1693516  14.2579317  99.9294376  58.6432552
  45.3775740  99.6108150  53.3444500  44.4908714  99.8988533  53.1275988
  45.8928251 100.4172230  53.3659649  52.5381660 123.1838417  41.3950825
  52.9228926 123.8111401  40.7829428  51.6322756 123.0873203  41.1013412
  39.9273777 125.8567047  80.0115395  39.2735481 126.1189079  79.3634796
  40.7032871 125.6397247  79.4947100  65.6304598 114.4825554  81.6192436
  65.3116894 113.7370682  82.1280384  64.8729086 114.7638607  81.1062050
  36.4761281  90.8153057  25.9009314  36.6183949  91.7617512  25.8860874
  35.5987716  90.6992340  25.5362320  41.1009169  94.9127102  53.3518696
  40.4419041  95.5753422  53.1448555  41.9342709  95.3237534  53.1220913
  57.5951672 134.2436886  22.6213312  58.4621048 134.1911983  22.2189641
  57.4255753 135.1821804  22.7032781  78.6810398 100.3848934  31.6792274
  78.0533409  99.9436474  31.1069298  79.5101643 100.3429890  31.2027478
  43.2657290 109.2581081  54.7736025  42.7436543 110.0563812  54.8537874
  44.1703224 109.5516205  54.8821878  61.4331245 111.2406826  21.7975354
  60.7630301 111.5322781  21.1793303  60.9648228 110.6699562  22.4067903
  46.7599440 114.3235874  29.3574691  46.5637064 114.0403175  30.2504897
  47.1375942 113.5502625  28.9384365  42.5770330  94.1734505  38.8168573
  42.2467375  95.0352955  38.5631824  42.3931170  94.1128731  39.7542667
  79.4424295  96.4263439  24.3358922  80.3523636  96.1957932  24.1485476
  79.0129280  96.4206982  23.4804821  57.2685051 102.3342609  46.5450716
  56.8072176 102.5095940  45.7248878  57.1684885 101.3918209  46.6793823
  27.0959973 102.8316212  32.8863478  26.1514306 102.7768517  32.7413535
  27.3737907 101.9228363  33.0011344  42.8811884  88.3265018  67.9940701
  42.6573610  88.4427071  68.9174509  42.2967482  88.9249897  67.5287962
  21.8022466 106.9567299  59.9378586  21.2114048 107.4734116  60.4857445
  21.4939976 107.1079826  59.0443611  61.6471767 106.3726330  48.3840942
  61.4831257 106.0601902  49.2738676  62.0241880 105.6183910  47.9310846
  63.6256456 111.9680595   0.4271600  64.4456863 111.8291759  -0.0466332
  63.6597919 111.3447952   1.1528359  83.7515545 100.9067345  10.6099808
  83.9114857 101.5061665  11.3389015  83.7038708 100.0417900  11.0172164
   5.5814707  82.3874760  54.4183922   5.1193827  83.0553246  53.9117575
   6.1454821  81.9504166  53.7803411  35.7199931 101.6632748  35.9204292
  35.9318948 100.7701778  36.1919355  34.7781897 101.7425728  36.0719228
  79.1807604 103.7042713  40.7833910  79.5180941 103.9521503  39.9225807
  79.0554953 102.7569294  40.7278395  31.0426593  86.0306168  40.2078724
  31.3269043  86.3630199  39.3564367  31.8450904  85.9867191  40.7278824
  67.5279427 125.9115028  36.6947126  66.7160511 126.0850716  37.1710920
  67.2983789 126.0420132  35.7746601  56.9635820 103.2338619  12.0492589
  56.3705111 102.4976158  11.8994439  57.8384876 102.8468132  12.0181262
  84.9938774  79.0879107  28.8105440  84.7189236  78.7070370  27.9765368
  85.5223274  79.8471403  28.5644937  92.9347801 114.3340302  35.2166104
  92.2148418 114.8950291  34.9281597  92.5165462 113.5014534  35.4360032
  70.2429295  82.3362732 106.4624723  70.1723623  81.8691063 107.2949403
  69.7701931  83.1559467 106.6069900  31.6719174  90.3699589  62.4156141
  31.6006422  90.4669380  63.3652210  32.6104021  90.2722073  62.2546101
  95.2517700 113.5580826   4.4566470  95.9100437 114.0025806   3.9224866
  95.7121944 113.3314514   5.2646542  54.4045305  86.1314487  36.7555666
  53.8093996  85.5324650  37.2064233  53.8769150  86.9123459  36.5880704
  89.0397072 144.1109657  35.8531237  89.4803333 144.7110558  36.4547610
  89.3647671 143.2446194  36.0981107  75.9571695  77.5296736  27.6629829
  76.3311481  76.6558504  27.5498343  75.4065514  77.4554586  28.4424353
  13.9571679  97.6268768  34.1358018  13.9442062  97.2870064  35.0305390
  13.7310159  98.5524082  34.2278552  51.0653877   3.0098610  28.7021875
  51.3963461   2.2256451  29.1400313  51.3430357   2.9109173  27.7915001
  72.5351000  96.3345814  33.2341313  72.8480673  96.0903931  34.1051388
  72.2483921  95.5095100  32.8426218  78.6414909  76.8285036  34.5838332
  78.0420399  77.4927092  34.2436528  79.4786692  77.2841072  34.6720886
  25.6019688  99.1115093  55.5730057  25.0820804  99.4154644  54.8289919
  24.9597549  98.9514542  56.2645102  53.3338356 107.2284889  41.0145903
  53.2014704 107.2348785  41.9625711  53.0733442 106.3485718  40.7423115
  73.9470816 120.6693935  42.5242043  74.2149258 119.9881935  43.1410122
  73.4095287 121.2661171  43.0449581  29.7504854  98.5895729  34.9545884
  28.8059783  98.6217213  34.8025870  30.0630999  97.8960419  34.3736219
  71.2536049 100.2809906  70.6582689  70.3865290 100.6198120  70.8809900
  71.7532635 101.0545826  70.3972578  62.4999571  81.9239426   7.5711900
  62.8200102  81.3841057   8.2939482  63.2282209  82.5118351   7.3705959
  45.8461428  88.4527206  31.6690564  44.9143028  88.4792995  31.4518142
  45.9062147  87.8259659  32.3900270  86.7190552 125.4674625   8.5289079
  85.7669163 125.5374336   8.4599078  86.8648720 124.9665165   9.3314213
  74.4992447  82.2169304  31.1347198  74.0709877  82.6092243  30.3738451
  73.9972115  81.4205837  31.3080168  43.5092449  68.8400650  59.7858763
  43.6292410  68.2926512  60.5618763  44.3951225  68.9773941  59.4503307
  32.2518516  84.5255184  22.0534039  31.7179942  84.9391842  21.3750935
  32.8198552  85.2269554  22.3721266  54.3415737  88.8453770  33.1788111
  54.7507191  87.9903698  33.3121943  53.5932541  88.8485432  33.7756681
  85.7123470 103.9908218  63.8619471  86.0617542 103.2872868  63.3149767
  86.3961220 104.1505337  64.5124722  93.2022953  92.0133972  51.3871098
  92.4711323  91.8937874  51.9931793  93.0014515  91.4339447  50.6521749
  25.6477094  91.0387802  40.3524017  25.9286308  90.3347015  39.7679377
  25.7188869  91.8327141  39.8224592  47.5029325  93.1042004  41.6721296
  46.8715191  93.0093193  42.3852539  47.4456358  92.2791862  41.1901474
  32.7746964  94.2889309  34.7111416  33.1284499  95.1451492  34.4703317
  33.5270452  93.6986160  34.6695042  63.6572313  96.1418056  21.8354249
  63.1286526  96.9192600  22.0154166  63.1900263  95.4285622  22.2704411
  36.1679411 101.9690704  40.7523251  36.5217853 101.4604282  41.4819241
  35.6135750 101.3509560  40.2760410  79.6827459  88.9036179  20.9040332
  79.5206833  89.8469639  20.8949804  78.8423491  88.5186005  21.1524796
  52.1029520  87.8991890  22.5898981  51.9000816  88.4215927  23.3658934
  52.8064251  87.3145485  22.8719473  51.7367172  79.9760580  53.5278702
  52.1295786  80.7239819  53.9778662  52.4153137  79.3012571  53.5475254
  73.5206652  95.6509781  35.8820868  73.3444262  94.7140026  35.7969189
  74.3699360  95.7744598  35.4581499  58.7625647  95.7716084  41.8963575
  58.3792639  95.1591301  41.2685251  58.0300379  96.3234806  42.1703577
  62.5154448  92.4911404  39.2612004  62.6099062  92.3033524  38.3273649
  62.9213810  91.7425442  39.6983004 100.5994701  91.7515755  34.6286464
 101.4293194  91.2828445  34.7174144 100.4130936  92.0774746  35.5091476
  41.7628717  84.1310310  23.7268734  42.1756697  83.3233070  23.4212422
  42.4882317  84.6597862  24.0592909  73.9652109 124.1255665  16.4448440
  74.4547844 124.6378899  17.0883310  73.4933233 124.7784233  15.9278035
  67.7451801 112.7447891  46.2766695  67.8662634 113.6761284  46.0918236
  68.2915688 112.2991085  45.6293154  59.0622711  84.6539402   8.4475082
  58.2190323  85.0408173   8.2119089  59.4618940  84.4218826   7.6092458
  42.9665518  88.6450100  46.4747381  42.5488472  89.5062542  46.4776087
  42.2450733  88.0293274  46.3457394  37.9789519  86.9318867  27.7550960
  38.5626578  87.6896000  27.7176929  37.2074342  87.1990013  27.2554493
  60.9442711  95.7356167  50.2890873  61.5608883  96.4651012  50.3511906
  60.6991529  95.5513382  51.1958361  32.3227167 110.9592628  63.6834049
  32.9845428 111.2447262  64.3132734  32.6060486 110.0842476  63.4182739
  42.0649719 123.7194347  37.0077777  41.7199755 122.8306198  37.0927811
  43.0093575 123.6225033  37.1301198  67.6992464  99.8770809  18.7370169
  68.3078814 100.4114056  19.2471957  67.8466702  98.9836979  19.0474439
  48.8910818 101.4252377  71.9292879  48.0183601 101.8123245  71.9982529
  49.2229176 101.4211559  72.8271151  51.8477631  85.8294296  87.6700497
  52.0875931  86.3026905  86.8733406  52.2798586  84.9797440  87.5831509
  66.9291306  90.9649849  90.0610352  66.4285278  90.6003475  89.3311977
  66.4321184  90.7162380  90.8403492  70.8039045 102.6597118  42.7776384
  70.9625578 101.8365574  43.2396841  69.8672819 102.8213215  42.8909779
  48.3934736 132.1464539  60.8976412  47.8500319 132.2373199  61.6803598
  48.3817244 133.0151176  60.4957438  87.1471500 108.9438152  27.3505926
  86.9457531 109.4349098  28.1471419  87.3946571 108.0732155  27.6621079
  55.0156546   5.1879101  14.8376489  55.7546806   5.6422215  14.4330859
  55.4132843   4.4548588  15.3075087  46.7657852 105.2881241  44.7615814
  46.4188433 104.9379826  45.5821085  46.9495153 106.2079525  44.9523783
  31.1627579 138.6308002  60.0734329  30.2863765 138.4427643  59.7375298
  31.0953903 139.5134354  60.4376364  52.9343843  87.6785469  44.7995615
  53.0217791  87.4972916  45.7353687  51.9972277  87.8243923  44.6703434
  48.0242777  84.5097065 103.5864290  47.2111320  85.0145721 103.5746928
  48.4001684  84.6407795 102.7159359  36.8118548  77.9444647  49.2766237
  37.5466561  78.3510637  48.8173008  37.0046759  78.0801535  50.2043295
  55.9441614  70.5313110  28.5457706  56.8794537  70.5661058  28.7464046
  55.5987215  69.8567057  29.1304159  64.1486311  92.5827408  32.5392962
  63.8916445  93.2928848  33.1274104  64.6447611  93.0150890  31.8441987
  66.5436411 126.1690235  53.1591320  66.3813829 125.2263451  53.1947660
  67.3099089 126.2589169  52.5925779  65.6152773 100.5937862  48.9122725
  66.0948658 100.4168797  49.7215509  65.5318213  99.7381401  48.4913969
  52.4851036  87.8359604  47.9308558  51.5438509  87.6867771  47.8413105
  52.5548697  88.7271595  48.2730865  82.8160191 142.3325062   6.2620032
  82.6868629 142.9029846   7.0196968  83.1265354 141.5069771   6.6339129
  61.9040394 136.9722462  21.2234187  61.3360548 137.5771809  21.7005730
  62.4195814 136.5401745  21.9044161  95.5164623 116.5125656  25.9413695
  95.6908321 116.5495586  26.8818259  95.2639103 115.6034660  25.7801747
  43.8502598 122.8267097  14.5262730  44.2250109 122.3258209  13.8017654
  42.9226398 122.5905800  14.5261407  49.2197609 114.2206001 104.3528869
  48.3105993 114.4768333 104.5078214  49.6467304 115.0227451 104.0520581
  42.1410227  88.1601906  22.3260975  42.1924448  87.5391102  21.5995669
  42.4691629  88.9823914  21.9620204 105.0626945 100.3480244  24.0585852
 104.9148464  99.5763206  23.5119152 104.1868591 100.6994152  24.2187929
  63.9765263 119.4591331  14.6480930  63.1244135 119.1902828  14.3048000
  64.5864773 119.2978096  13.9282560  46.9922638   0.0783806  49.0610170
  46.3635397  -0.4818649  49.5160627  47.1496153   0.8028298  49.6665287
  88.4443951   2.8005295  20.6454945  88.8625240   2.7407723  19.7865272
  89.0953255   2.4502545  21.2536287  35.0165558 120.2218151   4.7495717
  35.9068871 119.8737049   4.7981578  34.4575500 119.4456482   4.7134048
  89.2401886 112.9601955  16.0797286  89.6621513 112.1170330  15.9146595
  88.6569214 113.0867100  15.3313804  76.7706680  82.9406643  42.0757246
  77.7169752  82.8001213  42.0443678  76.5884018  83.1397629  42.9940748
  53.2686043 122.2665787  13.3533871  52.6338625 122.8059673  13.8249755
  54.1131163 122.6812935  13.5295868  64.7421360  78.5196257  31.9565630
  65.3052139  78.3352566  31.2047768  64.1079903  79.1579437  31.6300035
  13.9761209 101.5039253  16.1391127  14.6363533 102.1303177  15.8425343
  14.4638300 100.8765030  16.6726971  35.0290561 113.1664753  34.2021728
  34.7740340 113.9145660  33.6622095  34.2008400 112.7509403  34.4422245
  53.8279963  80.9253120  30.6376505  53.9542389  81.0872459  31.5725684
  54.6348524  81.2389183  30.2291632  45.0118351  91.1632633  28.2397246
  45.0408363  92.0457172  27.8700519  45.3975248  91.2557316  29.1108894
  54.8412609  87.4242592  25.8625841  54.3786573  86.8705368  25.2336049
  54.2491961  88.1609917  26.0139441  75.3134394  72.6347589  38.7599373
  74.7664547  73.3911037  38.5478520  75.0032663  71.9433498  38.1751466
  66.7745638 102.5855064   7.2867566  65.9183121 102.9942989   7.1604490
  66.7233038 101.7655373   6.7955709  48.4645319 114.5897198  19.9398041
  48.6090279 115.5100632  19.7199917  47.6883602 114.3424320  19.4371712
  36.7693186  68.4473753  47.5609303  37.3711324  69.1907454  47.5228786
  36.6031933  68.3212805  48.4951305  41.5108347 109.3672180  25.3368759
  41.1940098 109.0085793  24.5078754  42.3993731 109.6666336  25.1443195
  25.9683490  93.7605762  56.7842865  25.7521009  92.8289413  56.7452955
  26.7111945  93.8090515  57.3860025  53.7756538  71.9769764   9.9506891
  53.7037086  71.5232372   9.1109395  53.5338831  72.8822851   9.7552520
  60.1574087 109.3727779  44.6674967  59.7851467 109.8101044  43.9017248
  61.0895014 109.2895317  44.4662285  86.2544250 101.1232376  27.4680161
  86.4016533 100.7561016  28.3396578  85.3745174 101.4975643  27.5112915
  48.7655020  97.8486919  33.2415700  49.6820736  97.8168964  32.9674935
  48.5745049  98.7823677  33.3310151  51.3513136 130.3735542   5.4564852
  51.6903543 130.0706768   4.6141410  51.7374086 131.2417984   5.5718619
  50.2542400  66.7481899   4.0350658  51.0202837  67.2233677   3.7131736
  49.7016525  66.6328907   3.2620296  46.3518238 111.8478012  31.3893771
  47.1959972 111.9232273  31.8342519  46.5472555 111.3678837  30.5845666
  79.2469549  88.7601280  13.8195682  78.3242083  89.0115738  13.8588607
  79.2856884  88.0983925  13.1290388  83.6542320 114.6919155  26.3846207
  83.5434532 114.0236950  27.0609641  84.5874786 114.9034691  26.4075089
  92.2980785 107.4062061  10.1954627  92.9300594 106.8415451   9.7504979
  92.5951862 107.4279022  11.1051285  95.7156372 136.8538761   8.2475013
  96.3581467 137.0358372   7.5617206  95.2728367 137.6906204   8.3889747
  49.4107914  91.5905762  64.0222645  48.5972023  91.8553352  64.4514656
  49.1581392  91.4188576  63.1151199  58.1514311 140.1059341  36.4745903
  58.5166597 140.9708691  36.2882376  57.5850248 139.9187565  35.7260060
  51.6189861 107.8265572  10.5498171  51.5052891 106.9714355  10.1349926
  51.5506601 108.4531879   9.8294741  81.8940163  94.1978550  26.8368244
  82.3826790  93.5574245  27.3538351  81.2402153  94.5462799  27.4429321
  63.1433868 113.7183189  56.3135433  63.5749865 113.1136608  55.7099390
  62.4808979 114.1572380  55.7799768  36.1758590 132.6621723  97.6227280
  36.3392353 133.2051277  98.3939203  35.4933381 132.0511246  97.9002460
  71.7867804 119.3141937  40.0773621  72.7011728 119.0854549  40.2440929
  71.3738155 119.2949200  40.9406805  59.6343136  80.3217697  92.3758599
  60.3735876  79.7169685  92.3132750  59.6316195  80.6028652  93.2908531
  67.4807739 107.1190548  30.1837754  68.1251335 106.4249516  30.0450134
  66.6550970 106.6551113  30.3224969  73.8427210 125.0305271  11.5317249
  74.7117043 124.8215485  11.8744051  73.2382679 124.5751286  12.1178019
  55.0948811 108.2775688  15.2723408  55.7646322 108.4959030  14.6242678
  55.5891371 107.9910088  16.0403442  62.8439379 131.7712212  37.9985976
  63.2767534 132.5661469  37.6871514  62.0328236 132.0820141  38.4007549
  75.4795218 106.4202309  17.0680857  75.6249094 106.9829559  17.8286326
  75.7840538 105.5567837  17.3472917  75.0853157 113.0742645  34.0992165
  75.0938702 112.1786785  34.4369960  75.1404190 112.9724121  33.1490469
  47.7485037 118.4160900  26.8407583  48.1715441 118.9772797  27.4906349
  47.0184708 118.9399433  26.5108323  43.8532257   8.2023220  27.0778227
  44.0839624   8.8918190  26.4552593  44.4685936   7.4937611  26.8894124
 110.8454037  87.7024555  12.4249315 110.0734138  88.2652473  12.4844635
 111.5782642  88.3105850  12.3283422  43.6855459 102.0327091  52.8328037
  42.9294968 101.7027378  52.3472786  43.4167147 101.9929790  53.7506199
  66.8624973 117.7396488  15.7145929  65.9569979 117.4363899  15.7804394
  67.3216867 117.2766972  16.4153481  73.6174536  59.8039770  11.8304253
  74.0672350  60.6316042  11.6602457  73.5565948  59.7562218  12.7844942
  68.9164066  86.9435215   1.1672019  68.5344696  87.5265694   0.5111375
  68.8604879  86.0722160   0.7748766  51.7103720  70.5450010  22.0791459
  51.4554882  70.6160069  22.9990506  51.1564541  71.1815929  21.6273069
  68.2658529  89.8875809  40.6832552  68.6831045  90.7407951  40.5642748
  68.9867067  89.2596531  40.6351709  62.7919245  65.0474882 108.3046066
  62.0888519  65.2222681 108.9302053  62.7148294  64.1129208 108.1125919
  61.1073256 112.5482655  52.9136896  60.8387709 111.7175007  52.5213432
  61.8646526 112.8234291  52.3969936  46.9640350 107.6929569  19.9884677
  47.3319530 107.2539520  19.2215633  46.0917902 107.9715252  19.7094929
  60.6167984  77.5704765  33.5948873  61.0092926  77.9829979  32.8254676
  59.6769714  77.5702810  33.4133267  49.7044897  97.3878002  27.7778888
  50.4404163  97.2167015  28.3655739  49.7061396  98.3379936  27.6623487
  38.9469886  95.1003265  35.7536316  39.7632432  95.5270958  36.0140705
  38.5183930  95.7339764  35.1782894  62.0396852  89.2247200  21.1680436
  62.3038483  89.9079800  21.7841697  61.3697767  88.7262249  21.6359711
  94.9173355 113.5737419 105.0269251  94.2173481 113.5502720 104.3744739
  95.7061958 113.3341312 104.5405927  40.9075928  60.3890753 107.8229345
  41.8081760  60.2771235 107.5185488  40.8698082  61.2944365 108.1313451
  45.8029842 116.2964725  16.8081331  46.4694881 115.6247711  16.9524205
  45.2528048 116.2599373  17.5905645  76.1375809 133.8943481  52.5478458
  76.7410469 133.6351299  53.2441711  75.9148407 133.0746937  52.1065044
  66.9235182 109.8664570  55.5236197  67.1225643 110.6737137  55.9979057
  67.2654724 109.1693020  56.0833263  38.5459876  76.2725163   7.8494269
  38.6341953  75.5746460   8.4985995  37.6096773  76.2993765   7.6523668
  47.8891420  83.1080532  22.2986484  48.4067297  82.5938034  22.9182291
  47.1524096  82.5402260  22.0727730  49.1890001 116.4017487  25.5386257
  49.0002823 115.7203102  26.1837959  48.6014795 117.1208382  25.7709360
  60.8023834  82.5915909  17.4932885  61.0644341  83.1433487  16.7563248
  61.6161537  82.1821594  17.7872002  48.5229778  77.7797222  13.2399392
  47.6434851  77.5580740  13.5458696  48.7396955  78.5902119  13.7007833
  71.8565893  95.7757854  25.3699780  71.7216444  94.8928165  25.7140565
  72.6930857  96.0531712  25.7435584  59.1444778 114.8044777  29.9152398
  58.7612438 114.4209099  30.7040596  58.8069010 115.6999683  29.8960400
  51.4270687  65.8374691 104.4326624  51.7295742  66.4375210 105.1143193
  51.7238140  66.2354803 103.6142757  31.0241461  96.0179234  82.6083660
  31.1711001  96.9622231  82.6624489  30.0811815  95.9145546  82.7362919
  65.7784843  96.9586277  29.1329193  65.8259630  97.9098606  29.2285228
  66.6505146  96.7044353  28.8309669  64.8114872 108.5582447  37.7020407
  65.6164217 108.3540726  37.2259903  64.4111443 109.2693329  37.2017241
  61.8464422  83.8513947  51.0362053  62.0121002  83.9516544  51.9736147
  62.1416426  84.6765423  50.6512165  27.4086499 108.6719131  36.7976379
  26.5889144 109.1650009  36.7640424  27.6974177 108.6249352  35.8862448
  49.5639038  80.6776524   0.1640921  49.2382717  80.9818745  -0.6830459
  48.7748766  80.4539871   0.6576914  54.3546057  91.9269848  27.5312781
  55.0454521  92.2800446  26.9706368  53.5768795  92.4358559  27.3023033
  40.1491165  83.6697960  16.1336589  39.9734831  82.7288818  16.1252797
  41.0782385  83.7419701  15.9151316  84.6461487  91.7564869 100.3432872
  84.1347694  91.5662479  99.5568188  84.5773220  90.9614372 100.8718624
  69.9373817  81.1028004  27.1070433  69.0794945  80.8447838  27.4442148
  70.0940514  81.9671917  27.4871850  78.2460356  94.5973969  20.1623893
  79.1678715  94.8096752  20.3086185  77.7709007  95.1584911  20.7752943
  81.1359978  95.1708412  14.3957031  81.3656044  94.5208931  13.7315643
  81.9736958  95.5546093  14.6549511 105.6456184  43.3273029  18.1764817
 106.1706638  42.5476360  17.9957283 105.7420921  43.8680601  17.3925769
  53.0229712 101.2750626  21.1289597  52.6135349 100.5828571  21.6480470
  52.7706146 101.0789204  20.2266979  45.7259893  96.6061878  42.2142839
  46.5945578  96.9719791  42.0469141  45.2172279  97.3426533  42.5534153
  59.3135595  71.5193415  10.4718244  58.7634230  71.1647749  11.1702979
  58.8218975  71.3469505   9.6688396  53.2990646  56.8296957  87.7449616
  53.5412836  55.9771967  87.3832973  54.1132212  57.1742821  88.1118973
  40.8554363  90.2537155  39.4418597  41.1827803  89.8392010  40.2401447
  39.9856448  90.5757046  39.6785331  63.1890011 110.6714153  40.6509113
  64.0859413 110.3504467  40.5575657  62.8921413 110.8173466  39.7526836
  70.4575586  93.2794476  17.4992645  69.9744081  92.6501369  16.9637549
  71.3401604  92.9140663  17.5604570  83.5735226 142.6505661  15.6065643
  83.9504623 142.6142025  16.4856684  83.9005375 143.4718990  15.2395320
  33.6758661  86.9701290  56.3668251  32.8059602  87.2269726  56.0610008
  33.5420203  86.1178017  56.7813873  45.6123018 114.4209194  35.6607246
  45.9422636 114.1609383  34.8006296  44.6784258 114.2128754  35.6318927
  67.7154493 130.6846046  24.5306015  67.5132847 129.8109245  24.8653460
  68.6283779 130.6276894  24.2485380  65.4765987  80.9085655  37.2102499
  65.8860111  81.0295677  36.3535285  66.2022734  80.9618568  37.8321695
  67.3702240  83.6295700   7.3576951  66.7167091  83.4902573   6.6723192
  67.4583960  84.5809937   7.4147409  62.1825504 100.2185440  41.0592604
  62.7696657  99.5328617  41.3776302  61.7035961  99.8084164  40.3390980
 115.3276253 123.2709789  10.3199553 114.9286270 122.5977230  10.8710980
 115.8091068 123.8273621  10.9322047  74.4826126 135.4489231  23.0357122
  74.4197273 135.2177715  22.1089721  73.6716652 135.9229279  23.2198930
  80.9169674 123.6280727   9.3689167  80.2949238 122.9027271   9.4252288
  81.2512207 123.5879326   8.4728754  39.8010802  87.4932766  19.7250128
  40.1094341  86.9627762  18.9903510  40.3447723  88.2805634  19.6967769
  76.2819195 111.7490387  45.6243277  76.1155844 111.3342285  46.4707899
  75.4117584 111.8874454  45.2503109  79.4656038  86.3862896  97.8897318
  79.6266460  85.4534149  98.0312642  79.8999977  86.8185902  98.6250230
  72.6973867 119.8377228  33.4163713  72.1074200 120.5506039  33.1714869
  73.2191706 120.1948071  34.1350245  53.7343931 112.7300930  41.3959789
  53.1319332 113.4556103  41.5599823  53.3440542 112.2559261  40.6617928
  92.8017998 120.7995892  49.6776485  93.1414890 120.2248764  48.9916801
  92.0530987 121.2382412  49.2736053  76.1204052 115.9792614  58.4646320
  75.6787062 115.1301575  58.4766769  76.6512203 115.9618473  57.6682854
  73.8311768  87.8596401   8.6008066  73.3582544  87.2125626   8.0774873
  74.4323063  88.2747936   7.9823220  44.6480608  85.9821987  21.9004297
  44.7816896  85.1892376  22.4196553  43.7345123  85.9330368  21.6189194
  70.5624056 102.5775242 104.5485707  70.0629282 103.2669830 104.9860629
  70.6069756 101.8695164 105.1911964  52.6165581 100.4564953  26.6295075
  52.5326157 101.0614777  25.8924961  51.9758701  99.7686481  26.4489198
  58.1186867 117.2625542  16.2452805  58.8055468 117.9285812  16.2160087
  57.5448847 117.4777603  15.5099785  50.4733515  90.1026535  30.6904459
  49.8958492  90.0610733  29.9282169  51.3492441  89.9497795  30.3359413
  62.4373293 114.8841953   4.6968931  62.1670341 114.2759418   4.0090016
  63.2667398 114.5299339   5.0175238  52.0138597 129.7495842  64.0209103
  51.4110041 129.7139835  64.7635555  51.6858196 130.4682159  63.4803581
  87.8902817 113.8350582   1.1853614  87.9632473 113.6212635   2.1155243
  86.9530201 113.7785339   0.9994156  44.1165209   3.7300282  24.5378041
  43.2149744   3.6540299  24.8503256  44.4138813   2.8252488  24.4420028
  95.1140690  99.1605949  27.5051284  94.8286343 100.0558186  27.6877236
  95.1073265  98.7281799  28.3590603  39.6543765  68.7589979 103.0573686
  39.9993730  69.5336485 103.5013624  40.4318810  68.2932186 102.7495220
  62.7069855 111.5975761  35.4819155  62.8558445 111.7810154  34.5543242
  62.5673008 110.6513786  35.5195427  79.9225712 108.2109261   5.3521335
  79.1941977 108.7547588   5.0522178  80.5140305 108.1671715   4.6008068
  62.2139645  89.6221352  97.6387497  63.0573273  90.0107384  97.8710481
  62.1229601  89.7903347  96.7008480  75.8622360 117.9664803  25.8632755
  76.3751268 117.5281239  26.5422583  76.3558054 118.7627506  25.6668735
  89.9472904  87.0628357  28.6282206  90.5752659  87.0538044  29.3505692
  89.1261578  87.3490810  29.0282726  46.2916231  89.2565155  13.4627664
  45.7502985  88.4676170  13.4918427  47.1913767  88.9299488  13.4687173
  46.1241674  90.9228516   2.3415232  46.0749435  90.7042503   1.4109200
  45.7377481  91.7964268   2.4031141  57.4487114  88.3539391  99.3866404
  58.2683706  88.2503891  98.9032468  57.4495935  87.6333904 100.0167539
  54.0792513  52.4877596  38.2758880  53.4048939  51.9237089  37.8973103
  54.4027185  51.9993830  39.0329146  98.0685043  72.7656841  20.4582477
  98.7386131  72.5773859  21.1153007  97.3018456  72.2722578  20.7498145
  37.8897262  67.6551056  34.7563791  37.4761128  66.9399023  35.2397418
  37.8506947  68.4019804  35.3537798  59.2932558  56.6832781  20.7818270
  58.6761332  56.3257217  21.4202189  59.9241447  55.9780121  20.6375647
  76.4265776 134.6866989  37.4109936  76.4508915 134.7306156  38.3668756
  76.0577154 133.8242817  37.2201562  80.3025818 112.4869823  20.0610471
  80.9851646 113.0787659  19.7446513  80.7808876 111.7378616  20.4163861
  50.7142973  97.1127796  18.3048749  50.2061462  96.8382263  19.0681803
  50.0561476  97.3357964  17.6465929  64.0881586  96.7678356  17.4673367
  63.3299541  96.2156868  17.6583612  64.6141863  96.7371941  18.2664549
  69.6022797 114.4808292 107.0772704  69.6708393 114.9506664 106.2461364
  68.8463402 113.9044857 106.9649502  73.4905577 100.7077789  30.8485913
  73.6725712 101.6225433  30.6333971  73.7208080 100.6291294  31.7743516
  39.6589160  72.4739504   7.8445822  39.9904513  72.4116755   8.7403709
  38.7065983  72.4603128   7.9401594  60.2298641 129.8928356  11.7829847
  59.4193888 130.1485348  12.2234201  60.7517719 130.6948185  11.7572486
  73.6063910 103.3733749  30.1530266  72.7413368 103.7831402  30.1555848
  73.5961342 102.7969837  29.3888950  17.9173791  36.4614439  20.0567961
  17.9367507  36.7218208  20.9776974  18.1076086  37.2670197  19.5760739
  61.6733932 116.4722347  38.1150770  61.5591335 115.5484581  38.3382940
  61.3082123 116.5526676  37.2339368  94.8819637  77.9056549  36.5821290
  95.1827908  78.8129616  36.6323996  94.2642498  77.8982925  35.8509660
  44.9408913  84.8055840  30.8024788  45.7868099  85.2278709  30.6530356
  44.9062824  84.1024780  30.1538920  49.4830656 108.8508892  17.7438116
  49.6768808 108.3587360  16.9460309  49.3920660 108.1815434  18.4219933
  80.8644772 117.9832554  34.0254164  81.7256927 117.8241634  34.4117379
  80.7518101 118.9325523  34.0740728  68.7108755 108.9892960  43.5962629
  68.7669706 109.9257183  43.4059715  69.4865704 108.8056850  44.1261864
  58.8208151 130.1185799  65.8031178  58.7483025 130.5404568  66.6592646
  59.6768284 129.6905327  65.8187628  40.4074383 110.3226852  28.1984186
  41.0358000 110.9422016  28.5693455  40.8811617 109.9015999  27.4811292
 112.3694324  74.7835827   5.4518843 111.5678310  74.7227669   4.9322909
 112.1194649  75.2996111   6.2183475  44.7328424  76.7222452  10.7577503
  44.7193098  76.4403725   9.8430938  45.6615686  76.8361139  10.9595728
  42.0134687 114.7942066 104.5401045  41.3526917 115.4779339 104.4300260
  41.5147686 114.0179729 104.7950607  19.5852983  88.1032562  28.9269567
  20.2798319  88.6391163  29.3099833  18.8194239  88.6772823  28.9140797
  68.5261536 124.3849182  17.0983982  69.0201855 123.6857224  16.6702795
  67.6705790 123.9964867  17.2809923  52.8406143  95.8774185  96.5185651
  53.0507946  96.3865662  95.7357320  53.1189013  94.9864197  96.3066503
  81.0912132 101.1394310  59.5771360  81.1953163 101.8125820  58.9046335
  80.2418804 100.7407951  59.3875408  67.1243477 110.8328056  23.5628939
  67.7635527 110.1236248  23.4942532  66.6733551 110.6694126  24.3912292
  24.2665601 112.0333862  49.1372204  24.5362926 111.2878513  48.6008883
  23.5651636 111.6892719  49.6902704  64.8706722   3.8878041  36.2347937
  64.0166807   3.9468365  36.6630960  65.2040386   3.0255680  36.4830613
  60.8680868  99.7157478  18.2015586  61.7998600  99.5191193  18.1047392
  60.4423332  98.8585186  18.2130229  39.2898750  98.7926197  54.9475718
  38.9779115  99.6563339  54.6775484  38.7366915  98.1770325  54.4666624
  59.9864101  92.8062630  17.8147876  60.5428934  92.3953724  18.4763968
  60.5943012  93.2970238  17.2617507  60.1281929 115.4551220  16.2968647
  59.5237207 116.1137199  16.6390443  60.7751942 115.3393173  16.9927132
  37.9073930  38.0015182  28.8364935  37.0151401  37.6612329  28.9022446
  38.4125137  37.2788072  28.4639716  89.3140793  76.6943169  42.2256184
  88.7226295  77.0472574  41.5608978  90.1306915  77.1777964  42.1006250
  93.9705467  95.1091099  44.3883562  93.7641239  96.0368252  44.5021963
  94.6587467  94.9362850  45.0308132  53.1832743  77.6393080  33.5682440
  53.8393307  77.0560694  33.9498973  52.6349783  77.0654869  33.0331445
  84.4895554  70.3387308  37.7096438  84.4644070  70.7021666  36.8244791
  85.3766823  69.9909353  37.8006434  55.1107359  90.7954979  29.8989916
  55.8050537  91.4389992  30.0406623  54.6641493  91.0953903  29.1072488
  44.4499874  73.8996029  99.5020708  44.3677759  74.4989347  98.7602647
  44.1570807  73.0546045  99.1608854  55.0305748 122.4483967   9.1829044
  54.3433332 123.0865574   8.9913887  55.8357716 122.9651356   9.2124343
  25.2986717  74.3453884  69.0495825  25.9457755  73.7836123  69.4760704
  25.8082128  74.8745251  68.4358931  61.8326759 134.3492031  34.8566580
  62.3777771 134.9370098  35.3797007  61.0091829 134.8237705  34.7432137
  57.0108938 112.3941422  58.1571531  56.0956907 112.6733971  58.1825924
  56.9746399 111.4800167  57.8755426  72.5819635 101.5260696  35.7680225
  72.2392845 102.2479153  35.2410102  71.8139601 101.1701775  36.2149525
  29.1099167  82.8716087  58.7659264  28.9690924  81.9312859  58.6555290
  29.7735810  83.0927372  58.1125641  44.1012764  92.7852631  34.9656367
  44.2350817  92.5673103  35.8880377  44.0532160  91.9375229  34.5237517
  45.5954790  70.8983040  70.2708149  46.3303089  70.2857828  70.2379417
  45.4768181  71.1789370  69.3634033  94.3900108 100.2008533  44.0709686
  95.3210163  99.9849510  44.1242886  94.2762661 100.9244156  44.6872139
  36.7644477  96.4447594   1.1166854  36.0125303  95.8570766   1.0426058
  37.5252986  95.8765411   0.9964060  68.2539034 119.4087410  23.6067748
  68.0455065 118.6759758  23.0272365  68.0514908 119.0849686  24.4845200
  57.5292826  95.0126839  51.4299250  58.1696081  95.5293465  50.9407616
  58.0397081  94.5906448  52.1210003  24.4800878 122.9879761  33.0682492
  23.8811469 122.3132229  33.3879399  24.6373773 123.5482216  33.8282657
  80.2452374 129.8776436  42.7985859  79.7578764 130.0605488  41.9953108
  79.8069572 130.4014969  43.4691954  48.4663296 130.4790878  29.4942260
  48.6040449 129.6923542  30.0217891  48.8993263 130.2883148  28.6621475
  75.2542734 125.7771492   7.9335815  75.0443316 125.5179310   8.8307768
  74.9194336 125.0617027   7.3929870  34.2725134  96.1481476   9.6369988
  33.3356261  96.1105824   9.8295140  34.5274520  95.2345085   9.5085323
  87.1008968 113.8295364  38.8019800  87.3710537 114.7478199  38.8045788
  87.2523499 113.5378647  37.9029703  20.6009245 104.1774273 100.4863056
  20.8850265 103.2938862 100.2520653  19.6623015 104.1848087 100.2987798
  44.8496246 106.4983654  14.3895483  44.6753597 106.1598206  15.2677560
  43.9879227 106.7420578  14.0514457  26.1619234  94.3258381  16.4754450
  26.0245204  94.5074368  17.4051619  26.8785882  94.9072075  16.2212110
  87.8738499  84.0331459  14.8653841  88.0838013  84.1311741  13.9366531
  88.2525730  83.1884003  15.1086938  82.4076080 104.3157959  22.4816132
  81.6798019 104.4100952  23.0961299  83.1808567 104.5698833  22.9853511
  70.6298590 128.7732410  46.7553711  70.7299232 129.4135094  46.0509014
  70.4850388 129.3015099  47.5403547  87.5302696 112.2968102  13.5428381
  87.0105457 113.0159378  13.1837201  86.9895840 111.9388580  14.2469418
  62.8990841  88.6897945  27.2549152  62.7918863  88.4772205  28.1820345
  63.0043459  87.8409863  26.8251824  80.8885384 126.1786079  62.2904205
  80.6071758 126.7837620  62.9766035  81.0317230 125.3492737  62.7464151
  91.3647366 104.0971184 102.0944437  90.4794884 103.7333202 102.0799365
  91.2357616 105.0356770 102.2312107  44.7183990 109.3036079  19.0307271
  45.3235292 109.8567009  18.5366213  43.8579607 109.4989872  18.6596453
  60.8816481 103.6695004  37.9832363  60.1455021 104.0176105  38.4863615
  61.5685940 103.5235596  38.6336470  53.5063267 130.5181217  44.3172693
  54.3271017 130.5178070  43.8247633  53.7777901 130.5197430  45.2351665
  35.4958105 116.5589523  34.9929976  35.0009799 117.2916317  34.6261787
  34.8290300 115.9144115  35.2300787  72.5136614 128.7620068 106.0650989
  73.1297827 128.1107140 105.7297605  73.0581856 129.3745041 106.5596479
  48.6440611  80.8642197  23.7754011  48.6423779  79.9247503  23.9587831
  49.2433977  81.2337494  24.4238400  50.1020432 110.3824806  35.4639101
  49.3207788 110.8909988  35.2464986  50.8264446 110.9990215  35.3573489
  84.5660877  98.6396313   1.2328535  84.5504761  99.4421768   0.7114172
  83.9706802  98.8157082   1.9613588  71.7744732 102.0889378 101.8575474
  71.7087603 101.1438942 101.9946363  71.2775135 102.4710178 102.5809261
  66.7209673 113.7436962  28.2848859  66.3632774 113.5773087  27.4127603
  66.3223171 113.0728722  28.8392448  67.9463148  81.8442535 101.9114920
  68.2566595  81.4599705 102.7313980  68.7350512  81.9381809 101.3773509
  47.4687958 101.6057491  11.3585913  47.3591852 101.4192295  12.2910237
  46.6741419 101.2618828  10.9505224  57.4822426 103.9206600 105.3764778
  57.5255489 102.9981327 105.6280547  57.6837587 103.9234543 104.4407346
  93.6108398  78.5447359  62.7559384  92.7422905  78.9469051  62.7455672
  93.4435749  77.6102781  62.6332768   9.1360354  97.7928638  20.4046178
   8.4154528  97.9449463  21.0160613   8.7404722  97.8925800  19.5386970
  72.7523613  70.5907822 107.7636593  73.0626392  70.2929401 108.6187923
  71.7981720  70.5497551 107.8274875  50.9221411  90.2441502  84.5690378
  50.8189583  91.1870289  84.6978005  51.0806942  90.1465797  83.6301168
  92.7862072 100.1595116   7.0863408  92.1847534 100.9023571   7.1380305
  92.3335457  99.4524002   7.5460345  44.3996382 109.7305012   4.0768921
  44.6226978 110.4960060   4.6064979  43.4467220 109.7661877   3.9937696
  74.3322325  90.1360703   2.5057122  74.2819071  90.1602459   1.5501419
  73.5435057  90.5924511   2.7987188  63.9621115 103.7788582  36.1156893
  64.0228844 104.7134495  35.9179926  63.4821224 103.4081173  35.3751540
  76.9368649  56.7851257 109.7249874  76.8516684  57.1934414 108.8634488
  76.9888210  57.5211239 110.3347752  75.2632666 128.7047100  89.5585903
  74.5540619 129.2677784  89.2484029  75.8253145 129.2870331  90.0697037
  74.5858002  99.2433834 106.6845634  74.7732639 100.0201702 107.2115316
  74.7543907  99.5188427 105.7834908  74.4862366 115.4273415   2.2224455
  74.2387486 116.3497162   2.1576096  73.6803865 114.9808216   2.4821723
  74.4832993  63.6452532 103.6998948  75.1378775  63.2698536 104.2888215
  74.2995548  64.5102787 104.0662315  61.7112160  87.3924923  18.6369228
  61.0676813  87.9522324  18.2024300  62.4544430  87.3695087  18.0341649
  42.3582268  94.1383743  73.6887702  42.4203253  94.9565601  73.1958660
  42.8262758  94.3143654  74.5049771  84.7466183 107.4824047  75.7394274
  84.1890240 107.8649807  76.4168914  84.2784691 107.6494122  74.9213942
  68.2099104  82.1705151   9.3810427  67.9964256  81.2583256   9.1846871
  68.0945539  82.6281071   8.5482538  47.9054260 109.2099285  15.0536060
  48.5092592 109.7020435  15.6098783  48.3230925 108.3556843  14.9438167
  30.4949236 109.7232533  18.0881536  29.6634126 110.0786972  18.4019685
  30.5577850 110.0253010  17.1820378  99.8803043  95.7052612  36.5235806
  99.7100830  94.7670746  36.6075563  99.6672440  96.0653400  37.3845005
  74.7838736  79.9333954 106.0053831  74.7710562  79.0881062 105.5564400
  75.6136417  79.9386072 106.4825504  75.8370447  89.9030972  27.6928258
  76.3856649  90.0388050  26.9202757  75.0762796  90.4657173  27.5481582
  56.8834352 113.2627201  90.9247490  57.0711327 114.1588306  91.2040278
  56.5134811 112.8424168  91.7010935  35.1983118 136.2002563  25.9314919
  34.6052504 135.9401989  25.2265930  34.8818874 135.7235050  26.6988373
  80.7033825  85.6841660  41.6317654  80.4578590  85.5450726  42.5464249
  81.4990139  86.2145329  41.6753387 105.1825523  84.8600388  23.1952453
 104.3763542  84.7826958  22.6850462 105.5459118  85.7085514  22.9418182
  78.3487511  86.1592484  17.5640333  78.8031435  86.9215393  17.9227459
  77.5498533  86.0888195  18.0865610  12.3587680  99.9745941 109.0497395
  12.8427911  99.2147636 109.3731875  12.9559755 100.7114983 109.1783515
  50.8208704 117.0367813  20.9400034  51.3340092 116.2528610  20.7440853
  50.3325939 117.2107410  20.1352930  78.0851126 105.5723858 107.6090974
  77.4190998 105.2694607 108.2262638  78.4316969 104.7704124 107.2180044
  44.2567921 109.1840935  11.3916051  43.7929058 108.6568069  12.0419908
  45.0681210 109.4436359  11.8282008  79.4558764  99.0894604  25.0804329
  79.2392063  98.2201767  24.7433567  80.3706455  99.0193462  25.3534007
 106.1029243  89.6240711  24.9270225 106.5610504  90.2095890  24.3240905
 106.7944431  89.2618561  25.4809475  80.8883762 104.2012024  98.0926140
  81.7388916 104.6398735  98.0719932  80.2518082 104.9076653  97.9833909
  48.3039093  78.1334591  24.3058181  49.0388775  77.5287914  24.4079471
  47.5878954  77.7243900  24.7918487  59.2346478  92.8438663  32.1521926
  59.9273634  92.3902321  32.6323867  59.5818758  93.7236309  32.0049667
  90.4969501 125.4765129  39.3286967  91.2498665 125.7071400  38.7844872
  90.3871059 124.5345497  39.1987967  61.0444975 117.1685886   4.5029539
  61.5579653 116.3866711   4.7058806  61.4035034 117.8462124   5.0758165
  24.3055630 107.5146770   6.8743801  24.9979019 107.4574184   6.2158817
  24.7565174 107.7893066   7.6727849  62.9820919 121.0513210   3.7675858
  62.5106859 121.8365288   4.0458965  62.5441027 120.3340149   4.2257097
 101.4169884  98.3831787  23.7220979 100.5870914  97.9901123  23.9922667
 101.5242004  98.1132030  22.8100419  31.9374990  98.9427471   7.6239395
  31.5201378  99.7844982   7.8069597  32.5658870  98.8269997   8.3366531
  53.8570118 109.1049385  94.2912205  54.7584772 109.3900108  94.1418203
  53.7475157 109.1448879  95.2412983  60.2403212  74.2554617  71.5090903
  60.1659012  75.1749468  71.7645177  60.9815407  74.2342663  70.9038027
  71.1516428 118.0697727  98.2541343  70.3366137 118.1308746  98.7523588
  70.9547424 117.4551105  97.5472673  66.9126034  98.9903355  22.1549582
  67.3068762  98.1650448  22.4372315  67.6469088  99.6024704  22.1068144
  15.8727801 107.3532295   2.5381804  14.9243999 107.3164463   2.6624942
  16.2110293 107.6810646   3.3714551  35.3416324 104.0342999  92.6228365
  36.0824180 104.5641136  92.3282787  34.6050501 104.6450996  92.6473614
  63.5184765 122.6848030   7.6406533  63.0277109 121.9965839   7.1915030
  63.8024998 122.2803879   8.4604168  91.3781548 121.0680008  33.7185144
  91.2452412 121.9212055  33.3054662  92.1150589 120.6840611  33.2433319
 100.3211498  99.9843979  11.1052537 100.9558773  99.8264694  10.4063880
 100.8307362 100.3962898  11.8030381  53.1363201 123.7045765  98.2533082
  53.4085798 123.7227535  99.1707917  53.1484461 122.7767754  98.0182131
  71.7791843  97.8703022   6.4796430  72.5121117  98.2218552   5.9742111
  71.3777447  97.2224712   5.9005111  97.9988003 101.2442684  10.7798564
  98.0086327 100.9021378   9.8859417  98.7542439 100.8346081  11.2014186
  69.8873472 110.1920033  69.1864117  70.6077528 109.9288273  68.6137160
  70.1414490 111.0566330  69.5090302  53.0535078  96.6657639 106.9216608
  52.1766663  96.8416691 107.2628894  53.2903051  97.4627876 106.4474081
  40.4747963  53.4189177  74.2090496  40.9627008  53.3083487  75.0251111
  39.5762897  53.5937023  74.4889911  49.7698069 118.2894230  83.4868988
  49.5854759 118.0932045  82.5683387  50.2139902 117.5073338  83.8144168
  81.3767433  60.8326960  24.1955066  81.9406605  61.5990829  24.2998385
  81.9758224  60.1251602  23.9573359  85.0684071 136.0491562 108.6289270
  84.9884129 135.1087666 108.7886036  85.9236336 136.2816143 108.9905598
  61.7681694  96.8427944 104.1154566  61.7765999  96.3620567 103.2877775
  62.6309967  97.2546196 104.1620400  80.1382828  81.3558388  92.4725803
  80.9614182  81.6885757  92.1148630  80.3727722  80.5197906  92.8754016
  30.1600790 111.9771385  56.0990047  30.7673693 112.4421787  56.6744804
  30.6741095 111.2517071  55.7443905  61.2651110  83.1797504 104.1713991
  61.2870836  83.1225204 105.1266348  61.0847855  82.2853470 103.8819655
  65.0890779  77.1183348   3.8265821  64.6773481  76.3862133   4.2856154
  64.7041464  77.8984022   4.2260212  29.3877864  75.4627943  10.5613613
  28.6222124  75.1820993  10.0600255  29.1075873  76.2686300  10.9953570
  83.6395836  66.9748449  38.4101152  83.8092995  67.2555399  37.5108719
  84.4534492  67.1631432  38.8774419  79.0078688   6.6981011  28.4070492
  78.6592722   7.3053913  29.0596652  79.7440338   7.1663170  28.0132747
  34.4734979 111.5931988  98.1658467  35.0670934 111.8321037  97.4539491
  34.9656558 110.9570026  98.6847612  25.2797627  57.6863241  92.0102128
  24.4063878  57.4380445  92.3132011  25.6559658  58.1775904  92.7405282
  27.3891449 118.8336658  48.4496737  26.6788006 119.0580940  47.8486156
  27.8257298 119.6669960  48.6262941  44.3220949  83.6522102  82.4481639
  43.7235928  84.2102146  82.9448088  43.7486553  83.0728054  81.9464787
  49.7074652  99.7804928  83.6376771  49.7637796 100.7043266  83.8818129
  48.9556932  99.4484711  84.1284188  41.2906313  64.4279766  27.2377753
  40.4111385  64.8031282  27.2823381  41.1743927  63.5996294  26.7724156
  58.7999535  89.3452835  94.7557732  58.6472654  88.9183998  93.9127513
  57.9257250  89.4582653  95.1288565  64.0711737 112.6958275  82.6394423
  63.5100698 111.9248962  82.7234396  63.4608603 113.4304619  82.5757059
  36.4663672  65.4670763  80.9758290  35.7204390  64.8672724  80.9837493
  36.1221766  66.2722445  80.5892166  40.7026100 123.2732010 107.3376674
  41.5416527 123.4390545 107.7674692  40.0515652 123.6492634 107.9300787
 108.7875748  85.4298306  26.0964084 108.4979534  84.9831963  25.3008771
 108.0346203  85.3821278  26.6854954  47.2955132 107.9083443  97.7800556
  47.6512671 107.7481842  96.9059726  46.7053080 107.1713257  97.9371782
  67.2695112 118.2084370  78.8829669  67.3148537 118.3793640  77.9422458
  66.8359137 117.3578072  78.9512118 102.5021458  95.8741760 104.6538755
 102.8708458  95.0718307 104.2843630 101.6640091  95.6024837 105.0279697
  20.9765625  93.5213375 107.3411257  21.2191296  92.6863194 106.9409489
  20.7040715  93.2910538 108.2293554  57.9356432  94.1754246  83.9478525
  58.8581371  94.2843246  84.1788968  57.5217581  94.9936771  84.2224272
  43.1787395  89.9492168   6.4463067  43.3886719  89.5438099   5.6049967
  42.6054430  90.6823349   6.2224811  56.6960478 110.4260826  97.2880300
  56.5144920 109.4894981  97.2100004  57.6237869 110.4717636  97.5192162
  51.4221668 105.6048775  17.7766311  50.5801535 105.7236671  18.2161009
  51.2960386 105.9896564  16.9092941  56.8040228 112.7658844 103.4887102
  56.7157221 113.4661102 102.8420922  57.1963549 113.1917763 104.2508914
  73.8597631 129.5793056  96.1739346  73.2337236 129.7223377  96.8837591
  74.1205931 128.6629105  96.2656470  65.9419250  84.0558147   2.2601336
  66.2413025  84.8890495   2.6238909  65.3990173  83.6745071   2.9501277
  54.1949606 113.6795712  15.6825006  54.2191982 114.2696953  16.4357638
  54.3360329 112.8093433  16.0553598  38.0958128  93.4569073  99.0659031
  38.0704546  94.2153168  98.4824630  38.7548351  93.6818790  99.7226461
  67.2907734 138.1179619  91.9869538  67.5007105 138.9487648  92.4134740
  66.5905714 138.3349514  91.3714310  68.9470577  94.0240955 105.4791453
  68.1061029  93.5698223 105.4276424  69.4708538  93.6387444 104.7767373
  85.5344200  97.9534340 107.6811823  84.7150898  97.8806686 108.1707097
  85.8592510  97.0549202 107.6229725  43.1824112 118.4712887  19.9059522
  42.2953367 118.7535286  19.6830940  43.1021452 118.1006908  20.7848430
  83.9090729 122.8144550   7.8302532  83.5514641 121.9371319   7.9668236
  84.2812061 122.7868748   6.9487852 105.8791733 112.5957584  10.2433908
 105.9255409 112.9399776   9.3514264 105.4813385 111.7306328  10.1458824
  28.9354706 124.9145985  12.3682809  29.0765095 124.3792152  11.5874434
  28.7115383 125.7806492  12.0276320  69.8312378  82.1686459   6.0650653
  69.4446087  83.0214500   5.8663595  69.1236782  81.6758919   6.4807355
  54.7109509 108.6183453  86.2838563  55.2331066 107.9172516  86.6737922
  54.7187042 109.3157482  86.9394478  71.0502481  72.8450155  94.1924020
  71.6309023  72.6663399  93.4527060  70.1855946  72.5662136  93.8909455
  53.7522793 117.5266743 108.0554304  53.0044222 116.9373703 108.1537185
  54.4876003 117.0459366 108.4354623  45.8441162 108.1464672  24.8178077
  46.7260456 108.1980991  24.4493461  45.4716730 109.0158272  24.6703959
  77.7062750 103.5405254  11.8951225  77.5736046 103.0361271  11.0924959
  77.3644686 102.9784775  12.5904691  58.1078386 104.2800617  25.5705118
  57.8288651 105.0424480  26.0776305  57.4258804 103.6265564  25.7257342
  82.0007610  81.0832596  98.7385400  81.9966125  80.6137180  99.5726546
  81.4724541  81.8647575  98.9009770  91.0743999 127.4112415 104.1722622
  90.2560234 126.9509983 104.3584760  91.7574406 126.8305302 104.5076230
  60.2824116 112.8300953  92.3207875  61.0168886 112.4553680  92.8069516
  59.8949242 112.0855141  91.8606981  61.8511486  96.1575890   8.3463806
  62.7875376  96.1076164   8.5385066  61.4247084  95.9183979   9.1692829
  58.4502983  86.0601234  18.2593167  58.6954689  85.3788757  18.8854325
  59.2054749  86.6478634  18.2369375  26.5378070  84.7633362  88.3559617
  26.7611933  85.6739998  88.1635293  27.3801947  84.3398380  88.5210689
  55.2458191 125.9407520   9.7318941  55.2042770 126.2232399  10.6455159
  56.0898495 125.4955101   9.6570039  50.6288433 101.7535114  62.2098780
  50.8678579 100.8294392  62.1378422  50.2812338 101.8425179  63.0972767
  71.7626762 127.4083710  16.7713356  71.6098928 126.8390751  16.0171497
  72.0321369 128.2439518  16.3899958  69.1687965 124.6733856   8.4884518
  69.9384356 124.8714638   7.9549229  68.4295845 124.9903393   7.9694718
  36.3967109  83.0167294  36.6386628  37.2203469  83.3789539  36.9652390
  36.4541650  82.0806122  36.8300319  72.4718904 113.5742092  21.1855936
  72.7433348 114.3598461  20.7109070  72.9530859 112.8618145  20.7646751
  71.2833595  97.9454327  93.7224444  72.0232010  97.3426151  93.7964495
  71.4934635  98.4905148  92.9641792  92.4490356  59.0502596  41.1386490
  91.7173100  59.6223307  41.3700485  93.2235241  59.5078039  41.4658308
  57.7434158  75.5917931  36.8757939  58.3587933  76.2119913  37.2668052
  58.0735493  74.7314024  37.1345925  51.8566227 103.9948273  14.8122489
  51.7990494 103.6870480  13.9077103  52.5185919 104.6858120  14.7884560
  49.3265200 105.3309917  32.4101949  48.8023949 104.6203804  32.7797318
  49.9579668 105.5450344  33.0969930  55.1187801  79.4035006  10.4291964
  54.3560982  79.9405718  10.2144682  55.1310682  79.3765974  11.3859391
  45.6936216  77.3729229  13.3222079  44.9090862  77.4520159  12.7795482
  45.3906345  77.5620270  14.2102802  55.4362583 115.2037907  11.0981154
  55.2478170 115.7716560  10.3509581  55.0855780 114.3500137  10.8445013
  65.4503059  72.8169632  18.4439945  65.7186794  73.6926508  18.7221634
  65.7588768  72.7475691  17.5405562  42.5692606  80.9095669  96.2187585
  43.1814384  81.1359215  95.5185887  43.0825138  80.9941387  97.0222839
  83.5431004 119.8798370 101.7784353  82.6040840 119.9405861 101.6029849
  83.6203957 120.0243473 102.7215018  53.5988712 145.1635075  13.1285560
  53.4881020 144.3587780  12.6222360  54.5469427 145.2646160  13.2132459
  84.8297787 126.2818146 107.9543873  84.3880749 126.1734676 107.1121305
  85.2288914 125.4290867 108.1269773  53.1050920  78.8225603  17.9934967
  53.4441090  78.4721422  18.8172114  52.3740864  79.3827629  18.2543468
  63.1409979  91.1836433  88.1559070  62.3171759  91.2423420  88.6397561
  63.1069613  91.9119930  87.5357660  69.6330070 102.4124813  65.8856066
  69.6598148 103.1310463  65.2537974  70.5469847 102.1455193  65.9836253
  71.8045855 142.8245068   6.3102639  72.3058271 142.1410751   6.7551464
  71.2742424 143.2209492   7.0014900  88.3850384  82.3602486 106.9531982
  89.0787983  82.4835491 107.6010547  88.4799099  81.4505672 106.6708624
  43.6606455 124.6549416  87.7774652  44.0193462 125.1400280  87.0343240
  43.3388996 125.3320503  88.3726462  73.7494183 135.1900005  75.3594431
  74.2385435 134.3690872  75.4149684  74.2447233 135.8012676  75.9046515
  57.8893232 131.4451122  12.7609563  57.4652195 132.1518612  12.2742558
  58.6794424 131.8450546  13.1242669  84.9946690 139.0758705  11.5142584
  84.1932964 138.5602951  11.6048765  85.5577278 138.7703800  12.2255099
  69.6181011  52.3227310   7.2799015  70.3678560  52.7181768   7.7245581
  68.9046717  52.9470730   7.4120063  16.7435575 116.4031124  92.7418097
  17.6415348 116.5539455  93.0369660  16.3112354 117.2505856  92.8472789
  83.2898045 111.6022396  35.5247092  83.8511944 112.0283413  36.1723995
  82.9550362 110.8250999  35.9721637  74.2736197 107.5329494  80.8230170
  73.8680792 108.3165550  81.1941489  74.6540308 107.8289318  79.9960288
  62.8320312 123.2740784  22.1424747  62.7266455 123.4163189  23.0831599
  62.7247334 122.3296356  22.0295429  16.5581214 111.9353676  99.3667360
  15.8998871 111.5254116  98.8055774  16.1685419 111.9234085 100.2409890
  96.4414215 102.2593689   6.1101711  96.0873890 101.6722775   5.4421741
  96.7745113 103.0094719   5.6175947  88.6858940 136.3885498  73.8095331
  88.9286041 136.0611057  74.6756172  89.1597271 135.8241653  73.1986523
  46.5494680  88.1061935  36.2297320  45.6610727  88.4278774  36.3830566
  47.0867443  88.5718155  36.8706417  80.7586765  90.7255077   8.6509091
  80.5932522  91.4683914   8.0703998  79.9363899  90.2355385   8.6531448
  75.5279398  97.6855755  25.4671407  76.0735559  96.9499493  25.1889372
  75.0424576  97.3518276  26.2215638  37.9543662  51.6215277 108.8788623
  38.3472300  52.4852657 108.7529849  37.2569299  51.5779877 108.2247091
  44.2458248 102.1935463  81.2219580  44.5792055 101.3416481  80.9402546
  44.4790840 102.2474861  82.1487340  64.1253233  92.0199299  21.3203645
  64.7223330  91.4656162  20.8178234  63.5814857  92.4475384  20.6588340
  72.5571251  65.0322247  92.4531218  73.2266188  65.4801750  91.9360670
  72.0011282  64.6017551  91.8036624  57.7556705  75.3553963  89.4790634
  57.1270180  76.0736132  89.4070371  57.7631855  75.1362038  90.4107984
  77.4858475 112.8766060  79.2772850  77.0992899 112.5145435  80.0746020
  78.2843399 113.3125973  79.5748576  67.6322603 105.0518227  27.5299263
  66.7532158 105.4296970  27.5568366  68.0581141 105.4883194  26.7921257
 100.9416294  84.0633869 104.0419849 100.4867172  83.7235641 104.8125704
 100.4634380  84.8605442 103.8137051 118.1754303 122.0999908  80.5794772
 118.1799030 121.9378757  81.5228399 117.3992157 122.6406193  80.4330381
  50.4751062 101.7366695  95.3788372  50.5897331 102.6727390  95.5427452
  50.2586079 101.6812420  94.4480928  62.6503420  81.3688183  21.0388446
  61.9038057  81.6498661  21.5679264  63.3599329  81.2495613  21.6701078
   3.8203713   8.2633190  86.9587859   3.8384411   8.9492112  86.2913545
   2.8973743   8.1894474  87.2013792  58.5456562 103.7221622 102.7403083
  57.9961109 104.5048141 102.7814337  59.3353271 104.0078449 102.2809180
  76.1327648  98.7118435  33.2801294  76.4710331  98.8714981  32.3990393
  75.5349350  99.4414425  33.4430099  65.3295803  59.0455055  40.2075958
  65.8330631  59.7254229  40.6553078  64.7029686  59.5276260  39.6680164
  64.8694515 105.7753468  30.3569102  65.1876402 104.9959755  30.8125019
  63.9271116 105.6328011  30.2679801  46.7846060 113.3705425   3.4752670
  47.7241516 113.3941555   3.6567408  46.6994286 112.7754784   2.7303624
  41.0096407  92.9781437  84.6388444  40.7136869  92.0838928  84.4686660
  41.4638281  93.2367992  83.8369449  50.8730459  94.4262981 108.4629496
  51.1469460  95.2878571 108.7774649  51.1480761  94.4073868 107.5463089
  70.1439476  88.1380463  40.3289509  70.9560680  88.2258129  39.8299551
  70.4310513  87.9522228  41.2229729  58.4274101 114.7885036   0.3150810
  58.7683821 115.2925873   1.0539122  57.7189064 114.2647171   0.6891175
  53.8911104 131.9565296   0.8224840  54.0484047 131.5822792   1.6893321
  53.1873417 132.5906944   0.9595050  89.9351597  81.3019657 103.1974938
  89.3286324  80.8609772 102.6026132  89.4743252  82.0979023 103.4627201
  76.0057878  71.5196419  15.3674352  75.8247375  72.4399137  15.5586290
  75.1783466  71.1781836  15.0283515  47.7720404 105.6084251  14.5501709
  47.8755426 105.9320927  13.6553204  46.8807077 105.8583450  14.7936761
  76.7920256 114.7714710  95.5335673  76.7817402 114.6618080  96.4844080
  76.6133642 115.7020092  95.3978440  16.6982996  75.7042313 107.3154277
  16.2138784  76.4039850 107.7535044  17.3252213  75.3998232 107.9715798
  29.9276257  95.3142834 103.8564422  29.5536137  94.8317051 104.5936402
  30.1683378  94.6370602 103.2242545  71.1329508 115.2958393   9.3543142
  70.5019474 115.7186508   8.7718236  70.6608725 115.1862717  10.1797628
  28.1497645  99.2101479   8.4495682  28.5646439 100.0430584   8.2251185
  27.3170638  99.2225075   7.9776663  63.9647102  98.0969620  99.6265634
  64.9007130  98.0232239  99.4403168  63.9173889  98.6671257 100.3939661
  49.3842649 107.8069973   8.0559093  49.8503494 108.5945988   7.7754086
  50.0732946 107.2169781   8.3614331  50.9562016  98.8378334 107.6798128
  50.7710314  98.6476517 106.7601516  51.3912344  99.6903324 107.6652204
  54.3340302 114.6539402 102.9912206  53.9412546 114.9798203 103.8010129
  53.7645483 113.9332485 102.7219125  37.3299599 101.8014336   3.3729511
  37.0416355 102.6865005   3.5960126  38.1574917 101.6938114   3.8418239
  77.7480125 111.8896961   4.4001740  76.9847870 112.4630356   4.3294314
  78.4474707 112.3657131   3.9525208  55.1551771  95.5625916 105.9766724
  54.3054485  95.8903694 106.2712085  55.7593727  95.7962418 106.6813650
  43.6062527 116.4320660  88.5823163  44.5599508 116.3514805  88.5683116
  43.3186197 115.7647514  89.2053565  78.8056612 108.4202957  95.9046289
  77.9504347 108.7547016  95.6344505  78.9189196 108.7458420  96.7976149
  72.9989052  77.2569895  10.1206505  72.6197481  77.6037502  10.9282613
  72.2819948  77.2874498   9.4871289  49.0151167 101.4116478   8.3922875
  48.4390831 100.9861374   9.0273875  49.3000078 100.7032204   7.8150529
  66.8116808  94.7374821 101.5811634  66.2545443  94.8350716 102.3533726
  66.2148762  94.4506454 100.8899498  88.2241344  69.2239761  98.9952850
  88.1282806  68.2795143  99.1178894  89.1607666  69.3862438  99.1076279
  54.7184515  62.6069832 105.4036999  54.6085691  63.2964945 104.7489166
  54.1213274  62.8509283 106.1109257  91.1570358 113.7990570  77.6686239
  90.4014778 113.4897137  77.1689510  91.9021797 113.6669445  77.0825005
  31.2601781  81.4033604  97.5800610  30.3552246  81.5640068  97.3126888
  31.4368391  80.5052662  97.2999763  45.4199362  59.5168591  98.3205414
  45.0013781  58.6943388  98.0665684  46.1787844  59.2493391  98.8390160
  53.9825058 104.2758369  80.6383610  54.8347187 103.8820648  80.8251953
  53.8537693 104.9128819  81.3410950  53.6130619  98.8972282  12.6037065
  53.0904913  99.3833637  13.2415239  53.3235455  97.9898167  12.6986734
  22.3122811  80.6852341  28.5480157  23.1983280  80.7332611  28.9069692
  21.8136978  80.1994610  29.2050306  38.4239435  68.2948971 105.3697681
  37.9032683  67.4918270 105.3842258  38.7290788  68.3662558 104.4653130
  54.9636221 109.5230198 104.8099995  54.0304136 109.3109703 104.7901917
  54.9986076 110.4654884 104.6464539  56.7557335 105.2834606  67.8744698
  57.6161146 105.0734615  67.5113297  56.1871672 105.3690624  67.1092033
  47.1322823 107.7902985  87.3752785  47.6808643 108.0960369  86.6529083
  46.6193485 108.5579205  87.6280117  32.2112489  77.7673626  13.7352220
  32.7106500  78.5675621  13.8980619  31.3993502  78.0702925  13.3286706
  53.9866829 101.6460800  73.3132887  53.7179136 100.8495617  73.7710714
  53.4520197 101.6580582  72.5194263  57.6902676 111.3153744  85.4579639
  58.0411243 111.2150478  86.3428688  57.7075577 112.2591305  85.2990341
  48.7476301  38.6449885 109.4543362  48.4614897  39.3443084 108.8667011
  49.1516161  39.1022062 110.1918793  48.4238100  96.3036633  81.2002945
  48.0128098  96.9064617  81.8199253  49.1726398  96.7893600  80.8544922
  52.6148748 132.4822044  84.2215729  52.9608297 133.3006668  84.5774841
  51.6699457 132.5400162  84.3629837  83.4037495  92.5195694   1.3838903
  83.4019756  91.7006683   1.8795053  82.5382614  92.5548935   0.9765664
  27.6132631  61.0952663  26.9732610  26.8926787  61.7050409  27.1319047
  27.9358506  60.8732510  27.8466932  47.5015306 120.2956295 106.2150955
  47.6942110 119.3771648 106.4035797  48.3420849 120.6664371 105.9463978
  36.2270761  80.2940083 103.2980251  35.4705834  80.6218910 102.8117752
  36.6927433  81.0824966 103.5767174  92.2487354  78.9619398 101.9520283
  92.2072792  78.1557274 101.4377022  91.3721848  79.0530157 102.3256779
 102.6845360  81.8235588 100.2015018 102.3376274  81.0443306  99.7671223
 103.2498169  81.4803505 100.8935165  78.4154272 101.6696548 106.8440151
  77.5220490 101.9477463 106.6420937  78.9299107 102.4762821 106.8140602
  35.8802176 113.1485844  95.9060001  35.7236648 113.3023930  94.9742985
  36.5840793 113.7558746  96.1340523  77.8214502 110.5610561  87.4618149
  77.3565531 111.2202358  87.9771519  78.5590792 110.3017807  88.0140018
  90.8873558  76.8055773  81.2298012  90.5102348  77.6403856  80.9521198
  91.3660431  77.0140553  82.0320702  56.2642002  76.8660450  75.3725052
  55.3234243  76.8428755  75.1974678  56.3327980  77.1895742  76.2707567
  62.9482317  66.8866968  74.5006371  63.4143782  66.9075632  73.6648703
  63.3781052  67.5572777  75.0314522  89.7023773  72.4650812  94.7600555
  90.6067181  72.3348475  95.0454521  89.1727161  72.1749353  95.5026817
  52.6796770  64.7553444  98.4470844  53.5986805  65.0036907  98.5470200
  52.2585106  65.5357313  98.0867386  85.6733131  59.0265083  85.8544636
  85.1906872  59.8380566  86.0116196  86.4587688  59.1063023  86.3956833
  38.7508702  68.3478451  87.9641819  38.0416012  68.9905214  87.9758644
  38.4646416  67.6642179  88.5699463  67.1373796  95.1178455  93.7001896
  67.2644520  96.0651875  93.7514591  67.3082018  94.8048496  94.5884895
  38.6227107  59.1692448  17.8284398  38.0195427  59.9052858  17.7251760
  38.8792586  59.1973162  18.7501851  57.0574331  92.7683353 102.5475979
  56.7829609  93.3287239 101.8217468  56.5463734  93.0776596 103.2955074
  12.6149213  72.8133535  83.6316299  12.5741494  72.9786730  82.6896954
  13.3233202  73.3766556  83.9432240  81.2744141  61.7827892  93.6690521
  81.4215755  62.6768684  93.9775848  81.3587666  61.2415934  94.4540501
  72.7962828  97.5338936  98.8043118  72.7733564  96.6954422  98.3431149
  71.9626379  97.9503918  98.5856724  54.0780783 107.4032974  78.3504343
  54.3647385 108.1041050  78.9360285  53.5659504 107.8493023  77.6758718
  76.6770172  85.1736641  93.3188534  77.2290421  85.8968258  93.6163998
  77.2891569  84.4556236  93.1578064  88.9821339 110.1120663   0.9444181
  88.3835602 109.8495960   1.6437379  89.7368145 110.4829502   1.4017240
  60.9950399  49.4676065   4.8056833  60.4974413  50.2467394   4.5575277
  61.4710951  49.2244864   4.0116540  65.1814842 107.8020477  77.0088530
  65.5907011 107.1636963  77.5930452  65.3318501 107.4534416  76.1301613
  71.0886049 121.7518902   7.1892301  70.2279902 121.9014263   7.5806562
  71.4488363 121.0120487   7.6782171  90.9919548  98.0083561   4.4386522
  90.4313946  98.6920834   4.0718786  90.4971218  97.6669121   5.1835004
  73.2919550  77.0117235  21.9072191  73.5926580  77.5300503  22.6536409
  73.2055950  76.1229706  22.2520391  74.0268660  89.6967506 100.5106068
  74.0629482  90.6200218 100.2605915  73.9202356  89.2284012  99.6826458
  67.9316282  65.1926708 103.9891720  67.5571632  65.8255529 104.6019268
  67.2050333  64.9603128 103.4109783 102.7177143 125.5841446  93.7027836
 103.1722927 126.2480164  93.1842613 101.8000984 125.6636238  93.4422398
  67.2646999 109.1190529  66.1168385  67.3426819 108.5863209  66.9082642
  66.3231277 109.1649342  65.9508181  43.3479404  80.6039238  98.8077927
  42.6441574  80.2688789  99.3633652  43.7861872  79.8197079  98.4773731
  13.0023420  96.9450092  71.0970783  13.7776184  97.3194695  71.5153503
  13.3513451  96.3822746  70.4058743  83.7002468  91.3148594 106.3199806
  82.8419876  91.0790443 106.6721249  83.8501549  90.6865788 105.6135654
  79.8285532  86.8179512  90.5234528  80.0143719  86.1860561  91.2180138
  79.1954041  87.4216175  90.9119606  87.2178555   3.8959866 103.0859756
  86.9341850   3.5854512 103.9458179  88.0839539   3.5069256 102.9645729
  71.7449856  96.5422058 103.3868885  71.3762903  95.6626987 103.3046436
  72.4772692  96.5535355 102.7705574  52.0509911  38.1096792 109.6153641
  51.8916178  37.5534797 108.8528252  51.8610001  37.5470638 110.3660965
  66.9316149  72.5034189  79.8342943  67.0330763  71.7326927  80.3927898
  66.6364145  73.1929445  80.4289722  76.2180758  52.7102804   9.9457113
  76.1988926  53.4630728   9.3548051  75.4039431  52.2413206   9.7626821
  59.3945169  63.1328344  94.2784882  59.1174364  63.3261061  95.1740837
  58.8373852  63.6858892  93.7307930  54.7724676  85.8272743  90.5075836
  54.1273165  85.1764297  90.7839966  54.3139791  86.6644573  90.5792999
 104.2273903  64.4832277  13.2951967 104.3098736  63.6429167  13.7460843
 105.1281452  64.7918558  13.1971303  47.4674082  65.2819777   0.3964559
  46.7146921  65.8709621   0.3440419  47.0879364  64.4251204   0.5914728
  79.3152618  98.2885170  11.9492284  79.1753960  98.4830570  11.0224954
  79.1269684  99.1127396  12.3980466  51.5300560  62.1454000  74.3043089
  51.0266781  61.5506935  73.7482834  50.8833504  62.7684259  74.6357346
  54.2920637 119.1069126   5.7556573  54.4187832 120.0179005   5.4905645
  54.7667742 118.5979843   5.0984899  71.6627598  94.5920658  19.8175756
  70.9704733  95.0592613  19.3499128  71.8560553  93.8347054  19.2650644
  52.0740938 101.3702869 107.7338505  52.8777981 100.8540535 107.7954197
  52.3554087 102.2086811 107.3675156  53.4974957  93.4791946  72.4324083
  53.4100199  93.0492210  71.5817022  53.5652399  92.7587986  73.0590439
  70.5759048  61.2587833  85.4254723  70.4082489  61.4192629  86.3541126
  69.8030329  60.7829952  85.1212883  43.6464167 105.4760170  10.6001417
  43.2832956 104.9856949   9.8625985  44.5440960 105.6768894  10.3354780
  80.9212589  29.8987937  95.0159454  80.2057171  29.8660707  94.3809986
  80.6737900  30.5990338  95.6198120  21.8670249  57.2371244  10.5862085
  22.1514440  56.5198231  10.0198022  22.6603723  57.7502871  10.7394735
  41.7862272  67.1501446  83.8392448  41.0880232  67.5732708  84.3389511
  41.6379595  66.2131310  83.9667130  41.6486740  63.4914112  81.6932106
  42.2645760  63.8905954  81.0787582  40.7861233  63.6750174  81.3210201
  50.0491190  68.0442190  99.8086166  50.9199667  68.4408903  99.8310375
  49.8974800  67.8514576  98.8833714  41.3229418 118.5953331  64.0173864
  41.8250513 118.5100842  63.2069206  41.8455696 119.1838264  64.5621490
  40.1490021  88.7608624  51.7426825  40.0529957  88.4955311  50.8280182
  39.2546058  88.7738609  52.0834398  72.0514441  69.2554474  70.6923389
  72.9654121  68.9833307  70.7751036  71.9929647  69.6348429  69.8154879
 109.5454311  86.2605762 105.1460171 108.6690044  86.6416168 105.2000809
 109.4910526  85.6365395 104.4222355  61.9456291  82.3458099  90.9323788
  61.0042143  82.5132561  90.8884048  62.0949364  82.0520687  91.8310738
  69.1083193  48.0267382  97.3085976  69.8355103  48.2558727  97.8873158
  69.5279026  47.7625370  96.4898300  42.9834032 126.6145802  89.3933392
  42.2762632 127.1072674  88.9768600  43.6952639 127.2479725  89.4844341
 101.4449310  73.8337898 109.0512848 101.6142082  74.5022058 108.3873558
 100.7052898  74.1764784 109.5530128  58.7565899  54.4605970  95.8379269
  59.3563986  55.2065229  95.8304119  57.9355669  54.8168612  96.1773872
  71.9287395  86.6229153  98.8380241  71.2171268  87.0144558  98.3315277
  72.7154970  86.8004608  98.3225441  79.1121387  80.9618759  81.2585068
  79.0311527  81.2816906  82.1570587  79.4098568  80.0570011  81.3522530
  83.9006233 114.4266510  90.8955765  84.1403484 115.3526974  90.9302711
  84.7325897 113.9605999  90.9784031  93.2430267 103.0732346 107.3720932
  93.8929844 103.7418652 107.5882530  92.5497723 103.5513496 106.9170856
 109.0675259 110.1870537   0.6195871 109.7003365 109.5796871   0.2363244
 108.2810402 109.6588612   0.7562391  87.4304199  63.6862993  82.4027443
  86.8164349  63.2096052  82.9613304  88.2739067  63.2605839  82.5561428
  75.4034090  74.2364025  90.2391529  74.7502661  74.2630005  90.9383869
  76.0190344  74.9353886  90.4597378  68.1721878 101.8057442  62.7103710
  68.6067104 102.5808811  63.0661678  68.8878679 101.2079716  62.4942875
  30.5686021  70.0002003  84.3220139  29.7985053  70.1398802  83.7709522
  30.6365395  70.7986832  84.8455048  75.0878286  88.3085918  88.9752293
  74.8158789  89.1190910  89.4057751  74.8881626  87.6211739  89.6107006
  94.6054554  34.7716284  99.5216942  94.9106312  34.1783595 100.2080822
  94.2423725  35.5197453  99.9957371  66.1265182 100.3507519  85.7419491
  66.2682772 100.6894875  84.8579884  66.9775248 100.4382706  86.1713219
  84.0238476 100.5367851 108.8734341  83.4421539 100.0324059 108.3046818
  84.6015835 101.0048008 108.2705975  28.3141351 102.4676704  75.2832747
  27.7623320 101.7096138  75.0906420  27.9947901 102.7882099  76.1267805
  47.6520681  55.7380533  18.9982549  46.9595861  55.1153898  19.2195932
  47.9596710  56.0647058  19.8437826  41.3166523  75.4255772  24.5917074
  41.7240524  76.1871004  24.1789857  40.5558014  75.2343369  24.0432874
  70.4995060 111.8310070   7.4277726  71.2604046 112.4036694   7.3312513
  69.9475384 112.0369053   6.6733400  37.5634599  48.6380577  92.9056835
  37.9199076  49.5087290  92.7293205  37.2362638  48.3369875  92.0580196
  24.5679259  62.4704790  69.3063593  24.8131394  63.0752897  70.0065804
  24.8225808  61.6081381  69.6346045  52.1346188  90.0851536  99.8839092
  51.7584991  89.7084332  99.0883923  52.8798437  90.6007385  99.5755959
  32.0349264  96.7611885 101.3666058  32.7659464  97.2283936 100.9621811
  31.7778325  97.3124886 102.1056557  59.6955395  99.5361328   5.6007234
  59.8095894 100.0900555   4.8284570  60.5308485  99.5964813   6.0642377
  80.8513641  82.7596855 105.6421375  81.1699390  82.0708942 105.0587749
  79.9893999  82.4543190 105.9249687  88.4292221  77.9600716  99.3914604
  89.2986965  77.9205418  98.9931011  88.0782795  77.0754671  99.2887783
  85.4617786  81.0383034  86.9429684  85.1891041  81.4779568  86.1376190
  85.8759689  80.2283478  86.6452408  52.8136873  97.6315403  94.5077038
  52.6420736  98.2456589  95.2215958  52.1090031  97.7911377  93.8798618
  76.6088057  92.6558208  77.5647306  77.1206331  92.0518017  78.1027174
  75.7509327  92.2385311  77.4862432 104.6004105  46.5255117 100.9945202
 105.2443218  46.4443350 100.2909374 104.6288681  45.6808186 101.4438725
  65.9925747  72.0023918  94.2983246  65.4345036  72.1611357  95.0596333
  65.5785036  72.4963331  93.5906601  90.5855274  71.0590315  64.2403698
  89.8017883  71.5832615  64.4051933  90.3214359  70.1622438  64.4459438
  21.7066598  63.1900549 106.3844967  21.4435101  62.2726250 106.4573479
  22.6385975  63.1555080 106.1687946  51.0978270 101.1405468   5.4036466
  50.9800816 101.4232254   4.4967500  51.2334347 101.9525814   5.8919469
  47.6677418  69.2591190  70.5818510  47.4764585  69.0456486  71.4951229
  48.6003351  69.4746876  70.5765343  55.1959133 101.7293835   7.6974336
  54.3935490 101.7023849   7.1761648  55.5811214 102.5831413   7.5000993
  90.1957035  63.9620829  86.1582470  90.6332302  63.4349012  86.8267441
  90.7702541  64.7177029  86.0351467  52.2348785   8.3859520  16.2931291
  52.1511316   8.9103775  17.0894948  51.3343382   8.1632881  16.0571805
  49.4217634  84.2571449 101.4408112  49.9421692  84.9627876 101.0567856
  49.0461349  83.7998390 100.6884861  52.4534464  67.5360203  14.7146932
  52.0066500  67.3645067  13.8857213  53.3832073  67.4342680  14.5111791
  49.1175795 105.5974674  98.4455109  49.0212965 105.5813217  97.4933052
  49.1806078 104.6756554  98.6955357  25.3234458  58.8970613 106.4327335
  26.0513830  59.4880533 106.6252708  24.6290326  59.4702578 106.1079788
  56.1067533  48.3513546 101.6159439  56.9753170  48.0607080 101.3378239
  56.2593603  49.2015839 102.0283318  69.2101097  68.4317303  24.1599122
  68.6126137  68.4727240  23.4132234  68.8399458  69.0430307  24.7967187
  56.7491579  62.1206713  80.2800083  56.1754036  61.3654232  80.4089928
  57.1854687  61.9501925  79.4452572  82.6186943 102.6958370 109.8753643
  82.8536415 103.2589340 109.1378307  83.1306267 101.8983746 109.7404385
  63.0269384  73.3435297  65.3981590  62.5077248  73.8208246  66.0453367
  63.9144373  73.3424330  65.7567406  42.9110336  83.4828758  15.0497667
  43.1157684  82.6181030  15.4054109  43.5823536  84.0579414  15.4169980
  70.5196619  66.7342997  83.0432224  71.4274931  66.4595127  82.9145336
  70.1739883  66.1222982  83.6929893   8.2730728  72.3111868   0.7286016
   8.6857754  71.6023636   1.2220422   8.6389405  73.1108379   1.1066667
  79.2525387  87.8754616   9.0796129  78.8370085  87.4237156   8.3451024
  78.8216782  88.7296581   9.1101304  41.3719988  97.3936462   5.5637685
  41.9428062  98.0622101   5.9424917  40.7034826  97.2429371   6.2320558
  57.9115677 101.3173580 106.0820675  58.3750200 101.0680389 106.8816280
  57.4733400 100.5147934 105.7990932  70.0861168  85.1010323   6.2401716
  69.3887520  85.6475735   6.6024057  70.0049210  85.2062130   5.2922384
  59.3363905  50.5055618  77.0252371  58.7166452  51.1266804  76.6426754
  59.2189121  49.7046137  76.5144396  15.0811744  60.8012152  79.5296097
  15.5574548  60.5599737  80.3240871  15.3325510  61.7102814  79.3663788
  44.5547628  73.5991716  90.5098057  44.2697668  73.7226439  89.6043968
  45.4489946  73.9401197  90.5280399  59.4372416 104.1448402  15.4653493
  60.1770210 103.5554123  15.6120817  59.2458677 104.5087814  16.3297311
  71.5064621  84.9395657  71.8798876  72.1209049  85.1385117  71.1734104
  71.9753885  84.3186378  72.4373817  51.1422873  46.0142374  -0.0908049
  50.7260799  45.7675314   0.7351152  51.6644812  45.2496576  -0.3336295
  26.6838527 101.7180252  14.2133466  26.1493111 102.1029854  14.9078313
  26.3771701 100.8136082  14.1485063  59.2206240  57.1767950   7.2693101
  59.5214319  56.5815449   7.9559175  58.7643194  57.8742743   7.7399961
  46.9367361 100.7928944 104.3751431  47.7078390 101.3112831 104.6051407
  46.3516474 100.8874702 105.1267815  75.0728226  80.6835365  95.9977341
  75.3686666  81.3202381  95.3471088  75.5968809  80.8747959  96.7755604
  28.7444305  89.4608307  90.9288788  29.1197896  89.2224503  91.7765331
  27.9950380  88.8743877  90.8253384  70.2987242  72.7892208  98.5615349
  70.6227255  73.2181454  99.3535423  70.6203604  71.8900871  98.6274242
  48.4795952  83.4476185   9.3283120  49.1585636  83.2750320   8.6760465
  48.2123661  82.5798225   9.6312276 119.9125004  78.2394028  78.6570740
 120.3374481  78.0197668  79.4861746 119.1701031  78.7895918  78.9068174
  71.2638712  66.0025406  94.8202801  70.8791876  65.1403856  94.9782085
  71.5493059  65.9738207  93.9070797  72.1106148  77.5287151  95.8991241
  71.5005255  76.9986677  96.4120293  72.9707527  77.3284674  96.2683010
  33.3608174  76.7613935  58.1209183  33.6845851  77.0309544  58.9804173
  34.0200996  77.0817900  57.5053501  85.1824665  67.2125959  66.7189503
  85.5758953  66.4599562  67.1605110  84.4278812  67.4411869  67.2617006
 107.3223209  91.2934303 106.3547325 107.5440311  92.1349525 106.7533875
 106.5063953  91.0333729 106.7823696  81.7526054 105.2246380  86.4245796
  81.3588905 106.0002136  86.8242168  82.1096706 104.7301674  87.1623039
  50.1494265 119.0027142   4.0218870  50.3362656 118.0644131   3.9917413
  49.4137669 119.1198730   3.4207956  72.5655651  73.1151581   1.8659154
  72.3065758  72.5826168   2.6179544  72.9740047  72.4946260   1.2623063
  27.4143386  40.8702230 100.6626415  28.1907439  40.9167385 100.1047325
  26.6798639  40.9967709 100.0619984  65.4561901  96.0081482  15.3162423
  64.9199057  96.2163544  16.0812799  65.4432678  95.0522709  15.2676526
  64.4106054 100.4788017 101.4840794  63.6700106 101.0636806 101.6442966
  64.8373556 100.3936481 102.3366451  39.4778657 106.2448025  85.2927113
  39.5575428 106.2314415  84.3389225  38.9549756 105.4703617  85.5002403
  80.7021046  55.8464050  91.7654324  80.9947300  55.1534843  92.3574352
  79.7733259  55.6636333  91.6233349  26.3762188 105.3351307  38.9474050
  25.6213284 105.9236431  38.9528695  27.0066476 105.7487679  39.5370714
  24.8085189  71.1485100  64.9949694  25.1227593  71.8960285  64.4863462
  24.8642802  71.4380026  65.9056377  61.7687082  76.0179043  85.7336044
  61.2573814  76.6949368  85.2904415  62.5171995  76.4864063  86.1030674
  71.3271141 106.7726326 100.5654335  71.4433241 107.3308945 101.3342381
  71.7524433 105.9482670 100.8015442  43.9375877  93.1037045 104.4252300
  43.9047527  93.7993050 105.0819588  43.8739967  92.2935677 104.9310589
  93.5620499  80.4037857  96.2810802  94.1816902  80.8478546  95.7022285
  92.7013016  80.6255341  95.9258556  78.7558699  98.9547348  83.4218597
  77.9274178  98.4786224  83.4785843  79.3634033  98.4427357  83.9556980
  66.6129971  83.0839252  92.9377842  66.5960407  83.0027580  91.9841862
  67.3241520  83.7001705  93.1131077  89.0130138  80.9819603  82.7599525
  88.6519241  80.3239822  83.3540058  88.5070515  81.7735577  82.9432583
  79.3326616  93.5724449  80.5901623  79.0289068  93.2176399  81.4256668
  80.2218533  93.2313251  80.4941750  67.2943735  73.6654282  20.7896749
  68.2078838  73.6941004  20.5052224  67.0859861  72.7321625  20.8323518
  53.9697123 120.1437187  79.8399353  53.5680676 121.0124493  79.8251057
  54.3100262 120.0523472  80.7299232  40.2571058  92.5505924  91.6246223
  41.1028624  92.9977417  91.5931702  40.4338551  91.6787148  91.2713242
  72.2583055  69.1285563   6.7052022  73.1312752  69.2497969   7.0786420
  71.6697025  69.5529175   7.3294488  55.5845976  81.0646248  81.7694664
  54.9617243  80.5300331  82.2618866  55.4542589  81.9523907  82.1028042
  42.2295809  58.4926701  14.2837659  42.3645926  58.5837650  13.3405248
  42.3126268  57.5533295  14.4479886  37.7235484  83.3975887  96.6746521
  37.9155874  82.4639702  96.5868568  36.7724252  83.4381294  96.7744350
  95.5461121  72.5037432 106.6360188  96.3315201  72.9236364 106.2852192
  95.7024670  71.5667868 106.5181160  54.7390985  80.0460243  88.8117790
  54.9804020  80.9220505  89.1127586  54.4791555  79.5824099  89.6078491
  99.5460796  54.0354824 106.5493774 100.3166771  53.5792589 106.2113476
  99.1048527  53.3865738 107.0975399 105.4483986  68.0000639  96.7239857
 105.1311493  68.8357258  97.0664120 106.3450909  68.1814957  96.4424515
  11.3757968 100.1978207 106.5689850  11.6091788  99.8984337 107.4477005
  11.9161487 100.9755039 106.4295292  61.8511248 107.4797440   4.2980901
  60.9325457 107.6714993   4.4869558  61.9133949 107.5223160   3.3438627
  47.2581482  88.7851429  10.3599016  47.6783133  87.9405308  10.5221025
  47.1737671  89.1811752  11.2272302  70.1242399  57.9813290 108.6080837
  69.5957994  58.6164522 109.0914059  69.6779633  57.8896713 107.7662563
  71.1791945  58.4898090  80.6821442  70.3088427  58.6804485  81.0319710
  71.3515091  59.2026711  80.0670242  33.8246584  63.0765676   9.6163694
  34.3779254  62.3983526   9.2288724  34.4421721  63.7242222   9.9561445
  46.5994740  92.5437355  92.6904106  46.0298538  93.0286026  92.0931911
  47.4368763  93.0056953  92.6506519  57.9327011  77.4592113  92.1743774
  58.8400316  77.6612759  91.9460011  57.5046825  78.3133411  92.2334576
  74.0437698  84.8111343 104.9738026  73.3554125  84.9224567 104.3180561
  73.9381456  85.5593967 105.5613232  74.7562408  61.2480688 107.6177406
  74.0902996  60.6684875 107.9876614  74.9570751  61.8631077 108.3231640
  56.3347721  84.6381378  82.5765800  55.8834743  84.8613548  81.7624950
  56.0537863  85.3096962  83.1980991  60.3914165  84.8053074   3.3205262
  59.4835758  84.6956539   3.0376188  60.4324722  84.3654060   4.1696588
  80.4556561  83.4625912  79.2043543  80.6178570  82.9746532  78.3969927
  80.4059505  82.7907658  79.8843622  45.2391052 120.9711266 107.6139355
  45.9295416 120.9595394 106.9510651  45.6821871 120.7240105 108.4256172
  61.1735344 106.7613602  74.0890360  60.9055996 106.2378216  73.3338261
  62.1277189 106.6872120  74.1054869  40.5628395  72.0873356  58.3825159
  40.7842541  71.3425541  57.8234959  41.3665104  72.6059294  58.4200239
  58.1666470  78.4917688  66.6883373  58.6437511  77.7194405  66.3848305
  57.3578691  78.4901857  66.1763668  43.4200859  88.2602406  74.8897266
  44.2617893  88.0620003  74.4792795  43.3599234  89.2151928  74.8636961
  76.9244671 117.4258804  85.0357914  76.5991545 118.3260441  85.0463390
  77.1554756 117.2653866  84.1208553  53.9766407 118.7548542  68.5830736
  53.5150576 119.2601585  67.9138613  53.6362553 117.8652191  68.4886932
  58.9082146  74.8280478 101.7904377  58.2529545  74.1587782 101.9877911
  59.3593073  74.9741411 102.6219463  82.8232193  64.4026661   8.0701867
  83.4797001  64.7810316   7.4852887  83.3015060  64.2155838   8.8779489
  43.0417776 110.7861805  46.3019419  42.5930214 110.6415844  47.1349764
  42.4328089 110.4559898  45.6413651  87.4397469  93.1103897  83.5286331
  87.9656982  93.7951183  83.9418602  87.8551292  92.2921467  83.8009739
  33.5605216  95.5643559  92.3549080  33.4375715  96.5118217  92.2963715
  33.2418585  95.3349590  93.2278633  59.6276903  70.0528860  75.0902081
  59.9302483  69.1553450  75.2284670  59.8496532  70.5082512  75.9023666
  56.3113022  60.0183773 107.8103352  55.7044601  60.5475283 108.3279896
  55.8619738  59.8865271 106.9754982  58.2090664  88.2374859  84.7263336
  58.0208874  87.8632736  85.5870247  57.3480988  88.4347820  84.3575001
  65.3927135  53.8306475  84.1670704  66.2947226  54.0619802  83.9454937
  65.1262999  53.2200480  83.4797382  90.5436516 107.5951481  99.7635841
  90.6442165 108.0960178  98.9541149  91.3483810 107.0809460  99.8286247
  51.7657185  99.8853779  52.7376366  52.5810766  99.4929314  52.4255371
  52.0261812 100.7425117  53.0748606  70.3135204 109.0244293  62.3696423
  69.8230982 109.7776127  62.0403433  71.0137463 109.4071198  62.8982878
  46.7893314  96.4486408   2.0861188  45.9907198  96.9166946   2.3297921
  47.0647621  96.8562603   1.2650148  49.3377018 108.2584476  47.9002380
  49.8126745 108.9942837  47.5139952  49.7562790 107.4818039  47.5289488
  53.4113359  80.3413963  93.7166500  53.1810236  79.8958302  92.9013920
  53.9982986  79.7324419  94.1648579  72.3926687  72.7548981  86.5536880
  72.3085260  73.4626436  85.9147453  73.2975292  72.4562979  86.4625835
  94.4690132  72.5295687   1.6559259  94.6675491  72.0103836   0.8766500
  93.6169338  72.9241371   1.4701501  40.8791351  62.2856379  15.2565233
  40.2981853  62.4014282  16.0084001  41.5837145  61.7255592  15.5822603
  51.3775444 117.2903061  97.0477581  50.9367132 116.8718338  97.7872086
  50.7463932 117.9338169  96.7256260  54.9037743  65.2427053  83.5894203
  55.2730799  64.4526720  83.9839935  54.6669292  64.9782181  82.7004910
  64.2670012  90.2828503  66.8452501  63.4919262  90.8347130  66.7406654
  64.1305161  89.5597267  66.2331200  31.5476060  93.0702400  61.7745256
  31.3396120  92.9539299  62.7015877  31.7498231  92.1883965  61.4619637
  36.5262556  71.4736080  55.1013517  37.3662281  71.9025469  54.9379730
  36.2624383  71.1305428  54.2475700  56.9685555  95.1601696  71.3772440
  56.5259218  95.7136726  72.0206308  57.8978586  95.2384853  71.5928745
  61.7992830 125.1200676  86.4322662  61.8341303 125.9951305  86.8186378
  61.2959909 124.6011066  87.0596504  50.8437109 109.7618580  72.0000124
  51.6929626 109.3412113  72.1343899  50.8865643 110.1087284  71.1088991
  68.1982660  59.2504692  93.0693626  67.2443771  59.3011570  93.1307030
  68.4296370  58.4707737  93.5741138  53.5041523 101.2497807  66.0338974
  53.8433409 101.6620255  66.8283987  52.7375603 101.7734909  65.8008718
 117.4019241  52.4939013  95.8308983 117.7563381  52.1354961  96.6446400
 116.5131569  52.7681065  96.0570240  84.7457314  84.3900490  47.9664278
  84.8141861  83.5326672  47.5463629  85.4825878  84.4172382  48.5767746
  97.0858383  99.3583012  92.0028019  96.2691498  99.3503761  92.5019836
  96.9389343 100.0059605  91.3134575  13.5456741 113.6344910  96.6583443
  13.1353414 112.8877068  96.2222481  14.2951131 113.2595539  97.1209431
  43.0377913  65.3412724  70.5721331  43.9798450  65.3998947  70.4129696
  42.7108765  66.2248850  70.4030657  27.6388478 106.9130135 101.4238358
  27.5148582 106.7035294 100.4981041  28.2961273 106.2858772 101.7253685
  50.9938955  75.1169205   2.9048005  51.4535046  75.6641531   2.2679941
  50.0665808  75.2971888   2.7504484  82.7723789  81.8936062  91.8904686
  83.3798218  82.4497223  92.3782921  83.0669594  81.0009861  92.0712662
  45.6616211  62.2008133  84.9535656  46.5407324  62.1271801  85.3250122
  45.5209398  61.3674879  84.5041084  38.6966872  79.7577810  99.1918373
  38.3766198  79.3043184  98.4119987  38.3679032  79.2362213  99.9240398
  55.3758383 108.1298256 107.1230125  55.1318836 107.2976875 106.7177200
  55.3921843 108.7539387 106.3974380  51.6891432  68.2285452  79.7697544
  52.4377584  68.0248547  80.3304005  50.9983683  68.4905148  80.3783798
  47.9401636  66.1044264  66.4059973  47.6072311  65.2174854  66.5428257
  47.3359489  66.6648388  66.8929243  44.5472574 117.2052574  81.0897446
  44.7457218 118.1032467  80.8242989  43.7390423 116.9908524  80.6238556
  54.2795849  57.7289343  95.9496212  53.8834763  58.3381081  95.3265381
  54.2125368  58.1733894  96.7947197  54.3111849  71.7689943  87.8608990
  53.8778734  71.8051910  87.0081615  54.8882246  72.5326681  87.8689480
  46.1283684 105.6027699  84.0629768  47.0288849 105.7862663  83.7953472
  45.5889893 106.0280037  83.3962822  41.2758303   5.6110173   6.0780565
  40.7596397   4.9239998   6.4996949  42.1549988   5.2395230   6.0053197
  53.5561657 113.4732533  78.3822632  53.9467812 114.3288994  78.2046843
  53.7946367 113.2848263  79.2899323  38.9353490 105.1335335  77.3758698
  39.7664785 104.6657944  77.2941732  38.5326290 105.0591946  76.5106964
  65.8337402 120.4427147  83.2761574  65.9086227 121.3944721  83.3452892
  65.4827261 120.1679325  84.1232204  65.9999514  84.9104309  86.2546921
  66.7721224  85.4683208  86.3482189  65.2844667  85.4278183  86.6243172
  72.4468040  55.6240892 101.3710022  71.6362047  56.1286211 101.3031578
  73.0858707  56.2437487 101.7229176  54.1807842 115.7050037  90.4314423
  54.2556763 115.0816154  89.7089386  55.0481939 115.7078743  90.8361912
  45.6265402  98.2849407 107.7185059  44.9666691  98.2330036 107.0270538
  46.3793087  98.7028694 107.3002911  98.5305882 104.7024441  57.6246357
  97.5874329 104.7309303  57.4637890  98.6803150 103.8436127  58.0198908
  95.6429005  89.6226692  87.3991203  95.0031376  89.9957848  86.7927361
  95.3271103  88.7341690  87.5636768  56.2379217  45.6707144  86.4853096
  56.2520647  44.9557829  87.1216297  55.4225683  46.1377382  86.6678619
  48.8617373  74.7462416  68.1994486  49.1091633  73.9566708  68.6806822
  48.3465719  75.2561808  68.8245916  51.2355900  41.1051321 109.2668056
  50.4037666  41.5407419 109.4526863  51.0114527  40.1764917 109.2066669
  68.8269138  92.0122242  47.6170492  69.4920492  92.2269440  46.9630480
  69.0733480  91.1428547  47.9328012  43.1595945  52.6995754  76.2759876
  43.7718582  51.9638681  76.2657261  42.3983383  52.3710012  76.7542791
  40.4930830  65.2163458  90.0852108  40.7991266  65.9965754  90.5476093
  40.9955454  65.2082300  89.2705345  64.3619633  85.3796673  97.1294689
  63.5177803  85.5304337  96.7041874  64.9432039  86.0376072  96.7480278
  50.6100035 135.6855488   3.4052602  50.2165794 136.2055779   2.7045289
  50.4288864 134.7780323   3.1606332  84.3033218  45.5120277  21.0965959
  84.9624920  45.3301668  20.4267732  83.9719868  46.3826418  20.8764211
  57.2779274  91.4368343  55.6305552  56.6187525  92.0071983  56.0260439
  57.2287321  90.6264496  56.1375856  61.4949656  88.5137177  94.1302109
  62.0867872  88.4109592  94.8754692  61.0780048  89.3637657  94.2709064
  73.1578779  70.1004124  14.6094552  72.6145649  69.3622208  14.3335668
  72.5527525  70.6865120  15.0639287  67.7347088  81.4297771  80.7184029
  68.6869574  81.4816666  80.8006573  67.5820446  81.2957764  79.7830105
  72.8795147  77.1952772  54.8204041  72.0936060  77.1581173  54.2752409
  73.3938551  77.9128361  54.4505548  57.0405436  77.6062775  61.0089874
  56.5904236  78.1734943  61.6349983  56.4866543  76.8278599  60.9498072
  97.0029640 110.0104713  50.7610512  97.5646973 109.2379951  50.6981039
  96.8162346 110.2455425  49.8521471  45.5906916 100.0768948  95.5691528
  45.3452635  99.7071362  94.7210503  44.7674608 100.3966904  95.9382820
  42.3071718  92.4955940   5.4925481  43.2068443  92.2844982   5.2430192
  41.7837286  92.2539711   4.7284452  33.5913181 114.8382473  62.1544361
  32.8589034 114.2221260  62.1407080  33.2099462 115.6566238  62.4723244
  66.4786625 123.3591557 102.3738575  67.2046185 123.9768982 102.4611282
  66.4617205 122.8900814 103.2080650  61.1495924  96.9645882  41.0411501
  60.3999615  96.4410305  41.3242912  61.8887329  96.3568401  41.0645676
  60.3196526  67.2784233  74.9494743  59.8639250  67.0529270  74.1384888
  61.2485600  67.2027397  74.7312212  60.8201122  85.5506706  56.2067890
  61.5845776  85.5126476  56.7815733  60.8623362  86.4204121  55.8092976
  41.7101336  57.2712898  96.6463757  41.7965794  58.2245445  96.6384602
  40.7682514  57.1168041  96.7186165  57.8007746  54.3095875  99.7187424
  58.3751249  53.5555792  99.5852375  58.1495667  54.9827766  99.1344452
  63.5422945  87.9234409  70.2039766  62.6000690  87.8991699  70.3708601
  63.9325762  87.5089550  70.9734631  46.6888094  65.9452152  90.8127213
  46.2445641  66.7930841  90.8120537  46.5975571  65.6262970  89.9148369
  42.0374441  54.2050028  91.9554806  41.9530344  55.0217199  92.4475002
  42.1541786  54.4835520  91.0471725  74.3088770  91.2166119  87.7364349
  73.6605597  91.8292332  87.3891449  74.6162319  91.6261292  88.5451794
  18.3476305  80.7369041  61.7837238  18.2358396  81.6105461  61.4089155
  19.2876065  80.6661224  61.9500637  44.2858076  95.0018311  66.8857527
  44.5803738  94.7192669  66.0199499  43.8865614  95.8586407  66.7350864
  49.4687366  75.1662588  80.6518745  50.4034042  75.0888920  80.4604340
  49.1655397  74.2621183  80.7345200  56.9723558  91.4305210  83.6435127
  56.0735226  91.6653061  83.8741779  57.4583006  92.2528076  83.7061977
  32.2546816 104.0770531  74.3996668  31.8824458 104.8636436  74.0009642
  31.6398549 103.3794880  74.1724825  64.0355253  90.3599453  59.8951054
  63.7293577  91.2150383  59.5929146  63.2840300  89.7797203  59.7733259
  73.1604004  89.1443539  97.6964474  72.4067831  89.6513462  97.3943710
  73.8936186  89.4715500  97.1753311  83.7819767  97.4062538  95.8485317
  84.4011211  97.0619678  96.4922428  84.1506672  98.2507610  95.5894470
  39.4193101 109.7870922  77.4135971  40.1502848 109.9278831  78.0153322
  38.6969256 109.5069790  77.9756689  45.0346613 116.3296127  63.8182163
  45.0123215 116.5442562  64.7507715  45.8252287 115.8002758  63.7131500
  49.6308231  57.4932480  77.6941681  49.9831438  57.8876972  76.8963528
  50.3733778  57.4695349  78.2977247  64.0010595  91.8337059  50.1683712
  64.2898560  90.9255600  50.0783587  63.0584621  91.8026161  50.0047541
  49.5170450 102.1866035 108.4755135  49.4209480 102.4677849 109.3854237
  50.3894901 101.7947292 108.4367943  78.1397963  89.4949436  81.1252308
  78.7828064  88.8139629  81.3228130  77.3150682  89.1530132  81.4703846
  38.7862778  99.4693947  93.6216450  38.2225418 100.2288818  93.4746170
  38.2850361  98.7292290  93.2793999  84.4225311  82.3871326  84.4092751
  84.1797543  81.7215729  83.7655926  83.6207008  82.8916740  84.5461750
  55.3419209 100.4351997  85.1109791  56.2067461 100.8358002  85.0225544
  55.3525496  99.7037125  84.4936752  75.2655315  96.8728924  95.8857727
  75.5515814  96.3604450  95.1295948  75.4785204  96.3247395  96.6410160
  56.0921860 110.8583260  77.4454498  55.5678368 110.6520462  76.6716671
  56.9890881 110.6400871  77.1921301  97.2792625  72.9484272  77.5939465
  96.8234062  72.1082497  77.6442289  98.2067108  72.7155352  77.5512266
  52.3908806  90.2256966  67.2101974  52.2872782  91.1763954  67.1692657
  52.8833532  90.0729275  68.0166483  46.3681841 110.0592709  76.1844969
  45.9245634 109.5923805  75.4763699  46.1861420 110.9832382  76.0130882
  31.9404602  97.0585060  78.3182764  32.3520923  96.6110516  77.5789738
  31.0924888  96.6258430  78.4181166  51.3415813  86.2707520  65.9931803
  50.9263515  85.5933571  66.5269947  52.0691156  86.5858746  66.5294886
  49.4152403  42.6582956  79.0922308  49.8823404  42.3129845  78.3314371
  49.0934420  43.5137177  78.8077402  36.1017394  88.8856602  84.3898392
  36.8616605  89.2509365  84.8429585  35.8023548  89.5915890  83.8168907
  19.5014548  94.0294170  68.2419348  18.7169242  94.1802502  67.7146864
  19.3963313  94.6065807  68.9982891  61.4520645  61.2027931  94.1974449
  62.0073462  61.5468311  94.8971176  60.7514906  61.8488884  94.1080761
  52.8176546  90.5729485  57.5177860  53.7304974  90.7846260  57.7131033
  52.3425388  91.3875866  57.6816463  68.5306644  78.2816553  75.9005785
  68.4710836  78.0407286  74.9761105  68.3494234  77.4686241  76.3721371
  22.0709848  57.1196032  18.0231420  22.8196549  56.8867970  17.4740354
  21.6232467  56.2887144  18.1824724  58.7244701 103.3235836  64.4215775
  58.1350327 103.5478878  63.7015200  58.1961918 102.7751923  65.0015926
  43.0994749  55.4466486  37.9496336  42.9526854  56.2135506  38.5032988
  42.4687290  54.7993565  38.2649159  89.2375851 124.9317455  49.6317816
  88.4128475 124.5920944  49.2843962  89.5113182 124.2809677  50.2781534
  65.1054811 103.4483910  84.8216438  65.2826118 102.9537392  84.0215302
  64.1658211 103.3391094  84.9677086  53.7647629 101.9477654  86.6327858
  54.3772078 101.3532829  86.1995029  53.3875418 102.4639893  85.9204292
  56.3380909  98.1576920  60.6386375  56.2291861  99.1016197  60.5229759
  57.1560431  97.9536343  60.1852703  89.2880344  81.5236378  87.0055580
  89.7735023  82.3229790  86.8015862  88.9944077  81.6455364  87.9084206
  74.3772173 115.2037430  72.9117727  74.6350288 115.6626129  72.1122694
  73.4701920 115.4714298  73.0596828  48.3652782  53.9380550  79.9676418
  47.7604008  53.2987833  79.5912409  48.0115652  54.1185522  80.8385849
  89.4797325  87.7742672  12.1026651  89.1270447  86.9756126  11.7102472
  89.3695354  88.4424019  11.4261476  75.6031370  79.8452950  83.0336666
  75.0906372  79.8511982  82.2252464  74.9609232  79.6767998  83.7231541
  48.3521938  86.1343479 109.3416977  48.8984966  86.6231346 108.7261772
  48.7470245  85.2629185 109.3725872  67.6660156 112.3373413  81.3347816
  68.4573507 112.8140926  81.5852451  67.0094967 113.0197144  81.1948299
  34.9574542  75.2265549  84.5502472  35.7634377  75.7239914  84.6887207
  35.1377034  74.6881342  83.7796307  59.1839933  76.3823748  96.9331360
  58.4691715  76.0309219  97.4639320  59.1282272  77.3303080  97.0537663
  83.0960464  92.9622459  66.7806673  82.6298237  92.6930523  67.5721216
  82.4040794  93.1370163  66.1428118  20.3180718 103.3328056   1.4592878
  19.9653864 103.0058479   2.2868959  20.7791424 104.1373634   1.6966001
  77.8036642  88.8127804  91.7449760  77.5208616  88.6213303  92.6391792
  78.4622431  89.5003033  91.8440723  51.5601110  81.0332489 100.2873516
  51.7878151  81.8795204 100.6723309  51.3035202  81.2401772  99.3887043
  58.7111092  64.0440845  84.5157051  57.7926540  63.8100195  84.6494389
  58.9138079  64.6401501  85.2367020  62.1154928  72.6417255 104.0526199
  61.8883228  71.7960548 104.4392300  61.7757845  72.5955153 103.1589222
  68.1610727  77.9309607  79.9614429  68.0769014  77.3339748  79.2179680
  68.3313990  78.7852049  79.5646000  47.5264692  60.9608126  95.1651001
  47.0181131  61.5266085  95.7462025  48.1958914  61.5366173  94.7955608
  68.8252449  79.0294886  66.8935108  68.3434010  78.9286852  67.7144241
  69.0144396  78.1333828  66.6152525  44.9122715  97.8523159  91.4473915
  45.2847958  97.1930504  92.0329094  44.5580626  98.5207748  92.0338535
  35.3741384  72.5202560  90.5664253  36.2884021  72.4746609  90.2866554
  34.9273610  71.8629456  90.0329781  70.7454205  55.6053209  82.4382591
  70.8478785  54.7196436  82.0899677  70.1548004  56.0382605  81.8218517
  60.1033068 101.8817329  54.2044830  59.8176622 102.1048355  55.0904083
  59.3395805 102.0580292  53.6550570  82.7627754  92.9098511  78.0869436
  82.5793362  93.3480167  78.9179611  83.7182426  92.8828049  78.0362368
  99.6206284 106.6964531 100.6397915 100.3689671 107.2753048 100.4943848
  99.9098873 105.8444214 100.3132915  89.8563671  60.6987476  90.4568863
  89.3415451  59.9782324  90.8202744  90.7469177  60.3523350  90.4008198
  95.1478004 121.8280792  50.8421040  95.8568764 121.5988636  50.2413511
  94.3577290 121.4908314  50.4198647  55.4080677  66.8023634  79.6705389
  55.0573444  66.5597963  78.8135719  55.9955072  67.5362062  79.4899273
  38.1791162  97.7645016  76.2756443  38.0368567  98.4417915  75.6143808
  38.6323404  97.0636463  75.8070040  41.0584021  68.2625628   7.9349939
  41.6632843  67.6496267   8.3529130  41.2972164  68.2404423   7.0083276
  68.5099411  79.7028732  95.9296894  69.3267870  79.9768877  96.3467121
  68.1472206  79.0448904  96.5227509  37.4387145  54.6251869  41.2233019
  37.0194077  54.2332268  41.9893217  38.3552527  54.3569660  41.2884712
  67.0216036  67.8539896  73.2270479  67.2903633  68.7564087  73.0548716
  67.3163223  67.3655176  72.4584389  33.4937692 109.6822548  72.5751066
  33.8933182 109.0126991  73.1303501  33.8721132 109.5320129  71.7087841
  66.0574150 123.9901829  69.6509314  65.6422758 123.8762188  70.5058622
  66.8670750 124.4647884  69.8391914  76.5511990  82.7667332  70.3947926
  75.9788704  83.0183983  69.6699905  77.1739054  83.4897518  70.4704380
 110.9909725  71.3668442  94.9126625 111.4021397  70.5174971  94.7520828
 111.2750053  71.6075516  95.7944870  60.2845383 118.4868336  59.4911051
  59.7531414 117.6928329  59.4326639  59.7415257 119.1027832  59.9830008
  74.1186190  67.0998096  74.1756487  73.6038494  66.7476225  74.9017429
  74.4675350  66.3265896  73.7322283 108.7188053  86.3863850  49.3817568
 108.3528996  86.1719036  50.2398682 108.0687714  86.0647964  48.7570381
  78.5805559  86.9009590  69.5111418  79.0663338  87.4949074  68.9388895
  78.7385464  86.0314465  69.1434097  75.3169584  61.5802860  95.7985020
  74.4655657  61.7495966  95.3951454  75.7456017  60.9648275  95.2037716
  71.1925077 102.1506882  93.2108402  71.3071918 101.4653873  92.5524807
  70.8410454 102.8953171  92.7227497  36.0110378  73.2350779  75.3077745
  36.3819575  73.7309074  76.0377073  36.4871287  72.4047136  75.3158140
  97.0889759  92.8364468  83.8412571  97.2810555  92.9102516  82.9064369
  97.4828339  93.6178970  84.2291164  70.2624321  96.4190006 105.7131958
  70.0169420  95.4942703 105.6840611  70.5388641  96.6217041 104.8194790
  57.2121048  68.7397957  71.9354820  56.4812374  68.3310699  72.3991728
  57.2507715  68.2800865  71.0967922  69.7208023  79.2008209  57.9654551
  69.9218702  79.9823189  57.4506140  69.1664982  79.5193863  58.6778402
  50.5197096  96.4605045   4.7012273  50.9658575  96.7449379   5.4988996
  49.6991587  96.0761833   5.0097982  48.6699820  52.2396708  90.0090885
  49.4596481  52.6540089  89.6612644  48.1037664  52.1248150  89.2459106
  84.8666763  91.7192936  88.1458378  84.8986435  92.2967911  87.3831367
  84.3359089  90.9754181  87.8609467  47.1024847 110.6463909  86.8651581
  46.5215969 111.4019775  86.9539452  47.9164791 110.9189987  87.2886276
  60.6155109  72.9979515  99.0650940  61.0343027  73.8551998  99.1423893
  59.7170353  73.1934309  98.7990856  76.5198231  57.3446131  97.5534439
  76.3910389  57.2126532  98.4927177  77.2356176  56.7518806  97.3242283
  42.9122972  74.0468550  92.7078819  43.3201647  73.8841772  91.8573475
  43.5527849  73.7306023  93.3450603  49.3221664  88.1953621  55.1241255
  48.6480665  88.0497456  54.4603395  49.0913820  89.0359974  55.5194664
  54.4562721  74.3006039 100.7003498  54.3569088  74.7315407 101.5492630
  55.0510693  74.8691654 100.2112865  85.6849480  39.8540735  70.2447939
  85.5218410  39.7595215  71.1832476  84.8940372  39.5114207  69.8285151
 108.5833073  48.3879137  74.7669888 107.9037094  48.9772081  75.0942612
 108.7344170  48.6735296  73.8659763  69.9496078  94.5692921  71.6449165
  70.4921961  95.3441906  71.7910719  69.1703129  94.9029446  71.2003803
  84.2128277  83.0002785  94.0128422  84.8346901  83.1718922  94.7199917
  83.3581638  83.2102394  94.3892670  41.3088512 116.1711693  75.0613022
  41.4816856 115.6126785  74.3033791  40.3674555 116.0857868  75.2120304
  49.8489046  97.6595020  36.2046099  49.8021078  96.9252682  36.8169308
  50.4559612  98.2753468  36.6150475  29.3933105  73.7685919  59.7629356
  28.5722637  74.2180157  59.9632645  29.8250008  74.3329954  59.1215897
  45.5205297  79.3545198  82.9418087  46.0192537  78.6122942  83.2832909
  45.4515600  79.9575806  83.6819363  86.1115170  89.4495487  65.0290537
  86.5668106  88.7199020  64.6088696  85.5135059  89.0331745  65.6497431
  17.2852480  97.4291992  77.1062326  17.8794837  96.6795063  77.1391010
  16.5807152  97.2031784  77.7135086  57.6913023  70.9098816  73.4870243
  57.5853252  70.1366091  72.9329014  58.4201956  70.6905651  74.0674067
  31.9394708 113.4256935  85.3531265  32.6254559 113.8980103  85.8248997
  31.3343263 113.1368828  86.0362244  97.8797817  90.7581139  96.7323303
  97.9545307  90.6970501  95.7800102  98.7833691  90.7231712  97.0462322
  53.8095093  92.1627045  50.9462404  53.2970524  92.9703712  50.9102297
  54.6158409  92.4106216  51.3985586  35.9976649  73.1411982  86.7158890
  36.2900352  73.9945459  86.3956642  35.4107022  73.3466959  87.4435425
  69.3956661 116.1904526  52.6080561  69.5045900 116.5281868  51.7190647
  69.9205303 115.3901958  52.6262331  60.8514166  87.6539230  70.4269361
  60.3620434  86.8618870  70.6492662  60.2755833  88.3725166  70.6882334
  51.9767618  59.4355440  75.7304049  51.1982346  59.0228891  75.3564501
  51.7847919  60.3730440  75.7086134  77.7961349  87.2302723  73.9143705
  77.0272207  87.0544910  73.3720589  77.4368048  87.5287533  74.7498465
  74.9241114  81.5345573  76.5334988  74.3332291  80.7890797  76.6400385
  74.3565226  82.2515583  76.2506723  50.6548309 116.8189240  35.6426835
  50.8458281 116.4223003  34.7927189  49.7905827 116.4801788  35.8762717
  38.5913777  94.2842960  90.4127598  37.6938772  94.1089439  90.6955528
  39.0701532  93.4829903  90.6246662  74.4812298  78.8911724  62.4294615
  74.8462486  78.0455685  62.6901388  73.6856270  78.6696720  61.9455338
  67.5579166  88.3712673  54.5356417  67.6434612  89.2824841  54.2552662
  66.7829227  88.0505085  54.0744162  31.2729502 108.1839466  80.4671001
  30.3951454 108.3410931  80.1192570  31.2851858 107.2492409  80.6730366
  72.1737671  82.0099831   7.4624864  71.4064884  82.2697258   6.9525377
  72.0460701  82.4249458   8.3155671  33.4442520  46.7533064  80.2549267
  33.0418301  47.4576759  80.7630157  32.8037453  46.5545464  79.5719385
  69.0162802  84.0786171  75.0867891  69.1477108  84.9991989  74.8598814
  69.3639994  83.5952091  74.3373632  46.3854027 127.7444363   4.7798864
  46.1636019 127.8575706   3.8556424  47.1869516 128.2541561   4.8979799
  58.9883280  40.6801128 104.5338535  58.3047342  40.9789371 105.1335430
  58.8416243  39.7375989 104.4539833  55.9009409 105.2066517  98.2902527
  56.0250664 106.1323547  98.0807209  56.7467022 104.8019600  98.0975151
  52.1444130  79.9081373  90.7016468  51.9075298  79.0355539  90.3874493
  51.4306355  80.4719734  90.4035759  88.8585377  79.6595669  72.3599243
  89.5935440  80.0025749  72.8682041  88.1700802  80.3168869  72.4608326
  64.0626335  64.8635912   3.4365312  64.1966057  63.9190865   3.3578149
  64.8368073  65.2502298   3.0273858  67.0847321  89.0592384  80.7422447
  67.0569944  89.0121078  79.7866058  67.2637749  88.1612778  81.0212421
  51.9217968  80.8852005  66.8878794  52.4562931  80.1088428  66.7210579
  52.4001741  81.3644886  67.5643921 105.1402855  94.9944878  90.8225155
 104.5014286  95.2564716  91.4854240 105.9694862  95.3593731  91.1315823
  15.3467238  66.9410563  51.7411947  16.1683691  66.9392633  51.2501478
  14.6761703  67.1320677  51.0853720  83.4904861  75.6421280  39.2917514
  83.3992290  74.7636271  39.6607256  83.5533524  75.4998779  38.3472705
  68.4456158  94.6518612  54.6400881  67.7788591  94.9371624  55.2648067
  69.2769957  94.8196888  55.0837898  65.4308510  78.0250740  56.9885778
  66.0862875  78.7194490  56.9216490  64.9173689  78.1020880  56.1844397
  49.8219538  83.1526089  94.7002411  48.9496136  82.8659058  94.9705219
  50.2206182  83.4939003  95.5007553  63.6370230 101.3360596  51.1087704
  64.3021631 100.8926678  50.5822563  62.9047012 101.4692211  50.5069304
  21.1925030  80.0398731  62.1759176  22.0419765  79.7390699  61.8532038
  20.9589767  79.4105053  62.8582621  45.9411621  86.1996460  76.8117380
  46.6145706  86.2327385  76.1322880  45.2147388  85.7263184  76.4061403
  20.9249520  49.7906590  33.7616944  20.3836584  49.5402575  34.5103812
  20.6148291  50.6643343  33.5234666  50.3835392 103.7959290  50.2129936
  49.7266388 103.2995796  49.7247791  49.9435472 104.0388680  51.0276222
  52.2811699  70.6781101  53.0098152  52.8106499  71.2474871  52.4515295
  52.7683449  70.6288767  53.8322926  35.5543327  55.1499796  85.0163651
  35.3120589  54.2984772  85.3803444  36.0223389  55.5895233  85.7262993
  50.0714159  68.0046225  50.0254917  50.4553032  67.2147083  49.6448326
  49.9818134  68.6071301  49.2871237  42.4361992  92.7875519  65.1800394
  42.9417276  93.4965134  64.7825050  43.0089903  92.0228863  65.1214314
  74.5216322  92.6492977  61.3438368  75.3243399  92.5868607  60.8261585
  73.8633108  92.1914291  60.8211422 100.9477901 116.7627144  49.1183186
 101.6579342 116.6918755  48.4804201 100.4198170 115.9768581  48.9772224
  58.2763863  79.9492788  52.6875544  59.0011644  80.5524540  52.8522015
  58.6467695  79.2817640  52.1100807  47.9122305  80.5578613  68.0991459
  48.4110069  80.6225395  68.9135599  48.4386683  79.9858713  67.5406504
  46.8998814  76.5752268  73.4214020  47.1933603  75.7324409  73.0752659
  46.1129379  76.7805386  72.9166222  46.5733051  79.5660353  56.1819887
  47.3082733  80.1106071  56.4639378  46.7810726  79.3331242  55.2771044
  90.6380939  78.0527306  48.0969572  90.2645874  77.1723890  48.0554914
  91.1067104  78.0750275  48.9313078  63.7246084  93.5785961  59.3391562
  64.2203426  93.7543106  60.1389074  62.9754591  94.1725445  59.3863535
  33.4264612  91.7375469  78.3049774  32.8671193  92.3670864  77.8499460
  33.5867262  91.0491848  77.6594543  49.6576023  88.3739758  41.2047863
  49.7598076  89.0882301  40.5758047  50.5145550  87.9479885  41.2247896
  46.4752817  63.9239550  66.9030476  45.7436848  63.8695431  66.2881994
  47.0723152  63.2285309  66.6270638  89.8954964  83.0174637  80.7294273
  89.9200058  83.7839222  81.3022900  89.7024536  82.2861004  81.3160133
  53.8277960  69.0997839   3.2801381  54.5413733  68.7869358   3.8361684
  53.9022875  68.5800457   2.4797860  61.4978981  77.8095388  74.2222071
  61.5217304  78.5961723  74.7670650  62.4183989  77.5945234  74.0716076
  46.1115742  91.0680199  97.3257542  46.5857983  91.4151478  96.5702152
  46.4444971  91.5707779  98.0691433  77.0436287  78.0063343  90.3098869
  77.4946642  77.8955936  91.1468697  77.6354694  77.6178646  89.6656418
  94.4853783  97.1164513  46.8690062  93.8125229  97.5058556  46.3105679
  94.8953438  97.8628635  47.3060751  61.2766695  84.4477844  62.7195501
  61.3626575  84.3363762  63.6663485  61.1817884  85.3923702  62.5971746
  47.5802612  79.3149853  53.5139275  48.4375477  79.2397451  53.0948496
  46.9554949  79.2771769  52.7897215  92.5295067  64.0923834  65.2744579
  93.3989048  64.2947197  65.6200552  92.4306202  63.1502151  65.4114676
  72.0493126  87.2275448  67.3138428  72.5581837  86.4464664  67.0965815
  72.1889114  87.8179455  66.5734625  84.2639828  76.5589285  59.4713449
  85.1982307  76.4494467  59.2940807  84.1433048  76.1998940  60.3504133
  57.2261477 111.4182091  67.4549437  56.4643431 111.0223579  67.8782606
  57.7823210 111.7026138  68.1802130  68.1733561  61.4156246 104.8438835
  67.7274561  61.6262197 105.6642818  68.0248165  62.1801758 104.2874432
  65.9067583  77.3527527  65.3121185  65.5625677  77.9338074  65.9904528
  65.1628399  76.8018341  65.0685883  66.9959211  80.3013134  55.1105642
  67.3708677  81.1580086  54.9063158  66.1449766  80.3016281  54.6722412
  78.2587242 100.2428055  78.3381033  78.5759544 100.2801132  79.2404366
  78.3725548  99.3276024  78.0818510  54.9596930  94.7765923  50.4989195
  55.8772039  94.9357796  50.7204342  54.9677181  94.5989609  49.5583773
  71.2536287  75.3522921  28.3154297  70.9926128  75.5163050  29.2216325
  70.7999992  76.0266256  27.8097343  35.9076881  85.8113480  32.3275518
  35.9949040  86.7635918  32.3706222  36.6269588  85.4803848  32.8654599
  51.5144920  65.2687168  52.8708553  52.4016047  65.5732489  52.6797438
  51.2398481  64.8156500  52.0736504  26.9140530  22.2289872 108.9795780
  25.9597158  22.3007107 108.9613628  27.2048020  23.0175352 109.4377136
  71.3695955  77.3902607  58.8061094  70.8180141  78.0989695  58.4748697
  71.5876055  77.6542330  59.6999931  64.7935200  72.5828695  61.5835667
  64.2132854  73.0110359  60.9540939  65.5715084  72.3540688  61.0750198
  36.5944195  73.9811277  77.7778101  36.7838049  73.2592344  78.3771706
  36.4711070  74.7398949  78.3481550  56.5206242  74.1512489  51.8977737
  57.1422529  73.4540415  52.1068478  56.1142635  74.3692970  52.7365589
  47.2711945  82.5041103  83.8030815  47.2944212  82.4188519  84.7561932
  46.6903400  83.2479477  83.6432362  71.0398149  95.3059673  80.2854729
  71.7351627  95.5709553  79.6833897  70.5109692  94.6863937  79.7827911
  37.2597671  66.8547058  41.6930723  36.8760252  67.7257252  41.7945242
  36.7192554  66.2891245  42.2446156  58.0868340  96.5125847  88.0617523
  57.2254705  96.6177559  88.4657669  58.6726570  97.0382786  88.6064434
  81.7149067 117.0257950  17.3122394  81.5184498 117.8733444  17.7113557
  81.5452194 117.1553612  16.3791525  81.5927982  73.2977486  75.8306408
  82.5155640  73.2774639  75.5770302  81.2610626  72.4308109  75.5969667
  63.3429241  67.2055149 100.5204773  63.7198400  67.9108238 101.0465050
  62.5068140  67.5561714 100.2135754  54.5964289  79.5347452  70.6241846
  54.3487453  78.7627411  71.1330032  55.2420807  79.2106867  69.9962139
  60.8044720  89.1667080  73.2852411  60.8667994  88.2115555  73.2894707
  59.9670410  89.3502045  72.8594780  76.6534042 104.6144199  70.9183788
  76.8775177 103.8377190  71.4309740  77.4980021 105.0033283  70.6911421
  71.2565422  68.0935860  14.0494704  71.2215042  67.9949284  13.0980134
  70.3434420  68.2100630  14.3119788  73.9373827  63.8553429  88.6346817
  73.4957027  63.0962896  89.0154552  73.8369513  64.5449781  89.2908478
  37.8299069  99.5083904  74.1732359  38.5187984  99.5861912  73.5132265
  37.6245594 100.4120922  74.4127941  50.9162569  71.5421581  72.7182627
  51.6397715  72.1336889  72.5112486  50.4016066  72.0133734  73.3734941
  42.2307920 110.5470467  61.4462137  41.7680693 109.7345161  61.6509628
  42.8675652 110.2977943  60.7764196  44.7880268  85.0890446  63.9283943
  45.4389620  84.9006176  64.6044254  45.0384521  84.5305347  63.1924677
  37.9351091 123.6047077  80.1586533  38.6320305 124.2279434  80.3638649
  37.1402693 124.0124702  80.5024433  36.0700893  50.3070641  79.2908621
  35.9090376  49.3798399  79.1160822  35.5084014  50.7691717  78.6686134
  61.7172337  80.0317001  68.5860777  61.1190271  79.4789410  69.0888977
  61.2337065  80.8466339  68.4507513  74.1239309  47.5051069   4.1715375
  74.6766043  48.2353783   3.8931791  73.3839846  47.9201174   4.6147863
  18.8817227  70.5152416  54.8054361  19.1444576  71.4339542  54.8617172
  19.6991205  70.0413275  54.6521473  38.9984512 101.6275883  70.7638931
  38.9650297 101.2290859  69.8942280  38.1565452 102.0737362  70.8554363
  73.1834602  77.1093750  64.7096634  72.5244951  76.4492846  64.4945431
  74.0058470  76.7408562  64.3870020  57.6589155  85.2081776  65.2633953
  57.0559692  85.2910614  66.0021925  57.4522877  85.9544659  64.7007275
 113.1769657  86.3377666 103.0309582 113.0754852  85.5212212 102.5418949
 113.5191345  86.0659409 103.8825893  55.3532743  79.0301609  66.1174488
  54.5131302  78.5727978  66.0825920  55.1195383  79.9571896  66.1645699
  41.8941355  83.4345150  50.4758024  41.6207504  82.6278400  50.9125757
  42.7291632  83.6582565  50.8867788  35.1895857 112.2081280  57.3818159
  35.1114511 112.4235916  58.3111668  35.7061195 112.9243851  57.0124912
  62.1649790  76.9333220  58.9195156  62.5261068  76.7532206  58.0515385
  61.2313557  77.0775270  58.7652874  51.3993788  76.3580847  18.1849813
  52.2985268  76.0553789  18.3119798  51.4825058  77.1241331  17.6170969
  73.4910202  59.9419117   1.7627627  73.2800007  59.6779156   2.6583126
  74.4193649  59.7309256   1.6633128  84.6760845  98.8112068  58.3402729
  84.7905159  97.9103851  58.0375290  85.5510235  99.1954613  58.2849073
  59.6282625 103.1303596  50.4205036  58.8030767 102.7599525  50.7337093
  59.4269037 103.4561062  49.5432472  33.1645226 120.6684875  56.8614721
  33.6094451 119.8653984  57.1322632  33.7049866 121.0137939  56.1509132
  52.5707054  86.7804241  68.3205462  51.9250870  87.3068905  68.7919807
  52.7702475  86.0572720  68.9150763  16.1349845  98.5839367  80.3685093
  15.5752528  98.8713074  81.0898590  15.6819093  97.8247929  80.0015545
  81.9791031 112.7523422   5.2368394  81.3320160 112.5301552   5.9062711
  81.6085720 113.5125637   4.7885171  35.1667070 107.8036976  87.5613976
  35.3832436 108.5555553  87.0099926  35.2814078 107.0455456  86.9884491
  38.3280897  67.2799492  68.2925797  38.5962558  68.0261803  68.8287354
  37.5343966  66.9534159  68.7164402  66.6773939  76.4079189  51.2517548
  65.8234406  76.3667154  51.6822100  66.6188288  75.7685995  50.5417728
  86.9203663  99.4762230  83.4822655  86.5784836 100.0328445  82.7826023
  87.2982025 100.0891781  84.1129398  71.1497450  73.9664173  66.0864782
  71.3098240  73.2875633  65.4309177  71.0217190  74.7663307  65.5765963
  48.1604815  12.9691410  88.4455585  48.9671755  12.5211954  88.7001610
  47.4687147  12.5007033  88.9127350  49.5224810  75.1858521  40.7399607
  48.6670399  75.6111670  40.7996130  49.3211269  74.2543316  40.6507778
  53.9009762 108.1106281  52.9281759  54.1961670 109.0180683  53.0032921
  53.7991524 107.9690170  51.9870043  58.1676960  83.1932259  61.7291546
  58.8379717  83.8746643  61.6781569  58.6088133  82.4542618  62.1481657
  51.6828489  76.9740295  49.7905588  51.5539360  77.5259066  50.5619526
  52.6236868  77.0171976  49.6196985  52.6555490  78.1442595  65.6220245
  52.6489210  77.5137758  64.9018335  52.1603012  77.7157068  66.3200903
   9.9138075  70.8600330  48.1838989  10.2638149  71.3672304  48.9163446
   9.9045157  71.4743710  47.4499130  57.8536034  94.1876125  64.5831919
  57.6326752  93.4227753  64.0517330  57.3052120  94.1037560  65.3632307
  55.0441980  81.6981888  62.5605774  55.3948927  81.1810207  61.8354654
  54.0948963  81.6622639  62.4432421  73.6345577 101.6852188  72.3868179
  74.4755030 101.6001892  71.9375753  73.0307007 101.9892788  71.7092276
  53.2995176  70.8567142  49.1863537  52.3675966  71.0752439  49.1880941
  53.6968422  71.4973116  49.7762728  53.1680441  83.8255787  68.0524158
  53.4909964  84.1783428  68.8815641  52.2471523  84.0851688  68.0241537
  67.6403046  68.3397913 104.9560165  68.3145380  68.3438921 105.6354523
  67.4523783  69.2652178 104.7994900  68.3201218  87.6158810  61.4464998
  67.8321505  88.0545807  60.7496071  69.1948414  88.0025101  61.4063740
  35.6829906  82.2343445  53.5379410  36.5737724  82.4991703  53.7673092
  35.1687121  83.0386925  53.6070204  39.1202664  68.2324505  39.2723060
  39.3228054  69.1264009  39.5481110  39.4614434  67.6813745  39.9766803
  26.5357018  98.0194664  16.3697577  26.5608120  97.2509956  15.7996237
  27.4550247  98.2079506  16.5583134  46.9986725  96.3831520  74.9122429
  47.3108196  95.5832195  75.3352118  46.6371107  96.9067669  75.6273174
  70.6628704  69.6332073  89.2355919  70.1558971  69.6055174  88.4241486
  70.0228262  69.8598814  89.9102783  39.7726393  88.0275154  72.8405905
  39.7184730  87.2037315  73.3250332  40.0231886  87.7679443  71.9539785
  56.8946123  93.0896568  45.9160614  56.0587835  92.8069019  45.5450153
  57.4912739  93.1182194  45.1681280  47.4007416  69.9348450  62.7666187
  46.7070389  69.8131895  63.4148550  48.0249500  70.5232191  63.1913614
  63.7780428  75.1532030  75.4712629  63.0048704  74.5898962  75.4377270
  63.9832354  75.3331757  74.5537996  48.8231134  93.6856556  60.6542349
  48.3192348  93.1821251  61.2935972  49.6893549  93.7778187  61.0509253
 111.2592697  88.2062531 102.1378517 111.9247818  87.6463890 102.5376987
 111.2532616  87.9499722 101.2156200  56.8303490  90.8641911  87.1678448
  57.2217798  91.3078117  87.9203129  57.3446178  91.1646271  86.4185143
  57.5285578  58.3793640  47.4660826  57.9160404  59.0058708  48.0772924
  57.9467773  57.5455046  47.6805830  55.0375175  65.2825928  40.5200434
  55.3445101  65.5109835  39.6426439  55.5755043  64.5328617  40.7744169
  65.2134943 107.2285557  93.7349415  64.4266605 107.6445675  93.3827209
  65.8183622 107.1940422  92.9938793  53.3387423  62.4261141  83.2130432
  53.4731054  61.4994144  83.0145168  52.4198580  62.5863314  82.9980659
  35.0130367  73.6295509  59.7042274  35.0829601  74.1970587  58.9365816
  34.0744638  73.4657335  59.7962809  16.3605225  67.8278351  60.4929399
  15.8204246  67.8943825  61.2804031  16.2024069  66.9413710  60.1682711
  74.5588970 107.3812485  56.1267900  74.0717745 106.7072964  56.6008425
  75.4780483 107.1833897  56.3063669  63.0478334  73.9392614  60.0770807
  62.7964115  74.0882492  59.1655827  62.5395441  74.5805979  60.5736303
  64.9895620  80.2374172  87.1702003  64.4332838  80.4450417  87.9209900
  65.7327127  80.8353996  87.2500992  82.5518131 122.9229069  58.0458117
  82.5687313 122.5625134  57.1592140  83.3541775 123.4410191  58.1090975
  55.6772470  79.6213150  79.3357801  54.7947502  79.7688770  78.9957047
  55.6489992  79.9605036  80.2304173  56.5746260  83.9520836  58.5581970
  56.9744778  83.1026363  58.7447166  56.3510752  84.3057823  59.4190979
  75.4166365  76.1817551  63.4506416  75.9000540  75.6238127  64.0599394
  75.5121994  75.7489634  62.6022387  50.3135347 100.1229477  69.9319410
  49.7433329 100.5808640  70.5495262  50.0085115  99.2158604  69.9516678
  85.4263210  99.0010262  66.4047146  85.6010628  99.5837402  67.1437263
  85.3573418  99.5855808  65.6498814  47.2230768  92.1269798  65.5405903
  46.8893051  92.6632786  66.2597656  47.2189426  91.2341595  65.8856773
  60.5652046  32.8210640  90.4107475  60.3823709  33.7578726  90.4828072
  60.6129026  32.5159574  91.3167667  45.8205700 100.8480072  89.4174671
  45.5262995  99.9786282  89.1457939  45.0123596 101.3356495  89.5763206
  45.5946302  87.8411198  67.5219631  44.6603394  87.9512501  67.6986122
  45.7055283  86.8984222  67.3984051  40.7485962  98.9153957  66.3284779
  41.6695929  98.6570263  66.2931967  40.4692888  98.9321041  65.4130840
  93.7391853  56.5455961  85.0767517  94.4933701  56.2656736  85.5954838
  93.4036541  55.7383013  84.6869755  70.8860970  78.3174753  53.1401348
  70.4100943  79.0420580  52.7343941  71.7517042  78.3413076  52.7322340
  63.6036110  73.4677601  71.1260891  63.4718943  72.7744007  71.7727232
  64.0466881  73.0341053  70.3968048  56.5400887  65.9702349  90.5740833
  56.9839621  65.9169006  89.7276974  55.6499720  66.2500763  90.3605080
  33.5788512  82.7841282  74.5225525  33.6064625  82.0279408  73.9363384
  34.4929934  82.9336166  74.7638702  36.2300897  86.9733810  61.9226360
  35.3251982  86.6796589  62.0281458  36.1894155  87.9222012  62.0422697
  59.8778963 102.0099831  62.1786118  59.5157957 102.2682381  63.0262089
  59.1763783 102.1914101  61.5531588  64.6625233  75.4795837  72.8593159
  64.9678755  75.8218002  72.0191479  63.8639593  74.9971056  72.6454353
  36.2344265  81.6240215  61.1072063  36.9846773  82.0381069  60.6807232
  36.4629745  80.6952858  61.1450815  46.5667152 138.3684349  58.7980843
  46.2660551 137.4596882  58.8023567  46.1978865 138.7465000  59.5963717
  67.4014187  91.4811611  33.2045889  68.0987978  91.6324329  32.5666165
  66.6887522  92.0536327  32.9206634  67.2386408  68.0796051  22.4474120
  67.9099751  67.8783035  21.7954779  66.5779114  67.3971462  22.3294067
  50.9584236  76.3756895  67.0725870  51.6957474  76.1628437  67.6446724
  50.1926279  76.0275555  67.5293064  27.0999002 116.9071674  56.6120338
  27.6419997 116.3402271  57.1606112  27.5535774 116.9300938  55.7694864
  56.1097908  73.1637287  40.7309914  55.8230495  73.9822197  40.3259230
  55.5394411  73.0608320  41.4927959  51.8288946  81.8984127  16.9435048
  51.5898275  81.5194321  16.0976624  51.0582638  82.4013233  17.2070241
  81.9382954  83.2167149  65.9162474  82.1233845  83.7141228  66.7128372
  81.1400986  83.6127663  65.5666018  50.5660725  79.4548893  43.9379454
  49.9324894  79.5562983  43.2276487  50.6862974  80.3407860  44.2799520
  38.6025143  70.4761839  47.6028252  39.3311501  70.0263548  48.0305815
  39.0008688  70.9180164  46.8529415  63.4181309  63.2995796  51.5330267
  63.2963085  63.6940241  50.6694317  62.9722500  63.8964367  52.1340084
  71.1286354  84.9755764  42.5876904  71.0194111  85.8969021  42.8231621
  71.5862226  84.9957943  41.7471933  28.6701035  68.7765074  36.7448044
  28.0536723  68.1346273  37.0972729  28.5187626  68.7600899  35.7997870
  43.3378410  87.3388863  50.2491856  43.6296940  88.1143284  49.7698689
  43.8451576  87.3539448  51.0607529  38.7457299  82.0663738  47.7656841
  37.9962683  81.5063381  47.5634527  39.1993594  81.6122627  48.4757805
  26.5134454  69.4128895  46.8412971  26.9249344  69.1471195  47.6636553
  25.8723783  68.7252998  46.6610718  38.4382915  84.4132614  49.0200138
  39.0025806  84.4204998  48.2468700  38.4178162  83.4960461  49.2930126
  62.2590113  93.7094593  16.2019634  62.0671749  93.7508869  15.2650988
  62.7183533  92.8774261  16.3158226  72.1638680  82.9061985  56.1647177
  73.0407715  83.2624149  56.0219479  72.0698833  82.2264767  55.4973507
  98.4699249  98.6736488  36.1048365  98.9068031  99.5236588  36.0514092
  99.0693474  98.1278419  36.6137719  49.0641451 103.8403320  63.9263344
  48.4870291 103.9586544  64.6807718  48.4774876 103.8619423  63.1702948
  58.7406397  88.1841755  59.3024588  58.7142420  87.2490978  59.0995884
  57.8232145  88.4290314  59.4233131  63.6568785  83.0761909  36.6686606
  62.8983879  82.5358963  36.4472866  64.3324327  82.4477482  36.9234562
  55.5351830  95.0981998  55.0071096  55.1808119  95.9816933  55.1076078
  56.3332891  95.0987244  55.5355549  80.7969666  87.4599648   2.1464735
  79.9299574  87.3849964   1.7478296  80.9192944  88.4000587   2.2787054
  37.4549723  95.4461956  56.3339043  36.5055799  95.3436184  56.3999510
  37.6174450  96.3504410  56.6025400  78.3765030  47.9930019  47.2536230
  77.4633455  48.0015087  47.5404978  78.4952736  47.1294546  46.8581247
  50.1705217  69.3113136  47.6367283  49.8472977  68.5809994  47.1090889
  50.2386427  70.0404358  47.0203066  54.7115088  67.1065569  54.7445250
  54.6570921  66.8405247  53.8266516  55.4950237  67.6546049  54.7890043
  74.8141623  82.7255249  25.9434366  74.6701670  81.8088722  26.1784673
  73.9340305  83.0876923  25.8412504  64.4167900  74.5474863  63.4556007
  63.5984039  74.2353725  63.8416862  64.7503996  73.7977362  62.9628420
  26.5251017  93.4633064  39.1313601  27.0105338  94.0746975  38.5774732
  26.2082148  93.9988518  39.8586893  51.8191099  83.3700180  40.4459620
  50.9532166  82.9629135  40.4729128  52.3924589  82.7428627  40.8866072
  64.2201853  93.1480026  25.6891155  63.9359617  92.2401810  25.7954192
  64.8699951  93.1148911  24.9870586  68.3367109  60.7566166  20.9859943
  68.9263916  60.2283716  21.5240169  68.7750673  61.6042900  20.9117007
  29.9912953  77.4547768  33.9821315  30.7346201  76.8592501  33.8870049
  29.4169593  77.0219707  34.6138334  57.9855013  83.9688206  54.5409393
  57.3470974  84.0192223  53.8295078  58.5831738  84.6986485  54.3785715
  65.6345367  69.5297337  14.4304585  65.4729891  69.7045469  13.5033262
  65.0081825  68.8423729  14.6572745  35.6664991  71.9331074  68.4364033
  35.9153628  72.7011633  68.9505911  34.7470737  72.0808220  68.2148886
  85.4909229  87.0627594  40.0694942  85.2321625  87.9439831  40.3391743
  84.8272324  86.4900684  40.4539061  79.5447111  69.1234779  21.6089535
  80.3560734  69.0673065  22.1137023  79.5875168  68.3832741  21.0035610
  58.2352448  81.3237762  17.4096131  57.7589798  81.5444756  16.6091800
  58.9712811  81.9354820  17.4267507  43.0500793  84.4325447  60.0830269
  42.4012756  83.7441444  59.9367952  42.5411081  85.2431583  60.0929737
  57.5158739  86.3629055  78.7010479  56.9035864  86.8013954  78.1102419
  57.9880238  87.0767879  79.1296196  68.9758825  90.5950451  50.4453278
  68.1627321  91.0683346  50.2692032  69.5225763  91.2247753  50.9152269
  42.0836973  73.7834263  18.0647600  41.3553143  73.2047606  18.2902205
  41.9832706  74.5340919  18.6501241  81.1077499  88.5939407  27.8207231
  80.9634590  89.3870640  28.3368230  81.5209198  87.9830074  28.4308743
  19.0732050  94.5472813  78.4637308  18.9535475  93.7335491  78.9533710
  19.9837148  94.7933674  78.6269760  30.0430322  67.9478264  10.7577610
  30.3683281  68.8465738  10.8094227  29.3500972  67.9814529  10.0982571
  59.7310066  85.2632713  49.6791220  60.2758121  84.7086048  50.2374792
  59.4817400  84.6967411  48.9489555  52.9870033  91.9137001  31.6217709
  53.9098549  91.8180466  31.3863397  52.8564072  91.2907982  32.3367310
  63.4086752  96.0412884  30.4786611  64.2198849  96.0807323  29.9720907
  63.6807013  96.2128544  31.3802123  35.2479815  80.3690720  69.0490103
  34.6967602  79.8497581  69.6344185  36.0739613  79.8871279  69.0075922
  42.0801067  80.6678772  39.7812247  42.2452259  80.0094891  39.1063285
  42.5930166  80.3732872  40.5338001  62.6138830  74.1709709  54.8981524
  62.5630617  73.3011675  54.5018005  62.0257187  74.7099495  54.3691874
  40.2239275  84.8355198  90.9771061  41.1505556  85.0321293  91.1147404
  40.1785564  83.8794136  90.9826851  67.9957867 116.1346626  17.3914242
  67.5881863 116.1427307  18.2574666  68.7779379 115.5936337  17.4998581
  58.9657497  55.5024099  40.9236765  58.2967043  55.4646921  40.2401686
  59.2705393  56.4096975  40.9106874  65.5422449 114.5142937  31.4846659
  66.4782143 114.6319771  31.6469860  65.1222563 114.7766113  32.3038292
  58.3499575  42.1102858  23.6979795  58.3727741  42.8255129  23.0622435
  57.8620005  42.4656200  24.4408584  43.6377478  87.2579193  30.4951286
  42.7297354  87.1656609  30.7836342  44.0066624  86.3788033  30.5804348
  54.2706299 100.4305553  17.5013471  53.7104797 100.0215149  18.1610024
  53.6633253 100.7357597  16.8273592  69.8117971  71.5861750  37.9727674
  69.9597740  71.9475794  37.0988560  70.4207468  70.8501816  38.0338454
  38.9631152  44.7304821  14.5147133  38.0640578  44.4136429  14.6015787
  39.5047021  43.9507294  14.6367836  69.0810442  98.6679554  28.0411291
  69.3419409  98.9274788  27.1574950  69.7802305  98.9996719  28.6044502
  41.9032812  81.6055965   7.5470787  41.5778446  82.3796177   8.0066633
  42.3403549  81.0905075   8.2252252  62.8187466  96.9949722  14.3158424
  62.0320559  96.8443203  14.8399115  63.4883976  96.4478874  14.7263300
  44.6149445  95.8888912  50.5383587  44.2332983  95.0158596  50.4466915
  44.8463917  95.9530258  51.4649391  80.8103848  90.5901718  29.7303009
  80.6176758  90.2437019  30.6015396  80.2094364  91.3281155  29.6276903
  62.6858234 113.5851574  46.0406399  61.8661737 113.7608624  45.5785465
  62.4489260 113.6132240  46.9676399  24.4676113  82.3430634  69.8951960
  24.1560173  83.1833839  69.5590496  24.5739555  82.4858856  70.8356905
  47.6385736  68.6369133  45.7783890  48.0647945  67.7810478  45.7329702
  46.7758036  68.4958076  45.3885794  47.1772766  74.7406530   1.6667725
  46.9210672  73.9037514   1.2792388  46.4228153  75.3120041   1.5233031
  57.6936579  73.4115076  76.9116163  58.2167196  72.6100159  76.8958664
  56.8516970  73.1554794  76.5350723  51.4892769  79.9958754  56.4138794
  51.2703466  79.9934626  55.4820585  52.3578024  79.5958185  56.4568901
  28.2008600  62.8251982  58.5122108  28.2942200  62.8411388  59.4647121
  29.0606570  63.0869436  58.1828642  75.6056118 101.6867161  37.8056741
  75.2397299 102.5251770  37.5239921  76.2242842 101.9162083  38.4990811
  53.8736486  85.4037476  50.4171991  53.5532856  85.1506424  49.5514393
  53.3476496  84.8871422  51.0276699  43.9406300  84.8801708  26.3518500
  43.7951136  85.7939053  26.5970755  43.3393335  84.3843555  26.9075871
  66.2144804  43.1233597   9.7051162  65.6406450  43.3511114  10.4366028
  66.4525795  42.2097778   9.8629296  64.1543484  97.0962524  25.0260091
  63.8067389  97.2808456  24.1534686  63.7194443  96.2856293  25.2905250
  65.6424713 127.3955441  38.1641793  64.9367142 126.8034935  37.9041576
  65.4509211 128.2130051  37.7045059  65.4969311  91.9015217  55.5685234
  66.0831594  92.2230911  54.8835707  64.7734690  92.5282097  55.5782652
  80.5000687 102.3742294  89.1413172  79.8481035 101.7248249  88.8777693
  80.8290482 102.0558357  89.9819287  65.5923557  60.6799841  21.1914587
  66.5420341  60.7983446  21.1731863  65.4402590  59.8846197  20.6810737
  56.0643864  93.3084774  22.7840829  56.1512518  92.7734852  21.9951177
  56.3409138  94.1834736  22.5117850  61.4691687  89.8822880  56.6433668
  62.4108028  89.9466610  56.8028069  61.0950994  90.6271935  57.1139193
  71.4961576 104.0384674   5.4118192  70.8579254 104.5390606   5.9200513
  72.3388052 104.2435074   5.8169538  67.7305079  61.2341309  26.3117957
  67.2857332  61.8225288  26.9218755  68.1250620  61.8161440  25.6623197
  60.0535679  82.2155476  40.2568769  60.0664234  82.8518677  40.9718323
  60.9765863  82.0691586  40.0499105  48.1249952  98.2299042  73.3774900
  48.0545187  97.5530052  74.0505934  47.4991751  98.9020538  73.6472988
  69.8918104 103.5126019  38.4673285  69.6212482 102.6523113  38.7881446
  69.0974474 104.0449333  38.5102677  64.2600489  90.1669598  33.9218640
  64.2094946  91.0861778  33.6597252  64.8220634  90.1694202  34.6966982
  53.4003830  74.9006844  47.9256582  53.4286880  74.7954369  48.8766336
  53.6931086  75.7995415  47.7753401  50.0079107  78.5274410  87.6727772
  49.8789120  78.2958937  86.7530155  49.9763966  79.4840384  87.6856422
  47.5814533  91.2288475  84.9073410  48.1225777  90.5128384  84.5745468
  47.5514936  91.8604183  84.1886997  29.4259715  32.0023537  27.5961328
  29.4278216  32.4570394  26.7538214  28.5226321  31.7055058  27.7060914
  55.2027369  75.5166912  34.4110131  56.0979366  75.4452944  34.0797186
  55.3016472  75.5534172  35.3623796  45.0337887  67.9304218  45.3529167
  44.2566442  67.5021839  45.7119417  44.8975182  67.9188108  44.4055367
  65.8162832  88.4523392  40.2125978  65.8924723  87.9946995  41.0498476
  66.6795635  88.8415527  40.0729561  94.4152164  68.9526463  50.4843569
  95.1916599  69.5024490  50.3790903  93.7712002  69.5249891  50.9013748
  49.8262358  84.7081566   6.1962360  50.6379557  84.9736309   5.7639486
  49.3457890  85.5257320   6.3265091  47.7720356  96.4571953  89.2296600
  46.8354845  96.3387585  89.3880081  47.9531336  97.3507214  89.5212936
  53.6024237  72.6710606  42.1785831  52.9539919  72.9975748  41.5547609
  53.9167500  71.8539143  41.7916679  62.5606632 100.2938366  37.9174876
  62.7561426 101.0860538  38.4179068  61.6045380 100.2578831  37.8897667
  68.0547190 103.2579136  42.8456354  67.4843168 102.7224636  43.3971500
  67.4638414 103.6591148  42.2083473  46.9052887 107.0811081  59.9645090
  46.9200277 107.1178627  59.0081263  47.0132732 107.9911613  60.2408648
  81.5254116 143.6127281  64.6190643  81.1186028 143.2009315  65.3813982
  82.0078659 144.3574429  64.9780607  47.2122908  53.5012484  25.6716895
  47.8730488  52.9740667  25.2225757  46.4173889  53.3827448  25.1517677
  62.5719738  78.9056158 100.9787675  63.1112671  79.0810776 101.7498770
  62.9883242  79.4053936 100.2765515  43.7449694  71.8126631  19.0090644
  43.2314444  72.5163937  18.6124766  43.9476585  72.1306086  19.8888707
  52.4969673  91.9635487  60.8280802  52.2110224  92.5788403  61.5032673
  52.7312756  91.1706066  61.3103580  48.0865526 103.3623123  33.6673307
  47.8585577 102.4348354  33.6038399  48.2770586 103.4991455  34.5953488
  38.7655401  37.9867125  52.6179838  38.5189033  38.5414219  51.8779182
  38.7125826  37.0941138  52.2763824  82.0203495  67.8817081  43.4179020
  82.3460960  67.6236343  44.2801762  81.4941597  68.6636877  43.5848427
  77.2791672  98.6775398  27.4430561  76.7578745  98.3334637  26.7177320
  77.9749012  99.1809750  27.0202875  58.9207888  74.9676895  58.5977697
  58.3186054  74.2688322  58.3424187  58.9950562  74.8843813  59.5484400
  47.4088669 103.7823391  65.9385872  46.5520382 103.6102962  66.3290691
  48.0189562 103.7488174  66.6754007  43.9663458  96.0392094  12.9805934
  44.1743755  95.1411915  13.2385123  43.5894346  96.4331532  13.7673426
  26.6468143  60.2381706  37.1550703  26.4839935  59.3076181  37.0008183
  25.9779835  60.4964399  37.7892590  39.8029780  68.1867743  30.2959466
  39.4766474  67.9423618  31.1619735  40.5444813  67.6005363  30.1451778
  40.7915020  71.3374949  17.8523493  40.9753418  70.9413004  18.7040925
  39.9671960  70.9376335  17.5751054  35.0768971  91.9947910  44.1828108
  35.2603555  91.0553646  44.1758633  34.5203137  92.1358013  43.4169388
  41.7226601 119.7533035  32.0576215  41.9672298 120.2296925  32.8510165
  41.8910027 118.8348579  32.2682381  67.7108240  76.9458961  38.2846880
  68.2314491  77.0282030  37.4856853  67.1520996  76.1844110  38.1291199
  22.5032592  73.4143496  29.5250106  22.3459983  74.1242504  28.9024806
  22.7651310  72.6719332  28.9805198  41.6021824  79.7976017  28.5791183
  42.3252296  80.4238129  28.6152267  40.8187675  80.3409672  28.4939837
  68.0117989  81.7555714  14.0453970  68.8516235  81.5928555  14.4748724
  68.1241846  82.6018238  13.6124325  96.9758511  63.5994148  19.3111253
  97.7574539  64.0907478  19.5639467  96.2532043  64.2120838  19.4477141
  77.8858137  63.1328487  33.6664653  76.9689178  63.1015825  33.9395094
  78.0783939  64.0665197  33.5804248  66.5729237  60.3543520  33.7914228
  66.5377569  60.9358644  33.0319238  65.7005739  59.9626350  33.8337564
  53.5307121  69.2807961  32.5804734  52.6086903  69.4900227  32.7299261
  53.9150953  69.2530632  33.4566665  31.7649865  78.6118174  42.3967886
  32.1267009  77.7257013  42.4106598  31.5845490  78.7824154  41.4723587
  79.4046688  65.6597567  25.7607698  79.1232157  66.5628672  25.9070873
  79.5981121  65.3243589  26.6361666  15.5762446  34.7567630  26.6044760
  16.3295841  34.1771650  26.7175150  15.0342822  34.3197727  25.9475517
  75.5724430 112.8645420  58.1629181  74.8728180 113.1970501  57.6006031
  75.5537701 111.9163609  58.0331802  42.6216221  87.2006893   1.8042706
  42.9859686  86.6735363   2.5153244  41.8026781  86.7610741   1.5755686
  96.4626598 107.3742580  20.7740068  96.3208389 107.7875137  19.9223363
  97.3260784 106.9673920  20.7019925  86.9612885  60.4214573 109.3161136
  86.4591408  61.2289476 109.4258037  86.4188385  59.7451067 109.7217313
  36.0850215  82.4685764  42.3005629  35.8567429  81.5906715  41.9949436
  35.2517867  82.8502274  42.5767851  80.6390476  91.5364933  41.9167757
  80.7621193  90.5977440  41.7759991  79.6966410  91.6719627  41.8180323
  74.1840696 105.3622246  32.2327280  74.1186142 104.4119549  32.1381783
  73.6418009 105.7112122  31.5253496  98.9215851  85.6441307  29.8466992
  99.0021420  85.8591366  28.9174438  99.7470760  85.2114773  30.0648713
  49.9806118  75.5140400  47.9817438  50.5624962  75.8992577  48.6369181
  49.1745758  75.3216362  48.4608173  25.4072046  54.0554667  28.5239172
  24.9239159  54.8777008  28.6051345  24.8081827  53.3909369  28.8642168
  43.0874300  77.1016216  16.8197739  43.4056807  76.2772274  16.4519072
  42.8927994  77.6452446  16.0563445  89.0058994  61.0964251  39.9485040
  89.6028423  60.3580618  40.0698185  89.3248081  61.7644548  40.5553532
  53.4002542 102.3565769  52.9316139  53.1894827 102.1260548  52.0268154
  54.0964127 101.7475700  53.1779909  41.0661077  99.0122032  32.8919888
  41.6119671  98.5801029  32.2350574  40.8463621  98.3189583  33.5143685
  48.2453680  91.4905071  33.4581041  48.8830423  92.0025349  33.9555168
  48.6551428  91.3637066  32.6023936  85.0765133  55.0794888  14.5762599
  84.3460941  55.6980801  14.5841968  84.6673775  54.2277384  14.4234002
  90.6714725  69.3173265  22.8164029  91.3795471  68.7461805  23.1141591
  90.8656883  69.4781113  21.8930054  57.2324419  71.4230871  23.2558298
  56.5207815  70.9708214  22.8028035  57.4556351  70.8466911  23.9867115
  52.5123501  84.3395901  14.5059562  53.3097315  84.7139645  14.8804653
  52.6064777  84.4705772  13.5624433  45.1157045  84.2861462  24.1096997
  45.0910044  83.3438492  24.2761111  44.7848845  84.6806240  24.9166536
  55.9148979  52.7407646  17.2608089  56.2766552  53.1114149  16.4558339
  56.4656210  53.0978584  17.9575300  35.3944445  89.0287113  38.8059878
  35.3364778  89.9001217  39.1978145  34.8420858  89.0796471  38.0258989
  72.3903561  47.9071140  19.9330056  73.0626583  47.2392321  20.0678253
  72.5420618  48.5440350  20.6312490  63.7242651  87.0225048  31.5238810
  63.3934212  86.6694641  32.3497939  64.2497492  87.7802372  31.7806888
  62.1382189  72.2150850  38.1001854  62.8556299  72.4882460  38.6719656
  61.6513968  73.0204678  37.9252744  65.1372337 104.8438072  26.0226536
  65.5420876 104.7759724  25.1579452  64.9485731 103.9386940  26.2704635
  37.5781059 101.1599541  57.1798897  37.5865006 101.4090347  56.2557077
  38.4957075 101.2053967  57.4485445  97.6894665  83.8816547 100.6952497
  98.1891632  83.6618137 101.4815077  97.1447945  84.6238613 100.9573504
  56.8880558 116.3877964  26.6553640  56.9615650 115.4774570  26.9419098
  56.0092306 116.6538048  26.9258142  63.9564085  82.8061104  33.2694507
  63.3353138  83.2890987  32.7242923  63.4777355  82.6301861  34.0794849
  67.4854422  92.6844501  35.9361458  67.2649479  91.8828678  36.4105606
  68.2085896  92.4318314  35.3621483  62.7656269 116.0179138 101.1999490
  62.8899145 116.4918518 100.3776553  63.3288813 116.4728165 101.8260797
  62.0928621  48.3678961  13.6731303  62.6316786  48.2064867  12.8986275
  61.1957550  48.3913279  13.3401430  68.8067579  92.5373077  11.5217638
  68.0778122  91.9169807  11.5142179  68.5739136  93.1885529  10.8600223
  70.4614449  75.1032257  33.2626438  69.9901581  75.4040241  34.0395856
  71.3080597  74.8061419  33.5961342  83.1369114  62.3264074  21.0761714
  83.0631161  61.8721104  20.2368855  83.2213593  63.2505846  20.8416605
  58.3983660  44.6530104  31.8399358  58.7345457  44.5779324  32.7330065
  59.1246843  44.3673038  31.2857985  32.9281402 105.9189987  23.7399602
  33.5103011 105.2796364  23.3294201  33.5150361 106.5054798  24.2172647
  64.6294546  50.5132484  12.5646651  64.6848154  50.1776505  11.6699350
  63.8262033  51.0337257  12.5759792  68.7988806  65.1181841  11.6237211
  67.9503489  65.3539944  11.2487316  69.0353298  64.3004942  11.1858726
  69.7620440  54.0827322  29.6701956  69.2706490  54.7428226  29.1812730
  70.6776857  54.2538595  29.4498682  62.1203041  72.2983789  12.2088289
  61.7868948  72.6589155  13.0304635  61.3546324  72.2607088  11.6356289
  95.6292057  82.1258354  36.2803626  96.0691071  82.8135300  36.7801547
  96.3421345  81.6014385  35.9157062  24.3661284  78.5982656  34.1389060
  23.6642194  77.9513121  34.2096972  23.9117193  79.4371176  34.0609837
  84.4933224  82.3668385  34.3781900  83.9060020  82.3060989  35.1315856
  84.1825962  81.6898251  33.7770796  36.2863612  81.5447140   8.4247291
  35.4235339  81.8114758   8.1075543  36.4555836  80.7109833   7.9859960
  84.9308872  93.3449554  45.9137011  85.0273800  93.6061096  44.9978828
  84.1894150  92.7396107  45.9132910  20.6794596  86.2981987  27.2652721
  21.0943937  85.7282257  27.9127169  20.1294971  86.8870449  27.7820230
  44.5821953  37.4309802  22.6050925  43.8291693  36.8403625  22.6238132
  44.2502546  38.2537603  22.9643679  59.6010828  83.3934402  30.5166197
  60.5387497  83.5571575  30.6176710  59.2976332  84.0902424  29.9347115
  86.5748405  55.0170851  41.2233925  86.9449425  54.5227671  41.9547701
  86.8114281  55.9266424  41.4049578  69.2967367 110.8436489  12.6926219
  69.7748756 110.1538563  13.1528389  68.4650469 110.4371166  12.4492061
  56.4356899  83.6686897  24.0467310  56.2861443  82.7754402  23.7369299
  55.5831957  83.9540672  24.3754363  56.3000107 107.5689125  29.3878484
  56.3378716 107.1615601  30.2532148  55.7832670 108.3637905  29.5196986
  47.9103565  89.0639782  17.5557089  48.5259867  88.4520531  17.1522450
  48.4256601  89.5169926  18.2231438  69.9048376 101.3524723  36.3920999
  69.2265892 100.6843090  36.4909720  69.5026255 102.1535587  36.7278361
  87.6575947  42.8539658  42.5849867  87.3010159  42.7249336  41.7061043
  86.9618130  42.5574636  43.1716681  62.7775383  80.5122280  27.7402973
  62.6600122  81.1324787  28.4598184  61.9118595  80.4461384  27.3372364
  46.2850618  62.0390606  38.2699633  46.1465740  61.2576580  37.7347422
  46.9057465  61.7610836  38.9435458  31.1024785  89.9680710  31.4525175
  31.2269998  89.9470425  30.5036855  31.9828796  90.0926685  31.8069220
  94.2251968  94.8410511  27.4051332  95.1175880  94.8676586  27.7503228
  94.3014812  94.3605709  26.5807867  58.9757204  86.2780190 100.8394864
  59.5017385  85.5010796 101.0289397  59.5513678  87.0137405 101.0482492
  93.8214302 101.9085217  46.1522818  93.9486694 102.2084236  47.0523357
  93.1109142 102.4547195  45.8160210  63.5304403  19.1872752  67.3486710
  63.9333344  20.0468326  67.4714470  62.9350328  19.0934241  68.0922508
  97.0848370  58.3227396  20.2641606  97.6324749  58.7069416  20.9487844
  96.2896919  58.8556337  20.2662873  64.3602371  91.9529819  36.9866347
  64.6466208  91.1193371  37.3598075  65.1314735  92.5173092  37.0410752
  27.3127556  38.4464049  17.4417651  28.2432032  38.2217383  17.4469066
  26.9151664  37.8344226  18.0611444  12.2514689  36.1268568  41.2908983
  11.8199396  35.4510260  41.8136454  11.5773737  36.7931771  41.1573076
  40.8694839  87.9536152  15.6831098  40.6288099  87.4683952  16.4723337
  40.4587889  87.4671650  14.9683142  99.8785973  68.2646465   7.8352886
 100.5665970  67.7841902   8.2957709 100.3476048  68.9268732   7.3276275
  61.5112400  69.1996527  29.1661167  61.9862652  69.7445965  29.7935033
  61.1194181  69.8237896  28.5552430  54.4995880  99.0251541  38.8808107
  55.2095222  98.9455318  39.5179057  53.7003469  98.9520645  39.4024420
  51.6701174  76.5372944  28.5035253  52.4095821  75.9783030  28.2648921
  52.0152140  77.1124029  29.1864538  64.1767693  97.5128555  43.8525105
  63.4773159  98.0288506  44.2534494  64.4158888  96.8722343  44.5223188
  69.2583323 123.2580471  46.3152504  68.7427950 122.9069424  45.5891800
  68.9296341 124.1492367  46.4334440  72.5394249  91.8061543  15.3283346
  73.3561420  91.5472889  14.9014926  72.7085400  91.6847992  16.2626278
  70.8569813  83.3715057  31.8519282  70.5602598  84.1518593  32.3201704
  71.6244221  83.6643982  31.3605213  50.4206800  60.6875849 109.9786089
  51.0069036  61.3842201 110.2740292  50.1652431  60.9486437 109.0938308
  75.4035330  84.7746563  24.0548468  75.5335331  84.4157887  24.9326539
  74.4910860  85.0638103  24.0470123  46.5947247  93.7734604   1.5951551
  47.0236492  93.2837772   2.2969128  46.6758251  94.6901321   1.8585387
  68.3353138  83.4459782   3.7199792  69.0990639  84.0211105   3.7662542
  68.0578041  83.4895039   2.8049231  22.8994036 102.0779133  47.9742718
  23.2414651 101.2234211  48.2370901  23.5487843 102.7044106  48.2937002
  14.6323943  63.8516808  11.2786376  14.2276120  64.0540123  12.1221101
  15.3381276  63.2412148  11.4919519  87.0014954  79.4878149  32.8511333
  87.6503658  79.0982056  32.2651243  86.4926434  78.7439203  33.1734967
  49.3367720  60.6930208  42.3306751  49.0816450  61.4520502  42.8550959
  50.0514603  60.2903795  42.8239584  41.3504410 104.2788315  62.9222012
  42.0768213 104.6324825  62.4088478  40.5688810 104.6717167  62.5335741
  57.9469395  95.4315567  47.9932785  57.1086311  95.2175236  48.4027386
  58.4263754  95.9137440  48.6669779  34.6795511  93.0363941  47.0285130
  34.6810770  92.9296970  46.0772800  35.4679227  92.5797176  47.3220205
  57.5794506  77.1036768  20.6551957  58.1388235  77.7541399  20.2306628
  58.1905508  76.5136194  21.0963488  71.9342327  84.7278118  34.1992116
  72.0381021  85.5705929  33.7574506  71.3193035  84.9047184  34.9111056
  68.4506655  79.5481443 108.3314017  68.1785965  79.9142170 107.4898549
  69.2112160  80.0709343 108.5853551  81.4259720  48.0379152   5.9726053
  82.1452618  48.6673355   6.0243773  81.5640926  47.5842142   5.1411557
  64.5802212  60.9208298  15.7210326  65.3110313  60.4506922  16.1224282
  63.9087534  60.2516270  15.5885971  30.5671787  60.2475834  10.2460599
  31.4441776  60.6098223  10.3720999  30.5850554  59.4101906  10.7093954
  85.1850128  61.8665552  55.9344053  85.8270073  61.1654377  56.0462618
  84.3391418  61.4185333  55.9314013  27.3562074  82.8553581  38.2716417
  26.6315579  83.4124660  38.5557938  28.1408834  83.3741570  38.4487486
  71.8774557  69.9376392  20.1045156  71.9334126  68.9877510  20.0005341
  70.9560204  70.1421452  19.9452651  78.3230543  71.1444235  25.3851414
  77.9623175  70.4683065  24.8115873  79.0552235  71.5124846  24.8904872
  79.3016672 100.9586430   4.9602008  79.5896626 101.7210388   4.4581574
  78.9655399 100.3510475   4.3013549  33.2947183  79.3375397  11.3703489
  32.6961374  78.6866713  11.0038817  32.7345943  80.0828648  11.5870965
  67.3128176  90.9343147  22.8782177  67.3753357  90.7579327  21.9394875
  68.1602383  91.3160229  23.1071568  59.8468113  77.3011017  40.8141565
  60.2194643  77.5494194  41.6601467  59.0735579  76.7823744  41.0360336
  45.7929373  75.5336571  22.8864551  45.3732157  76.3605404  23.1237960
  46.1047459  75.1760483  23.7177944  26.3452911  80.5879784  71.9106102
  26.0839462  80.2108669  71.0705423  26.9491363  79.9459076  72.2838926
  51.2888098 102.2732067   2.5287095  51.7921829 102.9313564   3.0079693
  50.5463696 102.7566147   2.1663070  61.2779284  88.9860249  13.1074822
  60.7985258  88.7508869  12.3130548  61.9954348  89.5395660  12.7992439
  46.7710114  65.2181053  41.6149664  46.1687088  65.9093618  41.3399553
  46.2075567  64.4633532  41.7855406  82.5601292  90.7670116  21.2495399
  83.0421925  90.2652645  20.5922008  81.8328094  91.1586761  20.7659721
   4.8336431  64.8462057  23.6021996   4.9013302  65.5125713  24.2860126
   5.3187793  65.2119255  22.8625202  28.9537096  79.1515064 107.6074704
  29.6904731  78.7075663 107.1875575  28.3458948  78.4469271 107.8318883
  58.2902575  79.5059204  31.5673065  58.0426884  80.3959465  31.8178988
  57.4597025  79.0336514  31.5092564  56.2382793  65.7277155 107.9698529
  55.3472042  65.4458237 107.7630954  56.1237860  66.5341187 108.4726846
  92.5787067  96.6009903  39.1882348  92.5865650  97.1719456  38.4200048
  93.5034180  96.4613056  39.3922925  61.7907429  68.0982208  14.5141697
  60.9100723  67.7324581  14.5970595  61.8421555  68.3953524  13.6057091
  40.7547474  78.2649469  20.4742312  41.2518406  78.8003349  19.8557723
  40.3145123  78.8991547  21.0400987  58.1331444  91.0881615 107.8015149
  57.8225088  91.9145870 108.1713265  59.0789461  91.2058640 107.7129986
  74.1675711  67.4935293   3.3707860  74.9890614  67.3528862   3.8415369
  74.1181850  68.4422207   3.2533985  48.9316750 120.5912590  24.1298842
  48.9644051 121.5453815  24.0605474  48.2443666 120.4213619  24.7740722
  31.2230062  96.9949722  62.4400091  30.4719806  96.7253399  62.9686785
  31.2553453  97.9466248  62.5376558  55.2122259  43.9715815  41.0607195
  55.2609777  43.9404869  42.0161724  54.2778683  43.8986683  40.8660698
  44.1646099  94.5118809   6.4282829  43.6212921  93.8434601   6.0108364
  43.6105156  94.8731518   7.1201587  45.7236242  72.3765421  33.0512762
  45.9641743  72.5061703  33.9686418  45.0483561  71.6985130  33.0742407
  35.1667047  85.5025673  51.6285610  36.0432673  85.8444309  51.4524889
  34.7660589  86.1550808  52.2029638  81.2966633  49.8975563  27.6527762
  82.2078896  50.1771879  27.5650835  81.0402966  50.1876307  28.5281992
  82.0715523  74.6622181  13.6462104  81.1337376  74.7078037  13.4600592
  82.1630764  73.9114332  14.2328763  54.6080589  92.1068954  44.8403358
  54.7931242  91.1712456  44.7595024  54.5119476  92.4108791  43.9377880
  55.5717802 104.5309639  57.3824692  55.2624655 105.2561378  56.8396139
  55.7992458 104.9377251  58.2185555  74.8271751  89.4913006  14.5118022
  75.7565117  89.6273327  14.6963465  74.7033119  88.5454082  14.5905006
  78.6005211  38.5412025  37.7964330  78.1174612  37.8561783  38.2586288
  78.9392471  38.1082916  37.0127988  31.7557001  69.2280293  15.1107335
  31.0660672  69.8231268  15.4048264  32.4331594  69.2953300  15.7836020
   1.3405801 118.9900303  49.5638323   1.7004460 118.1095982  49.4562531
   2.0448622 119.4875145  49.9794388  60.5233669  70.0136948  37.1914244
  60.7874393  69.5524359  36.3953471  61.2584543  70.5949306  37.3864770
  53.4087276  94.8077011  20.7409668  53.3487082  95.7372761  20.9612513
  54.1835451  94.4996929  21.2110996  73.5544300  64.7220039  18.0177832
  73.3509064  64.2044735  18.7968671  72.7274227  65.1464367  17.7894139
  57.7798653 108.5495758  23.8292933  57.1766424 109.2607880  24.0449929
  57.7623701 107.9792881  24.5978642  87.9095554  71.5469408  26.5338421
  87.2133732  71.3749504  25.8998203  88.6208820  71.9199800  26.0131812
  74.0353203 103.9410973  38.0049038  74.5180607 104.4217300  37.3324561
  73.6485577 104.6222591  38.5550499  49.4409704  62.1382284   7.2652435
  49.2400503  62.9675007   6.8314528  48.7218523  62.0112562   7.8840977
  38.1676316 115.2264214 100.2938762  37.3968220 115.2388859  99.7264882
  38.0432034 114.4574070 100.8500876  97.7000046  69.2982721 100.0214317
  98.6337471  69.4556761  99.8815008  97.5940132  68.3557606  99.8923143
  57.9748106 102.2287273  19.8652124  57.2783709 102.8009224  20.1873922
  58.3086967 102.6731968  19.0859830  65.6687164  95.1894474  40.0830078
  64.8782682  95.0216198  40.5960894  66.3011503  95.5227661  40.7195234
  51.7914915 117.5254917 102.9354211  51.8519449 117.1615505 102.0521733
  50.8861732 117.3625660 103.2001551  89.5666218  86.7975903  23.9368653
  90.1430607  87.4141121  23.4853745  88.9439011  87.3521614  24.4068718
  31.8344378  53.2289648  22.4656677  31.4239216  53.8536882  21.8678164
  32.4069762  52.7034426  21.9068646  69.8589802  74.6123552  19.7564459
  69.8197699  75.2792740  19.0709448  70.7945299  74.4569874  19.8862183
  48.8826513  59.6859932  27.0997262  49.6577072  59.1544437  26.9181490
  48.3503580  59.1426563  27.6808286  46.2354612  72.6952744  62.2901440
  47.1642065  72.6554346  62.5183344  45.8298159  72.0060349  62.8161049
  64.8775816  97.5271416  48.6309671  64.8084784  96.5894127  48.4517813
  65.8151007  97.7127361  48.5775852  70.4437351  80.0961685  17.8928554
  70.9857988  79.4114447  18.2847154  71.0611773  80.7935429  17.6722515
  41.0209894 107.9339409 107.8355227  40.5431843 107.4725056 107.1463161
  41.6255713 107.2802067 108.1867256  59.7110796  93.3823490  47.5999308
  59.2112970  92.7079105  47.1399593  59.1213083  94.1354561  47.6349115
  57.0237780  81.3408661  14.5222843  57.8175449  81.1991978  14.0064406
  56.5236616  81.9844723  14.0203977  36.2749243  97.9791355  23.0472875
  35.9673476  97.8889465  23.9492273  37.1604538  98.3329010  23.1304574
  64.7418642 113.1024837  24.2303634  65.4867935 113.7035370  24.2378020
  64.6235943 112.8562737  25.1477647  62.2438335  78.2132101  51.2362480
  61.2912035  78.1273937  51.1992931  62.4015093  79.1560030  51.1861181
  81.7972469  72.0552969  29.2623591  82.2432423  72.7771711  28.8193917
  80.9786415  71.9464445  28.7783337  55.1309967  71.6906166   3.3743986
  54.3682528  72.2149229   3.6184359  54.7717190  70.8288193   3.1635562
  56.7398310  81.9191647  32.1579552  55.9538364  81.6687489  32.6434898
  57.1169186  82.6371002  32.6664829  57.2257996  45.3247213  14.6819329
  57.6414537  45.8563948  15.3607452  56.6639328  44.7177076  15.1636767
  50.4163837  98.7704849  15.6488073  50.8769751  99.2888546  14.9889755
  49.9324369  99.4151878  16.1649275  53.7450218  72.2455597  38.4699249
  53.4964085  71.6734982  39.1959882  53.1904793  73.0188465  38.5735464
  33.9745355  95.4207039  24.7718501  34.7292972  95.2364826  24.2127180
  33.7826872  96.3457966  24.6181035  48.6416292  50.9448051  18.4811223
  48.7237644  51.3001394  17.5961232  47.7072668  50.7620287  18.5800743
  97.3789310  38.7060857   5.0866580  98.1699848  39.0013933   4.6358216
  96.6631794  38.9529896   4.5010218  45.3204012  46.3939333  28.1655741
  45.6014585  46.6061020  29.0556431  45.2945423  45.4373217  28.1441927
  86.3694096  73.5929251  42.8009653  86.2179661  73.0402946  42.0342207
  86.4400291  74.4794798  42.4470377  73.2993746  40.5870771  21.2067890
  74.1559458  40.9913635  21.3448763  72.9716969  40.4128981  22.0891285
  57.5495291  82.0528984  20.7817578  58.1650686  82.6075459  21.2610269
  57.9132032  81.9996548  19.8979378  57.6281977  75.6599092  30.0522351
  56.9228697  76.2454128  29.7766805  57.5321913  74.8893070  29.4926047
  33.3365154  59.8407888  87.3726972  32.7351713  60.3460026  86.8255433
  32.9517078  59.8773432  88.2483777  44.1257620 101.0796547  27.3108053
  44.0875816 102.0323563  27.2263408  44.6733522 100.7960510  26.5787244
  51.4625549 112.3538399  26.8128991  51.8191862 111.8885612  26.0562181
  50.6978416 112.8168583  26.4707613  67.0511293  79.5300245  42.1501780
  66.5082550  79.0788507  41.5036774  67.5965023  78.8401937  42.5282478
  58.7623262  83.9754486  22.5342607  58.0181217  83.8511181  23.1232715
  58.4600782  84.6259880  21.9004703  64.4477749  78.6522150  19.2023897
  65.0597572  78.7038755  18.4681964  64.5340300  77.7545786  19.5233870
  75.2330351  78.6560965  38.6180139  75.7206917  78.1920195  39.2984962
  74.9394941  77.9672766  38.0217004  34.3651390 109.1853142   3.2924342
  33.5009289 108.8216400   3.0997691  34.1832638 110.0330162   3.6980760
  81.3924503  62.7959013  35.1820731  81.7860413  62.0458651  35.6279063
  80.5493927  62.9185581  35.6184554 104.0629578  78.7229633  19.6199918
 104.2415333  78.5099745  18.7040329 104.9009228  79.0356970  19.9609387
  43.1402636  31.7362285  23.9352918  43.5233021  31.6659045  24.8096871
  43.1949902  30.8499622  23.5778451  43.0420542  78.8326550  43.7702084
  43.8696051  78.5516310  44.1606140  43.1335068  78.6256886  42.8401327
 108.9062405  73.1831551  13.8137496 108.0131626  73.4651279  14.0115726
 109.4191551  73.9913177  13.8184857  43.5226107  79.8599195   5.9640181
  42.9149103  80.5705738   6.1687416  43.5550976  79.8406315   5.0075644
  68.5673952  70.5057526  26.0854769  69.3246460  70.8744907  26.5402675
  68.0606794  70.0753021  26.7740870  50.1966715   7.4235802  41.8994665
  49.5997429   7.5733071  41.1663294  50.0911427   8.1953698  42.4557304
  97.9080200  73.4651995  10.3109419  98.4497643  73.5638714  11.0938931
  97.5655937  72.5731373  10.3674817  66.5768242  53.3126450  38.5773706
  66.0057735  53.5764837  39.2988420  67.3468924  52.9389048  39.0057898
  48.5911608  79.4636393  32.4871612  49.4454670  79.7025347  32.1275496
  48.2117605  80.2939701  32.7749729  28.8228583 125.1493645 108.7212189
  29.3099403 125.8256340 108.2504354  28.7315011 125.4944420 109.6093685
  99.5084095  88.2738304  22.4531484 100.1638317  88.7581539  21.9510698
  99.9088001  87.4181271  22.6070142  90.6352139  76.1223364  89.5107397
  90.8725834  76.2171268  90.4331847  90.6101227  75.1764965  89.3658599
  98.8013172  55.5396700   6.8115354  99.4194603  54.8791027   7.1242309
  98.8682079  56.2509155   7.4486244  60.0214672  65.3938437  13.0827165
  59.4643545  64.8422909  12.5334871  60.7973289  65.5592155  12.5470710
  76.4237213  67.5239754 103.3408251  76.8006468  66.8990183 102.7214780
  76.9455338  68.3183241 103.2270195  64.9027395  89.2188072   9.7499681
  64.9894428  88.4132385   9.2402911  63.9647436  89.4092751   9.7391701
  61.4415264  86.1806202  77.5697216  61.4469147  86.8937302  78.2082161
  62.0868444  85.5566597  77.9020914  76.9001818  82.0074463  79.8963174
  76.9453335  81.2844658  79.2706188  77.6383829  81.8591595  80.4873356
  53.7056637  47.6814508   8.0186850  54.1326618  47.1679974   8.7044454
  53.7756252  48.5875463   8.3192354  53.4733438  98.4054947  35.4971576
  52.8939056  98.2775593  34.7460842  52.9040670  98.7569714  36.1817169
  72.1295309  56.4873695  10.3961897  72.6756430  57.1217203   9.9318701
  72.3579359  56.6043139  11.3183546  54.5920515  56.6612291   5.0460583
  55.3734064  57.1426105   4.7740644  53.9082050  57.3283768   5.1052147
  66.2590218 105.5108833   9.2447352  65.9038258 106.1055470   8.5840976
  67.2081137 105.6122589   9.1727304  85.0699043  82.9515743  19.8463821
  85.2182293  83.3794498  19.0030825  84.8841190  83.6705494  20.4503632
  62.8307819  99.6001720  27.8076673  62.6510048  98.6713123  27.9530334
  62.8407288  99.6960258  26.8553305  90.6704426  63.0641985  12.8469944
  91.1770153  63.7854385  13.2204044  89.8160458  63.1252432  13.2742035
  57.3733521  93.3068657   3.2266909  58.2417297  92.9114056   3.3026338
  56.8412161  92.6359558   2.7989674  67.7627945  92.6469612   7.3708379
  68.1382799  93.0331326   8.1621110  68.0357885  91.7299461   7.3990911
  73.3791876  92.7406693  35.1128006  72.9899788  92.7583981  34.2384815
  73.1474972  91.8795586  35.4606962  64.1137028  83.3575439  94.5590242
  64.0077353  84.2812157  94.3313512  65.0058842  83.1442928  94.2855962
  66.0191059  56.5497541  41.9943953  66.3989925  57.0398283  42.7235985
  65.5955696  57.2158718  41.4529705  52.5516891  49.0519142  33.9027977
  52.7280855  49.9558496  34.1635847  53.2332850  48.5397434  34.3379331
  45.2613688  75.2513504   8.1166548  44.9689579  74.3415833   8.0614728
  46.0738468  75.2728748   7.6110423  64.7446394  94.5022106  99.7629245
  64.0898848  94.0119743  99.2657396  64.2424917  95.1766682 100.2203020
  70.6044149  86.4195061  13.5223126  70.3107452  87.3108006  13.3336532
  71.5354586  86.5118408  13.7244594  62.8290415  81.0859871  13.5164845
  63.2636118  81.2797832  14.3470407  63.5242367  80.7384014  12.9578090
  81.0413933  91.7551136  25.5574465  81.3484573  92.6217270  25.8237863
  80.1502800  91.7002392  25.9025979  61.3802767  78.4693336  36.1622548
  60.7149029  78.2194471  35.5211067  60.8856249  78.6574507  36.9598532
  86.5674400  89.2430496  16.8992579  87.4768543  89.1487598  16.6158748
  86.6282654  89.4796371  17.8247619  55.7225132  73.3981228  11.8016469
  56.2071133  73.0362415  12.5435603  55.3861904  72.6311016  11.3381815
  46.8025446  67.0102835  11.6277182  47.0325041  66.4746475  10.8684778
  46.1332273  66.5018225  12.0856667  37.2860479  78.2279062  97.3794850
  37.7936816  77.6761580  96.7844113  37.1904516  77.7002954  98.1724020
  48.5026932 103.0224991  99.4680210  47.6997375 103.1041431  99.9826350
  48.2705116 102.4281406  98.7545391 104.2469978  93.2631588 103.6367496
 104.8557854  92.5300407 103.5464075 104.6196079  93.9529705 103.0876210
  69.2859268  62.9947567  19.6936643  68.6311865  63.5305357  19.2459130
  70.0610638  63.0467844  19.1344762  58.6953592  79.0538883 102.4183598
  58.2222414  79.5404911 101.7433681  58.0107594  78.6042118 102.9136863
 114.6533012 100.2866554   5.9206778 115.3667164  99.7872925   5.5232960
 115.0781631 101.0636902   6.2839133  40.6096935  41.9778299   2.0073928
  41.0623264  42.8148746   2.1109064  40.2491903  42.0084715   1.1212040
  45.5876493  90.4602051  33.8609028  46.2953424  90.9570217  33.4503341
  45.6411600  89.5921421  33.4611106  56.2693644  79.4012403 100.8069380
  55.7330084  78.6122370 100.7292893  55.8289433  80.0457191 100.2529510
  14.2533123  71.2226391  11.8513691  13.3390176  71.1956835  11.5692866
  14.5487332  72.1038437  11.6223752  26.7576051  95.8189964  31.5420961
  25.8130884  95.7394409  31.4087129  27.1342134  95.1152515  31.0137510
  77.6698446 117.5269127  87.5603112  77.3301744 117.3527813  86.6825088
  78.6210537 117.4859619  87.4615391  59.3195963 101.0934925   3.3172601
  60.2378893 100.9310532   3.1014416  59.2902422 102.0195484   3.5576287
  55.7449818  68.5471058   9.0208000  55.8042765  67.7310562   8.5240322
  56.6161394  68.6598682   9.4010597  61.8463898 118.9756680  20.1428986
  61.2672949 119.5903015  19.6922278  62.2711420 119.5004082  20.8214736
  46.1699820  56.1108208  24.3076658  45.7211876  56.0212803  25.1483798
  46.9474983  56.6328478  24.5056272   1.4867513 103.2981014  21.5925169
   1.0153826 102.9659176  20.8285165   0.8031689 103.4669876  22.2409201
  78.5008240  73.9171648  29.0670824  78.8578081  73.0897760  28.7442493
  79.0716696  74.1555452  29.7975183  37.8457904  67.1108341  45.3835630
  37.6192617  67.6374245  46.1501312  37.0301223  66.6694975  45.1466274
  54.4759417  88.2804012 109.4106064  53.5505199  88.4768391 109.2648916
  54.9092627  89.1334248 109.3819087  49.2411613 112.2528934 106.2825646
  48.3486605 111.9789600 106.4938422  49.1574240 113.1747913 106.0390159
  27.6138878  73.1303406  79.9286922  26.9210982  73.2135296  80.5839451
  28.4238625  73.2806826  80.4161032  77.5063848  66.0200405  15.3007758
  77.3644876  65.8596468  16.2337124  76.6372442  65.9366417  14.9085057
  98.7606049  57.9819536 109.9028743  98.6473942  58.9058161 110.1262443
  99.2958736  57.9912424 109.1093805  76.7435312  86.1316299 105.8551862
  77.5905323  85.9417725 105.4517301  76.1108780  85.6508255 105.3215107
  33.8494682  84.6343231  34.1535044  34.1254807  85.5401039  34.0134478
  33.2767797  84.4409561  33.4112978  59.4877672  64.8849201  25.4816222
  59.4047022  64.0540314  25.0136924  59.4809723  65.5494738  24.7927451
  24.4638944 105.1173592 103.6576178  24.8344326 105.9474468 103.9574178
  23.8105774 105.3686047 103.0047145  44.1535282  81.6764259  17.0004737
  44.3624115  81.0998154  16.2655461  44.9886417  81.8023682  17.4509752
  48.0364275  89.3905830 102.9574015  47.8793955  88.6029625 102.4366012
  48.5069609  89.0771198 103.7297853  25.1152945  75.3302908 107.5724950
  24.6953511  76.1694813 107.3837092  25.2107120  74.9123192 106.7166751
  39.7538447 116.4446926 103.2777616  39.0128732 117.0454216 103.3572420
  40.4884434 117.0028877 103.0227789  76.1617613  93.0277157  74.9499234
  76.7381382  92.5727177  74.3359240  76.2016010  92.5030422  75.7495245
 101.8026638  49.7341919  43.6953402 100.9304523  49.4020271  43.4828472
 102.3968601  49.2037106  43.1645346 115.1939392 106.2330532  13.7277162
 114.8826122 107.0067310  13.2578897 115.7509899 106.5830898  14.4229853
  44.6124172  62.8760910 106.9737893  44.7878838  63.3728743 106.1746346
  44.5795393  63.5377121 107.6647375  91.8292236  73.7514448   5.5038536
  92.0190525  72.8346300   5.7029647  92.2716999  73.9121199   4.6704108
  43.9232397  36.0643077  90.1909336  44.2567158  35.3765917  90.7671913
  43.0149078  35.8147764  90.0209399  62.7070808  71.0774374  25.9388614
  61.7822075  71.1618423  26.1706233  63.1536865  70.9547949  26.7765570
  53.9381313 105.7196236 108.7013199  54.5515728 105.2267742 108.1563195
  53.1209660 105.7188988 108.2028499  99.0424538  65.4419470  95.6060668
  98.1609726  65.0689411  95.6159970  99.4830322  65.0352716  96.3522144
  27.5322413 104.5385456 103.8713779  27.4433589 103.6032486 103.6882421
  27.1538329 104.9696636 103.1051042  75.4590034  80.7852745  40.4398441
  75.4810095  80.3247452  39.6009994  76.3256884  81.1842060  40.5168724
  67.9856586  86.5343189  85.8598741  67.6369095  86.9968319  85.0978478
  68.7681103  87.0291901  86.1029943  67.4748611  96.0594654  37.5684190
  67.0733213  96.9205284  37.4519944  66.7402411  95.4765701  37.7602649
  71.2143946  85.9937477  27.6888585  71.7358160  85.8808136  26.8941283
  70.6185102  85.2446556  27.6928282  83.7877083  71.5764904  13.2086813
  83.7949467  71.5635157  14.1657662  84.2241955  72.3962593  12.9769552
  70.7155943  94.5303345   7.4390435  71.3164997  93.9116669   7.8542399
  69.8476028  94.2570972   7.7359653  70.9906387  98.9842796  32.8528309
  71.8081617  98.5087681  33.0003691  70.3450441  98.5224628  33.3877683
  46.8091393  96.9291973  69.4808444  46.2676811  97.3278236  68.7995537
  46.9560385  96.0336018  69.1765889  90.2145958  86.5071774  90.1806542
  89.6590328  87.1525860  90.6177183  90.1066208  85.7088947  90.6976780
  89.5643902  90.8718872   1.5822697  90.0680447  90.8313084   2.3952387
  90.2197456  90.7856369   0.8899526  81.7831707 108.1367588  71.2099990
  81.6997147 107.7120781  70.3562339  82.5634766 108.6852741  71.1294087
  48.2780504 115.4271412  35.7290959  48.1758022 114.8385715  36.4770055
  47.8935862 114.9494553  34.9940872  76.2253761  58.4099102  85.7960423
  76.6276455  58.0219078  85.0189551  76.6153955  59.2818785  85.8575901
  42.8110456  99.1992855  36.9282413  41.9457006  99.5412922  36.7036676
  43.3827543  99.5163727  36.2290716  40.0464153  89.3850517  31.1532211
  39.6979570  89.1718674  30.2875662  39.3085337  89.7798443  31.6178632
  44.1084385  43.6996984  46.7293596  44.8650885  44.1115332  47.1466160
  44.4859123  43.0475044  46.1391211 103.5814953  74.9382830  25.0210857
 103.7977028  74.1678810  24.4957590 104.3838787  75.4602194  25.0222969
  50.5763054  73.7651205   5.3813028  49.6655130  73.6603546   5.6564593
  50.5225372  74.2345953   4.5488742  67.0348740  99.3266106  89.1296657
  67.5096512  98.5355473  89.3847021  66.7749071  99.1678333  88.2222279
  65.6346321  75.7812977   1.4970033  66.3357925  76.4056015   1.3103062
  65.3968668  75.9535599   2.4080598  82.9132843  43.4387827  31.0649037
  83.4063435  42.6356936  30.8970571  82.1055889  43.1409073  31.4833879
  37.7295017  67.1072292   3.3536485  37.0641541  67.1960926   2.6712656
  37.7131414  66.1784554   3.5846198  51.2464523  88.8671207  82.1113619
  51.4113331  88.0664253  81.6134318  51.1480665  89.5474243  81.4452323
  65.0759315  63.0546618   9.6741670  65.9713888  62.7429390   9.8054010
  64.8769093  62.8352165   8.7639666  67.5310183  75.4641962  13.2328057
  67.9482889  76.3058281  13.4165716  67.5268936  75.0098848  14.0753102
  65.9299994  87.8322220  23.4516335  65.9958553  88.7800121  23.5681915
  66.4364672  87.4659920  24.1766143  44.5529556 102.1793175   8.7627906
  45.3371429 102.3970032   8.2589126  44.8210621 101.4479542   9.3190801
  41.4571095  69.8164797  57.3821831  42.3852491  69.9816179  57.2163057
  41.4483976  69.0417099  57.9442263  46.4412260 102.2690964 109.1889942
  46.4943314 103.0551910 109.7325572  47.2365141 101.7791557 109.3980664
  62.2985125  72.3336124   3.7113938  61.4078569  72.5720692   3.9684936
  62.6261806  71.8086624   4.4416624  76.0150337  84.3016148   8.7316793
  76.5764856  83.5265064   8.7175357  75.9340668  84.5218086   9.6596831
  37.9216290  69.0871906 100.7902952  37.5771618  69.9702406 100.9237244
  38.5328460  68.9564562 101.5152445  65.5437994  98.5920525  91.6562983
  65.5643225  99.0119267  92.5162526  65.7360315  99.2988110  91.0400423
  40.8765888  66.7861557  79.3691357  40.2857685  66.8661165  80.1179799
  41.2934923  65.9320927  79.4831093  88.8476849  83.0817413   0.6976696
  89.4458103  82.7899647   0.0096682  88.1750202  82.4017429   0.7344718
  97.9182816  97.4277687  10.6479561  98.8263988  97.5985527  10.3981602
  97.4590111  97.3110199   9.8162884  30.9523177  73.2357359  92.6722761
  31.6025352  73.1593227  93.3705684  30.9757805  72.3875332  92.2292944
  53.5664797  88.0341911  77.3776945  52.7774620  87.9782391  76.8386658
  53.4366274  87.3768902  78.0613121  56.1329079  94.3812752  41.0032320
  56.5055418  95.0369740  40.4137993  56.4981270  93.5504818  40.6988716
  42.9157114  88.7061501  81.9969257  42.8514242  89.2356873  81.2021335
  42.0655107  88.2716465  82.0646580  56.7587185 105.3920937  90.6868323
  57.2815275 105.8658409  90.0399431  57.4031210 105.0144100  91.2854382
  64.2877293  81.4181328   4.2651287  64.5307684  81.0100651   3.4340799
  63.4876108  81.9051075   4.0678892  77.5170755  70.7310581  19.7071826
  77.7301836  71.6625357  19.7634768  78.1963730  70.2982664  20.2243686
  45.6713581  46.8776131  97.2937497  46.2428856  46.8175030  98.0592426
  45.0939131  46.1176109  97.3657008  61.0181236  70.6257582 105.6025346
  61.2999773  70.9325790 106.4643072  60.8718204  69.6869564 105.7185989
 113.5119057  73.3194113 101.8188550 113.9935207  73.8060856 102.4877580
 112.7692509  72.9388237 102.2877332  52.8916693  89.5317364   9.3771988
  52.3785019  88.9264488   9.9124640  52.2617054  90.1947212   9.0946406
  58.5566092  87.4969769  33.4328914  58.3234549  86.7104530  32.9396915
  59.4958496  87.6042271  33.2826900  16.4994502 127.2721767   5.2919078
  16.0339677 128.0014133   4.8823228  17.3716211 127.6194763   5.4788023
  59.4767666  90.4791260  45.8629513  60.3542805  90.3350735  46.2171459
  59.2269087  89.6333981  45.4907370  84.0421009  57.1034193  11.6618991
  83.8252449  57.4382257  10.7917798  84.8640823  57.5386858  11.8880081
  58.4319401  61.2010765   4.3395883  59.2329741  61.0675097   4.8462737
  57.9185390  61.8178511   4.8613578  49.8075342  89.3926716  67.3857021
  49.6476412  88.8436985  66.6180468  50.7009172  89.7153568  67.2675037
  54.8809290  66.3649988  29.1528511  54.3262291  66.2688971  28.3787012
  55.1433277  65.4709244  29.3719673  81.0762405  68.3826780  92.9413804
  81.2969875  68.6220789  93.8414868  81.8994808  68.4715509  92.4611493
  74.2962074  76.6047716 106.6026064  74.5488691  76.8066835 105.7017031
  74.3974686  77.4332809 107.0711693  41.3015652  91.5263653 103.3355226
  41.8558550  90.7495403 103.2610931  40.9770966  91.6750717 102.4473562
 104.1135406  40.2468967 101.8175366 104.4882965  40.4407597 102.6767274
 104.0215492  41.1022425 101.3978323  36.2674189  62.0447922  29.2585516
  37.0789242  61.9452858  28.7607718  35.7220221  62.6144648  28.7161040
  43.7985849 106.6664505  21.4078498  42.9085875 106.3163185  21.3685250
  44.3300343 106.0229969  20.9390736  63.1521940  87.3668289  34.1443491
  63.5979080  86.8927383  34.8463535  63.4209633  88.2779026  34.2624092
  52.7805233  58.3598471   6.7653620  52.1549368  58.2273436   7.4776250
  52.3226786  58.0503941   5.9837919  49.3758917  98.6228275  79.9492272
  49.7128677  99.5117760  79.8376568  49.0945768  98.3615208  79.0724095
  68.9501667 109.7944927  20.6826782  68.9203119 108.8873672  20.3785753
  69.8806381 110.0189972  20.6755137  77.0061111  77.8073359  22.2956204
  77.4016190  78.6285973  22.0034981  77.1844530  77.7766275  23.2355595
  84.4961071  64.4912624  23.1318331  84.1680717  64.4443083  22.2338223
  84.9589920  63.6634922  23.2613254  51.9069719  78.8004494 109.4382985
  51.6461611  79.5014143 110.0356741  52.3011351  79.2546701 108.6936172
  43.0111170  70.8520365   5.4426658  42.9175949  71.6131067   6.0155988
  43.0648422  71.2210512   4.5610911  69.5008898  74.2393589 105.8995157
  70.2906990  74.7008848 106.1813357  69.0593052  74.8553133 105.3148484
  66.5251207 104.9051380  94.5607432  66.2472105 104.4024849  93.7950154
  65.8963871 105.6247807  94.6159383  82.7705002  76.0471916  31.5782857
  82.8484249  76.9900227  31.4325762  83.6668015  75.7557964  31.7455125
  84.2479801  63.8059521  10.4149795  83.9693737  62.9495239  10.7392371
  84.8748684  64.1169739  11.0680592  41.8190718 109.6827316 103.9887854
  41.3080120 108.9291477 103.6935576  41.4519262 109.9002838 104.8455852
  49.5575666  92.9387569   0.3878304  49.8060799  93.5155678  -0.3345002
  50.2688360  93.0290222   1.0220105  62.0929527  73.3945799  86.0635623
  61.2052917  73.1574059  85.7951721  62.0675707  74.3465233  86.1604961
  45.4922199 103.4413719  18.0142713  45.3128099 102.8601170  17.2752285
  46.3179731 103.1202793  18.3765686  60.8459234  85.2672100  80.8316835
  60.8725405  85.9062290  81.5438517  61.7641401  85.0506973  80.6697186
  80.2864552  96.0259438  98.8444170  81.1304188  95.6147766  99.0312346
  80.1259422  95.8342361  97.9204496  28.3570910 106.2412357   1.2677601
  27.9475784 106.9850349   1.7096844  28.8809919 106.6357136   0.5705182
  81.9690037  62.9105186  11.4606702  82.1900749  63.8122320  11.2277186
  81.0216522  62.9237366  11.5969634  87.3792458  82.9069710  98.9197179
  88.0843067  83.2642746  98.3798548  87.5294590  81.9616413  98.9149150
  81.3803577  38.6059308   3.3611351  81.1901093  39.4470835   2.9458031
  81.8422318  38.1056476   2.6883650  97.1406746  92.2958183   4.1471305
  97.6164722  92.3473072   3.3181524  96.2501907  92.0491600   3.8972756
  78.0223989  79.5376492  28.2602859  77.7501011  79.7165060  29.1603398
  77.3956013  78.8863659  27.9453540  34.4865251 105.0587177   2.9842412
  34.2979836 104.1355515   2.8155825  33.7655258 105.5304813   2.5673106
  59.2939663  42.7527237  39.1710806  58.6409521  43.1272507  38.5798645
  59.5138741  43.4673834  39.7686863  50.6580067  56.5868378  40.2371264
  49.9889994  57.2711849  40.2553272  50.1627350  55.7687378  40.1966047
  45.9758139  46.0710859  90.9108289  45.7579947  45.2169895  90.5375882
  45.9194660  46.6768265  90.1718208  77.2239685  80.4566574 109.6895993
  78.0155659  80.7693672 110.1275744  77.1297979  81.0286903 108.9279292
  74.1008282  60.1256704  26.0885930  74.8809767  59.5999527  26.2652969
  74.3783903  61.0275841  26.2490582  42.5652266  94.3464661  92.3780485
  41.7447138  94.8190117  92.5183757  43.0801344  94.5214462  93.1657561
  62.1855497  88.3372593  29.8954868  62.7519131  87.7048397  30.3376579
  61.4830303  88.5090446  30.5225301  73.6680555 101.2551594  93.7392994
  73.7372971 100.4980183  94.3208297  72.7374458 101.4790726  93.7473997
 100.5320263  77.8473759  29.6507311 101.1257076  78.5049486  29.2882848
 100.5687332  77.9871368  30.5969620  49.1033125 106.2904453 105.7746505
  48.3537483 106.4407349 105.1986276  48.9159679 106.8147850 106.5532460
 105.8872509 101.7910767 101.7516264 105.2710342 101.1669445 102.1349975
 105.3516960 102.3289013 101.1683925  72.7498960  92.0690155  18.2140815
  73.5405827  92.5996017  18.3116913  72.7016640  91.5599442  19.0232444
  52.7483368 106.8747139  14.1988957  53.4321785 107.2632980  14.7444224
  53.1761551 106.7120647  13.3582127  87.8374481  88.9319611  78.3844885
  88.7020588  89.2182732  78.0900081  87.6983166  88.0952072  77.9409727
  31.8632317  81.8422222  22.6325011  32.1230507  82.7526379  22.4915433
  31.0402417  81.7509270  22.1523070  46.5778589  60.9918165  30.8105397
  47.3812199  60.4837608  30.9233594  45.9141016  60.3421211  30.5791211
  64.9628210  93.5918140  17.9757082  64.3828630  93.9823151  18.6294580
  65.8283472  93.6062431  18.3842313   9.8615748  33.3274388  14.4881749
  10.7207918  33.7461162  14.5400071   9.2945307  33.8765192  15.0296581
  62.2088099  86.6001701  42.2175789  63.1420946  86.6960907  42.4073410
  61.8144608  87.4109459  42.5390816  33.0739212  48.2366276 104.6889868
  33.1372452  48.2794428 103.7348440  32.2747493  47.7362299 104.8537754
  69.6392727  87.1895981  20.9265041  68.9734459  87.8618336  20.7815409
  69.1699743  86.3616467  20.8241320 121.0109234 116.3411236   5.9884453
 120.3838539 115.6524658   5.7675922 121.8539810 115.8905220   6.0378635
  57.0966625  99.7409725   2.1227200  57.0077085  98.9614010   2.6709709
  57.8912830 100.1687717   2.4417868  69.8223686 108.0403709  18.6346710
  70.5398703 107.4353504  18.8227558  69.8919153 108.2097054  17.6951385
  76.0033941  39.9142480   5.0985676  75.6514263  39.8215771   5.9838700
  76.9532728  39.8966551   5.2154070  69.9590397  86.8310356   8.6645216
  70.6665230  87.2548676   8.1786597  70.4062080  86.2825012   9.3090189
 102.4211311  65.0977850   7.2633064 102.5303555  64.2402124   7.6742423
 101.5784931  65.0418663   6.8126845  67.6025343  88.4001160 102.8525015
  67.6254082  89.1122532 103.4916940  66.9919825  87.7637482 103.2246628
  60.9673405  61.3267851   5.3804392  61.3691568  60.5032206   5.1038235
  61.3401508  61.9843102   4.7931504  34.6954799  37.8455544 106.8888929
  35.4960775  38.3395863 106.7122462  33.9878082  38.4664392 106.7158824
  90.9586048  55.5113506 101.5834089  91.5854549  55.9448051 102.1625462
  90.6744957  54.7393656 102.0728525  53.5377836  71.8009186  27.2201109
  53.2968664  71.0012197  26.7524791  54.0869093  71.4990520  27.9436922
  54.3741512  74.6389055   9.0816313  54.9784708  74.2235422   9.6968573
  54.7555828  75.5011463   8.9164478  52.2412729 102.1347809  16.5882802
  52.3429298 102.7023125  17.3523510  51.9975996 102.7294731  15.8789217
  30.6552720  50.9213829  13.0450034  31.5419650  50.6361294  12.8244650
  30.4667401  51.6218710  12.4205005  59.2744589  98.4202480  26.8370008
  59.4217014  99.3539715  26.9876862  60.1437807  98.0260658  26.9086266
  61.2831545 107.6956940   1.1998036  60.3767776 107.8420067   0.9290476
  61.7619610 107.5769138   0.3795192 109.7697258  80.8536339 103.7295767
 109.0445805  80.7553196 104.3466093 110.3773785  80.1509190 103.9601865
  78.2765627  50.8983755   9.6962100  78.6114120  50.8125448   8.8036060
  77.5557709  51.5238810   9.6225142  42.7319336 116.2959957   5.7927686
  43.5192108 116.0786724   5.2935690  42.8248358 115.8080101   6.6109818
  40.6154394  83.7869740  33.1343174  41.2879562  83.9245510  32.4672127
  40.6463766  84.5780659  33.6723185  52.7030516  78.3319283  30.3518009
  52.6869822  78.1409645  31.2896204  53.1551027  79.1731167  30.2863717
  52.8664255  89.6039391  27.3482823  52.5233459  89.2833424  28.1823969
  53.4054804  90.3586102  27.5852084  56.4534664  39.2152572 107.4365616
  56.5554571  39.8795295 108.1181622  57.2952414  39.2083955 106.9809341
  72.1499968  35.7407308  99.3078613  72.3124313  36.6607141  99.0993500
  71.8584871  35.7496285 100.2195549  22.5403476  74.7357082  16.2385789
  22.7849603  75.6569195  16.3267270  23.1097627  74.2765617  16.8559781
  85.5789757  76.2056112   3.7351266  86.2210178  76.0271931   3.0479852
  85.0364590  75.4176235   3.7664644  59.2942095  42.3839331  91.6583252
  60.1971483  42.0663071  91.6653061  59.0453720  42.4186468  92.5819588
  57.7316904  57.1995115   4.7745839  58.0326366  56.3287210   4.5150033
  58.2794714  57.4282646   5.5254785  71.5905094 110.6093788  24.0861646
  72.2052956 110.2962780  24.7496644  71.9259262 110.2550793  23.2626382
  56.3816452  90.2687931  78.5129786  56.3200188  89.8217869  79.3571472
  56.3001490  89.5690727  77.8649282   9.3826348  93.3956909 109.7314453
   9.2920172  94.2609215 109.3322086   8.5097605  93.0085468 109.6647930
 103.1102467  53.6792469   1.9973699 102.2131348  53.4080935   2.1920530
 103.6396885  52.9024172   2.1775380  58.4219885  40.0065279  90.1737118
  57.7442789  40.6824064  90.1624966  59.1633224  40.4180384  90.6179237
  25.4287434  75.8728600 101.9610500  26.0104394  76.5736341 102.2556305
  25.9482813  75.3821373 101.3242531  59.5785284  46.6622877 101.9919014
  60.2180958  46.7215252 101.2821960  59.6640205  47.4921274 102.4612427
  39.8287129  76.9241619  17.3125783  39.3393254  77.7464628  17.2889272
  40.7422018  77.1919060  17.4129812  67.3532629  85.4351997  89.0912342
  67.0983601  86.3437366  88.9305496  68.2650185  85.3878117  88.8036728
  72.9988861  57.3493719   6.7790357  73.5170794  57.7126265   7.4972001
  73.1687069  56.4079809   6.8134347  55.4149151 105.1329327 106.4295197
  56.1967897 104.8412418 105.9606743  54.7389555 105.1921654 105.7543850
  78.9872026  61.0806656   9.9926511  78.9297247  61.7829561  10.6405011
  79.2062616  60.3011847  10.5031911  80.3030300  64.0036345   2.0974103
  81.2129116  63.9452648   2.3888627  80.3367424  64.5555401   1.3160745
  71.6447639  49.0842962  89.6527863  70.6924963  49.1020632  89.7481823
  71.8592405  48.1557226  89.5634556  50.3401756  37.1361995  92.7147484
  50.0564671  37.5304103  93.5395813  50.0900888  37.7737951  92.0460510
  28.9498329  68.4227180 100.7270432  29.3881106  69.1595125 100.3012753
  28.2701445  68.1577539 100.1073265  58.9566278  73.9815950  84.2779922
  59.0969133  74.1050482  85.2167702  58.5756254  74.8083115  83.9820004
  90.6905174  59.4549322   1.8263570  91.5268230  59.9202061   1.8447820
  90.4913712  59.3570137   0.8952276  78.4852362  41.3951921 102.8883076
  77.8017044  41.0431623 102.3181343  79.0150547  40.6340075 103.1252003
  60.1735067  66.3789463  86.2158966  60.5768871  66.4614105  87.0800304
  60.6867695  66.9609213  85.6554604  41.3563919  67.8670216  99.8452473
  41.3560772  67.2183704 100.5491543  41.9023371  68.5799551 100.1767731
  87.2667694  70.2303743  82.4282837  87.1224117  70.9314680  81.7927837
  87.1643448  69.4240427  81.9227409  62.0111132  75.5850983 106.7057228
  62.6028156  74.8479271 106.5550613  62.4807644  76.1471224 107.3219872
  60.6975508  73.9200926  13.8071672  60.7061672  74.8136854  14.1501752
  60.0526714  73.9411497  13.1001226 102.0658684  48.6776876  96.9103813
 102.1417236  49.2177820  97.6970100 102.3799324  49.2401886  96.2024307
  76.9395399  48.5166168  10.0544111  77.3797369  49.3598986   9.9479524
  76.1358404  48.7244511  10.5309717  50.0975847  61.5016890 103.3700085
  49.9084854  62.3500681 103.7709141  50.7268381  61.6994905 102.6763630
  86.3826847  76.3899231  25.7411424  86.1864853  77.2897482  26.0020200
  85.5334759  76.0198832  25.5000154  21.4168644  67.3299742  81.6008759
  21.2507820  66.5735960  81.0382557  21.0236502  68.0670166  81.1335564
  46.6055155  43.9846849 103.1171608  46.7747879  44.9244261 103.1840134
  46.8129539  43.7680244 102.2081661  48.6981201  33.5710835  17.3168699
  48.2424688  33.1975269  16.5625039  49.5297050  33.0984044  17.3525564
  39.9800992  58.4399557 105.9782600  40.1472616  58.9276886 106.7847443
  40.7787514  57.9319763 105.8356571  76.7697382  57.6436281  15.3895704
  76.1156511  58.2307529  15.0105039  76.2897158  57.1454859  16.0511247
  94.7118378  57.5523329   1.8898908  94.8830032  57.1656179   1.0311738
  94.4707584  56.8095016   2.4433461  60.4946709  51.1564589 102.6173592
  61.2177753  51.7812157 102.6723576  60.4660940  50.9038115 101.6945457
  76.9169569  46.4055252  12.7506677  76.5027428  46.6236687  11.9157544
  76.8026590  47.1901035  13.2869569   1.7276938  73.6292791   9.7150270
   1.1239209  72.9504585  10.0165120   2.5123641  73.5063648  10.2492658
  38.4209800 106.4627552  97.5586414  39.1029215 106.1900806  96.9447708
  38.4164786 105.7806015  98.2301140  80.8350945  26.9524860  90.4773617
  81.6172886  26.4388824  90.2758312  80.6799984  26.7970729  91.4090443
  52.9049730  81.6934395  96.3003445  52.9785872  81.1645508  95.5059338
  53.3371353  82.5185299  96.0796642  70.0022840  71.4825678 107.3896313
  69.6767330  71.6004181 106.4972496  70.6230640  72.2003269 107.5148582
  40.3785038  74.2390394   4.0658227  39.7772741  73.5553026   4.3612138
  40.1151562  75.0177670   4.5562021  68.4217453  38.6629105  10.4235689
  68.8742208  37.9240060  10.0167314  67.5634527  38.3146644  10.6650010
  51.7385864  69.6492863  94.4940853  52.5631475  69.7595501  94.0206146
  51.8454885  70.1748991  95.2868843  21.9075489  59.4057274 107.7567959
  22.5081015  58.6681890 107.6490688  21.6364908  59.6260357 106.8656063
  52.4367380 114.2416477   6.2922231  52.6075840 115.1748657   6.4192907
  52.8469992 114.0352249   5.4523984  72.3753405  61.6924143 103.9993191
  72.1844721  62.0563698 104.8638058  73.2285404  62.0595026 103.7679482
  61.8007135  79.2037678  19.4974366  62.5452471  78.6035681  19.5382062
  62.1182728  80.0076008  19.9088231  48.0644369  55.7574892  96.7285728
  48.1306982  56.6877556  96.5130711  48.8765907  55.3759766  96.3952827
  52.2104025  45.0904751 106.1739922  51.5948629  44.7114897 106.8014622
  53.0380535  44.6431160 106.3503265  47.4576044  20.8122873  89.0200138
  47.7921820  20.1748252  89.6508312  46.6078043  20.4618025  88.7531281
  68.3472061  31.5214753 103.2592201  68.2088232  32.2860289 103.8182735
  68.0670261  30.7792664 103.7948132 107.9831219  64.6291447  94.5214844
 107.4027634  63.8718224  94.4448185 108.2310581  64.8331547  93.6197376
  40.8424425  42.6197720  13.9447442  40.7682991  41.9132471  13.3032266
  41.0934448  42.1802378  14.7571794  65.6974173  47.4609709  33.5186521
  66.6456079  47.3870468  33.4105150  65.3496361  46.6527462  33.1417505
  12.6544571  38.5135794 102.1425247  11.8494320  38.2170582 101.7179775
  13.3540130  38.0579782 101.6742516  41.0470819  72.8996468  79.3088865
  40.5706310  73.7279892  79.3643236  41.0096025  72.6633453  78.3820677
  82.9795265  95.6836987  16.4325181  83.1388187  95.1615238  15.6462613
  82.8434658  96.5730858  16.1058751  77.8926992  47.5577641  87.2000599
  77.4792004  47.4089241  86.3497066  78.0790091  46.6797876  87.5327492
  52.6974869  59.4044542  97.9117107  51.8525553  59.6128798  97.5131035
  52.9222441  60.1847792  98.4184742  33.9367127  79.8559332  86.8863106
  33.4316707  79.9724960  86.0815811  34.2531490  78.9536476  86.8419075
  53.2665062  44.3436241  73.7509584  52.3098087  44.3321609  73.7222338
  53.4795380  44.2401361  74.6783924  69.0387583 106.0657597   9.9218503
  69.7246170 105.8238125  10.5441800  69.2444944 105.5654049   9.1321985
  52.0106888  41.0550070  80.8988476  52.0264053  40.7388639  79.9954987
  51.8072844  41.9872522  80.8228397  62.7051687  86.1963081   4.2756978
  62.1752501  86.8409729   4.7445527  62.0747137  85.5430508   3.9723722
  73.3411884  34.4521475  79.3849945  72.6249361  34.6687913  78.7880993
  73.1552744  33.5565615  79.6671200  77.5264692  34.4930577  93.3368015
  78.2875490  34.3542910  92.7731228  77.7926826  34.1462970  94.1883373
  86.6524982  76.1394453  93.2643318  85.8788109  75.9530067  93.7961960
  86.3126659  76.2441254  92.3756313  82.1283054  12.4162090   3.8067571
  81.4041710  12.1304548   4.3637220  82.8987980  12.3692119   4.3727723
  42.4116802  91.0644722  17.2654191  42.2134018  91.8253803  16.7195836
  43.3653450  90.9887505  17.2334520  83.6488533  68.6182070  94.3673992
  83.4850979  69.4291401  94.8488712  84.4251919  68.2446289  94.7844887
  35.1244807  39.1578293 109.7253990  35.4329920  38.9930725 108.8343811
  35.9229827  39.1983223 110.2516937  42.2281790  82.5883865  85.5713844
  42.4369764  83.5064507  85.7440090  41.3198280  82.4914932  85.8572865
  50.3497839  77.4158573 107.5008297  49.8688221  76.7514896 107.9943085
  50.4641247  78.1374884 108.1192207  60.3197241 105.8351135  79.0716410
  60.5510139 105.8694458  78.1434393  59.4527864 106.2382793  79.1175270
  44.4867182  37.6644063  95.5639362  43.9860153  36.8488145  95.5455971
  44.9623108  37.6722121  94.7332859  49.2023611  65.9807539 101.6181850
  49.2911720  65.2892208 100.9623432  49.5732403  66.7573357 101.1991310
  52.3804522  46.1236429  82.9190636  52.6769114  47.0330286  82.9559708
  51.6215611  46.1425972  82.3360062  70.8355570  31.7030549  99.7194386
  70.4378700  30.9433174  99.2941475  71.5751028  31.3434601 100.2093315
  43.8289022  58.4592009  93.3271599  44.6834230  58.1686449  93.6458969
  43.4591770  57.6884413  92.8964996  53.6109686  48.3582354  89.2381859
  52.8773451  48.7461329  89.7152233  54.3490076  48.4169292  89.8448849
  45.3575325  58.4510946  32.8160135  45.4256725  57.9745817  33.6433736
  44.4249630  58.4266806  32.6016561  44.6184492  93.1499100  12.7823488
  45.4075384  92.9313183  13.2781164  44.8225069  92.8947544  11.8826333
  72.3849440  83.8928986  82.3244381  72.1824884  83.3589745  83.0926609
  72.8536034  83.2997513  81.7372704  72.6629400 109.3726921   2.6331941
  72.1055984 108.9791298   3.3045427  72.5279093 108.8260269   1.8591348
  75.6137133  60.8721447  15.4931394  76.4245987  60.9717512  15.9919111
  75.1546764  61.7033863  15.6137792  87.9864788  95.8303642 100.3653526
  88.8750172  95.7766056 100.0134468  87.5733089  96.5347862  99.8660278
  67.0670843  78.5471249  73.2640696  67.1936464  79.4957161  73.2838154
  66.1279297  78.4278011  73.4054518  89.7069454  32.6890230   2.4586812
  89.0448189  32.6970291   3.1498758  90.5329609  32.5436091   2.9199544
  47.6509428  47.2557449  99.3024921  47.6214600  47.7202129 100.1389313
  48.4847355  47.5178719  98.9122295  42.0311117  44.2932081   3.7198583
  42.9324198  44.3104696   3.3980218  41.5879059  44.9845552   3.2280771
  90.6051540  53.9864874 109.3455315  91.0682774  53.1566906 109.2307091
  89.7585297  53.7388325 109.7171879  68.2689857  36.8851042  45.0164548
  68.1782103  36.0403275  45.4573003  68.0058432  37.5282812  45.6747190
  79.4045067  60.5534983  91.9493580  80.0003719  60.7735872  92.6654053
  78.9051628  59.8045635  92.2749043  44.8842096  58.0281210  21.4724008
  44.4918633  57.3426342  22.0131532  44.9982452  58.7679243  22.0690004
  26.6948009  77.7457142  72.3766899  25.8999562  77.9911041  72.8502274
  26.5756249  76.8180037  72.1732569  59.6473408  65.6722355 100.1864815
  59.0284824  65.5176878 100.9001827  59.7262812  66.6250420 100.1400280
  87.2743797 100.9173012  86.1337090  88.2014847 101.1071682  85.9900284
  86.9738102 101.6166592  86.7140388  37.8189063  83.9224720  60.4545593
  38.6376333  83.4751892  60.2404118  38.0502534  84.8511696  60.4698992
  56.2666512  63.1969357  12.1257917  56.5154505  62.9361773  13.0125467
  55.4979372  63.7543011  12.2468320  57.2436857  73.3321095 103.1908512
  56.9558525  73.9789915 103.8350010  57.6084995  72.6186609 103.7144375
  74.1326571  60.1315212  92.4813747  74.3960953  59.7214746  93.3051968
  74.8289871  59.9018049  91.8660831  93.7052345  31.0270238  70.2879858
  93.0567265  31.4326692  69.7125530  94.1402531  30.3760934  69.7372723
  90.5259132  48.8360453 109.2821217  90.5597496  47.8979492 109.0948868
  91.0833073  48.9468050 110.0523663  92.0175171  90.5551243  19.0945093
  91.4640522  91.0822582  18.5182802  92.0944881  89.7122669  18.6473981
  66.8948364  77.1522760  82.3221588  67.3912764  77.5222921  81.5921783
  65.9858847  77.1604395  82.0221996  39.0481162  49.9645662  78.1131220
  38.2997131  50.1429558  77.5436449  39.2044759  49.0252352  78.0159664
  66.1759949  55.6533337 101.1590576  66.5520096  55.3584385 100.3296661
  66.7049170  55.2204418 101.8291855  24.1071534  55.5945063  74.2110538
  24.8011374  55.8714724  73.6127996  23.6580133  54.8884058  73.7463713
  73.7238646  79.4920111  88.3173084  73.6958313  79.0749168  89.1784000
  73.0580664  79.0316677  87.8064060  45.3929949  63.7744474  20.0540677
  45.1931572  64.6820736  20.2832166  44.7757721  63.5627651  19.3537370
  49.7895432  57.4007320  92.1311569  48.9934921  56.9245338  92.3673153
  50.4987621  56.8905067  92.5221920  77.8986883  79.2155933   8.2011644
  77.2772884  79.9039412   7.9639570  77.6212645  78.9323187   9.0723840
  33.4161496  76.9296265   1.1360875  33.8211536  76.0964441   0.8952276
  33.6485410  77.5239897   0.4226724  55.5152941  62.7585316  90.4149437
  55.4838991  63.7125397  90.4864693  56.0630703  62.4811888  91.1492825
  61.1860228  68.2582188  77.7547026  60.4114866  68.7249565  78.0685139
  60.8774424  67.7667665  76.9934607  78.3161831  81.5955162  83.7043476
  78.8397646  81.1834240  84.3915653  77.4239159  81.2895584  83.8670731
  29.0945578  64.7760153  22.1739713  28.2077718  64.4163704  22.1962682
  28.9865112  65.6577969  21.8175832  66.7072058  89.8818684  94.3523216
  66.8587399  89.3369770  95.1245594  67.5782108  90.0146484  93.9782143
  54.1196871  81.0920715   0.0337926  54.2821312  82.0260811   0.1659528
  53.4861469  80.8606911   0.7130090  54.9904966  73.1954670  97.1709156
  54.3990278  73.9230204  97.3634338  55.6677151  73.5784483  96.6133022
  36.9076920  42.7933645  17.0708314  36.0412860  43.1549788  17.2573892
  36.8893623  42.5989056  16.1337701  90.0887108  85.3244019   1.9266168
  89.5184803  84.6661186   1.5294591  90.4984570  85.7663822   1.1829797
  52.0631313 103.9552689  64.1488934  51.8959856 103.6793423  65.0500917
  51.2047958 104.2163754  63.8152456  56.8571901  57.6094961 104.3845463
  56.1764956  58.2595968 104.5585060  57.6775551  58.0983448 104.4498539
  26.1178684  66.5418530  65.7088661  26.0918951  67.1093702  64.9384880
  25.5731010  66.9906378  66.3554382  87.3958015  94.3267155  74.2161179
  86.9573212  94.5509529  75.0368977  86.8013573  94.6389484  73.5339308
  61.8119240  66.6700363   3.4229127  62.5508928  67.1658134   3.0702630
  62.1657658  65.7955408   3.5850660  84.2724323  65.1807833  31.5807096
  83.8902855  65.8325958  30.9930555  83.5954285  65.0260544  32.2394697
 123.4425926  74.8380375 103.2895184 124.2213631  74.3684959 102.9907322
 123.1615067  75.3448772 102.5277138  52.7663660  40.4031420  77.8663158
  53.4409809  40.5399227  77.2011709  52.0800781  41.0324001  77.6443386
  60.3870630  80.7148743 103.5260010  59.9587345  80.0416183 102.9973316
  61.3059521  80.6794739 103.2602596  56.3505363  86.4634705   0.7129136
  55.7461882  87.1846390   0.5370752  57.1403646  86.6874599   0.2207414
  60.7882547  79.8095751   9.7813264  61.3501549  80.4259777  10.2509633
  60.0444698  79.6692371  10.3672639  73.3211327  64.4969273  98.9551163
  74.0660381  64.9889231  99.3004990  72.7946472  65.1508522  98.4953117
  55.0741529  52.0426846  84.6024704  55.8477497  52.2618723  84.0831089
  55.3784609  51.3723564  85.2142620  26.3914704  81.2318993  14.2237417
  26.0422778  80.4183006  13.8599244  27.0577717  80.9478760  14.8495237
  89.4188404  50.4214478   9.7117463  90.1496506  49.8445225   9.4896833
  89.8089027  51.2942171   9.7603360  89.6732998  46.4897156  16.0848275
  89.1357613  47.1114731  15.5942193  90.4927254  46.9572020  16.2467710
  68.6026382  76.5870094  65.8210993  68.2900143  75.8296442  66.3159657
  67.8670359  76.8244696  65.2565336  77.8125334 103.0510616 100.2748108
  78.6522388 103.5017204 100.3644371  77.9337835 102.4649906  99.5277786
  97.4481964  67.2892809  92.5557995  97.2693539  66.4279842  92.9331779
  96.7298508  67.4348879  91.9401646  66.6745710  72.8254843   8.5327092
  65.8495331  72.9091215   9.0107766  66.9172955  73.7253428   8.3146135
  68.6129856  73.4070063 103.1237984  68.0661726  73.2913876 102.3467064
  68.4721947  74.3177938 103.3823872  73.1512642  66.1201715  83.0776691
  73.5524178  66.6132879  82.3620224  73.8873196  65.8608437  83.6319256
  39.4718456 130.9283066  80.6767559  39.3481898 130.4856777  79.8371029
  40.4204607 130.9395027  80.8042049  26.3937044  91.6774464  83.2279110
  25.4964447  91.9166374  83.4601688  26.2954187  90.9960270  82.5628948
  69.3565607  57.3162794   9.9327508  68.4025955  57.3264694  10.0106756
  69.5215225  57.4241066   8.9960519  63.9723396  75.0672340   5.0748769
  64.2448330  75.0773907   5.9924165  63.1001997  74.6729994   5.0883905
  66.4178944  65.6385183   2.0807687  66.0632849  65.8278990   1.2120858
  67.3374939  65.4249907   1.9227449  54.4095421  77.4890375 100.3836727
  54.2399120  76.8362856 101.0629177  53.7629318  78.1761408 100.5449772
  73.6924171  64.9741840  79.0584660  73.1329679  65.7430124  78.9482641
  74.1903877  64.9214125  78.2427025  63.2041883  76.3194036   8.2577077
  62.8773499  75.8995819   9.0534154  62.5730944  76.0742903   7.5810376
  45.7909727  85.4154778 108.8117027  46.6831207  85.7361507 108.9438725
  45.5332470  85.0659752 109.6647358  39.8876286  57.6640034  69.4117022
  39.7609854  58.0234766  68.5336542  39.4834208  56.7970610  69.3761730
  76.1679220  83.9530468 103.4135056  76.1516047  84.7906303 102.9504681
  75.3286934  83.9166832 103.8724327  63.8817835  69.3876410  82.5311756
  64.0847349  70.1529598  83.0690670  63.1858063  68.9366865  83.0091763
  53.5988140  13.4456086  91.2658596  53.1223869  13.1779921  90.4799652
  53.3252048  14.3506205  91.4152718  94.2762184  58.8157272  28.3008329
  93.5679531  58.1719637  28.3135835  94.3184471  59.1431856  29.1992894
  40.0896835  37.6851106   1.6903154  39.4818234  37.8533006   2.4103490
  39.5658803  37.8140426   0.8995954  44.3863106 120.8436680  58.3569098
  44.6707058 120.0337410  57.9333973  44.1390181 121.4186001  57.6326704
  63.9090538  94.3057346   7.4414579  64.7406149  94.1308403   7.8820745
  63.3030176  93.6628056   7.8096811  67.2104216  71.0072613   2.2604028
  67.2456169  70.1646757   1.8075982  67.8590202  71.5484047   1.8101636
  76.0525227  33.8145661   6.1400739  76.0617018  34.7544527   6.3210813
  75.9390259  33.7544274   5.1915304  69.0576172  89.2080021  89.2504501
  69.9068403  89.5427990  88.9624310  68.5981321  89.9776268  89.5862770
  34.2988610  63.4184790 104.4563293  34.4103336  62.5081015 104.1824341
  34.6269059  63.9324713 103.7184811  76.9722795  71.2304068   8.3563463
  77.7885485  70.7351637   8.2880155  77.1783686  72.0852137   7.9781095
  54.1460180  66.7751408  95.7741833  54.1830730  67.1663141  96.6470242
  55.0489759  66.8084049  95.4582882  58.4709692  62.3120642  87.9363155
  58.4748554  61.3551235  87.9583645  59.1816044  62.5680780  88.5242558
  76.5208340  62.8897953  88.0058575  76.5817451  63.0617809  88.9455032
  75.6442451  63.1886625  87.7639866  46.5615177  96.1175156 104.7538662
  46.8736076  96.5896893 103.9819241  47.1962023  96.3307858 105.4379082
  47.7069521  31.9800520  85.3147030  47.5603056  31.4684892  86.1103439
  48.0359793  31.3448024  84.6787548  73.0239487 107.5951481  19.7759000
  73.5690069 107.5270462  20.5598012  72.5814199 106.7483902  19.7175733
  93.4071827  89.7915268  25.7019845  92.9253578  90.1173496  26.4621965
  93.9916134  90.5107975  25.4625551  40.2828884  40.2065182  36.9711152
  40.4316044  39.3183041  36.6467801  39.3302822  40.2888393  37.0157472
  93.8085461  50.5505276  33.0874196  94.4995880  51.0569668  33.5142843
  93.2955170  50.1887798  33.8100377  66.5367222  54.8772335  24.2740289
  65.9294033  55.2378511  23.6280099  66.3700962  55.3843021  25.0686017
  86.6943359 107.2071362  81.2334251  87.0425510 108.0833817  81.0686111
  87.0143795 106.9826508  82.1071529  69.4194794  44.9109507  97.7788067
  70.0545025  44.6770763  97.1018314  69.2260504  45.8343315  97.6170158
  72.4511909  78.0947447  81.9107533  73.1351614  77.4251080  81.9114494
  72.5171423  78.5053587  82.7728939  58.4348249  82.8180122  26.1430780
  59.0832663  83.4818935  25.9085313  57.7347326  82.9292297  25.4998628
  22.1848702  79.3996668   5.9019224  22.4260616  78.4878922   5.7384435
  21.7738748  79.6884823   5.0871221  67.0642042  85.3265762 102.6343918
  66.3647079  84.9299908 103.1536770  67.7764225  85.4657459 103.2585812
  80.0684929  64.1471863 108.6722088  79.2039871  64.2577648 108.2764339
  80.0266933  63.2941532 109.1044331  51.9899130  48.1952715 108.0249119
  51.6241646  47.3399639 108.2505322  51.2314653  48.7780857 107.9886627
  47.3894119  58.2943010  10.4411832  48.2724762  58.6005068  10.2346269
  46.9266129  59.0787888  10.7355157  46.6768503 104.3493271 104.7544003
  47.4105835 104.0640450 105.2989006  45.8990908 104.0442467 105.2215576
  50.2420139  49.0909958  83.8066196  49.3029022  48.9431524  83.6950684
  50.5269766  49.4617748  82.9714203  75.8253241  81.4526081  16.4931337
  75.4554987  82.1625137  17.0180074  75.4225636  80.6591034  16.8458120
  44.7400856  62.4664307   2.8893892  44.3889523  61.6119909   2.6386586
  44.7425175  62.9722214   2.0767442  73.0866241  62.8204823 101.1824608
  73.1799793  63.2164478 102.0489120  73.3820438  63.4993744 100.5757809
  37.4534512  73.4660625   1.1846868  38.3273578  73.8427734   1.0817090
  37.3887229  73.2627058   2.1177903  48.8755417  71.7777109 107.2072983
  48.2641888  72.3296213 106.7195702  49.6921921  71.8279219 106.7105103
  71.3034153  51.8038225  87.4533558  71.3109064  51.8499374  88.4094143
  70.4643488  51.3956547  87.2398281  72.5514078  50.0013113  92.2652912
  72.3356628  49.8949003  91.3388157  72.0165634  50.7414484  92.5522804
 111.5888882 107.4236393  96.3445663 111.3083744 106.8141842  95.6618500
 112.4408436 107.0911312  96.6271496  74.2750502  99.8642731  99.2904377
  73.9682150  99.0642071  98.8638496  73.6567354 100.0057316 100.0073147
  63.0810547  69.4241238  70.7897615  63.0292320  68.4725046  70.7005215
  62.1892929  69.7292614  70.6227779  57.2174931  45.0603914  78.6353016
  56.8173790  45.9015417  78.4148359  58.1351185  45.2699327  78.8093138
  63.9801693  66.0283422  87.3609543  63.4640455  65.2285290  87.2602367
  64.0190363  66.1708212  88.3066940  84.9666691  61.8162298  91.7627716
  84.2580414  61.2822866  91.4036274  84.5211315  62.5069618  92.2533035
  77.2013283  76.8907309 101.7405415  78.1532955  76.8137074 101.6768456
  77.0326376  77.8311014 101.6815853  58.1739235  80.7995319  70.3968811
  57.5863409  80.1616192  70.8019066  58.8798141  80.2717018  70.0235796
  45.6674433  53.0657053   0.6109086  44.7508144  53.2004738   0.8514634
  46.1634970  53.5010004   1.3042203  63.3686972  77.8941345  89.4133282
  63.3565283  77.9277754  88.4567928  64.1432381  77.3729944  89.6248245
  34.0481997  87.2232246  94.4847870  33.9611745  87.7933121  93.7208080
  34.4896245  86.4419651  94.1516113  67.6634645  36.1559081  67.0629883
  68.6067533  36.1417723  67.2249699  67.5403738  35.5732179  66.3136196
  84.2465973  60.7816458  98.0380535  83.8754368  61.0470867  98.8794899
  83.8039207  59.9588871  97.8298664  64.8621035  57.3047018  99.2720604
  65.1714516  56.7437649  99.9833202  64.9971581  56.7839861  98.4803295
  47.3704910  58.6102724  99.9411583  47.1473265  57.6859570 100.0510216
  48.0010319  58.6204815  99.2210484  67.5785542  61.6582346  99.0548038
  68.0849171  61.0031891  99.5351601  67.6012373  61.3591671  98.1457996
  70.4420853  36.2991667  66.8171835  71.2132645  36.0294890  67.3159695
  70.3542233  37.2347760  66.9992447  85.4781628  91.3216400 108.7605095
  84.9883842  91.8927670 109.3522549  84.8200512  90.9871006 108.1512451
  85.5856705  71.9791222  93.4545326  85.6038475  72.7604294  92.9018402
  84.7575092  72.0415926  93.9304161  54.0107584  79.1653395  84.0870190
  53.2630539  79.3433046  83.5164833  54.1500664  79.9846983  84.5618629
  26.3793945  40.2159405 102.9678535  25.7302070  40.8689976 102.7064991
  27.1433759  40.4065132 102.4235630  61.1678219  64.6341705  82.9959202
  60.8103418  65.3818417  82.5169373  60.4042196  64.2199039  83.3978176
  71.9043732  66.9913626   4.7233335  72.7172565  67.1484566   4.2429487
  71.9104290  67.6434231   5.4240552  58.3856535  71.4534092  88.6612797
  57.4848747  71.1677694  88.5088158  58.5611153  72.0782471  87.9577065
  69.1158009  54.5908928 107.1289825  68.3831215  54.0522528 107.4277782
  69.6374941  54.7439146 107.9167938  64.8451090  93.7100983  92.6313114
  65.2726984  92.8555679  92.5749874  65.2880955  94.1523266  93.3554840
  48.1139708  65.4371309  86.3071442  48.4635925  66.0517550  85.6619740
  47.5392675  65.9689522  86.8577003  86.6323090  52.4522448  88.3019066
  87.3682785  51.9804192  88.6917305  86.7366695  53.3533525  88.6074448
 101.4221859  79.2966223  74.8216200 100.7836151  78.6625242  75.1477861
 101.7109299  78.9361429  73.9832163  92.3550510  39.3112135  29.6285764
  91.8854713  38.9284158  28.8875047  92.7154541  38.5589767  30.0981370
  68.5719204  94.5742512  96.7035389  69.4400024  94.7413445  96.3364697
  68.6097240  93.6662865  97.0042038  82.6972961  95.3476238   7.3794690
  81.8025970  95.4836941   7.0676462  83.1640339  94.9952126   6.6217176
  67.7261353  74.9109459  67.7096272  67.1044111  75.2887726  68.3316708
  67.7295923  73.9755392  67.9126883  85.3168869  64.4871998  93.9282036
  85.4023361  65.1387262  94.6242237  85.7679367  63.7139893  94.2672157
  84.1629601  36.1992884  23.8135759  84.9210072  36.7814994  23.7623063
  84.2525482  35.6221008  23.0552427  72.8471470  62.5507879  12.6438276
  72.8407383  63.1335831  13.4031240  72.0838165  61.9868231  12.7683107
  45.9016991  56.9493055  94.3991089  46.5780926  57.5069666  94.7834682
  46.3644028  56.1497355  94.1484547  52.1197891  72.3088264  61.8007421
  51.4668369  71.7913628  61.3294458  52.7410841  71.6624784  62.1360874
  56.6398954  75.6105042  93.7137508  55.8244133  75.9045076  94.1196823
  56.8494749  76.2927294  93.0758858  70.0766420  67.9223871  75.2635050
  69.9207115  68.8666868  75.2489567  70.3667116  67.7138186  74.3754768
  51.1955404  35.4466486  85.5963421  50.9904575  36.1919808  86.1608315
  50.6451225  35.5729485  84.8234749 107.8341484  68.8154364  74.9649477
 108.1435013  69.1310215  75.8140278 107.0649338  69.3526936  74.7755003
  44.8652887  57.8938341  72.4659920  43.9986277  58.1394911  72.1422911
  44.7487164  57.0106030  72.8160572  61.1101770  75.1976395  67.0336628
  60.4245996  74.9737644  67.6630259  61.4616728  76.0304356  67.3485184
  52.0970297  77.8333330   4.3456975  51.3987970  77.6365805   4.9701921
  51.8185902  77.4096489   3.5337869  30.5332804 104.1031933  53.0892467
  30.2999663 104.7905445  53.7132215  31.4826798 104.1787815  52.9935551
  95.5545330  48.7896538  59.3616676  95.7762146  48.1373072  58.6971855
  96.3251495  48.8257837  59.9283075  56.0472202  89.8167992  95.6898117
  55.3047132  90.2415466  95.2602768  56.1866665  90.3273582  96.4873791
  46.5220356  80.7230854  98.1855774  47.2676277  80.6312084  98.7787724
  46.5909243  79.9720383  97.5961685  71.3654709  71.8422270  72.1105003
  72.2069359  71.5069437  71.8010569  70.9999180  71.1274767  72.6317787
  58.5395479  71.2553501 105.2497387  59.4571638  70.9870720 105.2024841
  58.4312105  71.5820312 106.1429214  92.7685642  80.5805588  87.4972725
  92.1855545  80.3416824  86.7766762  93.6026192  80.1650143  87.2783756
  96.9986534  89.9810123  99.4897747  96.7226505  90.5126286 100.2363873
  97.2344780  90.6186008  98.8158989  62.7954578  83.1944180  56.0814905
  63.0661869  83.4767342  56.9551229  63.5740280  83.3167553  55.5382633
  47.1669340  89.9204540  67.3672771  48.0636072  89.6041107  67.2571421
  46.6286182  89.1295147  67.3380375  86.5276432  48.8733912 102.1382141
  86.4850140  48.0135965 101.7196846  87.2140121  49.3387413 101.6600990
  53.4185696  47.7625370  79.6847105  52.8048372  47.1231985  79.3230295
  53.6035347  48.3555508  78.9564610  71.3630819  52.5438929  97.4503517
  71.1660910  52.0482922  98.2452202  71.6896057  53.3858204  97.7677917
  54.5321226  48.8962555  82.5808811  54.7572374  49.6343803  83.1472111
  55.2772379  48.8152218  81.9855022  63.0055332  38.3030653 105.2509975
  62.9253149  39.2464519 105.3917885  63.8912344  38.0913544 105.5458641
  60.4645586  71.8973637  90.6197643  60.0391626  71.7574644  89.7737694
  59.7480536  71.8783331  91.2541866  52.4178314  68.9331341  68.7551880
  53.2477617  68.6149311  68.3999395  52.0860815  68.2037640  69.2788219
  36.8912172  40.0605917  12.6307432  36.4256167  39.8719525  13.4455243
  37.7118397  39.5735431  12.7055398  13.6640704  83.1474781  88.2047939
  14.5752752  83.4137154  88.3275032  13.1546497  83.8248730  88.6496067
  46.0319233  66.4021206  78.1861019  45.8754110  66.6003084  79.1093874
  46.3350534  65.4941893  78.1840706  66.4541245  87.2407913  69.5433998
  67.2389746  87.1912193  68.9977074  65.9430075  87.9553986  69.1634941
  36.2466002  65.6427097  98.3434391  36.9285059  65.7758904  99.0018463
  35.5017829  65.2983618  98.8362885  54.8972082  79.2713022  59.9417448
  55.6293678  79.7621536  60.3148985  55.2765322  78.4289694  59.6911097
  83.4406948  61.3777542   0.5141298  82.5333595  61.6615438   0.4025785
  83.6652088  60.9607649  -0.3177031  60.7759428  34.1987538  77.8103638
  60.1155376  34.5597339  78.4017944  60.7618570  33.2571244  77.9817200
  54.6072674  40.5296373  83.6299229  53.9977980  39.7928357  83.5863209
  54.7537756  40.6641960  84.5662308  46.9945097  94.9142361  59.2566586
  46.6315222  94.0529346  59.0501976  47.7480650  94.7285366  59.8169279
  66.4291906 106.1974335  78.8345575  67.3244572 106.4101219  78.5709476
  66.4822149 106.0703373  79.7817993  67.4290133  45.9827662  82.1840763
  67.4671078  45.5040073  81.3560867  67.2097778  45.3169346  82.8358746
  78.9304209  83.5551453  93.5294724  79.4155550  82.9031658  93.0237103
  78.6740351  83.0957127  94.3291092  78.4424782  74.7786522  89.7606277
  78.3703470  75.6924915  89.4850922  79.2973566  74.4970322  89.4348907
  50.8173180  75.7606125  73.5382891  50.2992964  76.3191414  74.1178799
  50.4565144  74.8832273  73.6657572  68.6769104  68.2165384  77.5723171
  69.1821957  68.1364155  76.7633057  68.7334824  67.3508358  77.9767752
  71.8702698  48.1560087  75.1116562  72.7493858  48.3025599  74.7624922
  71.7546558  47.2063923  75.0785875  77.7714872  55.7019043  93.4552479
  76.8927908  55.6257343  93.8271618  77.7778435  55.0811052  92.7266884
  50.8320189  68.5240316  73.8686657  51.2682199  68.5954189  74.7177029
  51.2082100  69.2320919  73.3458328  53.1218147  44.2383003 109.0240574
  53.0164003  43.3796549 108.6143589  54.0317774  44.4775486 108.8481045
  58.1013870  74.0735435  91.8123817  57.6508713  73.2762241  91.5338898
  57.6887703  74.3034315  92.6449203 109.5091915  74.1902781 104.4315720
 108.8995838  74.5780325 105.0594711 109.6860886  74.8918867 103.8049221
  34.5061064  69.0278912  99.0592957  33.9069271  68.5570621  98.4800434
  34.2615604  69.9480009  98.9601612 117.1207428  65.9859228  86.0094166
 117.6855469  65.8226681  86.7647839 117.2929955  65.2527380  85.4186535
 108.0789661  54.1059589  82.5580311 108.6507511  54.1300058  81.7907524
 107.1973896  54.2215014  82.2034836  39.6354580  76.1687565  47.9214525
  40.0260353  75.5169296  48.5035181  38.7035155  76.1568213  48.1395674
  49.9702835  81.4100933  69.8250961  50.6375551  82.0825195  69.9622488
  50.3521204  80.6145763  70.1960373  83.2762909  51.7831373  92.2543049
  84.2194176  51.8594742  92.1096611  83.0503464  50.9190416  91.9100475
  61.1669350  89.8386574  82.1700668  61.9957495  89.5402241  81.7955875
  60.5674314  89.1036606  82.0411777  73.0773258  67.1828508  62.5283766
  72.6419210  66.5259123  61.9851637  72.5400114  67.2343111  63.3188725
  45.3755426  77.7840424  54.5699739  45.4400730  78.3897829  55.3083134
  46.2840366  77.5930548  54.3367481  61.9344950  36.3304138  71.4016151
  62.8351498  36.5055490  71.6743422  61.6480875  35.6133366  71.9673061
  64.7303057  69.5417929   8.1754628  64.3728828  69.7192526   7.3054067
  65.2033520  68.7156010   8.0761186  75.1597786  95.1129436  87.4403000
  75.0570297  95.0903988  86.4888954  74.4108868  95.6222820  87.7500725
  66.5070534  82.4050999  66.6983700  66.7936563  82.8346825  67.5043154
  65.5619955  82.2985554  66.8067741  87.1178055  66.3903952   9.3390600
  87.8260803  66.3322115   9.9803010  86.5013885  67.0163155   9.7191755
  61.8897915  78.8471603  56.4793539  61.3390779  79.4796944  56.0179996
  61.2998724  78.4281397  57.1059752  44.7664690  68.9922094 105.7460594
  45.5580378  69.1424036 106.2628651  44.6507263  69.7995853 105.2450848
  57.9248714  86.7973709  89.2257214  57.0111179  87.0744896  89.2927933
  57.8947830  85.8461189  89.3278694  74.8076296  71.2654734  75.0119543
  74.3557501  72.1019459  74.9008179  74.1113186  70.6099033  74.9718666
  38.0127525  52.4061012  85.3026772  38.4210539  53.0838490  85.8413601
  38.0275631  52.7643204  84.4151592  54.5449495  26.3142061 100.6446266
  53.7269497  26.2839484 100.1484489  55.1918221  26.6426873 100.0202179
  49.0707397  63.5614967  95.0246334  49.0762043  64.3375874  94.4643784
  48.9215326  63.9034796  95.9061146  35.6705141 119.3890667  71.5161324
  35.8232713 118.8344097  70.7511187  36.5114808 119.8187828  71.6721821
  79.7291374  61.5897179  89.4905853  79.5951509  61.2838173  90.3876400
  78.8618231  61.8743753  89.2025471  48.9328814  82.4765968  62.0275068
  49.2638111  83.3711052  61.9464350  49.0934467  82.2437763  62.9419708
  39.7162247  83.1065655  78.2468414  39.1475797  83.0547619  79.0150785
  39.2460060  83.6770535  77.6388311  62.5377464  87.8450489  79.4906235
  63.3383465  87.3459148  79.3289614  62.7747965  88.4596539  80.1850986
  57.8436184  37.9129100 104.8501301  56.9428396  37.9963207 104.5372868
  57.8155565  37.1834612 105.4692745 104.7278595  76.3296318  53.8358831
 104.0260410  76.9784212  53.7834406 104.9712372  76.1658764  52.9247379
 110.6749916  63.5368681  83.0114937 110.6657410  62.8884888  83.7155914
 111.2318897  64.2416477  83.3421993  51.2912846  52.1453857  22.8944818
  50.9851933  51.9183302  22.0164243  51.5918493  51.3157177  23.2653467
  70.9720087  88.1094646  73.8933372  70.5086327  88.7905598  74.3808079
  70.4588270  87.3156834  74.0442991  71.5619516  99.5067501  97.1762657
  72.4337006  99.3704128  96.8051910  71.2365341 100.2943039  96.7402554
  60.7453823  68.1177473  98.8584137  60.3186369  67.7432680  98.0877781
  60.8702755  69.0408564  98.6381912  78.2053804  64.8466969  77.8912115
  78.5769939  64.4089699  77.1253586  78.1777620  65.7721281  77.6482296
  76.1624002  49.3516445  79.8669243  77.0394278  48.9730263  79.8061037
  76.1693668  49.8411798  80.6894398 108.1591511  70.6828165   0.5602208
 107.9773235  69.7719336   0.7914392 107.8951168  71.1831999   1.3323251
  76.1278629  86.8760204  76.7720795  76.5902662  87.7008343  76.9207239
  75.6332016  86.7300510  77.5784492  62.5918913  98.4303474  97.3803234
  62.8691053  97.6007080  96.9916248  62.8889704  98.3802795  98.2888794
  55.1061201  64.0255022  95.5165863  54.8968077  63.0932045  95.5734921
  54.2569971  64.4648886  95.5630207  78.7880993  55.9518528  96.4530945
  78.6446047  55.8734512  95.5099583  79.4123459  55.2560520  96.6590405
 102.0100498  97.1379280  79.8557949 101.4062119  96.4080906  79.7180986
 101.6857910  97.8292370  79.2785788  46.2059593  73.4436846  46.6553688
  45.8580446  72.5751781  46.8575478  46.6970062  73.6931896  47.4382162
  58.3831453  79.7172928  11.3195077  58.6691332  80.5872536  11.5981141
  58.4055853  79.1905403  12.1184198  64.0613794  74.9364233  95.0386143
  63.4193087  75.6340361  94.9070263  64.8776054  75.3961229  95.2352905
  33.7868261 133.6822891  83.1409836  34.5254588 133.8622570  82.5593853
  33.2309055 134.4581985  83.0692482  35.5103517  63.4445763 101.9635677
  35.4013252  62.5880957 102.3768234  36.4533496  63.5224056 101.8188858
  86.5062523  97.7702618 104.9149418  85.9065437  97.2910118 104.3431854
  85.9762192  98.0021286 105.6775188  40.0015163 126.6412926  65.5644703
  40.6251144 127.2788620  65.9121227  40.2085257 126.5879917  64.6314478
  80.1384354  71.8915987  97.8465652  79.2802572  72.2526312  97.6242638
  80.0492668  70.9508181  97.6942158  30.6142235  76.7040539 109.3107414
  31.4867663  76.9123602 109.6446800  30.4354763  75.8234358 109.6405792
  79.9801397  47.8260231   0.8866254  80.3043175  48.6960411   0.6537954
  80.7430840  47.3749781   1.2481633  65.8778620  83.5313320   5.1426927
  66.6476059  83.5570431   4.5743028  65.4153490  82.7343369   4.8836271
  53.0816889 104.4158173  60.1920271  53.0430603 103.7675285  59.4888401
  53.2242012 105.2487183  59.7423601  33.9518309  40.4204082  84.6422291
  34.0902042  41.3609123  84.7542191  34.4775391  40.0170469  85.3330040
  82.7960682  76.7808485   0.4284898  82.2321415  76.5535784  -0.3108081
  82.4299145  76.2947464   1.1673204  22.1082544  85.2143574  98.8427258
  21.7651033  84.3860531  99.1779804  21.4165425  85.8508492  99.0234375
  96.5411663  58.4377050 107.9011536  96.4861298  57.6127386 108.3834743
  97.3020744  58.3310938 107.3302937  74.3081141  55.8324289  86.2563419
  73.7632227  56.3001299  86.8892574  75.0264072  56.4359617  86.0665226
 110.8946514  79.0674114  85.2577686 111.1841202  79.2504168  86.1515999
 110.0441360  78.6412907  85.3639603  48.0521441  46.1909246  95.9192848
  47.2084093  46.2385273  96.3688183  48.6197233  46.7838001  96.4118195
  39.6134162 111.5712452  97.1631432  39.7933316 111.9849110  98.0073833
  40.4351139 111.6489887  96.6783810  36.4588904  66.9076920 102.9504776
  35.9207225  67.5364685 103.4313583  36.2125444  67.0331001 102.0340538
  82.9806232 103.9843559  81.0655499  82.4387455 104.6324730  81.5155888
  82.3945332 103.5884762  80.4205608  66.9592667  87.9991913  83.7487221
  66.0289717  88.1696987  83.6013794  67.3564005  88.8684177  83.8031483
  90.6977081  65.0857496  67.4484253  89.7925091  64.9252653  67.1817827
  91.1518764  65.3045321  66.6347313  82.3281097  94.1027546  75.2101135
  81.8027782  94.8894310  75.0638390  81.8827057  93.6466503  75.9241199
  50.6796598  71.5677977  99.4464874  50.5153847  72.5059557  99.5418930
  51.5902472  71.5123463  99.1566944  61.6664934  82.2673893  78.5740471
  60.7867193  82.5124168  78.2873583  62.1192551  83.1016731  78.6973667
  70.5720615  75.1159096 100.4782104  70.7370424  75.1801062 101.4188957
  70.7499027  75.9948015 100.1433182  44.0325546  52.7359915  87.3054886
  43.1795883  52.3020172  87.2869205  44.0649796  53.2354593  86.4895725
  69.4776154  63.8574505  82.0977020  69.7850227  63.6066675  81.2265873
  70.2324152  63.7138748  82.6685715  69.6452713  55.0005627 104.5530128
  70.2470398  55.6358719 104.9409485  69.1973066  54.6068430 105.3017139
  54.4036102  53.5363197 105.9058094  54.9311447  53.1013489 106.5756893
  55.0152493  54.1258478 105.4646969  68.2925463  74.9163675  91.0918522
  68.1980801  75.1228809  90.1619816  67.6997900  74.1784954  91.2347412
  79.7756577  47.2425938   7.8890840  80.4329109  47.6529074   7.3270360
  79.3126631  47.9771948   8.2918493  46.3602114  86.3558483  85.6343651
  45.8316040  86.9227791  85.0727749  47.0113993  85.9749889  85.0451756
   2.6222163  58.4104633  91.4849377   2.1492034  57.5919867  91.3346291
   2.0940047  59.0766096  91.0450840  32.6990533  79.4883299  74.9404860
  32.2337723  78.7355232  74.5757532  33.1086779  79.9066067  74.1831970
  62.4029684  77.3917532  67.6837873  62.0280457  78.2684374  67.7679873
  62.9150105  77.2724009  68.4836626  59.5959997  80.6086349   2.9361955
  59.7851801  79.9362659   2.2816984  58.7075758  80.8996773   2.7306978
  88.2233143  77.3171568  88.3488846  89.1009045  76.9409418  88.4162521
  87.9700470  77.1725082  87.4372005  45.3167629  56.4716387 106.5193558
  44.4757366  56.3771343 106.0721684  45.4458904  55.6349421 106.9659996
   2.9689279  69.7699785  46.9649029   3.5286072  69.6657324  47.7343941
   2.1168558  69.4323492  47.2409630  80.6850529  63.6779547 105.7309151
  80.6441402  64.6004677 105.4788589  81.4529705  63.6187887 106.2992764
  54.9442530  70.8372259  73.1217480  54.7357559  70.1060581  72.5402403
  55.8669090  70.7114363  73.3433485  82.3800659  88.2315063  98.4579563
  82.4483395  88.1219006  99.4064045  82.4748898  87.3460007  98.1070709
  72.2531414 109.1236019  70.9466314  71.7206240 108.8025379  71.6743517
  72.3009872 108.3843517  70.3404522  68.5316610  51.6663265 107.4983692
  68.6203289  50.7268953 107.6591301  69.3903303  52.0287371 107.7164936
  74.6823835  86.3408375  97.0133781  75.5823994  86.2799549  96.6932297
  74.3730402  87.1901226  96.6983414  66.3523865  38.4889674  65.9461641
  67.1235991  38.8838363  65.5392933  66.7060280  37.8111792  66.5221596
 107.8025532 140.0509071 100.5173874 108.3341885 140.6598949 100.0048065
 108.0773449 140.1965141 101.4226532  60.0205898  64.0913010  97.9258633
  60.0352812  64.6267319  98.7191677  59.4379330  64.5620537  97.3299313
  30.5114150  67.5239658  88.5135365  30.3165102  68.2769251  87.9555988
  31.4362502  67.3383522  88.3508873  61.7213011  72.8798485  79.0722609
  62.0295000  72.3739529  79.8241377  62.5213575  73.1557131  78.6250019
  61.8061113  82.2678089   2.9358712  61.0070324  81.7648220   3.0930559
  61.4968681  83.1131363   2.6102582  55.7730675  69.3743038  78.7005377
  55.4511404  70.2740574  78.6454010  55.7931089  69.0710449  77.7928686
  63.2329178  58.5164881  85.9061623  63.6156940  57.8404284  85.3470039
  63.2505655  58.1384277  86.7853642  44.1545153  41.3025188  88.1635666
  44.6541214  40.4982662  88.3042908  43.2660437  41.0850096  88.4455967
  49.4212580  66.0225439  93.5342407  50.3688002  66.0760736  93.4096241
  49.1577864  66.9160509  93.7543869  75.2801228  50.2492476  98.6223602
  76.0364962  50.8093166  98.7968636  75.1133823  50.3568411  97.6859570
  36.4505863  67.7978706  70.4557323  36.6761231  66.9496965  70.8377790
  35.4937673  67.8204250  70.4705620  63.5239887  86.3453007  67.8939819
  63.7524891  86.8447876  68.6779070  63.4436131  85.4420567  68.2004690
  54.7877073  59.2789507  86.5895653  54.9299717  60.0727844  87.1051407
  53.8383102  59.2338800  86.4762592  19.9859238  93.8739014   8.7585393
  19.9665868  92.9334068   8.9355413  20.7010317  93.9850521   8.1320421
  49.6073294  75.2820826  64.7065115  49.9420404  75.9000444  65.3563786
  50.3147984  74.6474171  64.5928574  40.7314873  30.1664257  85.7432461
  39.8636389  29.9291992  85.4164600  41.3394451  29.7546721  85.1291847
  55.4122400  89.7965908  41.6618967  54.6936846  90.3941822  41.4550304
  55.4028368  89.7322273  42.6168871  54.6769381  75.5996513  84.8134899
  54.1244793  76.3652658  84.9711418  55.5360508  75.9640026  84.6004200
  75.9228563  60.5643892  74.2214060  75.4588079  60.4047728  73.3995676
  75.9417868  59.7114086  74.6553421  56.6337013 107.4529743   2.9258100
  56.4844608 107.4968338   1.9813291  57.1894550 108.2087994   3.1158201
  46.1655140  63.2885313  52.4888277  45.8345461  64.1752291  52.6318598
  46.6056442  63.3311987  51.6398859  64.5474052  57.4325466  53.2383776
  64.8752642  58.1126547  52.6499987  64.0999985  56.8127346  52.6622772
  61.7156935  67.9313183 107.0917225  62.5616980  67.5246096 107.2790813
  61.2299967  67.2623968 106.6091442  74.7756338  68.3602667  64.5117044
  75.7077646  68.1439161  64.5353937  74.3961000  67.7189589  63.9109468
  42.2650051  74.0169001  62.4309397  43.0266094  74.4202948  62.0144510
  42.2606373  73.1177950  62.1025705  50.9400034  92.1164322  74.3696022
  51.5406227  91.9244766  75.0897694  50.7144117  91.2582302  74.0106583
  72.8732777  51.7220545  68.3234453  72.9765701  52.4876451  68.8886309
  72.1593189  51.2245607  68.7221813  90.7680225  63.6613703   0.3416768
  90.8121872  63.6583471   1.2978498  90.1829720  64.3891525   0.1312295
  72.9225969  87.2870445   0.1711789  73.2880354  86.4585209  -0.1390513
  72.5486898  87.0782948   1.0272447  71.4298153  90.3758240  88.6130524
  71.4583254  91.0813522  87.9667950  71.9702578  90.6921577  89.3369961
  68.3649492  90.3116512  82.8223991  68.7522364  91.1081409  82.4592972
  68.0686474  89.8189926  82.0570660  48.6360407  66.2020826  45.2766228
  49.4586563  66.3004208  45.7560587  48.9006090  66.1278963  44.3597078
  62.9828930  78.8160944  24.4275784  63.2939529  78.6447573  23.5386944
  62.7794075  77.9501915  24.7811937  72.3347235  80.9900284  54.0958309
  72.4974537  80.2417755  53.5214806  72.9398918  81.6645813  53.7876654
  52.9162598  83.7712097  60.1755619  52.8382015  82.8741837  60.5003452
  53.4137535  83.6889172  59.3619537  56.2754583  86.1086559  30.8487654
  57.0732450  86.3899803  30.4008579  55.9055376  85.4347610  30.2784586
  55.4892015  79.4937849  13.0596256  54.8921633  79.0197134  13.6384499
  55.9569693  80.0954342  13.6387968  68.2744265  53.1738424  18.9804709
  68.7337112  52.3921919  18.6733782  68.9316940  53.6563444  19.4818926
  48.0226374  66.2613440  58.5145521  48.0358315  66.9734907  59.1540051
  47.3143053  65.6885672  58.8085270  49.6517372  55.1764297  37.2620177
  49.8434496  55.3122568  38.1899333  50.4126835  54.7020054  36.9271779
  62.9238605  71.7393494  18.6542046  63.6396790  72.3728466  18.6040473
  62.8298378  71.4128399  17.7593398  46.8426037  66.8346548  63.5084915
  47.3026276  66.9942474  64.3325901  46.8590212  65.8831692  63.4053946
  91.1623859  63.0229759  16.3963425  90.7533073  63.4824753  17.1296573
  91.2488079  63.6891747  15.7144761  39.3120289  71.7400217  53.9914131
  39.4129801  71.2134981  54.7843933  40.1063919  71.5668726  53.4862041
  65.7820892  56.7331219  55.7197237  65.3935814  56.8575525  54.8538113
  65.1159668  56.2562752  56.2148333  63.0923700  11.3066447  51.9863272
  62.4940014  10.7933307  51.4434624  63.9619684  11.1049283  51.6408730
  15.0656402  83.6282730  42.9994440  14.6767759  83.5666847  43.8719273
  15.9828699  83.8491726  43.1610775  48.2866573   9.8236769  28.0159378
  48.8212061   9.3058163  27.4140167  48.8754702  10.0306380  28.7416744
  53.0087233  10.8638155  35.2927184  52.0986128  11.0754585  35.5004048
  52.9839087  10.5663252  34.3832588  62.4152946  54.0309191  52.2951794
  61.7852354  53.6366177  51.6920328  62.5903082  54.8967314  51.9264412
  52.5877762  55.7563925  16.5203965  52.1538353  55.9600973  17.3489094
  51.9967461  56.0989618  15.8499014  65.1640892 108.7676239  40.8420515
  65.2493143 108.6579037  41.7891121  64.9640608 107.8900623  40.5163050
  87.5832748  50.7001019  39.5196438  88.0166626  51.0811329  40.2833366
  86.6606140  50.9307194  39.6279788  57.2534418  63.8895941  20.4478359
  57.5596809  64.2022276  19.5965385  56.6088057  63.2140923  20.2371764
  74.0560865  53.4781504  29.4925928  73.3510685  53.4590816  28.8454318
  73.9712048  54.3333387  29.9141216  54.6400261  51.3108778  34.0804386
  54.5282030  52.2241783  33.8165975  55.1232100  51.3573456  34.9054265
  34.1255331  64.8997259  40.5770206  34.0064168  65.8005428  40.2760649
  34.8582816  64.9472618  41.1910629  69.0199709  64.5945597  22.0060658
  68.9444304  63.8092279  21.4640498  68.1236601  64.9225616  22.0787120
  52.8975296  70.8323765  16.3984215  52.4330044  70.7175255  17.2274303
  53.5353279  70.1188517  16.3804042  37.2020626  77.9386091  33.0146050
  37.3337913  77.7470922  32.0860577  36.7859697  78.8005781  33.0246973
  55.0151682  57.5650597  18.5222661  55.9407473  57.6423359  18.7536991
  54.9232864  56.6690445  18.1983113  75.3051186  26.2191916 105.6459575
  75.8820677  25.8457851 106.3122358  74.4654751  25.7805300 105.7830935
  50.2006769  59.7767687  45.1367855  51.1465168  59.7172213  45.2712059
  49.8673534  60.1618719  45.9472275  89.5690536  40.2307463  12.2029197
  89.4861889  40.1457930  11.2531054  88.9427567  40.9154749  12.4376917
  70.2836609  36.3974142  43.1409740  70.2971458  35.6192088  43.6981535
  69.5910740  36.9448709  43.5108948  55.6249905  56.4428234  45.6424761
  56.0527325  56.8401814  46.4010143  54.8335171  56.9653130  45.5128479
  52.6186943  78.3082199  38.2240367  53.0047083  77.4554634  38.0239701
  51.7836475  78.1006861  38.6433983  76.0681343  39.7481275  10.9727573
  75.4467773  39.3886089  11.6059208  76.6877270  40.2491188  11.5031767
  47.9412174  70.3040314   0.4683391  48.2540846  70.0567341  -0.4018264
  47.1409750  69.7929478   0.5893259  38.8098574  13.7931490  23.2460165
  39.7024941  14.0426493  23.0068827  38.7228966  12.8908145  22.9386663
  40.8029318  19.7779870  42.5140953  39.9060845  19.8778605  42.1948385
  40.7870150  20.1535463  43.3943987  26.8259025  53.3055735  54.3255377
  26.0176706  53.7305689  54.0385389  27.4223351  53.3987427  53.5826921
  24.7893524  58.6604834  16.6741657  25.3046036  58.6476088  17.4807513
  24.7487283  57.7439165  16.4012480  94.3203354  74.9288225  14.8607218
  93.9567375  74.4270515  14.1311646  95.2586365  74.7411013  14.8364508
  39.8629928  37.4129915  22.0815182  39.9052715  38.2961941  21.7149186
  39.4703984  37.5312257  22.9464579  63.1004953  75.2047873  28.0678892
  62.4116898  74.8804474  27.4877334  62.6642513  75.3308773  28.9105177
  58.1411982  33.6848235  12.9114962  57.7015066  33.4781003  12.0867741
  57.5196695  34.2407298  13.3815002  58.7799406 110.8429337  77.1078237
  58.8862896 111.2684345  77.9586300  59.4120169 110.1241875  77.1188077
  73.7909985  58.2915735   9.4275385  73.4949684  58.6956596  10.2432072
  74.4279623  58.9107084   9.0709192  49.4198036  59.0990448  50.1400089
  49.6483040  59.1369200  51.0687637  48.4976149  59.3537521  50.1096582
  70.3678274  51.2454319  29.2688608  69.4678593  51.0421038  29.0140057
  70.2920675  52.0329618  29.8076487   8.2912439  82.6369476  50.0195217
   9.2180449  82.4963379  50.2131701   8.0476326  81.8965340  49.4639349
  64.4452143  90.5904198  17.1812177  65.0568199  90.0835991  16.6470802
  64.9664783  90.8845425  17.9282200  51.9598913  71.5231705  35.6744957
  51.7283106  70.8501863  36.3145638  52.3397684  72.2297525  36.1966729
  77.0828533  81.5361977  11.4267814  76.2952566  81.4387035  10.8916032
  76.8852997  82.2667980  12.0128059  80.4006195  78.0220509  98.3291980
  81.1517715  78.2406616  97.7776452  79.6676874  78.4939003  97.9337188
  43.8863850  43.8449574   0.2949264  44.7536373  43.8077831   0.6983194
  43.5734272  42.9406118   0.3160825  48.9542055  96.8826866  20.6457305
  48.9328766  96.0685158  20.1428342  48.7907314  97.5684834  19.9982738
  93.2256317  30.8378482  45.3445768  93.1431961  30.3909087  44.5021534
  92.3348618  30.8555508  45.6944990  77.2828102  35.3095508  22.1417475
  77.8693056  34.9641871  22.8147840  76.9117641  34.5316625  21.7252803
   0.7957684  23.7074375   0.2186492   1.3073683  24.0371609   0.9574182
   0.0171079  24.2638016   0.1992315  63.1644773  55.0710583  45.8494854
  63.3144236  54.7743845  46.7471075  63.9608574  54.8240376  45.3793955
  49.2956686  72.6946020  15.4127598  49.7300291  73.1228161  16.1504555
  49.9936342  72.2094631  14.9726284  62.0864916  64.2003250  23.4659839
  61.2374735  64.3315029  23.0438566  62.4054480  63.3710575  23.1098747
  42.2093630  83.4004307  40.4115200  42.7133608  83.0438805  41.1430168
  41.8896008  82.6295948  39.9426937  73.5982084  27.2577786  29.5119810
  72.6848078  27.0554948  29.3094707  73.5508156  27.9912901  30.1251268
  31.0815048  89.1977310  52.4101639  30.7996178  88.7610912  51.6063452
  30.3305745  89.7321892  52.6683998  84.5371723  84.6881008  14.9158013
  85.0569725  85.3866768  15.3133309  85.1442719  83.9520836  14.8386633
  92.4464226  74.7232580  24.6289945  92.5567436  73.9683056  24.0509796
  92.3326111  75.4651308  24.0349340  31.4251256  83.2447052  27.6648903
  31.1494207  82.7432728  26.8975663  31.9888568  83.9328289  27.3114395
  47.0829916  47.7404547  33.6769509  46.2487459  48.0688763  34.0122199
  47.1328783  46.8404102  33.9989305  51.1916494  71.8770123  24.3755722
  51.3339281  72.8019619  24.5767164  51.6879845  71.4070797  25.0456834
  71.6796875  38.7888384  13.2348263  71.8245220  37.8831673  12.9609394
  71.8947363  39.3102479  12.4614453  64.2603159  35.3968382  44.2365980
  64.7249889  35.8615708  44.9325371  63.3357763  35.4762721  44.4714355
  69.6604109  51.6840935   0.8037983  70.2970028  51.8580437   0.1104558
  69.3102455  50.8179045   0.5956409  73.7488556  58.6299276  33.4980607
  73.4533834  57.7586365  33.2339120  73.2871532  59.2278433  32.9102135
  87.5343800  57.6055050  54.3381643  88.4636402  57.4794912  54.5300770
  87.0797348  57.1726894  55.0607967  36.1759973  73.0407906  97.5072130
  35.9837389  72.1508884  97.2116824  36.2756205  73.5450506  96.6997286
  97.2879028  32.3312569  43.5857916  96.6091442  32.8202415  43.1205988
  98.1076813  32.6163721  43.1821823  64.3041420  81.4126015  15.9200835
  63.8641262  81.6509342  16.7360580  65.1328421  81.8909264  15.9462798
  53.6905336 109.2549038  96.9743522  53.4267092 110.1425552  97.2166141
  54.0224504 108.8734627  97.7871033  48.8780689  59.9941063  30.9975171
  49.3819284  60.4253435  30.3073049  49.4632101  59.3145561  31.3322639
  91.6717243  65.6911135   2.4854890  92.0980453  66.0734797   3.2524857
  91.3017464  64.8673439   2.8028953  51.9493103  82.9870796  48.1794882
  52.4885607  83.6736679  47.7870131  52.5786352  82.3347378  48.4871006
  52.4181461  20.8013868  42.3382950  52.0402431  20.2062488  42.9857779
  52.9624748  21.3988638  42.8510904  49.5783138 101.3940334  21.6159201
  49.3486357 101.7352772  22.4802279  49.9774504 100.5422401  21.7930365
  54.7053194  75.5073547  25.4395103  55.2915382  74.8294020  25.7756114
  55.0556326  75.7195187  24.5743513  53.3038950  54.3167686  28.5520267
  52.8829050  54.4585419  29.3999052  54.2029905  54.0704346  28.7692428
  32.4038315  30.4463220  52.0694447  31.9066477  30.9265494  52.7315807
  31.7719007  29.8338652  51.6928959  49.9339867  73.4716177   8.4460986
  49.9160099  72.6073599   8.0350488  50.1263285  73.2949114   9.3669736
  60.3440905  66.8066883  32.4629211  61.1457586  66.5178871  32.0268536
  60.2615070  67.7302170  32.2252107  83.6228943  60.7408953  30.2347064
  83.9319420  60.7771587  31.1399174  83.1740952  59.8980331  30.1684284
  84.4848347  43.0936670  90.7904597  84.3908596  42.2138929  90.4252180
  85.4211807  43.2813597  90.7251176  54.7578859  21.4809179  36.0176897
  54.9488783  21.6618538  36.9380236  54.7727585  22.3403573  35.5965304
  75.9626436  33.1232095  25.7526422  75.1200628  33.5761404  25.7188511
  76.5093470  33.6757398  26.3112593 104.3948650  82.8369331  25.6980968
 103.5294342  82.6184559  25.3523803 104.9498749  82.9155350  24.9222016
  47.8637028  70.2698708  40.0094271  47.2730303  69.9747038  39.3164539
  47.4565363  69.9611330  40.8188295  83.5840607  45.4367065   2.9192936
  84.1002846  44.8284054   2.3904151  84.2324352  46.0168648   3.3183601
  62.1867418  63.3346558  33.6747360  63.0634785  63.6488819  33.8957024
  62.3214722  62.7579451  32.9227471  68.0570078  96.7217255  15.8715510
  68.1759357  97.5864697  15.4787397  67.1100426  96.5824509  15.8618748
  67.0761347  48.1988907   5.6993836  67.5510836  49.0079021   5.5092472
  67.2997427  47.6140690   4.9753538  76.3587952  63.1127596  30.8551908
  77.2914505  62.9065418  30.7930422  75.9481764  62.2886038  31.1167026
  57.5834799  57.0578718  43.5197926  57.1546364  57.0887375  44.3749952
  57.0079994  56.5131807  42.9827976  52.2590876  51.9758940 106.7791941
  52.3449993  51.0824966 106.4464846  52.8692818  52.4886084 106.2490817
  31.6421819  54.1436815  34.8440886  32.1181035  54.6423435  35.5082178
  32.2521043  53.4553862  34.5786142  75.2875900  28.2691836   6.3975698
  75.8534765  29.0225172   6.5663695  74.4049644  28.5842061   6.5924001
  59.9689102  50.5375624  45.0432158  59.3532372  50.0305128  45.5724430
  60.8066225  50.0878239  45.1536703  61.8904305  68.8937283  34.9358845
  61.5319014  69.4317865  34.2300630  62.7350330  69.2960644  35.1383781
  60.9302330  78.8198376  31.1778593  60.0092506  79.0805912  31.1829138
  61.4121103  79.6439552  31.1082172  29.8760343  24.4489169  42.0704222
  30.7603121  24.0842795  42.1067810  29.7657061  24.7191978  41.1588240
  68.5910225  55.8047009  16.8921518  69.3099403  55.2079535  16.6840911
  67.7992630  55.2965450  16.7157233  68.8256645  41.5754843  19.6568584
  69.0108252  42.4513054  19.9957943  67.8750944  41.5576553  19.5458114
  52.2803259  98.1128979  42.4293137  52.8478050  98.8080597  42.7623940
  52.8816843  97.4811172  42.0350361  58.9257526  60.3068876  48.7525129
  59.8447561  60.4586744  48.9730358  58.8426113  60.6122875  47.8491592
  47.5689888  86.8959141   3.7204096  46.9495535  87.6254749   3.7037599
  47.8483343  86.8397045   4.6342140  63.0491257  85.7305431  10.3605044
  63.8240576  86.2825012  10.4656625  62.9520464  85.2905846  11.2050414
  45.7069588  61.3032532  54.2886543  44.9005747  61.7035580  54.6138239
  45.9413099  61.8256998  53.5216093  46.2867594  66.1205864  48.8003683
  47.1699905  66.4726210  48.9108467  46.0981798  66.2347984  47.8689003
  45.6509542 111.9564342  37.4636579  45.0697947 111.5479183  36.8220949
  45.1687765 111.9072819  38.2890797  64.4070625  29.5220733  35.8570671
  64.9666977  29.5575356  36.6328096  63.6504698  29.0036726  36.1310482
  92.3922920  56.8785048  28.4292221  92.3075962  56.1347437  27.8326631
  91.4912510  57.1031094  28.6614203  46.7942238  59.4797325  37.0645380
  47.0056534  59.4523478  36.1313820  46.0833073  58.8471270  37.1677089
  26.1983371  62.9339790 101.6292545  25.4179072  62.8042793 102.1680858
  26.8564916  62.3581171 102.0184215  54.7678423  35.5991387  29.2677808
  55.2457666  36.2075806  28.7042046  53.9374208  36.0403132  29.4466543
  63.6191940  90.0959778  40.4842424  63.1078434  89.3979549  40.8935213
  64.4572639  89.6855450  40.2711582  60.9189892  61.4356756  26.1844802
  60.5616570  61.8885326  25.4206276  60.1616526  61.0104561  26.5868044
  66.0350609  91.2972832  19.4423330  66.7488098  91.9345570  19.4683766
  66.4733410  90.4497910  19.3655026  46.6243458  73.9138746 107.9452483
  46.5788460  73.3924627 107.1438196  46.1987782  73.3708572 108.6087663
  58.9841366  63.3386803  16.7615652  58.0574465  63.5457277  16.6407001
  59.2613268  63.8963509  17.4884737  47.9194164  59.7434902   5.2702814
  48.3996439  60.5714655   5.2787131  48.4544277  59.1509151   5.7983434
  46.4812374  61.5700197 108.4652450  45.9567308  62.1764517 107.9423993
  46.3381195  60.7161760 108.0569533  39.7703576  60.8872938  32.0346808
  39.1438818  60.1669168  31.9652796  39.2435455  61.6760731  31.9061375
  97.2191334  47.8674030   7.5385153  97.4158192  47.1770620   6.9052875
  97.9859829  48.4397840   7.5147390  88.7205982  29.4973397  41.1595917
  89.1934299  29.1625595  40.3976250  89.1211796  29.0505576  41.9053459
  55.7571888  38.8687587  40.8937263  54.8053598  38.9679098  40.8731937
  56.0852480  39.7464013  41.0895538  46.5341806  56.8050337  16.7073596
  45.7432556  57.1316576  17.1362972  47.1912956  56.7808437  17.4029505
  40.7281017  97.4086952  18.3254468  41.2918663  96.6760731  18.5737801
  40.9114313  98.0840683  18.9785099  58.9430952  97.9346085  12.5562358
  59.1699696  98.2886600  11.6963470  58.6755323  98.6987400  13.0668759
  51.4675379  66.1307478 109.3016835  50.8156538  65.9383440 109.9756702
  51.0158300  66.7130661 108.6908653  62.0321608  37.1453691  19.6570754
  61.8110466  37.9842639  20.0615430  62.3281145  36.5990281  20.3851938
  74.2429638  63.5501957  22.9193974  74.4438314  63.9534378  23.7639570
  74.8938990  62.8547525  22.8251696  87.4171352  28.8469005  18.0781090
  86.4954472  28.6817741  17.8794694  87.6614952  29.5684838  17.4985969
  80.1290703  68.7170267  25.2255797  79.3060064  69.1667223  25.0343227
  80.1479053  68.6476469  26.1800766  61.0692406  33.3554745  52.1700525
  61.6183996  33.3265805  52.9535246  60.5443001  34.1490293  52.2746468
  38.5308623  65.2403975  31.2911367  38.8458443  65.9469652  31.8548608
  37.9406381  65.6719255  30.6733608  47.2748232  64.2785931  29.8476839
  47.3948956  63.9254951  30.7292366  46.9443989  65.1659203  29.9880338
  81.7145061  98.1350517  10.1472902  81.1803341  98.1379986  10.9415734
  81.6458416  97.2397232   9.8157901  78.8110447  80.0538254 106.7526358
  78.3109522  80.8596325 106.8822783  79.6130943  80.1857471 107.2581529
  85.8993721  52.1120548  17.1408844  86.3958931  51.3498211  16.8430686
  85.3102398  51.7669487  17.8117514  33.5284901  80.0649071  14.5173371
  34.3771744  79.9505281  14.0896869  33.1565690  80.8454132  14.1065896
  49.6836996  50.8742809  98.4058555  50.3945303  50.6945753  99.0212079
  50.1047039  51.3390684  97.6826974  92.1700001  80.8885479  32.6599717
  91.5429020  81.0630798  33.3617711  92.8624821  81.5362644  32.7909780
  58.5751772  74.2659378  12.2020924  59.0932894  74.9850130  11.8405354
  57.6861000  74.4294834  11.8874037  47.0016670  98.5523415  24.0979648
  46.8029213  97.6211357  24.0000391  46.8406343  98.7355709  25.0235605
  48.9783096  63.5529423  47.5116158  48.7248373  63.9105463  46.6606760
  49.9039412  63.3305073  47.4118376  89.8703575  84.2382622  28.3855414
  89.5584583  85.1240826  28.2003808  90.7557774  84.3626499  28.7272978
  86.0365391 104.8221779   3.8448510  85.5589867 104.5119476   4.6142268
  85.3739357 105.2637672   3.3136436  93.6258888  63.8284826  28.8956833
  93.4345150  64.5603466  28.3091855  94.4689083  63.4920883  28.5917258
  79.2678308  65.3382063  22.8212738  80.1044941  64.8859119  22.7133274
  79.0904760  65.2927828  23.7608027  50.0498438  69.4119310  31.4899278
  49.1202116  69.2620468  31.3180232  50.3570795  68.5921144  31.8768859
  99.2084026  63.2864189  51.4203358  99.7405720  62.4917459  51.4593840
  99.3013382  63.6797810  52.2880125  70.1946163  53.2332945  16.4014876
  69.9521065  52.8676367  15.5507731  69.8337126  52.6169729  17.0387709
  40.5937672  85.3539658 108.2346860  40.3978252  85.1896381 109.1570936
  39.8511219  85.8695602 107.9202377  66.7011309  50.9568024  31.4005327
  67.3898602  50.2964592  31.3241386  65.9647417  50.4902077  31.7958283
  56.2697554  81.5297604  29.6333766  56.6257906  82.3429966  29.2754364
  56.5774632  81.5120029  30.5395961  35.0917649  49.9696207  28.4410429
  34.1891074  50.1502275  28.7033796  35.0732160  49.9970579  27.4844146
  52.7017260  45.5345106  51.1548471  53.2651615  44.8552465  51.5254831
  52.4186563  45.1778221  50.3128958  53.3594847  73.4872580  15.7316375
  52.7845383  73.5990953  14.9745643  53.1896734  72.5942421  16.0315037
  47.5683165  86.0526466  10.5531824  47.8625965  85.1586246  10.3789461
  46.7113400  85.9465027  10.9661746  45.6844378  65.9807920  53.3494520
  45.6427860  66.5444994  52.5769711  45.7280874  66.5887260  54.0875149
  50.0847101  84.9559784  48.6214495  50.3444099  85.1471615  49.5226908
  50.1329327  84.0022659  48.5554886  43.3644485  51.2560940  45.1025057
  43.4361649  52.0385551  44.5558453  44.2560387  51.0982847  45.4129839
  62.4701929  65.7891321  35.3168535  61.8424320  65.1916027  34.9105263
  62.0677853  66.6534567  35.2317429  75.1269054  65.3172731  25.4003978
  75.6676149  65.6224585  24.6718884  74.4969797  66.0236454  25.5434680
  64.3333578  64.3608427  36.2443256  63.6370087  64.8697424  35.8291769
  65.1372385  64.6690369  35.8259702  54.4547176  55.1137257  31.2023425
  54.3757486  54.7759199  32.0944667  55.3694916  55.3859377  31.1294055
  61.7475843  69.6309233  23.4475565  61.9162560  69.9929953  24.3174338
  62.6171303  69.5058870  23.0674386  48.5587263  46.8102551 108.4298010
  49.4734621  46.7779732 108.7098930  48.5129929  46.2036943 107.6907303
  55.8232594  42.8655481  16.0052276  55.9246206  42.6380062  15.0810087
  56.5141487  42.3745108  16.4499545  82.8669930  77.7414608 107.1075400
  82.8879166  78.5041714 107.6855283  83.5134697  77.9371214 106.4292946
  56.1950493  78.9458990  43.7279224  55.7921696  78.8967562  42.8610277
  56.4342785  78.0419254  43.9324522  54.7798872  45.4205322  16.8223751
  54.9026775  44.5297098  16.4943671  53.8841057  45.6466103  16.5719914
  40.0588369  25.5673027  25.0979519  40.3199053  25.5008459  26.0164618
  40.5155849  26.3439178  24.7747183  70.8526230  78.3194113  29.4511890
  70.6414366  79.1812658  29.8101282  70.5709362  77.7028990  30.1270580
  87.8435135  56.7921686  25.5109382  88.5140705  56.1628675  25.2452922
  87.3146343  56.3211107  26.1548448  28.0145144  44.5992565  96.1402806
  28.5961056  45.2907896  95.8244213  27.6748061  44.1899490  95.3444823
  84.1075516  64.5094109   5.1010799  84.9089241  64.3880177   4.5918670
  84.3476105  65.1418114   5.7783324  56.8328810  61.4359379  38.5297537
  57.4447060  60.7416487  38.2850838  56.9463110  62.1042633  37.8539515
  73.9861631  56.8298912  12.5643265  73.9189434  57.1339035  13.4694743
  73.5174990  55.9953117  12.5565434  38.6716413 102.5276470  39.7237992
  38.9737749 103.0644703  40.4564428  37.7322841 102.4228859  39.8750162
  92.0679379  41.4827728  35.2147126  92.6156712  41.5470839  34.4323587
  91.2263870  41.1603785  34.8920751  70.6085825  54.2864275  20.4548097
  71.0724831  54.9409437  19.9326634  71.3028383  53.7876129  20.8854222
  67.2921705  41.8187618  79.6784242  66.3510275  41.8025637  79.5045837
  67.6696301  41.2509251  79.0066227  86.9939041  77.7869892  21.5455770
  86.8650436  76.8772316  21.2772965  87.7510738  77.7592421  22.1305227
  36.5600371  69.4062948   8.4151745  36.1957788  69.2886639   7.5378430
  36.6978145  70.3503513   8.4927070  48.5489655  46.5898466  17.1082187
  49.0650749  46.9308186  17.8386998  48.3276320  45.6956053  17.3681617
  25.0719142  46.5342522  13.4579301  25.9104228  46.3873148  13.8955867
  24.6832752  45.6624651  13.3859944   2.9688387  51.6254997  48.4470654
   2.6994448  50.8123541  48.0199194   2.1804171  51.9340563  48.8936329
  80.5423260  35.7036400  28.1527734  80.7063961  35.2647305  27.3181033
  81.4084339  35.9798074  28.4524703  87.5344944  49.3136120   1.6297013
  88.0398083  48.9729786   2.3678468  88.1714344  49.3926954   0.9195735
  86.9497204  95.0944805   7.5323111  86.1994839  94.7851944   8.0399752
  86.8256855  96.0418606   7.4745923  35.1996565  70.7063198  38.6012506
  35.6966734  71.5064764  38.4310627  35.0506425  70.7134628  39.5467544
  47.5094843  79.5593929   5.7059103  46.9019222  78.8284349   5.5927587
  47.3602724  79.8581982   6.6029519  89.7777271  73.1168699  22.2028613
  89.6277046  73.0488300  21.2599421  90.7180119  73.2761383  22.2849107
  57.9258537  28.7214804  53.2789803  57.3054075  28.7678981  54.0063906
  58.6523485  29.2838836  53.5475826  65.7141113  54.8607683  16.9357121
  64.8800564  54.6525574  16.5147221  66.3470507  54.2798567  16.5136254
  35.5644083  66.5954733  21.8660450  36.0558081  66.1205959  22.5363088
  35.9940434  66.3615608  21.0432887  47.5560951  63.0892086  32.2984767
  48.0891132  62.8910780  33.0684590  47.3332500  62.2324085  31.9345212
  58.8869047  68.3381605  51.2957525  59.7996664  68.0841923  51.1593819
  58.3800554  67.6545477  50.8575630 100.6936455  89.5675945  20.2304411
 101.4482880  90.1175404  20.4409504 100.1925182  90.0809383  19.5967436
  62.6105356  23.0535436  94.3576559  62.7817678  22.6583648  93.5028204
  63.1170797  22.5229788  94.9725875  70.9116602  79.7930145  23.4500265
  71.4229441  79.2183495  24.0197420  70.5428028  79.2078543  22.7883911
  44.6151304  17.0590305  99.5792850  44.9226856  16.2432790  99.9744960
  45.2609015  17.7130556  99.8466130  85.9691525  35.5484319  27.2691941
  86.9127464  35.4628801  27.1329594  85.5973911  34.7611022  26.8715286
  59.3351316  60.7584429  13.9730442  58.5627651  60.5067635  14.4793439
  60.0714588  60.5956459  14.5625806  33.6049795  92.6445675   5.2059275
  33.8548326  91.7207813   5.1852995  34.4097114  93.1152439   4.9889013
  73.6973429  49.8492765  18.3180451  74.3796396  49.2289639  18.0613160
  73.0978489  49.3354940  18.8592160  35.2494502  61.7622709  88.7369689
  34.9358058  61.7850685  87.8328999  34.6295238  61.1916924  89.1912373
  57.2936916  53.3757830  14.9395669  56.9087076  53.6394453  14.1038036
  57.6747751  54.1800022  15.2920485  80.9597301  47.4058437  26.1169267
  81.3251781  46.5956593  26.4722919  81.0998249  48.0545568  26.8066931
  69.5176506  45.7563734  18.5637045  68.8722038  45.4876280  17.9099417
  70.3619289  45.5283165  18.1745899  65.5773020  53.8982677  36.1329532
  66.3294411  53.8596869  35.5421615  65.9369040  53.6809444  36.9930077
  83.1418419  77.2233391  18.4435451  82.2093868  77.0741940  18.2869256
  83.3342743  78.0404186  17.9835737  33.2503939  67.7300739  22.5457144
  33.1439185  68.3967018  21.8671083  34.0438175  67.2571945  22.2945333
  58.1050158  51.8375969  31.9706774  58.2362795  50.8915901  32.0345664
  58.5860729  52.0935392  31.1837149  93.6537170  38.4425807  17.2231996
  93.0350494  37.7190924  17.3234415  93.9150047  38.4085298  16.3029814
  51.6792011  70.5160332   4.6070728  52.3122787  70.0750828   4.0404910
  51.2744427  71.1768389   4.0451694 110.7580376  26.7746067   3.7151784
 110.0555801  27.4033093   3.5492885 110.9708595  26.8920279   4.6410027
  55.5760765  45.3004360 107.3212626  56.3394499  45.3787994 107.8934097
  55.2801371  46.2015152 107.1919938  77.9442692  62.3550606  21.7376232
  77.5242805  62.0284414  22.5333381  78.6361408  62.9363537  22.0532894
  81.4632607  67.3269081   8.0773920  82.1492100  66.6953516   8.2938188
  81.3173962  67.8101873   8.8906556  88.2067013  63.1722927 102.7146670
  88.2381248  62.2375536 102.5109353  88.9941788  63.3305502 103.2353028
  34.2006922  62.8964281  59.8642969  33.8249350  63.5341501  60.4712152
  33.6912394  62.0990801  60.0089550  79.4717693  63.2082605  11.8875420
  79.7500706  63.6631298  12.6824439  78.8621902  63.8139772  11.4659369
  27.2442603  79.7428656  99.9189027  26.4213085  79.9456024  99.4740649
  27.3953772  80.4915047 100.4959145  74.7477818 101.6064262   5.2091253
  74.9301815 101.5307426   4.2725182  74.6765137 102.5483418   5.3639090
  53.3169699  73.7882328   3.9727855  52.4909067  74.1817284   3.6916971
  53.1662560  73.5409260   4.8851222  92.8097725  88.4289837 101.5128716
  92.3790169  87.5770855 101.5832295  93.4357834  88.3224106 100.7966402
  82.4242687  83.2216454   8.2872701  82.5568295  83.5132504   9.1892815
  83.2829475  83.3185959   7.8755665  88.8743496  44.8287249  12.8595769
  88.6152077  45.1226282  11.9862485  89.8265171  44.9258947  12.8722644
  22.2421288  54.1290855  97.0367953  21.7830968  53.3984709  96.6223987
  23.1407499  54.0613031  96.7141207  39.4143605  54.0048599   3.6216757
  39.4436598  54.9098587   3.3112705  40.3010464  53.8312197   3.9376974
  26.3196325  44.6424055   6.8780392  25.9817266  45.3610897   7.4124074
  25.7358503  44.6125174   6.1200577 101.1611462  52.6802874 108.5724083
 102.0794296  52.5302124 108.7970220 101.1407280  52.6513767 107.6158629
  39.1867924  37.5022912  46.8941259  39.2508769  38.3175397  46.3966370
  38.5727000  36.9643736  46.3943624  91.8390369  65.0577927   7.8395903
  91.2561989  65.0336075   7.0806748  92.7090073  65.2058268   7.4688375
  41.1921787  58.4158945  27.8868628  41.7415905  59.1390848  28.1891394
  40.4684210  58.8410234  27.4267793  62.2552252 104.9250412   5.1473749
  61.6900778 105.1459980   5.8876568  62.4727201 105.7691002   4.7517937
  63.1883574  46.5763044 104.8673170  62.2556925  46.4443350 104.6971669
  63.6301088  46.0791874 104.1788670  49.6444321  30.5465388  69.3291187
  49.8116684  31.0215282  70.1431513  48.8576746  30.0319934  69.5093536
  63.8636923  38.6429667  31.6775179  64.2563200  39.4202137  32.0749640
  63.7865639  38.0182266  32.3986149  77.6027966  66.5794516  96.5960356
  77.1977997  65.7775545  96.9264420  78.3789396  66.6988754  97.1433660
  80.2475929  66.9008446 100.5427136  80.8363914  67.5363541 100.1356753
  79.9425840  67.3334885 101.3402232  70.3374958  38.1258750  32.3823500
  70.0510550  39.0215421  32.2035623  70.8434057  37.8772759  31.6087317
  81.0406971   8.8632643  22.5878048  80.8584690   7.9238963  22.5631094
  81.6891956   8.9631951  23.2847309  52.6301432  52.3323822   8.0475581
  52.6237631  51.3819838   8.1613141  53.1614971  52.4763107   7.2645003
  61.9206524  26.4345407  34.7473502  61.9002247  27.2964907  34.3315887
  62.6300955  25.9708095  34.3025136  73.5978413  47.4062538   9.1903800
  73.7061119  47.7082157  10.0922275  72.7532101  46.9558907   9.1883630
  51.3716507  87.9230499   7.4918133  52.1378565  87.4677563   7.1427178
  51.7241478  88.7267113   7.8740650  70.8434486  26.6097045 106.1992513
  71.0433531  26.8455362 105.2933519  71.5870190  26.0748243 106.4771675
  44.7328997  47.3734331  15.1445663  44.7926188  46.4207411  15.0735307
  43.7933445  47.5560284  15.1331580  62.3022175  62.7232790  18.1542385
  62.1119404  61.7857361  18.1865311  61.7961502  63.0448198  17.4080884
  51.2773943  87.4482536 103.6219802  51.5623283  87.3690319 102.7116128
  50.3294802  87.3195839 103.5883250 105.7944775  48.1191206  30.0730228
 105.2000046  48.8688898  30.0990343 106.1330986  48.0508614  30.9657216
  39.1059065  81.8700123  37.0714164  39.2749238  81.9145966  38.0125189
  38.5034943  81.1329651  36.9709206  83.4306908  30.3032017  11.8533897
  83.3117580  29.5172930  11.3200629  82.5429344  30.5601501  12.1025825
  22.1412301  86.2076283  90.6305858  22.8510809  86.3690090  90.0090572
  21.3431096  86.3955975  90.1367208  53.9520931  44.2435932  84.7993048
  53.7048340  43.8028860  83.9863642  53.9700413  45.1732159  84.5718964
  48.8574839  75.5212069 108.6753274  48.1895828  74.8901606 108.4071482
  48.9608002  75.3755188 109.6157163  37.5585938  64.9821329  14.8353601
  36.8660307  64.9005842  15.4910564  37.1572375  64.6727419  14.0233123
  48.1512165  78.1043768  38.2398033  47.6182604  78.7869930  37.8320956
  48.8809061  78.5772657  38.6400056  31.2214589  64.5141602   5.7105738
  31.9770122  64.7636366   6.2426788  30.9534645  63.6638308   6.0589242
  71.8414354  71.6573429  16.2861025  71.0513067  71.1186600  16.3279188
  71.5277052  72.5528717  16.4119542  30.7912779  45.6235409   2.9906353
  31.7335320  45.5419350   3.1380463  30.4121137  44.8689508   3.4412542
  30.9259439  68.0518007  91.2689217  30.7113552  67.9830790  90.3386208
  31.8798947  67.9796696  91.3006445  93.8909912  55.4378080  89.1527542
  93.7775707  54.8248291  88.4263762  94.8370838  55.4682875  89.2949351
  40.8780813  52.5048399 102.4010190  41.5450954  51.9516468 101.9944515
  41.2689972  53.3784199 102.4176278  85.3863907 112.4651146  86.6731604
  86.0013294 112.1234989  86.0240205  84.7791100 111.7423439  86.8314179
  59.2843151  19.0629053  25.7280827  60.1240015  19.0631890  26.1876011
  59.0720177  19.9895763  25.6165361  50.2039051  54.4898033  95.4917201
  50.6984711  53.9864349  96.1384531  49.5306969  53.8844776  95.1809057
  81.2401390  66.6023064 108.2784204  80.5129433  66.9257689 107.7466495
  81.0202503  65.6873465 108.4537048  41.2721729  44.2429018  50.2768898
  40.5848598  44.1533947  49.6167231  41.7211676  45.0562429  50.0464392
  76.8320751  83.4368896  30.4586887  76.0962152  83.0010796  30.8885860
  76.8436956  83.0709267  29.5742869  38.7457848  62.9327822  23.9820504
  39.6939564  62.9631996  23.8544750  38.4719944  63.8497925  23.9628768
  47.5280571  36.3652253  45.9566641  47.8268671  35.8321977  45.2198935
  47.0567083  35.7518506  46.5204287  64.4144630  88.3267593  20.2586150
  63.5611534  88.7094498  20.4626918  64.4111824  87.4811745  20.7071686
  73.0164862  64.1777182  20.6297898  72.2610664  63.6665535  20.9201050
  73.5543680  64.2774296  21.4152646  38.9393783  56.4576578   2.3343742
  39.0293384  57.3180199   2.7441424  39.1380191  56.6104078   1.4105554
  78.5159492  53.8790989  17.6262116  79.2495918  53.6026096  17.0770741
  77.7921152  53.3108616  17.3627734  44.5255327  13.1330442  20.8483148
  43.5810137  12.9892099  20.7897854  44.6182728  14.0815246  20.9378505
  72.4674892  58.6714649 101.9454160  72.8778791  57.9880047 102.4752208
  71.7260599  58.9699841 102.4721041  62.9411983  52.9459715  24.0355134
  62.7740622  52.0419502  23.7689781  62.0735073  53.3481264  24.0757680
  85.8116341  50.6816435  11.4548969  85.7815456  51.4849138  11.9745898
  86.6810894  50.3190184  11.6245794  58.4705687  26.8958855  51.1308384
  58.8833094  27.5293088  50.5437708  58.5346556  27.2959471  51.9980621
  49.4008255  75.2275419  12.7029777  49.2149401  76.1417437  12.9172611
  49.4672871  75.2140808  11.7481828   5.9390724  49.5510864  15.1655126
   6.3323140  48.6862612  15.0486052   5.8957034  49.9159431  14.2816401
  62.4954987  78.0431557   1.7964838  62.8367472  77.8225374   2.6631477
  61.5512466  78.1314182   1.9262230  41.9210625  72.5002289 103.1208100
  41.0711432  72.1210909 103.3446845  42.1937180  72.9619074 103.9137425
  68.6022663  74.1075563  10.7271242  68.0177355  74.4426584  10.0472248
  68.1635475  74.3262291  11.5492797  86.3874054  52.9032469  97.9296287
  86.5572071  52.6025391  98.8223633  87.1869946  53.3643198  97.6760431
  82.0970535  51.0332489  82.2288545  82.3750973  50.4254913  82.9140934
  82.1982384  51.9000769  82.6220425  22.2152138  72.9994440  18.9663124
  21.3136888  73.3190060  18.9293492  22.3753095  72.6330853  18.0966103
  66.7188454  76.6709948  35.4232550  65.8562040  76.9768476  35.7035065
  66.5394878  75.8769560  34.9197006  85.7136917  66.2720156  16.8787718
  84.8634911  66.6550589  16.6627502  85.6702423  66.1083698  17.8208780
  45.4349184  24.6939635  10.2294314  45.5951643  25.4207516   9.6274930
  44.6379423  24.9422121  10.6978703  17.1789563  63.0228853 106.9224980
  16.7660332  62.4908924 107.6027247  17.0657790  63.9248848 107.2222000
  37.3571038  95.0483513  20.8488226  37.3221612  94.4173431  20.1299071
  37.1663141  95.8912086  20.4372048  71.4303827  63.5136080   4.4065171
  71.2362480  63.9217663   3.5627455  70.5745745  63.3988237   4.8196083
  95.0775909  12.7991462  94.3092712  95.9029865  13.1387281  94.6551570
  94.5672035  12.5726962  95.0867351  94.4559669  81.9260025  21.1525083
  94.1010666  82.1039391  20.2815223  94.0221786  81.1182499  21.4274669
  51.2683105  75.2004576  35.4486704  50.3959560  75.5457258  35.6384587
  51.4049625  75.3917551  34.5207906  73.3655787  49.6928835 102.7383056
  72.8788710  49.6554852 101.9149276  72.8582001  50.2886009 103.2895979
  49.8480940  55.0314808  43.5337353  49.5025730  55.5030966  44.2916393
  50.7976007  55.1317167  43.6017418  87.6960754  78.3369780  10.0886846
  87.1814823  78.7882900   9.4195527  88.6003208  78.4059095   9.7823870
  51.9723082 100.5061436  14.4231248  51.5972281 101.0537148  13.7334061
  52.3683357 101.1278629  15.0337446  28.8509011  66.0172176  61.2158728
  28.3129597  65.2256203  61.2008333  29.7437024  65.7028294  61.0734129
  45.6350422  40.1055193  55.6123018  45.1044464  39.7840762  54.8833513
  45.7375336  39.3467736  56.1867857  51.0881329  71.1391735   7.1247661
  51.4268494  70.3539181   7.5547487  51.2473822  70.9895277   6.1928445
  59.4722652  81.0511589  34.5765996  59.2788219  81.9454670  34.2955017
  58.6256504  80.6050301  34.5554566  77.2754431  94.6763420  15.3697550
  77.0598936  95.0107384  16.2403595  77.6315832  95.4329491  14.9039876
  59.6340704  82.6420593  14.9966812  59.1540670  83.4567928  15.1451361
  60.1198912  82.4988937  15.8089089  53.2240677  52.8253984  16.7925489
  53.0523157  53.7663841  16.7568576  54.1784382  52.7569771  16.8194878
 108.2020855  71.7681694  94.8187252 109.1352463  71.9103479  94.6598777
 108.1344700  71.6592312  95.7672998  91.8933582  66.8065166  -0.1662006
  91.9357014  66.4767408   0.7314002  92.4524403  67.5834608  -0.1625452
  58.9757633  88.2292461  40.3613186  59.2792273  87.3686218  40.0723886
  58.0284977  88.2071877  40.2255678  82.8118038  42.5450611  73.7205514
  83.2336998  42.0092535  74.3922266  82.8302765  43.4334898  74.0763363
  89.0359211  66.4857006  98.4050306  88.5014725  65.7827711  98.7744697
  89.3766499  66.1230373  97.5873479  70.5431080  76.8604994  15.1930380
  71.1575460  77.5297737  15.4943311  71.0679626  76.2879276  14.6336436
  80.8551216  60.3941202  72.5598630  81.6679382  60.4706430  72.0601519
  80.2862072  61.0731411  72.1972474  55.5078793  64.4792461  26.2503648
  54.6632671  64.0437937  26.1352873  56.1268425  63.9333153  25.7655096
  89.1606331  66.6633368  95.3358253  89.2054367  66.4813805  94.3971475
  90.0529957  66.5190363  95.6506284  49.2190361  77.6663971  27.7001071
  49.4275570  78.5391569  28.0333376  50.0550556  77.2003317  27.7096438
  49.1995001  35.4435992  23.6160231  48.3784819  35.5668783  24.0924311
  48.9776278  34.8373246  22.9093146  69.9483013  83.5483074  91.8085822
  70.4384995  83.0627918  92.4720665  70.3039837  83.2404327  90.9749564
  75.7092810  58.9302206  95.0931808  74.8460579  59.0959740  95.4721304
  76.1660004  58.4115267  95.7554480  76.1912727  76.4598417  32.2582197
  77.0308399  76.2573004  31.8455005  75.7566118  77.0481443  31.6408038
  66.7889643  81.6460609  95.2813276  66.8528652  82.0944595  94.4380685
  67.3488522  80.8755779  95.1859280  43.0962706  67.1490479  37.1115518
  42.9671383  66.3992262  36.5307546  43.7532043  67.6854277  36.6677451
  76.3397169  49.4560623 102.8935172  76.2388134  49.2466640 103.8220646
  75.4450083  49.4762325 102.5539335  56.1750078  62.4021864   8.7734020
  57.0494461  62.4480247   9.1600448  55.8138323  63.2805014   8.8931608
  35.6919360  68.4790707  19.2978394  35.6850934  67.5323915  19.4391966
  34.8791718  68.6564207  18.8243496  37.2262836  56.2659311  80.1614150
  37.9208636  55.8024311  80.6293448  36.5450382  56.4040375  80.8194908
  93.8214588  60.6298542  31.5768194  93.4367943  61.4653444  31.3118315
  93.1948090  60.2651405  32.2017384 118.6326790  76.2109280   7.7314377
 118.5984707  77.0591831   8.1736213 119.5067978  76.1785316   7.3427331
  72.9259014  58.6609888  17.5327456  72.0100451  58.5107422  17.2985065
  72.8868055  59.2477751  18.2879853  60.7427216  49.7759056   8.1958288
  61.0306931  48.8645840   8.2487440  61.1744881  50.1184702   7.4132288
  36.2466335  73.0965662  10.8455276  36.4614248  74.0159273  10.6878257
  36.0982299  73.0438232  11.7896819  76.6405773  82.8344727 100.1178595
  75.7860756  83.2006073 100.3458955  77.2327709  83.1717873 100.7899901
  29.1353321  79.9354458  18.3898437  29.4683599  79.2438889  17.8179383
  29.3616605  80.7488728  17.9389048  92.5724602  43.4487724 105.2424099
  92.2277832  43.8855457 104.4635262  92.4658203  44.0910292 105.9441006
  71.8609858  48.4926939 106.2124889  71.5604973  47.5951624 106.0697617
  71.9296837  48.8649368 105.3333142  57.6455545  76.8117380  33.3382201
  57.8511333  77.2742701  34.1506433  56.9169188  77.3040390  32.9601240
  30.3290033  46.4602613  35.2684855  30.2904797  47.3515368  34.9215364
  31.0775471  46.0623550  34.8239803  64.9112129  46.0386705  18.9099848
  65.8269691  46.1601448  19.1607177  64.7966766  46.5990448  18.1424606
  50.2861595  86.5864372   3.1768075  50.6764174  86.8988132   2.3605020
  49.3476391  86.7397308   3.0676332  89.6143436  64.3244648  18.2551932
  89.0142727  63.6723661  18.6170113  89.8144436  64.9010468  18.9925826
  83.5585022  80.8786011  45.5662441  83.9463711  80.0807381  45.2068090
  84.1679859  81.1536884  46.2511444 112.7224159  89.7236824  12.9520655
 112.7367020  90.2106857  13.7759900 113.4817123  89.1431427  13.0037916
  79.9677563  71.4442492   7.5503963  80.5924511  71.5349054   8.2699573
  79.9952841  70.5143642   7.3250413  80.9052086  66.3539267  41.2444210
  80.2358150  66.9347048  40.8827066  81.1074829  66.7267466  42.1025133
  64.3820620  49.6515465  32.5095797  63.5227728  49.6252871  32.9304910
  64.8580217  48.9135981  32.8905392  67.7578735  50.7001972  28.3858562
  67.8087568  49.8683119  28.8566136  67.0641565  50.5677366  27.7397585
  40.3715181  21.7081332  34.8044586  39.9506736  21.0558462  35.3644967
  39.8153114  21.7506099  34.0266013  55.4056263  48.9197731  20.0355458
  54.8955822  49.7292471  20.0066495  54.7843122  48.2361174  19.7849000
  64.6385622 117.2549248  19.9502099  64.3188572 118.0211544  19.4738495
  64.0897417 116.5343285  19.6407390  90.0921535  45.0607300  81.7726787
  89.7233009  44.6886063  82.5737437  89.9746418  46.0055590  81.8712839
  59.2289114  59.3854475 103.6796966  58.3885717  59.7321367 103.3799108
  59.8351860  60.1214314 103.5961028   3.9362031  37.3095107  55.6764936
   4.3336841  38.1617522  55.4978180   3.5029569  37.0707583  54.8570251
  54.4032526  47.8105974 106.9487249  53.6360216  48.0474663 107.4697647
  54.3931437  48.4247780 106.2146192  68.7844658  35.9874105  12.2449255
  69.2973375  35.2531552  11.9071925  68.4817600  36.4481401  11.4624107
  71.4313936  73.9883566 109.0054199  71.1420822  74.6516132 109.6320166
  72.2572851  73.6638594 109.3643490  45.4033232  52.0540142   6.1002016
  45.3547001  51.3523674   5.4509246  44.4907093  52.2382832   6.3225067
  52.1291208  84.5848370 109.1696084  51.4034510  84.0274334 109.4505572
  52.2510958  84.3710995 108.2445831  72.5212765  75.7671785   2.5775206
  71.7900038  75.9794235   1.9974966  72.6921558  74.8390150   2.4177042
  63.3464718  82.2974110  18.3264232  63.3597517  81.9374943  19.2132771
  63.4409761  83.2419109  18.4498131  59.6188831  72.2617817   4.4749480
  59.2441463  72.7763748   5.1897895  59.4363117  71.3527775   4.7128853
  57.1900415  33.0135036   8.4551615  57.9080391  33.5821533   8.7332690
  57.5464916  32.5222588   7.7149916  81.1657619  63.9644432  82.3245891
  80.7906342  63.4094334  81.6408666  80.5883503  63.8398981  83.0777963
  60.7002211  34.3237519  13.0940616  61.1036062  33.5290599  12.7448082
  59.7657061  34.2155004  12.9174507 120.6165123  37.0672321  27.6264930
 121.4370537  36.6588068  27.9024267 120.4184628  36.6607022  26.7828465
  87.5982571  51.3036823  27.7455115  88.2837772  50.7070017  27.4450803
  87.8833389  52.1666718  27.4451685  35.3783417  38.0084109  17.2567880
  35.3093266  38.3737397  18.1388330  34.9512482  37.1539211  17.3173678
  68.0268097  58.6486721  27.4988580  67.6184225  59.0961790  26.7577839
  67.9940414  59.2867661  28.2115960  55.3793240  54.8095274   8.6624831
  55.9650850  54.1918802   8.2247293  54.7674084  55.0843477   7.9796463
  62.5197887  65.5134392 102.6873126  62.0003128  64.7677803 102.3866954
  62.7620029  65.9756613 101.8848720   5.4728645  46.9260263  42.7034283
   5.0851023  46.1945772  43.1839037   6.3747931  46.6520262  42.5370502
  61.1441231  93.4022999   5.1127481  61.9590855  93.8363552   4.8604199
  60.8553934  92.9540825   4.3177840  93.7007904  81.7089558  78.3464917
  93.1571484  80.9267712  78.4406456  93.1478024  82.4242401  78.6608156
  95.2468300  68.1133509  19.3791127  94.4443512  68.4100056  18.9498603
  95.1667404  67.1598339  19.4039631  97.6974106  86.4977837  13.8191748
  98.6371994  86.6748810  13.7785470  97.3925781  86.9950199  14.5781672
  46.3722038  60.6482649  11.5114272  47.0345306  61.2848520  11.2425077
  45.5456161  61.0161161  11.1989152  48.8156605  68.0165243  13.5968220
  49.2744923  68.4306002  12.8658998  48.0234861  67.6489258  13.2049501
  57.9509830  60.1883507  21.4060426  58.5103035  60.8868313  21.7459202
  58.4366560  59.8335409  20.6614184  78.1887293  51.7759371  93.9081999
  77.7097511  52.3652124  94.4909223  79.0406275  51.6625404  94.3296751
 106.3766766  26.4013600  27.5526476 106.1381340  26.9395304  26.7978644
 105.7039452  25.7211542  27.5840116  72.6817751  95.4660034  89.1242441
  72.0275450  95.5076694  88.4267648  72.2750521  94.9263954  89.8022088
  57.2485018  15.8516240  38.0826449  57.0288706  14.9869549  37.7357459
  57.0861292  16.4504385  37.3537493  30.7106900 117.5631714  85.2364763
  30.1614022 116.8629169  84.8841056  30.5266929 117.5622082  86.1758240
  62.1610785  66.3183355  11.9380498  62.9848337  65.9547186  11.6133308
  62.3405027  67.2513294  12.0544910  48.4161091  41.4766693  28.1003165
  49.2279243  41.8954849  28.3862877  48.6987257  40.6534576  27.7019596
  73.3884144  44.1268778  42.3041725  74.3287659  44.2070246  42.1443510
  72.9805613  44.5792866  41.5657854  59.7067261  85.0572681 109.1131379
  60.1438522  85.6009388 108.4577232  58.8445950  84.8769474 108.7383674
  65.0928926  45.8558226  45.8752012  65.1500988  45.5020571  46.7627859
  65.9723091  46.1864233  45.6919956  58.4469128  67.3233557  24.3179941
  57.6295710  67.1923971  24.7986484  58.2575560  67.0099068  23.4336162
  60.5634165  34.9793625  18.9585185  61.1664104  35.6412530  19.2969429
  60.9097242  34.7597241  18.0936134  67.1923208  63.3281898  38.1814957
  66.3093281  63.6838245  38.0810952  67.0812988  62.5697231  38.7547612
  74.9393654  76.1218929 100.0750675  75.8512020  76.1500120 100.3648951
  74.5207357  75.4923820 100.6621727  68.3649635  70.6735659 100.1197764
  68.8781309  70.9586430 100.8758333  67.8312111  71.4347363  99.8918190
  50.8704090  81.9112587  45.6393003  51.6150284  82.3579121  45.2364779
  50.9799290  82.0621204  46.5781689  68.9292908  89.9276829  14.4449055
  69.2397356  89.7665977  13.5538900  69.6148396  89.5658875  15.0064743
  55.1358461  96.6306591   6.3217849  55.3073740  96.3884163   7.2318006
  55.5702686  97.4766541   6.2131768  21.8437195  53.8153505   8.5404748
  21.1606550  53.2584858   8.9140534  21.3923454  54.6282864   8.3132565
  61.3983297  52.8774977  17.1344900  62.0263624  52.3505211  17.6285565
  60.6247187  52.3189926  17.0581412  55.0281000  39.6623993  16.3618600
  55.8973026  40.0603151  16.4106631  55.1056147  39.0012884  15.6739962
  73.2972670  34.1948676  21.6151738  73.4874582  34.8603535  20.9539723
  73.8762903  33.4653783  21.3942480  32.5955391  27.4343109 107.3963558
  33.4811234  27.6009989 107.0735719  32.3267245  26.6294408 106.9534611
 113.5977554  56.7326736  79.0250405 113.9516830  57.0286798  78.1863817
 112.8841209  56.1403465  78.7881788  76.2472057  66.6472578  12.0563912
  75.9889174  67.2900105  12.7169883  75.9742403  65.8055973  12.4215364
  38.8738084  72.5924778 102.2613337  38.8747430  73.2344866 102.9713031
  39.0898561  73.1000948 101.4791062  34.2799377  43.6526442  12.8945434
  34.3132138  44.3004513  12.1906435  34.0659499  42.8305006  12.4535012
  77.6467085  28.8994861 108.3635555  76.8251419  28.4091544 108.3346822
  77.3769522  29.8141623 108.4462174  68.0990839  46.4100599  24.4993043
  67.5470686  45.6416941  24.6446466  68.8934040  46.0612631  24.0948033
  60.7714367  76.4313221  26.2208676  60.1205683  76.8646574  26.7729735
  60.6280470  76.7983198  25.3485250  31.0987377  81.7850018   3.8652721
  30.5338168  81.9588566   4.6181786  31.0912967  82.6019669   3.3665371
  32.6740503  61.2723112 106.8608316  33.5506701  61.1162329 107.2121265
  32.2369313  61.7965412 107.5319093  61.5783262  72.7311707  94.1883548
  62.4093771  72.6139688  94.6486267  61.7463636  73.4399176  93.5673269
  80.3369808  47.2302580  13.9793193  79.6538067  46.5660286  14.0704787
  80.3478527  47.6801729  14.8241222  75.5237103  96.2781048   9.4256830
  74.7795725  96.1813354   8.8314360  75.2373314  96.9317245  10.0636506
  47.1328640  62.3426723   1.2235299  47.1508980  61.5371370   1.7402784
  46.9642639  62.0491409   0.3281823  82.7810764  30.5198741  77.1747398
  81.8542576  30.6872106  77.0037889  83.2295322  31.2998462  76.8479872
  44.2232704  35.5456138   8.2245199  44.4659328  34.6906614   7.8689901
  45.0412273  35.9016204   8.5715524  57.4590015  62.8389359 104.1440010
  57.7812910  63.6810970 104.4651222  56.7411280  62.6155281 104.7364330
  91.2291527  55.2016640  95.4767990  90.6550980  54.8949146  94.7749424
  90.7233143  55.8832598  95.9192753  49.8304224  26.8980646 102.5248051
  50.1924753  26.3308430 101.8440533  49.9695587  27.7860618 102.1956635
  36.6856432  57.6713371  65.3734016  37.4045992  58.2603598  65.1445246
  36.6649127  57.0310593  64.6621752  76.3710165  61.7953634  19.6005956
  76.2824440  62.6233339  19.1285268  76.8759155  62.0183563  20.3826276
  22.0199037  23.2910132  89.8437977  22.4443793  23.5343075  89.0210819
  21.7461753  24.1240859  90.2275848  30.8784556  54.0252209  11.8101255
  31.7432261  53.8134527  11.4586202  30.4551530  54.5308590  11.1163083
  83.8514519  48.4895134 106.6700172  84.6327782  48.2571411 107.1717739
  83.1517410  47.9655504 107.0600128  19.4177127  22.0683932   3.7368432
  19.3253994  22.7402973   3.0613748  20.1339126  22.3811913   4.2895166
  45.5463600  38.4498143  84.6099567  45.0725079  39.1714334  84.1964817
  46.2996292  38.2994843  84.0388012  19.9590826  56.9702864   1.5219060
  20.3083706  56.5170002   0.7545987  19.6367037  57.8046274   1.1810533
  72.7464724  62.5159216  96.8037033  72.8641653  63.0707502  97.5747681
  73.0865765  63.0392027  96.0779285  15.3852081  47.5989008  79.1650200
  15.6215918  48.5092688  79.3427277  14.4685602  47.6383352  78.8921928
  57.0359564  32.1433353 100.3360176  57.9468107  32.4173689 100.4431629
  57.0061159  31.7462540  99.4655704  76.7704296  26.6798210  20.4431001
  75.9119034  26.3359833  20.1962415  76.9757700  26.2411356  21.2687055
  67.3633051  45.8883333  20.4095022  67.0528889  46.7572260  20.6642572
  68.1444216  46.0579395  19.8828927  78.1027317  37.8974557  78.8263655
  78.2579136  38.3132863  77.9782915  77.1553564  37.7643847  78.8580990
  52.0595884  79.5059919  62.8242826  51.1569262  79.2985058  63.0659056
  52.5858116  78.8442326  63.2730484  30.2655768  57.8170824  11.5208188
  30.2298903  57.0914698  10.8975641  29.5016861  57.6877785  12.0829431
  46.9227219  46.5076399  85.3002357  47.6153755  46.2130547  85.8915806
  47.1478748  47.4165249  85.1015949  44.2856836  27.3773837  21.8575994
  44.6078777  26.5424275  21.5180913  45.0511312  27.7809310  22.2668306
 120.2238560  16.3798499  75.5005407 120.5292606  15.4950976  75.7009745
 119.9207687  16.7246342  76.3404799  46.8157339  38.1056786  24.8324910
  46.1176300  38.4175849  24.2566434  46.5519714  37.2163653  25.0686780
  80.6734657  36.5527034  74.5908022  80.0329876  37.2272611  74.3649673
  80.1532936  35.7574463  74.7057867  38.0747557  55.1894426 105.7637119
  37.2180510  55.3753185 105.3793335  38.2529259  54.2802000 105.5233574
  61.3218975  46.1360121  87.0246124  60.3833961  46.1666346  87.2103786
  61.4517355  45.2957392  86.5849304  41.6480112  43.9129305  74.9159956
  40.8875275  44.0982342  75.4669571  41.4712572  44.3793821  74.0990400
  66.4189434  32.7913833  78.0085754  67.3343849  32.5139427  78.0435038
  66.2194204  33.0718374  78.9017534  70.0143909  62.7726555 109.4335270
  70.9233427  62.6032257 109.6811771  69.5948505  61.9126844 109.4592762
  66.8131256  72.4515247  91.1758232  66.6894484  72.1462345  90.2770805
  65.9442806  72.7440119  91.4511204  54.0324116  54.0295696  87.9067802
  53.4510422  53.7242079  88.6031914  54.9122429  53.9409685  88.2732201
  52.7974367  76.7080688  63.3787966  53.6559057  76.4851952  63.0188084
  52.1842051  76.1532211  62.8968000  32.5542021  54.3321562   6.6206971
  31.6951871  53.9265919   6.7383424  33.1779027  53.6294985   6.8037263
  37.3062134  36.9069910  85.0890064  37.0412970  36.3012624  85.7812023
  37.9991388  37.4352574  85.4852676  57.1959209  36.5275264  11.8271486
  56.6459036  36.7735457  12.5709192  58.0265331  36.9764256  11.9846574
  28.7049222  42.9374599   6.9334832  27.9038596  43.4130812   7.1532956
  29.1488552  42.8152990   7.7726690  61.0317707  36.1446857  55.7749128
  61.0882187  35.2985597  56.2188911  60.2876616  36.5827465  56.1879921
  60.7805490  59.3139219  90.3204918  60.7849169  60.1706505  90.7473755
  60.4098654  58.7220383  90.9750843  67.4720001  43.4969330   7.3764650
  66.8965006  43.5462523   8.1397477  68.0276299  42.7357674   7.5442258
  17.6202369  39.7254872 106.0503769  17.3509645  40.6439495 106.0380650
  18.5297585  39.7465134 106.3479710  68.0391693  49.0327215  72.7265358
  68.4501410  49.1866255  71.8758631  68.6030531  48.3864689  73.1515360
  65.4222012  34.3913674  83.4263897  64.8005438  35.0971651  83.2485580
  64.8862362  33.5984468  83.4421730  52.3626089  62.9691076  15.5080644
  53.0637169  62.4211073  15.8607236  52.3066092  62.7218342  14.5850507
  92.4005699  85.1393318  85.2970505  92.9075718  84.5884895  84.7005939
  91.5033054  84.8155022  85.2177906  62.5306559  43.7285566 104.4797707
  63.3917809  43.7454605 104.0621567  61.9317102  43.4605217 103.7828827
  42.9876041  16.0554957   0.1612226  42.4249172  16.5636456  -0.4230746
  43.7431335  16.6217768   0.3184835  96.8658066  54.4762564  89.1360378
  96.8013000  53.6110306  88.7317371  97.6303577  54.8773479  88.7227249
  78.5591602  67.2151899  29.8271791  77.6598120  66.9729614  30.0479165
  79.0994167  66.5651321  30.2763788  82.6191330  53.9453363 100.5596256
  83.5199928  54.1964245 100.7636833  82.2228527  54.7415876 100.2058315
  77.9605341  51.1191559 105.7141781  78.1293964  50.6683350 106.5415096
  77.0208597  51.0090208 105.5688572  78.3903742  30.8145165  19.2860357
  77.7224159  30.7678962  19.9700681  78.8824987  29.9984360  19.3758241
  61.6517544  17.0904875  95.1082134  61.6785002  18.0008245  94.8135853
  62.2455788  17.0640171  95.8584785  54.9442291  25.3930473  16.0633508
  54.3301439  26.1258602  16.1094228  55.6472254  25.7051110  15.4935781
  50.7208824  19.4409943  90.9533215  50.0318766  19.2540586  91.5909481
  50.2699232  19.8894286  90.2379417  91.7086887  31.8699360   4.2542497
  91.7794704  31.3610959   5.0618974  92.6065254  32.1405745   4.0622083
  71.7280865  36.0736632 107.9920673  71.4569330  35.1573443 107.9366779
  71.7272854  36.3789368 107.0848560  47.2961330  49.1855574  75.1491499
  47.8001451  49.9963760  75.0800514  46.5520096  49.3152571  74.5611906
  23.6080050  55.1728582   4.5442144  22.7709007  55.2921677   4.0956060
  24.2519403  55.5735683   3.9602605  34.8968816  59.3379736  99.1451073
  34.6681976  58.5252523  98.6940861  34.1287661  59.8981285  99.0335083
  62.9055977  46.8682623   0.4099313  62.7149630  46.0507488  -0.0500163
  63.8057804  46.7651367   0.7185880  88.2900715  76.8538952 103.1661510
  87.5648689  76.4686489 102.6743031  87.9924393  76.8478155 104.0758801
  30.0354338  15.4264927  29.9768297  30.4999447  14.6923757  29.5749227
  30.3876328  16.2013745  29.5389501  71.1998034 142.3877723  13.3825151
  71.9672728 141.9844733  12.9768411  70.4682016 141.8300755  13.1180040
  27.2548866  35.9188986  49.5300770  27.4096990  36.1168003  50.4537106
  28.0127716  35.3969216  49.2666674  12.6899576  68.8469124  72.0538902
  12.9499984  69.0514898  71.1556911  13.4745240  68.4676075  72.4498844
   2.0613851  56.5370703  11.4032594   2.3774204  57.3735189  11.7448751
   2.1074702  55.9404469  12.1503583  45.8731270  35.3467917 104.1381836
  46.0903215  35.4737711 103.2146358  45.2678490  36.0597348 104.3420982
  63.6618233  39.2628479  75.1291895  63.2052279  39.6377873  75.8822966
  63.9300776  40.0209379  74.6099854  46.5369272  55.2793217   3.2495633
  47.2438097  55.0342035   2.6525251  46.7198992  54.7894573   4.0513078
  85.8600235   5.9673375  89.2376423  85.2432823   5.2449781  89.1190529
  86.5757084   5.5897313  89.7489548  35.8544111  46.4564514 101.7851448
  35.2679110  45.7478857 101.5202141  36.0790491  46.8999147 100.9671593
  51.8200350  23.9082718  15.2789632  52.1954250  24.0577483  14.4112245
  50.9606600  23.5241795  15.1052324  63.7532091  28.9151502  17.8619043
  63.3214474  29.7674489  17.8035871  64.6679783  29.1226220  18.0526487
  34.1322947  40.0857782  93.6608124  34.2892838  39.7436714  92.7807331
  33.1883645  39.9923539  93.7892532  50.0646687  27.0228148 107.1450138
  50.5730152  26.6487956 106.4253426  49.2235804  26.5675306 107.1060848
  28.3962202  38.1742239  21.0373250  27.7256680  37.8860807  20.4179994
  29.0835619  38.5510707  20.4879800  45.2398634  35.0864625  80.6096745
  44.3551636  35.4514098  80.5907345  45.7762289  35.7785749  80.9963512
  63.8349819  38.4319472  17.8897992  64.5739460  37.8407907  17.7459279
  63.2369852  37.9361367  18.4490815  76.7572880  19.9928856 104.1833782
  77.3166513  20.7546854 104.0317059  76.1575413  20.2701974 104.8759365
  76.0240507  21.0074782  28.1722394  75.3327131  20.3854084  27.9457227
  76.2003279  21.4769936  27.3569433  37.6483321  55.8041525 108.8914776
  38.0216217  55.5432653 108.0495548  36.8095660  55.3449345 108.9341927
  47.5028801   5.1238376  90.7183743  47.6672029   6.0351658  90.9606743
  48.0771303   4.6162605  91.2918091  55.6248951  96.0891533  92.1242905
  55.4391432  95.1788807  91.8937969  55.8929443  96.0538101  93.0425167
  40.1975918  53.8087654  87.3953819  41.0465574  53.4171104  87.1902180
  40.2087736  54.6538210  86.9459534  75.6279802  59.8041105  82.9659081
  75.1749516  59.0801620  82.5335979  75.0067806  60.1167536  83.6236286
  65.1127005  38.4480834  94.1025066  65.0366974  37.5275493  94.3536472
  64.7995186  38.4763384  93.1984329  79.2391062   0.7396550  85.2070045
  78.8061094   1.4505799  84.7344208  80.1665020   0.8389790  84.9918365
  46.9323778  76.1719131 101.6651440  46.5197802  76.6911602 100.9749508
  47.8300524  76.0389280 101.3606358  98.8092232  51.6172743  94.0806484
  98.4561539  51.1848211  93.3031178  99.1499233  50.9024286  94.6183777
  57.9081440  53.6105585  79.2045450  58.2999754  54.4777298  79.3080235
  58.3683109  53.2273626  78.4577942  63.3700657  55.6092119   0.2370302
  62.7325678  56.0506105   0.7982675  63.6317062  54.8346663   0.7348768
  55.5930185  55.5187941 103.7225342  54.8240852  55.7857704 103.2188511
  56.1351490  56.3063860 103.7675381  60.5898571  47.2720766 105.8566189
  60.3431749  47.2945404 106.7812157  61.0666704  48.0900669 105.7159996
  69.5040226  40.4932308  91.5120888  69.9612761  40.9897518  92.1907806
  68.8472557  41.1009598  91.1721611  34.6562696  48.0665588  75.9492445
  33.9323759  48.6675644  76.1253309  34.9632072  47.8008223  76.8160820
  50.1667738  13.5207129 108.4102154  49.9201584  13.0382407 107.6211452
  50.3809357  12.8411114 109.0493679  37.8709650  37.7727365  96.4375114
  38.3976436  37.6458120  95.6483746  37.4091887  38.5975933  96.2871647
  63.3963728  31.1920166  90.6620216  63.4015036  32.0356488  91.1142254
  64.3037701  30.8906174  90.7070351  40.0184298  42.8992605  96.2166786
  39.3129778  42.3558617  96.5678024  40.7297945  42.8071976  96.8504906
  29.7125626  48.7235928  93.4975052  29.5984268  48.6148643  94.4416428
  30.4513717  48.1557274  93.2785988  28.9596033  46.4464045 103.2055473
  28.4898949  46.7313385 102.4216938  28.4324288  45.7266188 103.5522842
  56.2265301  40.5532122  93.7989521  57.0916367  40.2374077  94.0598869
  56.0589266  40.1259851  92.9589462  83.2632065  41.5000868 102.9841900
  82.5229263  42.1047068 102.9326820  83.4661579  41.4489508 103.9182281
  64.5761251  45.3952360  85.9252262  65.3844309  45.6632662  85.4881573
  64.8416281  44.6782017  86.5010738  77.5057030  64.8224688  92.6631260
  76.7828512  65.3388500  93.0195999  78.1177855  65.4729366  92.3189163
  90.7285881  33.0898237  17.6005689  90.6404972  32.4903059  18.3415452
  89.8685074  33.5026932  17.5229589  53.5454798  42.8718758 100.3129387
  54.2071772  43.0034876 100.9919643  54.0399933  42.5654459  99.5528126
  67.4287462  38.0863333 100.0039673  67.4907875  37.6118922  99.1749382
  67.6181078  37.4272990 100.6718349  71.2479305  44.3628836   5.7564012
  71.5149403  44.7199011   4.9093572  70.4184675  44.7997522   5.9497205
  43.2243013  12.4818313  93.9348507  43.5650682  11.7606044  94.4639492
  43.4076309  13.2659495  94.4523239  37.2992349  36.4043570  19.8569528
  37.9363918  36.0641313  19.2288534  37.2818804  37.3473501  19.6935598
  53.5766411   9.0683913  90.7792854  52.8821135   9.7254550  90.8254242
  53.2898426   8.3746201  91.3731384  71.7146063  56.9228506  25.0687543
  70.8864546  57.3674726  24.8878995  72.3861790  57.5396824  24.7776452
  65.3614998  83.3582497  98.6688137  64.9860191  82.6576519  98.1355095
  65.0876522  84.1647434  98.2320023  83.4093380  59.6979761  15.7464544
  82.6919460  60.0397539  15.2128164  83.4533119  58.7685776  15.5217019
  59.4730997  57.2761106  87.9007721  59.8894787  57.2475910  88.7621975
  59.5401812  56.3794613  87.5725269  72.9402781  53.6859417  70.4283476
  73.2787514  53.3037615  71.2380409  73.3867884  54.5295858  70.3567600
  61.0222054  34.1239595  83.6829948  61.4284325  34.5495534  84.4380283
  60.0817394  34.1878223  83.8493443  50.8698606  68.0927610  87.5845432
  51.4645386  68.7751675  87.8958416  50.4596853  67.7516890  88.3793163
  87.0012379  59.5608616  71.3380861  86.6294003  58.7141848  71.0908937
  87.8223991  59.3423605  71.7787457  48.8002634  47.1266937   6.0874311
  49.5723104  46.5654802   6.1596624  49.1504669  47.9874086   5.8577386
  50.6726694  54.7528934  23.9574567  50.7637024  54.8744011  24.9025384
  50.6902742  53.8036966  23.8352147  21.3523602  10.3794658  11.2911359
  22.1779609   9.9628007  11.5381280  21.6137958  11.1999404  10.8731595
  36.8934369  50.2685022  75.9368658  36.5889311  51.1634111  76.0873604
  36.1030698  49.7324657  76.0017920  42.8766537  68.7014008   1.1489335
  43.3369303  68.1295919   1.7632715  41.9634962  68.4183598   1.1964551
  69.8412514  33.4544325   8.7449113  69.6892834  33.4683394   7.7999536
  68.9644337  33.4317040   9.1282026  74.0689039  76.0692406  81.8700409
  73.9321852  75.4739523  81.1330414  75.0089979  76.0229206  82.0441341
  44.0876913  32.6929951  64.7886992  45.0111198  32.4434710  64.8241568
  43.6848354  32.0396495  64.2167902  47.2730589  66.3746500 105.5487442
  47.3907661  66.4050627 104.5992947  46.9466162  67.2448730 105.7776165
  90.4660892 116.3399029  60.0592327  90.8539200 116.9282818  59.4114447
  90.4873276 115.4781342  59.6431303  33.2644033  37.1575618  86.1812592
  32.7033234  37.4020839  85.4452991  33.5009313  36.2460685  86.0095978
  57.3269892  74.8041010  16.1816922  58.1473541  74.4777203  16.5514413
  57.1022511  75.5585480  16.7262498  79.1706371  38.0588865   7.2316305
  78.5010242  38.7210631   7.4030153  79.8995781  38.3020782   7.8023664
  76.0848331  25.3969765  25.7315103  76.4760017  25.9149241  26.4350358
  75.2310658  25.8029366  25.5814687  83.6439133  43.5918713  93.5161209
  83.7545681  43.3398294  92.5993538  83.6901093  44.5479298  93.5089302
  89.7068501  38.8684702  87.3111057  90.2456856  38.0825996  87.4021721
  89.9247837  39.3984675  88.0778217  64.1614819  34.6308422 106.1430740
  64.6163559  35.4324937 105.8848572  64.2936850  34.0328836 105.4074097
  19.1470432   5.7076538  63.2709837  19.3727708   6.6316724  63.3780718
  19.7073483   5.4055095  62.5561428  37.3453116  33.1525946 106.2112331
  37.0497274  34.0490723 106.0525227  38.1742811  33.2530260 106.6791630
  62.6334476  63.7849998  87.4262047  62.6312685  63.0485725  86.8147278
  61.9457436  63.5740089  88.0576897  65.5477905  28.6590838  62.8133106
  65.0065994  29.4403529  62.6994610  66.2171030  28.7300920  62.1327162
  80.0091839  17.5312734   1.8905393  80.8529091  17.9710484   1.9952337
  79.8767996  17.4894166   0.9434549  33.3538079  21.1682582  61.1026859
  33.0897141  21.9443822  61.5967703  32.7922058  20.4689312  61.4370203
  46.6412878  55.9206676  99.8984623  46.6864204  56.1253643  98.9645004
  46.1638498  55.0920391  99.9392509  38.4709477  31.0338473  94.5037270
  39.0743065  30.3043103  94.3624306  37.6041889  30.6280303  94.5203686
  74.5688486  60.5319309  87.0337391  75.5054760  60.3792477  87.1588039
  74.5204210  61.1172581  86.2779045  47.5103998  92.5694561  99.0178871
  48.3734751  92.2229385  99.2442989  47.1463203  92.8686333  99.8510551
 110.8822536  39.7568178  86.7265320 110.3820801  40.0729084  87.4789619
 111.6967106  39.4236422  87.1032047   2.5585723  24.5109963  59.2383194
   3.3462983  24.9957800  59.4847059   2.8277752  23.9824867  58.4870291
  86.1897755  35.9322333  30.7082692  86.7498493  36.3991666  30.0881807
  85.5535126  35.4746246  30.1587240  86.7108631  64.6414042   3.9880792
  87.4411964  64.4746208   3.3922426  86.2871170  65.4235029   3.6345426
  57.5769234  50.3404665 105.4660988  57.5840902  50.1286077 106.3995361
  58.1106567  51.1319542 105.3960323  94.1823578  84.2242813 102.4699879
  94.2915058  85.0389194 101.9793987  93.3290768  83.8904285 102.1930790
  79.6693945  64.4074249  84.4495106  80.1093006  63.7503576  84.9889278
  78.9516115  64.7253752  84.9971581  67.5222778  11.4217651  88.8948441
  67.1244621  11.4589202  89.7646713  66.8639994  10.9922695  88.3485603
  35.2500415  60.2572489  76.5502596  34.3912816  60.5037069  76.2067175
  35.1494694  59.3421936  76.8125439  68.4596014  59.5910931  81.3909149
  68.9370346  60.1982117  80.8255005  67.8257370  60.1409054  81.8515205
  73.3072615  30.0967360  82.9987144  74.1115999  30.5217052  82.7009392
  72.6139355  30.7224035  82.7887726  96.5880680  59.2441654  79.4022560
  96.7940426  59.3593597  78.4746075  96.1568356  58.3908176  79.4476795
  38.4070516  58.8107347  98.8908005  38.9553094  58.8901043  98.1101894
  39.0292835  58.7133694  99.6116161  42.4732733  51.1352539  95.6458187
  42.1269083  51.1282301  94.7535133  42.7036381  50.2227592  95.8205128
  33.4955192  20.5460906  23.7308923  34.0084434  20.7861876  24.5025674
  34.1283989  20.1377034  23.1401960  59.0655088  82.4283695  10.1930372
  59.5615196  82.2567940  10.9935132  59.3464375  83.3016491   9.9197427
  42.0075941   9.7761309  70.5905294  42.2744560   8.9009500  70.8717299
  41.3199425  10.0266349  71.2074709  90.3852558  43.3956194  23.3477250
  90.9411335  43.6211681  22.6018277  90.8821869  43.6850071  24.1129342
   3.4057218  41.0129118  14.7915117   3.8486692  41.2977219  15.5908338
   3.6501712  41.6665316  14.1363374  63.9292002  32.1182370  83.9254665
  64.4020081  31.4997101  84.4823360  63.5156155  31.5713859  83.2575321
  76.2777901  58.3627129 102.8872967  76.6937208  58.3370972 103.7490273
  76.4569235  59.2445707 102.5610065  76.9951534  44.6962166  69.8414469
  76.2849712  44.7511578  70.4808617  77.6955318  45.2312899  70.2148104
  86.4752293  41.2704659  95.0803757  86.9208527  40.6892347  95.6966782
  85.5615044  41.2667513  95.3655529  39.8646760  60.5011368  89.0450191
  39.0815377  61.0509062  89.0188789  40.4830074  60.9370470  88.4586048
  62.0814276   0.0025239  80.7277203  62.0598316   0.9008056  80.3977871
  62.0099497   0.0945428  81.6778088  56.9024658  40.6810331  97.6591778
  57.5084019  40.8882856  96.9477558  57.4628210  40.3568602  98.3642578
  79.9456549  43.9071608 109.3159580  80.5382252  44.5292807 108.8939857
  79.5557261  43.4184361 108.5911560  28.0913377  89.4634438 100.9293461
  27.8715396  90.3866291 100.8042431  28.3683014  89.1637039 100.0635052
  90.0359154  26.5353751 107.6882458  90.7441807  26.8734860 108.2362175
  90.0039196  25.5998898 107.8884315  56.9729710  26.3868475 102.0468998
  56.8456745  27.0528293 102.7225494  56.0873413  26.1023974 101.8211079
  66.3975716  27.6185918  86.7527103  66.6459036  26.7843604  87.1509838
  65.5221605  27.7968860  87.0963573 103.1623363  43.8117123  17.5275651
 102.5404835  43.1231356  17.7629319 104.0222263  43.4224415  17.6865712
  68.5761166  36.5920734   1.0698453  68.9598227  36.9958329   1.8482915
  68.7259197  37.2289610   0.3711644  51.2405062  52.7017689   4.1918126
  51.7192507  52.0724583   3.6523668  51.2732792  53.5182858   3.6933652
  39.9824190  40.0384760  20.6590024  39.5887780  40.4106474  19.8698369
  40.1895857  40.7975149  21.2041417  59.8302937  37.4264646  12.4387304
  59.7619534  37.9381227  13.2448140  60.2798939  36.6235185  12.7021066
  49.3824577  58.8589954 106.5534782  49.6494293  59.7458267 106.7953205
  49.6917248  58.7527084 105.6538677  48.9653349  66.0503721  18.6409894
  49.7225332  65.7038164  18.1689874  48.4611893  66.5176487  17.9748670
  72.9475689  96.0996151  92.3870182  73.2553911  95.2139378  92.1945286
  73.6096764  96.6726208  92.0003605  79.7589207  33.7566400  91.9129848
  79.5859909  34.4118571  91.2369633  79.8452568  32.9334641  91.4321995
  70.4578686  51.6505098 100.0105572  71.3323069  51.3112307 100.2015591
  70.0194931  51.6752195 100.8611107  88.0560589 124.3395943   4.2723314
  88.8207912 123.8038702   4.4830648  88.4087467 125.2199263   4.1424981
  96.9077492  24.3459392   2.4817983  97.4151802  24.8274255   1.8284074
  96.4306736  23.6873841   1.9768754  40.2649450 144.4915310  94.1257763
  39.3921351 144.6917956  93.7876511  40.5146980 145.2715826  94.6211338
  39.3384385  43.8567305  48.2444525  38.6407948  44.4789600  48.0386543
  40.0446463  44.0794706  47.6379156  71.0228634  42.7022171  34.4958059
  71.6284084  42.1680164  35.0097886  71.1820459  43.5979986  34.7932283
 113.3214474   2.0576575   3.2244912 113.4575462   2.1507096   2.2816030
 112.8617477   2.8573602   3.4802095  94.2976665  53.3143616  45.9858608
  95.1876545  53.2940483  46.3376236  94.2997837  52.6563072  45.2907419
  15.0746977  83.4035969  68.5287905  15.3599393  82.5215054  68.7670708
  15.5257726  83.9768028  69.1486263  33.7884808  21.4719939 103.6827183
  33.5273600  21.4970994 102.7621651  34.0837288  22.3625636 103.8723087
  36.5649199  22.1631432  96.3958263  36.7285872  22.7928162  95.6937122
  37.2508979  21.5038466  96.2909794  64.4557428  61.4744949  88.3589554
  64.2986298  60.5305529  88.3360004  64.4002962  61.7040491  89.2865658
  55.7663679  53.7500334  12.6792661  56.3054276  53.2929325  12.0337430
  55.5701923  54.5941782  12.2728578  21.0662866  63.4138823  11.3213006
  20.5968070  63.3401346  12.1521989  21.9912529  63.3755970  11.5646211
  57.1275949  63.0265284  99.1034985  57.4837017  62.9800510  99.9907780
  57.2019720  62.1329689  98.7684536  67.9952669  35.0490403  73.4634781
  67.4098063  35.7009554  73.8488007  68.8501930  35.4789114  73.4401894
  56.5443325  67.4791813  83.2961464  56.6545534  67.3528147  84.2385483
  56.2811518  66.6192293  82.9683399  94.3036938  40.1154852  61.1284494
  94.1253376  39.5524383  61.8817091  93.7685585  40.8945656  61.2797308
  59.3000460  15.7818353  88.0159664  58.5555601  15.5250037  88.5600376
  58.9080191  16.2519121  87.2800541  68.0112362  56.7220354  98.9804935
  68.7372732  56.2294769  98.5977554  68.2586432  56.8394613  99.8976898
  69.3487453  48.1745672  56.7530727  69.6224737  47.5783539  56.0560560
  69.9919176  48.0405521  57.4492025  54.8926497  82.5204086  93.0158615
  54.4041109  81.6985607  93.0619621  54.7578382  82.9275036  93.8716316
  65.7037115  14.4851708  83.5857391  64.9317026  13.9965725  83.3002472
  65.6877851  15.2858806  83.0614853  44.7440243  71.7293358  75.6042194
  45.1899385  71.6351461  76.4459515  44.3790388  70.8621407  75.4281664
  19.8606479  19.9732256 105.5023193  18.9792395  19.8705411 105.8612156
  20.0822449  19.1072416 105.1599789  37.2179198  75.0025606  80.7580185
  36.4874506  75.6210232  80.7456207  37.7809191  75.3110600  81.4680099
  53.6452293  33.9027762  72.4801922  54.3864393  33.3977509  72.1458483
  54.0353346  34.7143388  72.8048658  64.0415192  99.9383736  73.8737249
  64.7894669 100.3626156  74.2942333  63.3087873 100.1009750  74.4677734
  48.8655663  63.1506777  88.9805889  48.3181047  63.6977196  88.4173298
  48.2597923  62.5113821  89.3555164  40.2250576  47.5788355  82.2316933
  39.7245502  47.3624945  81.4449787  40.9462118  46.9494390  82.2373867
  78.0233574  31.0618210  73.0012941  78.9543247  31.2162304  73.1615686
  77.7755404  30.4005194  73.6474323  85.4155540  81.5083599  66.0852528
  85.8091545  81.9879246  65.3563309  84.7250748  80.9828186  65.6811810
  51.9878578  56.8564987  73.5091829  52.2941542  56.0687494  73.0598974
  51.1710405  56.5894794  73.9307785  75.8626795  36.8038154  94.2163944
  75.1701784  36.5641975  94.8322296  76.2413168  35.9677577  93.9445972
  64.7374201  56.4352703  87.3940945  65.0683975  57.2776699  87.7056313
  65.4225731  56.1098480  86.8102264  54.9379683  98.9004707 102.1146965
  54.0314484  98.9749146 101.8165302  55.0131893  99.5471954 102.8163528
  90.9381866  50.0991392  67.5375938  90.8306026  49.1855478  67.2730064
  90.2076817  50.2634001  68.1339264  72.2625637  45.6241894   3.1785241
  72.5386286  44.7618866   2.8679601  73.0744648  46.0519934   3.4506074
  67.2948313   8.6958659  69.7711229  68.1235075   8.3955151  70.1443768
  66.8206739   9.0723252  70.5125332  51.3935137  46.4247608  75.7690239
  51.2719345  46.9675970  74.9900627  51.2549496  45.5291796  75.4608583
  51.4317751  28.5356021  97.0533562  51.2698364  28.6800289  96.1210728
  52.0811510  29.1981435  97.2891140  80.6223011  59.0393639  84.5065308
  80.6635857  58.0838871  84.4667435  79.7494364  59.2552614  84.1783047
  81.0706043  46.4713573  88.1795883  81.9939327  46.6179800  88.3850098
  80.6764793  47.3430157  88.2128620  50.3072977  54.4105244  73.6242437
  50.7316875  53.8023567  74.2294359  50.6455660  54.1662741  72.7627611
  65.2619171  70.7828712  74.1919947  64.7978735  71.6184616  74.2438316
  65.1307440  70.3823423  75.0514174  64.1450167  33.4466767  62.0879221
  63.9089584  34.2982888  62.4557066  63.7318277  33.4357953  61.2245607
  62.4527502  48.3654881  53.8637686  61.7193365  48.7204409  53.3614349
  62.0452309  47.9627275  54.6305466  50.6765795  72.3259783  85.2430058
  51.5883970  72.5039339  85.0124550  50.6339884  71.3740921  85.3342438
  28.0837393  52.4282742  82.4785137  28.1328940  53.2734585  82.0318699
  28.4161305  51.7992735  81.8381214  56.8024540   4.3852276  90.2545166
  56.8858051   3.6868316  90.9037685  56.4992905   5.1426780  90.7551003
  86.8007088  57.7706766  59.3387365  87.2902966  58.5287523  59.0195942
  87.1615028  57.0300531  58.8513565  40.1862431  40.7895756  72.6934052
  40.1669741  41.4606810  72.0111465  40.1991081  39.9610996  72.2141409
  66.3062286  45.8165789  63.6761189  65.5860329  46.4326286  63.8104105
  66.8237925  46.2034369  62.9699326  36.8381810  69.5485926  57.8607702
  37.3061657  70.1773167  58.4102488  37.0910501  69.7773886  56.9663763
  68.4556532  51.2282228  92.1203327  68.2295561  50.4134893  92.5690269
  68.9612627  50.9489489  91.3570595  54.9695206  19.9591947  75.6372595
  54.7495937  19.0353882  75.7574511  54.5503616  20.1996517  74.8109913
  59.2424870  16.5500677  27.6098672  58.6072826  17.2564542  27.7271787
  59.9762487  16.9612205  27.1529428  53.7399483  55.5536652  90.8021641
  54.3782282  55.9474802  90.2073956  53.6617184  56.1821890  91.5198421
  53.6295176  32.6024461  22.2119180  53.4508181  33.4183574  22.6794568
  54.5574045  32.4319458  22.3737565  49.5794678  92.0387745  89.7506809
  50.0914526  91.4896107  89.1569424  48.7417603  92.1588326  89.3033981
  55.8689690  43.1692219  98.5607147  56.2147141  42.3450708  98.2179832
  56.3468838  43.8467836  98.0824566  33.9881682  62.0848274  79.3727398
  34.8981166  61.7920113  79.3228531  33.8309979  62.5219536  78.5358095
  40.6962729  56.3343287 101.6937923  40.2131939  55.6399775 101.2457561
  40.1929140  56.5004063 102.4908447  50.1126909  53.0608225  92.4492168
  51.0446119  53.1998682  92.2806358  49.7417212  52.8573799  91.5906048
  57.8574467  42.6057720  77.0787954  57.4474573  43.3500814  77.5194168
  57.4917746  41.8371296  77.5166416  66.6548824  47.4278641  84.5501328
  67.2742891  46.8353939  84.9762058  66.9483423  47.4669933  83.6398602
  51.2474680  21.3432646 100.4300785  51.6857958  21.9212794 101.0545826
  50.7379198  20.7438898 100.9753704  63.7228680  72.4911070  96.3500500
  63.9780331  72.3555374  97.2626019  63.3630085  73.3778858  96.3311863
  33.1945181  43.3083200  87.4098778  34.0767813  43.3218575  87.0388508
  32.6158237  43.2506752  86.6495991  76.1001158  52.4201488  64.6265936
  75.4999352  52.0731497  65.2865982  76.0830975  53.3675861  64.7618771
  63.0366707  37.8703403  55.1375532  63.1660461  38.0858159  54.2139387
  62.2094202  37.3892164  55.1576519  50.1789522  58.4274673  12.2797338
  50.1178837  59.0547848  11.5593377  50.6799459  57.6961231  11.9186632
 116.3368893  47.6656866  70.4218340 115.9922600  47.8541756  71.2947226
 115.5690384  47.6898050  69.8508215  57.7364779  30.8756113  76.9574547
  58.1921577  30.7441139  76.1260128  57.5213289  29.9916649  77.2550821
  49.4762421  34.7364044  74.7609377  49.8325682  34.7118449  73.8728714
  48.5591269  34.9844170  74.6442509 111.7753887  51.6222620   8.6161653
 112.1349907  52.5047874   8.5263292 110.9167671  51.6695404   8.1957475
  40.4193926   2.8796738  91.5952969  40.7137203   2.6706603  90.7087803
  39.7953486   3.5959184  91.4778519  42.7514315  39.6439242  90.4584312
  42.1402884  40.0844908  89.8679829  43.0984020  40.3447104  91.0104752
  47.6824331  16.9187939 106.5575504  47.5011826  17.8537273 106.6538715
  47.4568844  16.5422130 107.4081612  14.6910691  62.1979618  84.1953850
  15.1532149  63.0359793  84.1759396  14.1324329  62.2504568  84.9708939
  36.1271453   7.5106156 103.7808132  36.3424778   7.7133214 104.6911812
  36.2655354   6.5663928 103.7064838  13.1909239  55.8981133  53.9952660
  13.7507510  56.2378216  54.6934223  12.4893689  55.4361439  54.4542217
  77.3268223  36.1149263  97.0056725  76.9582605  35.2340961  96.9383717
  77.3392057  36.2982392  97.9450798  65.0586128  48.0527687  13.6772863
  64.7364330  48.2048893  14.5657102  64.8637199  48.8648272  13.2095186
  46.9017363  65.2159882  99.1236687  47.3919392  65.0636244  99.9315739
  47.5253963  65.0198793  98.4245014  62.6029396  56.4750528  15.0191823
  63.1529570  55.6926250  15.0581209  62.5667572  56.6963148  14.0886060
  37.0291328  46.4687777  96.4801788  36.8905210  45.6260824  96.0478783
  37.9044485  46.7391586  96.2027740  63.1368303  43.2877493  72.9076767
  62.7200317  43.1600046  73.7598467  63.0802822  44.2305613  72.7523136
  27.4786854  23.2802200  92.3033810  26.5355039  23.4306741  92.3666573
  27.8386545  23.6800885  93.0950642  69.0202761  88.9290142 100.6326580
  69.9556351  88.7624454 100.7492352  68.6221933  88.6461067 101.4558983
  73.1088161  24.6955585  18.0908835  73.8115883  25.1108050  17.5909722
  73.5342550  24.3861675  18.8905764  74.7058630  94.6766376  84.5994282
  73.8671112  94.5190525  84.1659641  75.3069401  94.0530109  84.1919708
  59.8660755  44.1418171  76.0059643  59.9490261  44.7698212  76.7235756
  59.1505527  43.5651827  76.2738228  66.1463356  63.1888247  94.5104599
  66.2447500  63.1274986  95.4606056  66.8927526  63.7161922  94.2258930
  73.1913185  20.2495098  70.8157921  73.8876152  19.6139789  70.9816360
  72.6978636  19.8787034  70.0841951  39.0995240  39.5080066  76.1727238
  38.7838602  40.2846718  75.7107973  39.6119261  39.0322733  75.5189991
  58.7409925  37.5757813  73.6930132  57.9238749  38.0425668  73.8681030
  58.9781046  37.8338194  72.8022671  69.7182226  77.1454334   7.2110883
  68.7719154  77.1591091   7.0677224  70.0864935  77.5311089   6.4161912
  81.5347767  33.7118363  72.9534340  80.8033848  33.6855769  73.5703754
  81.6394901  32.8044152  72.6673365  74.8595524  50.0440931  64.2332125
  74.0327358  49.8564959  63.7888956  75.2539921  50.7478476  63.7180614
  97.7781487  79.3835640  29.3245260  98.2210922  78.8976097  30.0201360
  97.1911335  78.7437105  28.9217416  33.3062983  41.3761568 109.4711304
  33.8257933  40.6441307 109.8035240  32.4927640  40.9738636 109.1668987
  48.6436796  71.6578674  83.2711601  49.2252493  72.0225382  83.9382648
  48.9798021  70.7749605  83.1171036 113.6980152  62.9104519  61.7251444
 113.9750671  63.8084221  61.9071484 114.2278194  62.3724461  62.3134327
  82.2684193 100.8234787  98.3143806  82.3959446 101.3010693  97.4947071
  82.8282452 100.0515079  98.2313824  38.0205750  10.4987562  85.1667786
  38.4597945   9.6552116  85.2751732  37.7672911  10.5200732  84.2439365
  45.7938290  57.6131725  79.3179035  45.2977228  57.8859663  78.5460901
  45.3261566  58.0065966  80.0546074  66.0001135  35.2047777 103.3361053
  66.2646961  35.9253550 102.7642727  65.3243923  34.7417450 102.8408909
  66.5046167  32.4907207  63.0488396  67.0464945  32.0359325  62.4040365
  65.7725048  32.8415227  62.5417137  33.3463550  70.0930977 106.1103249
  32.4028730  70.2545691 106.1090374  33.5759449  70.0221586 107.0368671
  72.9866314  52.5061417  75.9311152  73.1529570  53.4030676  76.2211037
  73.7867117  52.2506046  75.4719830  23.7586260  45.5443525  91.4092445
  23.0691648  46.0536623  91.8352509  23.9878154  46.0543251  90.6323051
  76.0996485   0.1533161   0.3987829  77.0364714  -0.0116656   0.5054513
  76.0552549   0.9326213  -0.1552447  70.3502083  38.9804840  48.2080460
  71.1502743  39.3602014  47.8448153  70.1429176  38.2527256  47.6218462
  67.5164890  36.0829735  83.3304501  66.7342520  35.5729604  83.5407543
  67.2013664  36.7771244  82.7515888  58.1956434  48.9197016  88.3076954
  57.5052404  49.4005966  88.7641144  58.9813805  49.0729952  88.8324356
  77.7857494  32.8854775  58.9391613  76.9256592  33.2691169  58.7679911
  77.6665926  31.9493151  58.7790537  38.2811093  72.0416737  85.4362011
  38.9011788  71.4810848  85.9025574  37.6977348  72.3732376  86.1188221
  29.2370367  23.4735441  68.3342695  29.9579883  23.0917907  67.8335476
  28.4649992  23.3360243  67.7853823  53.6342478  49.2991018  94.9733829
  52.9876900  48.5981417  94.8906517  53.2364607  49.9211884  95.5824947
  67.0981312  31.7859602  69.5252419  66.7907953  31.7530894  70.4311657
  66.4024687  32.2431755  69.0527630  58.3019781  50.6890249  91.7438698
  59.0168476  50.1364136  91.4279366  58.7018442  51.5496635  91.8689442
  49.0109301  49.8264408  79.3818045  48.3099222  50.2428913  79.8831892
  48.5553312  49.2811584  78.7404585  80.9497833  23.3203077  90.1891327
  80.2139759  22.7859020  89.8904228  80.5562401  23.9586806  90.7839775
  33.7298703  78.1708717  70.2251863  32.8148198  78.3928013  70.0529575
  33.6923075  77.3162365  70.6546307  52.6736403  73.7797356  89.5556068
  53.0957413  73.2644701  88.8681698  52.6431274  74.6693277  89.2035866
  34.6417832  40.4729033   4.8935739  34.1572165  40.8565140   5.6245176
  35.5620527  40.6135082   5.1162092  44.7674370  12.8615606  74.4530916
  43.8442087  13.0770195  74.5852137  44.8080587  12.5191021  73.5601759
  80.1564598  45.7203913  75.0782871  80.1928711  46.4473391  75.6999397
  80.2375412  44.9364328  75.6214857  67.3627806  53.3602619  75.8446407
  68.2963467  53.4682846  76.0263586  67.1761799  54.0025187  75.1598692
  49.9358225  47.9196835  96.6887951  50.7368040  47.5297451  96.3386536
  50.1174736  48.0443048  97.6203060  40.2408600  84.6784878  81.3222218
  40.7707024  84.1240883  81.8950558  39.4590473  84.1569996  81.1404324
  58.0486584  55.4724979  33.9770547  58.8548279  55.5384827  34.4888822
  57.8329182  54.5400095  33.9891473 115.0861263  31.7296052  78.5820866
 114.9193287  32.6318002  78.3092260 114.5988750  31.1956406  77.9546261
  41.3900948  29.9690151  61.6782665  40.6684780  29.4388580  62.0165539
  41.1981249  30.0676990  60.7457209  82.0045662  56.6416550  89.4488621
  81.5042877  56.7033482  90.2625847  82.2006321  55.7091331  89.3583584
  45.4280949  75.0627089  96.8374538  45.6857586  75.9496927  96.5862465
  44.5724583  74.9366331  96.4273071  61.7991400  17.2770894  89.3364525
  61.1095715  16.7154729  88.9824486  61.7031288  17.2046363  90.2860641
  68.1123495  34.2119288  97.1444798  67.9402161  33.5874486  96.4397621
  69.0513611  34.1313910  97.3118114  93.7283230  39.9061012  95.4719257
  93.9913177  38.9939260  95.5944252  93.5561371  39.9817443  94.5333862
  71.6974449  77.6378870  61.7758894  71.8863392  76.7103767  61.6335011
  71.7531633  77.7507401  62.7247810  85.7502937  78.3492088  81.5669727
  86.5542030  77.8914690  81.8128109  85.8075523  78.4397745  80.6157875
  68.1307650  60.2289581  90.5323505  67.3736382  59.8415470  90.0931358
  68.0451059  59.9534082  91.4450264  41.9450045  20.4095817 104.6751881
  42.2967196  19.9915826 105.4611969  42.1786308  19.8147011 103.9626122
  33.9351845  36.0535479  91.7907047  33.5497475  36.8134761  91.3546085
  33.2681298  35.7731104  92.4172974  87.7554607  80.6560802  67.3147392
  87.9003811  81.3649750  67.9413986  87.1995449  81.0438156  66.6388321
  68.9179850  52.2157812  60.9921026  69.4605017  52.9036045  60.6063461
  68.2047701  52.6867342  61.4231062  61.4911461  28.6082458  80.3433704
  60.9243584  28.1523395  80.9655666  61.6623783  29.4565225  80.7524395
  58.7732649  23.0678797 104.4169140  57.8435373  23.1658554 104.2113781
  59.0428734  23.9330411 104.7251987  50.1885462  44.3466377  89.7920513
  49.8723602  44.3898964  90.6944847  51.0031223  43.8470078  89.8473644
  73.5484409  86.4966774  82.3972607  73.2550287  85.5942440  82.2717285
  73.6205387  86.5952206  83.3466434  92.5847054  73.2163811   9.9505178
  91.8057346  73.2754803   9.3974057  93.1386948  73.9418268   9.6623174
  69.2649841  14.1183770  84.7256470  68.6602831  14.8437572  84.8818207
  68.9139175  13.3971930  85.2480221  96.5719604  33.9368367  86.2798500
  97.1708488  34.6634412  86.1077976  97.1238136  33.1559849  86.2356758
 109.5082283  40.4931450  60.6245136 108.7124538  41.0250950  60.6273460
 109.3226624  39.7813082  61.2369585  69.7026205  35.0358367  87.3843193
  69.7224426  34.1195464  87.6604557  68.9237738  35.3968143  87.8077888
  73.1145287  50.0652933  61.5866423  72.4992657  50.5845785  61.0689306
  72.5630999  49.5902538  62.2083330  64.3484402  62.4981356  81.0265446
  64.7883892  63.3093739  80.7724380  63.9007568  62.7145052  81.8444633
  74.4821167  31.0818577  24.1101933  73.8409138  31.7380500  23.8372397
  75.3299284  31.5065002  23.9793515   1.5570663  31.4245319  71.1683512
   2.4607256  31.3730192  71.4797640   1.0956915  30.7439256  71.6583920
  62.2967815  39.6755433  88.4681225  61.5068960  39.9966669  88.0331707
  62.5430584  38.8950419  87.9717445  53.1327868  53.5606384 102.7488804
  52.6109791  53.0131817 102.1621609  52.5732422  54.3150282 102.9333591
  38.5529184  23.9494085  93.2719707  38.7351108  23.6612725  92.3775387
  38.8229656  24.8675942  93.2875156  47.0003986   9.7416151 104.2571354
  46.9548464  10.4465044 103.6111641  47.9244852   9.7019005 104.5035458
  70.2850389  64.1688251 105.1916695  69.4437933  64.4732285 104.8512650
  70.9013033  64.8652935 104.9650002  85.5976105  62.0405817  74.4890356
  84.8809528  61.4612150  74.2302418  86.0324574  62.2657681  73.6665869
  65.3855896  35.7131433  59.6655226  64.5522547  35.3946352  59.3186283
  65.9918928  35.6504393  58.9274836  52.7769804  20.8379507  73.8513708
  52.2040892  21.3424730  74.4288445  52.5358629  19.9256825  74.0121794
  50.9120226  15.4977989  80.3026581  51.7702436  15.1596487  80.0470352
  50.5275393  14.7994518  80.8324814  73.5954046  55.1857185  76.0612488
  74.2337132  55.8758736  75.8810377  72.7460623  55.5976534  75.9026337
  89.0334988  50.5071735 103.9692307  89.0561104  50.8276558 104.8709011
  88.5393143  49.6888781 104.0182114  80.7044888  44.1097927  77.5642633
  79.8521757  43.7003326  77.7130413  81.3348293  43.4925222  77.9355812
  73.8310766  54.8478985  55.4232311  73.1456327  54.1946268  55.2831173
  73.3973694  55.5498314  55.9084368  15.3199482  72.4784184  72.9111099
  14.8456633  71.7733526  73.3517551  14.6710300  73.1741095  72.8055239
  50.6241941  29.3243098  94.5567989  50.8285618  30.0453639  93.9613628
  49.6951437  29.1475677  94.4089317  43.0878019  36.3465095  99.2139816
  43.5265732  35.8939528  98.4936237  42.2356844  36.5960717  98.8564205
  81.9462395  21.5554810  60.5724239  81.7741394  22.3447657  60.0589609
  81.4452457  21.6801357  61.3784599  26.4955473  14.7503448 104.5544815
  26.7877340  14.4700611 105.4218292  26.0921025  13.9701748 104.1739559
  57.8396988  82.8426170 102.9223919  57.9994869  82.0820522 103.4811783
  58.6698532  82.9841518 102.4673653  76.6172028  14.4890654  73.2780123
  77.2969913  13.8757026  72.9988956  76.4158535  14.9972582  72.4922466
  52.9246664  48.9545250  76.7095995  53.0831242  49.5671225  75.9913731
  52.9844999  48.0894852  76.3041925  74.9129677   7.4346131  97.5146198
  75.8431005   7.3577362  97.7271652  74.8947430   7.5818110  96.5689754
  87.4122047   3.3643058  91.0024452  87.9477215   3.0216867  90.2868652
  87.8336334   4.1893336  91.2432003  60.2092886  64.9200964  77.9998827
  59.2788363  64.8113346  78.1964874  60.6595993  64.5288277  78.7484598
  34.3262482  66.8930054  73.4320641  33.6676359  66.7272472  72.7575397
  34.4019914  67.8466845  73.4636354  27.6819372  75.2336550  77.9450035
  27.2878647  74.8884344  77.1439075  27.7483153  74.4753313  78.5253239
  81.1400890   4.3748641  96.8911362  81.1605549   3.9299631  97.7384186
  81.5853596   3.7736228  96.2940884  38.4935355  54.7818041  23.3088819
  38.7614226  55.1340914  22.4601404  39.3160057  54.5753717  23.7529126
  43.7006235  41.0014009  79.3248367  42.9365301  40.7436132  78.8091469
  44.1628838  41.6299152  78.7702894 109.3609428  37.3014712  63.6407757
 109.3599892  36.4465547  63.2102537 108.8784027  37.8716230  63.0421782
  36.8587875  97.4149799  92.8048420  36.1894703  97.8217888  92.2546101
  37.4872971  97.0461082  92.1842480  56.2318659  40.1485252  81.2696075
  57.1434927  40.3609943  81.4696789  55.7646942  40.3003645  82.0911503
  43.4509325  71.6230726  85.4208374  44.1923857  72.0222378  85.8759594
  43.7194443  70.7159090  85.2752876  65.1368380  65.4453135  78.4529924
  64.4621134  65.6045914  77.7929783  64.9667883  66.0984087  79.1317987
  73.3487988  32.3058367  77.0277357  73.1430292  32.2844458  77.9623127
  73.2333183  31.4014244  76.7363024  27.7523685  39.5684266  70.4395437
  28.0496430  39.5029449  71.3470507  26.9343543  39.0717721  70.4190397
  85.8910370   1.1554517  12.7455044  86.2504864   1.9641834  13.1101692
  85.5218983   0.6959585  13.4997153  64.2684984  53.0428410 105.5066967
  64.3052673  53.7004375 106.2012863  64.6443653  52.2560740 105.9016037
  62.1423054  77.2686195  96.0324860  61.4576817  76.6277981  95.8404541
  62.4075508  77.0736647  96.9312954  25.6716800  26.5675449  95.0862217
  24.7829199  26.8434286  94.8620987  26.2083364  26.8703175  94.3537235
  81.5513992  29.9010921  47.2688150  82.3294067  30.3542280  47.5937986
  81.1307430  30.5344367  46.6873026  72.9267788  79.2639589  84.2591381
  72.4978161  78.9256954  85.0451469  73.0482674  80.1969337  84.4352818
  60.5881262  56.3975620  67.9121351  61.5117979  56.1506796  67.9580975
  60.5093193  56.8779087  67.0879459  78.1450462  54.5340967  76.3355970
  78.3727646  54.6380234  77.2594881  78.1277275  55.4270506  75.9912729
  79.9339533  29.3536711  70.5704546  80.6021023  29.7159290  69.9885845
  79.2039967  29.9698925  70.5099106  65.1889896  50.4781151  70.0248003
  64.3831015  50.0749016  70.3475952  65.6663942  50.7262945  70.8164549
  74.1726780  64.4850969  85.9997749  74.0981102  64.2198706  86.9164753
  74.6653414  65.3053188  86.0270786  80.4158688  33.8849783  52.9968834
  80.2681732  34.6999574  53.4767056  79.8444939  33.9506078  52.2317314
  76.9794703   2.4620199  92.3312855  76.6074276   1.5884176  92.4522591
  76.2412691   2.9989350  92.0431709  77.2511768  41.2951088  70.2048445
  77.4287033  42.2226191  70.0485134  76.4432240  41.2890816  70.7180738
  79.2372227  45.2683687  49.0279865  78.5613728  45.2112007  48.3525658
  80.0086880  44.8654556  48.6295652  74.2268419  59.3629646  69.3504381
  74.7988081  58.7261486  68.9220095  74.7348785  60.1741838  69.3580103
  60.8523417  33.7694502  57.0705128  60.1944876  33.6408401  57.7538252
  60.9808207  32.8985071  56.6947651 104.0526199  17.9238725  84.6416855
 103.4652042  17.4258053  85.2101040 104.8446846  17.3890698  84.5882893
 105.8343124  50.2351379 104.4726181 105.8634758  49.5313740 103.8244724
 105.0261593  50.0777817 104.9608326  80.0954437  30.5252242  76.3048172
  80.2624226  30.4033589  75.3702068  79.3317699  29.9770427  76.4851570
  70.0657558  21.3938093  30.1548481  70.2897215  21.9107914  30.9286690
  70.2478218  20.4894137  30.4101014  75.4623461  22.8149438   0.7009069
  74.6554804  23.1343293   1.1048738  76.1108160  23.4922814   0.8930913
 111.7655087  30.3214383  42.8208685 111.1257172  29.9419570  43.4232712
 112.1803284  31.0230184  43.3228111  32.7227449  70.9478426  69.3111706
  32.5311708  70.1209354  68.8687325  32.0626426  71.5559959  68.9785385
  50.6265688  25.3517818  40.1039505  50.1334333  25.1581168  39.3067408
  50.8555841  24.4926929  40.4585648  80.6532478  21.6538572  82.4380112
  80.2661705  22.4748135  82.1339893  81.4136028  21.9238162  82.9530048
  67.1400785  34.2659426  48.9634228  67.4948263  33.4639668  48.5797262
  67.8057861  34.9307156  48.7869453  61.4728260  39.0098858  93.8816929
  61.7576838  38.2440400  93.3831310  62.1387148  39.1144848  94.5613194
  68.9249372  21.8514252  61.1755323  68.5790586  22.2050905  61.9949961
  68.7862682  22.5498295  60.5358171  74.0755653  53.0185986  72.7523756
  74.7975302  53.4855890  73.1729984  74.0052366  52.1976328  73.2395077
  88.3610535  28.5551953  69.2672491  89.3014526  28.6294985  69.4296408
  88.2402802  28.9170003  68.3893299  42.1100378  37.7443194  92.3977757
  42.2469997  38.3227038  91.6474819  42.9877663  37.4409509  92.6296997
  50.4011965   8.7374288  88.9367104  49.9608183   7.8885019  88.9769745
  51.2780857   8.5370773  88.6093521  64.4694471  54.1670227  65.2774143
  63.6147308  54.5447874  65.0700760  64.2728138  53.4383774  65.8661747
  69.0418339  31.3708472  61.2022114  69.4788837  32.1442533  61.5586662
  69.7514248  30.8405733  60.8395481  61.8501854  44.0882540  68.3466768
  62.1551609  43.2055998  68.5567713  62.0034504  44.1770506  67.4060059
  89.3403816  36.6785049  72.1542454  89.6925545  37.0617628  71.3509274
  89.9707413  35.9983563  72.3914862  73.0314493  55.6371546 107.5453949
  73.6173868  56.3780165 107.7004242  72.2469997  56.0285330 107.1610832
  57.2541142  26.1661315  79.3715143  56.3340664  26.2324762  79.1159010
  57.5611830  25.3612518  78.9542532  85.5934715  56.9668913  71.4111614
  85.4710960  56.1829519  71.9466019  85.0223446  57.6222134  71.8119097
  36.8344975  47.0534134  46.8089247  37.4352956  47.6436710  46.3540983
  36.4194322  47.6009941  47.4753428  67.8875589  40.9534454  26.5460896
  68.7187338  40.6451368  26.1850929  68.0100060  41.8961668  26.6579652
  66.5901041  44.3354511  72.8605986  66.1099005  44.9929237  72.3572397
  66.2728882  44.4416761  73.7574387  81.6796589  25.5990243  69.4922304
  80.7807922  25.3669214  69.7254515  81.5873623  26.3288498  68.8798046
  63.9205694  53.9096832  89.6228504  64.7944784  53.6364698  89.9018955
  63.8149977  53.5232210  88.7535191  72.5875044  35.4955816  60.7131624
  73.4083128  35.9344602  60.4897881  72.7112484  34.5927215  60.4203081
  67.7609730  22.2358775  40.8348799  68.6445618  22.6036096  40.8513546
  67.6189518  21.9138002  41.7250109  72.7308607  37.3564410  67.6573706
  72.9348278  37.5873852  66.7511177  73.5834980  37.3064470  68.0895090
  64.3842888   9.0897137  71.0375404  63.9810276   8.2688558  70.7550430
  65.1131105   8.8188308  71.5958166  72.6059675  39.6901631  93.7337112
  71.7503166  39.2636228  93.7802219  72.4750137  40.4249907  93.1344509
  47.3716974  76.3575029  46.6272879  47.8068161  75.5091095  46.5428114
  47.3996162  76.7298126  45.7459068  64.3305111  68.5961676  86.4649963
  65.2870750  68.5979700  86.4997673  64.0801620  67.7364159  86.8031979
 100.9574604  54.3939877  70.7539511 100.6674576  54.0201235  71.5860319
 100.1499271  54.6729326  70.3223133  37.7551222  37.1227407  34.8309636
  37.5545740  37.6883554  35.5766773  38.4354448  36.5321755  35.1544237
  59.1457987  28.3818126  57.3439169  58.2802296  28.7236500  57.1199274
  59.1424799  28.3289933  58.2996559  48.4404945  34.9235988  71.4061975
  48.2385302  34.1025162  71.8548250  49.3885517  35.0192833  71.4970970
  76.4552355 143.4539721  77.8303194  76.5891361 143.1617684  76.9286966
  75.5051184 143.4455831  77.9462147  71.4882183   7.5009269 102.0392227
  71.0456467   7.5494385 101.1918640  72.2445869   6.9356483 101.8823719
  50.6257629  10.8049631  46.3340521  50.3621912   9.8847961  46.3414288
  51.1029577  10.9108293  45.5110645  66.6513062  41.9868040  40.6591272
  65.8319187  41.5596914  40.9089613  66.9248343  42.4588680  41.4456177
  67.1492624  52.6817369  58.4318924  67.1914768  52.4265432  59.3534803
  67.3741531  53.6121416  58.4304571  95.3642845  72.4924994  85.4449940
  95.2683830  72.5309420  84.4933891  94.5912552  72.9452658  85.7821178
  76.5734577  15.8198738  79.9832344  75.8605528  15.6785405  79.3603134
  77.1045113  16.5105653  79.5868015  63.7058735   8.6729610  96.6685200
  63.0942869   9.3310010  96.9989395  63.2438087   7.8415006  96.7752934
 104.3969727  23.9668179  26.7517233 104.3116665  23.5152459  27.5913906
 103.8706112  24.7600126  26.8517900  44.2413473  78.5785866  60.7444859
  44.7495842  78.7039518  61.5458679  44.8846102  78.6500549  60.0392628
  55.9984875  86.3533115  63.0890560  55.1286364  86.7119694  63.2649803
  55.9266520  85.9682846  62.2156572  73.2009888  28.4210443  64.8371267
  72.3216295  28.0791473  64.6756887  73.6149454  28.4343743  63.9741755
  57.4525261  54.9850130  25.8748889  58.1410551  54.3902159  26.1721635
  57.7559805  55.8536291  26.1387968  58.5159206  34.6288753  99.3433189
  59.4147968  34.3091321  99.2657185  58.4288454  35.2718735  98.6396122
  52.3721838  47.8427982  91.7470741  51.5380001  47.5832891  91.3558960
  52.4554110  48.7732601  91.5384007  64.9848557  51.6649675  75.1175737
  65.7999325  52.0525837  75.4363775  64.2956829  52.1451473  75.5766010
  90.8158016  41.8137741  92.5912666  90.2904701  42.5544977  92.2886372
  90.8143139  41.8929386  93.5451889  56.2462997  37.4274373  85.8620930
  56.4263010  37.1530247  86.7612743  55.2949095  37.3637891  85.7781601
  76.8423033  31.3011432  84.4771099  76.4546347  31.1646771  85.3415871
  77.0725298  30.4220605  84.1763783  55.3710938  26.3300753   1.1740056
  55.3310585  25.5523658   0.6174222  55.9920216  26.9091868   0.7320730
  77.4886990  59.9076128  59.2350340  76.8253708  59.8284340  59.9205685
  77.3544550  60.7829857  58.8718081  62.6531649  54.6972609  62.9478550
  63.0367994  54.1248941  62.2834349  62.3448229  55.4596806  62.4580812
  63.0078936  24.1858482  71.6996145  62.0828009  24.4217491  71.7687941
  63.2415915  23.8740730  72.5739241  32.6620531  70.4930830  97.6116657
  32.3122764  71.3837814  97.5883865  33.2098651  70.4303646  96.8292332
  57.7363396  37.6155090  76.8745279  57.5478172  36.9670749  76.1961269
  58.3434963  37.1724558  77.4672270  97.9444408  48.3204937  48.8632488
  97.3122311  48.9803219  48.5783339  98.2254219  47.8929377  48.0542517
  79.9880075  41.5848875  60.2584457  79.9574041  42.1334410  61.0422707
  79.4302559  40.8358431  60.4683924  35.7185912  44.8922729  55.5516481
  36.5512967  44.5440578  55.2329254  35.9311366  45.2832413  56.3991117
  78.8831806  44.8415709  13.6871815  78.2658148  45.3360653  13.1481409
  79.4363689  44.3808937  13.0563176  50.9007406  60.0367260  48.0466890
  51.6541195  59.6037769  48.4481907  50.1424217  59.6629667  48.4955645
  46.7944145  45.1195240  34.3082547  45.9650326  44.7056866  34.5472097
  47.2983170  45.1334715  35.1219606  37.0275998  21.3440752  58.9692211
  36.5375948  22.1642733  59.0275526  36.3663030  20.6614113  59.0827417
  73.0383015  34.0267634  56.4238071  73.7085629  33.5786653  55.9078693
  72.4683762  33.3246422  56.7375708  60.1111507  64.3746424  50.1570415
  61.0661221  64.4028759  50.0981808  59.9322176  64.2496538  51.0890245
  96.7969704  43.4277773  54.9894714  96.3675213  43.0348682  54.2295837
  97.3611164  44.1075563  54.6208572  75.5733824  34.0709734  58.0428171
  74.7796679  34.0519381  57.5081348  76.2750912  34.2697215  57.4228668
  63.1703854  59.0580750  36.7256188  63.8755417  58.4147120  36.7968607
  62.3845720  58.5354233  36.5657258  73.1335354  47.1675873  52.6714039
  72.3786354  46.6623974  52.3694992  73.7975359  47.0333099  51.9951630
  49.4860029  24.8868394  37.3380041  49.9657297  24.0592122  37.3044538
  49.1335392  24.9953532  36.4547014  58.7358236  41.4191961  50.3592777
  59.3257618  41.4260006  49.6055126  59.1650629  40.8457327  50.9942007
  51.8579578  48.2287931  49.0674448  52.3049736  48.8835812  48.5310984
  51.9315195  48.5612249  49.9620485  59.6922922  32.0285225  59.5805168
  59.6947622  32.7183533  60.2441120  60.3221416  31.3838410  59.9028635
  58.3922195  73.3108664  38.6449075  59.1818380  73.2494402  39.1824579
  57.6895761  73.4868336  39.2706537  63.8747835  62.8437710  46.5286446
  63.7753630  63.2684469  45.6765890  64.7928190  62.5741816  46.5562248
  60.6482363  21.7501354  69.2498112  60.7407570  21.3174152  70.0985909
  60.1987600  21.1074376  68.7010431  73.7146187  43.6565542  53.1218386
  74.0270996  44.0787745  53.9220333  73.0048656  44.2206764  52.8148365
  70.1956511  31.1528826  69.3766356  69.2711210  30.9676337  69.2118311
  70.6013441  30.2900887  69.4616747  49.2870808  67.8812885  42.8956604
  49.1931152  67.0452023  42.4391937  50.1957560  68.1385660  42.7396154
  38.6189628  62.1521521  28.1626105  39.5495081  61.9801664  28.3066177
  38.6008286  62.9675198  27.6615310  76.4040947  38.8695598   8.3337528
  76.4490604  39.2624688   9.2054367  75.7036400  39.3486261   7.8909373
  66.8069601  51.7926455  55.8186388  66.8573713  52.1857834  56.6899204
  66.6230965  52.5281382  55.2342796  91.8784618  42.9600859  65.2899694
  92.5507832  42.6139259  65.8768177  92.3423862  43.5917282  64.7403908
  48.5398722  41.6595078  39.4066381  49.0116882  42.3371744  38.9225006
  48.8017750  40.8396244  38.9877915  61.7623758  29.6708441  30.3001738
  61.0311842  29.8526812  29.7098136  62.3813677  30.3834844  30.1413584
  33.5863328 135.5208583  61.9610357  33.6457801 135.9250874  62.8266573
  34.4040561 135.0320215  61.8683052  57.9247284  39.0257406  32.2549748
  57.6585531  38.5474610  33.0402350  57.4365520  38.6099648  31.5443110
  47.6109600  28.7983394  57.6921034  46.7217493  28.6942840  58.0307913
  48.0442762  27.9701424  57.8983974  75.9006119  44.4390631  58.1870747
  76.6490793  43.8535738  58.0720282  75.3061676  43.9576530  58.7624979
  34.2210078  44.0075493  67.4816751  33.5123181  44.2312717  68.0849457
  33.8215542  43.4023905  66.8568134  48.4708786  19.3815708  40.0591040
  48.5997009  19.9840224  39.3265152  48.5470533  18.5106802  39.6692634
  58.5401011  33.8929296  42.8779030  59.2360497  33.5521913  42.3159552
  58.7832737  33.6091280  43.7591267  54.6453333  47.1890402  48.0782223
  54.3421888  48.0780315  47.8937531  54.0564346  46.6260672  47.5757360
  57.0839024  21.0219765  26.4843035  56.6228485  20.7706523  27.2846150
  56.8038464  20.3776717  25.8341694  77.1924210  19.0010154  22.8691483
  77.5546694  18.1715453  22.5577235  76.2566853  18.9409947  22.6767302
  34.9642611  36.2321067  31.5705228  34.9175739  36.6829610  30.7274413
  35.8980656  36.2117767  31.7798686  51.0984612  51.0875416  39.6681070
  52.0128298  50.8181381  39.7551680  50.9217978  51.0353851  38.7287974
  35.4709530  55.2995539  44.5554638  35.6652236  54.3863535  44.3443775
  35.6189704  55.3640079  45.4989481  82.5127792  35.3455210  77.5522232
  81.6743851  35.2210903  77.1074295  82.3733997  34.9898529  78.4298897
  57.2159719  30.1950002  59.9318314  56.6347980  30.6097198  60.5693865
  57.8398323  30.8811212  59.6946144  69.8709583   7.7549678  11.4370108
  70.1163292   7.1384233  12.1268630  70.5120325   7.6046163  10.7422805
  54.1322041  30.6364083  73.3989763  53.2335520  30.3878975  73.1824064
  54.0392923  31.2951517  74.0872002  40.7457256  37.7464819  32.3947072
  40.5810928  38.4502745  33.0222440  39.8887086  37.5636649  32.0095658
  74.7231960  44.5620489  71.4029026  74.5918179  45.4415369  71.7571259
  73.9550304  44.4081259  70.8529377  38.4269452  51.0004473  43.2052183
  37.9889774  50.3568411  43.7621689  38.6924744  50.5053329  42.4302387
  54.2222452  33.0208850  45.0151014  54.6577120  33.6311436  45.6102324
  54.9359989  32.5161934  44.6251345  69.7911453  33.0116510  50.2306795
  69.2036247  32.4769855  50.7647085  69.3130875  33.1489038  49.4128466
  50.6528473  38.1031680  33.9668322  51.5613794  37.8042436  34.0048647
  50.1567411  37.3285961  33.7019730  66.1144161  45.5408049  97.6282406
  65.9926891  46.4722586  97.4443722  66.4575481  45.1782846  96.8114948
  52.6031637  34.2798996  57.7318811  52.6444864  33.3477855  57.9456282
  51.9188213  34.6267676  58.3042383  50.6589937  37.1832347  50.2585030
  50.0613880  37.2561288  49.5143366  51.3541746  36.6013479  49.9513197
  77.6296616  47.3743582  57.3307037  77.7187157  47.3890734  58.2836390
  78.2786608  48.0054808  57.0197201  60.6020164  61.3000298  35.4154778
  61.2382126  61.6078806  34.7699428  60.0791359  62.0740795  35.6244516
  71.6031742   3.7836176  14.8169434  72.4842691   3.9853933  14.5020032
  71.1431122   4.6227312  14.7954011  68.4110880  48.8051510  31.5502501
  68.4602356  48.3540392  30.7074499  68.4519100  48.1035995  32.2001624
  85.9870720  48.2181358  19.9895251  86.8417358  48.6268568  19.8526621
  85.8935738  47.6078033  19.2580998  46.7698336   7.3049217  31.4750671
  46.0871601   6.6464460  31.6038918  46.9046879   7.6832664  32.3439169
  62.2097635  12.0452607  67.7769661  62.9209280  11.7543733  67.2061205
  62.4578428  11.7325687  68.6469746  64.3635988  30.3152847  72.1487236
  64.2570591  31.1940479  71.7845058  65.0099134  30.4220247  72.8466606
  35.1230454  19.1106105  55.2981091  35.7541180  19.4901896  55.9095812
  35.6339693  18.9272189  54.5097160  77.6701689  32.4700832  53.3798456
  77.2217703  32.2120333  52.5745010  78.3895779  33.0284548  53.0850506
  43.4840965  22.7776575  41.4453793  42.6871872  22.5282431  40.9774494
  43.5538483  22.1404099  42.1562099  53.9608145  49.9847698  42.8108215
  53.2216501  50.3622723  42.3340034  54.5867682  49.7415543  42.1287203
  55.6289816  43.1654024  43.6581278  56.4969301  43.4990692  43.4310532
  55.7437420  42.2166491  43.7122774  59.5058250  50.9761047  16.6514838
  58.9467382  50.8359766  15.8872759  59.0022421  50.6225634  17.3847270
  73.0867100  33.3648586  18.0653143  73.7104511  32.7511621  17.6772964
  72.3762131  32.8113627  18.3894563  59.7180223  38.5301900  54.4326925
  60.2885675  39.2290902  54.7524548  59.0936756  38.9743376  53.8589716
  36.0568714  30.5609322  68.5080528  35.9747100  29.6135521  68.6173773
  35.4314995  30.9291840  69.1321802  75.2809095  13.6224687  22.6800275
  75.0768995  13.1700361  21.8615437  75.2372503  14.5523059  22.4570298
  53.7789965  59.8032188  19.4156575  53.1192875  59.6116495  20.0822258
  54.1988468  58.9601231  19.2449379  67.1690559  34.6053910  29.1537571
  67.5321865  34.2018366  28.3653951  67.9356384  34.8596311  29.6675158
  72.1116590  38.8416862  26.0784960  72.6733541  38.8579273  25.3035998
  71.5188408  39.5838499  25.9601974  63.4521055  27.5055933  48.6020088
  63.1045961  28.0886221  49.2769527  62.7562904  27.4564600  47.9465246
  47.1202421  32.0127273  59.3856192  47.5846767  32.3235512  58.6084986
  47.4769831  31.1387753  59.5442820  92.0718479  22.4978781  38.1114173
  91.1967182  22.2915936  38.4397912  92.2010803  21.8952131  37.3790741
  56.6571283  33.6282778  67.5479460  56.0104084  34.0509343  66.9828320
  57.4886131  33.7429237  67.0878172  74.1830206  37.9388428  53.4775448
  74.9374819  37.7947712  54.0487385  73.9617062  38.8618469  53.6013031
  22.4105978  27.2843480  34.1422868  22.7243757  27.8059554  33.4035707
  21.6322064  27.7487755  34.4499373  57.3073816  64.5117664  28.4597206
  56.5280104  64.5512104  27.9054165  57.5599766  65.4267311  28.5832787
  93.3145809  59.1788626  59.8689747  92.6713181  58.5416555  59.5584726
  93.9015770  58.6724806  60.4304409  85.3098011  24.4960856  42.9991007
  85.5833912  24.8058605  43.8624763  85.8424854  25.0001049  42.3839188
  39.4023800  35.2309442  30.7657504  39.3698215  35.5509758  29.8642230
  38.9402461  35.8979130  31.2735081  58.9520741  60.8973646  46.0171890
  59.9041796  60.9677029  45.9480858  58.7326527  60.1134014  45.5137157
  50.3400326  37.2520471  55.6018877  50.7342482  37.7473426  54.8838997
  49.3968916  37.3431301  55.4661942  51.0205460   8.1009811  83.1808472
  51.8747091   7.7177989  82.9813385  50.9388876   8.8345802  82.5714302
  43.8930988  29.8265982  52.1615505  43.7670708  29.9951696  51.2277746
  44.5923424  29.1737676  52.1948433  58.9291811  51.3754797   8.8305432
  59.0544558  51.9330406   8.0626494  59.3956375  50.5670452   8.6181998
  78.0980444  53.6915064  59.4883108  77.8728247  53.5300016  60.4045105
  77.5812626  54.4600773  59.2465210  93.1918907  55.9786797  43.1578493
  92.9900551  55.8701134  42.2284889  93.9593124  55.4251766  43.3025265
  57.2259045  17.1341741  68.0210447  56.9850683  16.3600302  67.5121880
  56.8450785  17.8669369  67.5370359  42.4452305  69.9424362  42.7672863
  42.1142435  70.8405685  42.7735233  41.7843246  69.4469643  42.2836065
  52.6177502 144.0958814  81.8336201  52.5258064 143.5897351  82.6408291
  53.3425045 143.6769278  81.3694572  43.1045151  61.5489244  52.3346043
  43.9271736  62.0264292  52.2275543  42.8136492  61.3694763  51.4404964
 103.6258602  46.9485664   3.0160353 103.7605095  46.0083485   3.1347689
 103.1919861  47.0229292   2.1660581  86.4131165  45.5794430  45.1687813
  86.0068893  45.0389290  45.8463192  85.9226799  45.3743553  44.3727589
  47.0537519  24.7053599  26.6679239  46.8000555  23.7846947  26.6027784
  47.9712582  24.7208190  26.3955688  62.2833204  60.1629829  17.7522433
  62.8269005  59.3819475  17.6486361  61.7730474  60.2086401  16.9436836
  57.1253824  47.2874880  37.2659254  57.8103495  46.6887569  36.9683242
  56.7377567  46.8501377  38.0240178  79.2144918  47.9044151  63.4018421
  78.3848524  48.0754662  63.8475657  79.0633869  48.1839848  62.4989367
  79.0694046  24.3027353 109.0410627  78.3468294  24.3237638 108.4136256
  79.7048330  23.7002277 108.6544828  46.3202810  30.6273317  55.8830309
  45.9028912  29.7911882  55.6759501  47.1247959  30.3861976  56.3422060
  57.7394152  21.8647003  56.8751144  58.0147743  22.7764130  56.7792702
  58.5577917  21.3740039  56.9506359  74.2330456  17.6728463   8.8087732
  73.4948063  18.2814956   8.8368005  74.9575281  18.1566477   9.2053711
  49.8992968  42.3064566  56.4458895  49.0039968  42.4459219  56.1373138
  49.8271465  41.5868473  57.0729399  59.3060064  56.4271545  29.6177125
  60.2567005  56.3295412  29.6713853  59.1753912  57.2072744  29.0786505
  15.7426429  65.3683710  25.1782346  15.4461908  65.2538586  26.0811377
  15.3010547  64.6727180  24.6911025  76.2180185  22.6601601  56.1585522
  77.0312786  22.5078726  56.6398525  76.5021133  22.8742218  55.2699041
  92.1485806  59.8334265  33.4505248  92.6696682  60.2368832  34.1447306
  91.5195084  60.5097675  33.1993985  88.6592388  23.6627412  31.4360023
  88.2166386  22.8328204  31.2583137  89.5156384  23.4086418  31.7798758
  60.8061075  39.5321512  67.6501226  60.3520489  40.1334810  67.0598125
  60.6198645  38.6626005  67.2959661  58.7786913  40.4143858  43.4790516
  58.5105801  40.7591200  42.6272869  57.9572439  40.2739096  43.9499283
  54.4932222  36.2781668  43.3158207  54.3622112  36.8736219  42.5779200
  53.7764788  36.4805794  43.9171076  65.4932833  79.1335726  67.6340532
  65.1537657  79.8549795  67.1044016  65.5522490  79.4933319  68.5191154
  67.3705673  55.3907681  80.3072071  66.8381023  55.3380823  79.5135212
  68.1550026  55.8687449  80.0380707  60.0188875  58.9857626  19.5573711
  60.3460121  58.8318348  18.6710715  60.2957392  58.2145548  20.0521660
  62.9378700  44.7339106  89.0558815  62.4000168  44.1049814  89.5369148
  62.3648691  45.0564337  88.3602715  55.8559132   5.6680030  39.6263790
  55.2250385   6.0138178  40.2577591  56.2461901   4.9130207  40.0667429
  78.7189817  38.2313323  73.2976723  78.0293465  38.5569024  72.7191925
  79.3194008  38.9705229  73.3942175  51.1336946  42.6359129  51.7515659
  51.0613680  42.5887632  52.7048635  52.0365477  42.9116249  51.5932131
  56.1604500  28.2512951  15.4872799  55.6465292  28.9130950  15.0245309
  56.0030127  28.4307694  16.4142299  98.5832882  53.7085342  69.1478825
  98.2979965  52.9346371  69.6336079  98.9603138  53.3590221  68.3404636
  48.4651947  25.0574088  63.4822083  47.9439926  24.4407439  62.9681063
  48.2757044  24.8303795  64.3925858  38.3452725  55.4127645  56.7412949
  38.5563040  56.2873793  56.4145708  39.0952659  55.1729965  57.2855854
  45.7626438  83.1443787  13.9319205  45.3352547  84.0006828  13.9498866
  46.4384937  83.1997967  14.6074879  45.5567026  11.3879871  45.1704693
  45.7495546  10.5826402  44.6904135  46.3643408  11.5826535  45.6459236
  73.4755754  40.8347893  59.6552277  74.0100956  40.1564789  60.0680447
  72.7328014  40.3602791  59.2819262  19.3759716  28.3001232  37.0438313
  20.0364685  28.8545251  37.4593019  19.6552670  28.2384062  36.1303663
  71.2328386  53.6682606  49.5583153  70.4230690  54.1733122  49.6319962
  71.3358068  53.5164738  48.6188507  40.8210182  22.7075934  39.8670411
  39.9290395  22.4585724  40.1091051  40.8583307  23.6505175  40.0274563
  64.9742365  36.6852880  50.2485895  65.9227896  36.6031408  50.3472614
  64.8576927  37.4447823  49.6777821  50.4301929  44.1517925  32.6267934
  50.2094984  44.8779964  32.0435715  49.6356153  43.6189127  32.6570415
  75.4164600  32.8467488  35.7253194  75.6652069  31.9247675  35.7909489
  75.0730896  32.9395127  34.8366547  91.8569279  76.7027378  22.8523612
  91.1058235  76.2797308  22.4362588  92.5549412  76.6472769  22.1997261
  63.9113379  35.5628586  20.8754349  64.8439407  35.6060839  21.0866737
  63.4716702  35.5924320  21.7251682  47.1272230   2.4886963  79.1910791
  47.8189325   3.1307551  79.0313005  47.5619411   1.6407356  79.1004562
  42.0890331  77.0386267   5.8860064  42.6054049  77.8429174   5.9380871
  42.6945686  76.3877964   5.5310708  59.1778851  33.9619589  61.3590384
  58.2473564  34.1756272  61.4275742  59.5882511  34.7726703  61.0580778
  68.7668991  25.4826069  39.8538947  67.8457308  25.2306962  39.7889304
  69.0661287  25.5326176  38.9460444 110.0844288  33.2053947  42.4642277
 109.8421001  32.7265525  41.6716242 109.8122025  34.1067886  42.2921419
  81.1788464  38.8148808  39.8599458  81.9354057  38.2435942  39.7277427
  80.7911873  38.9042878  38.9893341  57.6975441  39.5023537  19.2574859
  57.7173185  38.5802722  19.0013409  57.7484465  39.4865894  20.2132010
  41.5455341  41.4696407  55.4080772  42.0102262  41.8745995  54.6757460
  41.1874294  40.6592512  55.0457811  76.5507078  29.7535872  38.2332230
  76.8795729  30.5350065  38.6775923  75.7739115  29.5028162  38.7331581
  64.8368692  38.9273214  48.2180357  64.5551968  38.8315654  47.3082447
  65.1219320  39.8385668  48.2858658  62.4537516  63.6827230  44.2632723
  61.9652653  63.0573416  43.7280083  63.1079817  64.0480661  43.6676741
  79.4842529  25.7780743  94.2721748  80.3288174  26.1308718  93.9920425
  79.1382313  26.4356756  94.8755550  86.6377735  48.3269167  70.2861595
  87.2108173  48.5392714  71.0228825  86.3910580  47.4133396  70.4302025
  32.5261593  26.7057419  54.9630308  31.8295169  26.0612345  54.8384047
  32.1992254  27.2811055  55.6546259  40.0620651  75.6040001  28.9773750
  40.6060743  75.3147888  29.7099328  39.7278333  76.4585209  29.2499852
  84.1471100  61.5182590  39.8310876  84.5566177  62.3193359  39.5042753
  84.8300362  60.8518934  39.7549438  75.5342340  48.9810848  51.9855118
  74.8568153  49.0802050  52.6544762  75.3083563  48.1675148  51.5346098
  11.2394547  29.0001416  24.8804164  10.6059754  29.2015958  24.1916847
  12.0910978  29.0606236  24.4476604  55.9580278  14.5564961  56.5793657
  56.5423775  13.8104296  56.4446497  55.0786209  14.1948760  56.4693117
  49.9756384  43.2295465  82.7971458  49.1866016  43.4919357  82.3230076
  50.6942511  43.4380960  82.2002029  56.5140390  49.4319916  45.2809668
  55.5824661  49.5284939  45.4786825  56.9278622  49.3026495  46.1343431
  73.7339163  13.0355453  73.0639648  73.4673214  13.4311604  72.2341156
  74.6894550  13.0918086  73.0600834  77.7948189  31.0939646  24.9148846
  77.1573067  31.7644382  25.1603913  77.9949331  30.6421280  25.7346582
  89.8739815   5.3484857  38.2085729  90.3852844   4.8827329  37.5468540
  89.5661163   6.1371887  37.7620268  70.7701540  50.4347134  72.3229933
  70.7951069  49.7431564  72.9843235  70.4272223  51.1981249  72.7875710
  52.1217442  30.1274514  43.1427622  51.2228155  30.3296018  42.8833532
  52.1223354  29.1811991  43.2871151  46.4281416  42.8034210  26.3279939
  46.6308451  42.1201229  26.9669366  47.2179222  42.8715515  25.7914877
  71.2461329  45.1027679  49.3476391  72.1050262  44.6803522  49.3379116
  71.0737181  45.3160620  48.4305716   1.8254963  36.4776921  34.8507476
   2.3735861  37.2615457  34.8881721   1.0375972  36.7127323  35.3408527
  48.3492374  29.0019822  51.8875122  49.2445898  29.1105795  51.5669298
  48.0680513  29.8876143  52.1173382  53.9354229  68.0588818  39.1126847
  53.4218979  68.3829355  38.3727455  54.7364473  68.5826302  39.0959787
  50.4124880  33.8850069  31.8293619  50.2606535  33.9683795  30.8879638
  50.1838970  34.7434592  32.1857882  58.6763525  25.7996225  22.8373027
  57.9636192  25.3378773  22.3956776  58.2366800  26.3852167  23.4537411
  78.7221241  63.3714914  36.2845135  78.1791544  64.1363096  36.4754820
  78.3415651  63.0003214  35.4884982  53.9241028  40.9094667  34.9943662
  53.1439638  40.6729460  34.4926929  53.6216545  40.9522390  35.9015203
  88.6420727   6.2643915  34.3061161  88.5693741   5.7554412  33.4987044
  87.7462292   6.5441424  34.4943786  28.7421584  27.5288701  32.5264478
  28.4675097  27.3041058  31.6374707  29.6829772  27.6892376  32.4531293
  35.8076000  58.5121107  18.5359812  36.5175200  58.7035751  19.1488349
  35.1157284  59.1307783  18.7700725  71.0635900  25.3831673  29.3925905
  70.9006071  25.6152868  28.4783769  70.3496361  25.7987046  29.8761511
  81.5484715  53.5702515  47.4475145  81.3565826  54.1916275  48.1498671
  81.5697098  52.7173376  47.8814745  71.0434580  24.2182636  26.1130047
  70.5236673  24.7357488  25.4979777  71.7310047  23.8261247  25.5747366
  83.3409500  33.4287357  12.8818500  83.4745693  33.7308431  11.9834578
  84.0777302  32.8409767  13.0489767  86.5639114  56.8075752  21.0759330
  87.0231152  56.2052917  21.6612744  86.6505051  56.4115238  20.2088237
  91.9716549  28.8451147  52.3352623  92.8425598  29.1124344  52.0415020
  91.9189930  29.1532564  53.2399797 102.8629017  61.2728214  41.6119576
 102.5930786  62.1656275  41.3967276 102.6879787  61.1891365  42.5493097
  28.9914727  14.5456266  52.4250269  28.0646110  14.3215060  52.5082684
  29.1398525  15.2062380  53.1016397  35.3708315  34.3959928  43.6906624
  36.0425568  33.8701200  43.2565260  35.7152247  35.2888536  43.6700869
  42.6357937  18.4692919  30.7814908  41.8764114  18.9231551  30.4160023
  43.3016396  18.5263658  30.0962019  53.5139894  35.8343625  37.1225953
  53.6879683  35.6402063  38.0436087  53.0263472  35.0741577  36.8055344
  59.3375158  29.9845076  88.0101904  59.8393011  29.1820908  87.8667720
  59.9781656  30.6886744  87.9104503  41.7218351  54.0088606  -0.2231285
  41.9650745  54.9297333  -0.1279899  42.2704315  53.5493183   0.4125565
  54.5660782  61.5591812  33.8780904  55.0754452  61.2783432  33.1178904
  53.9723444  60.8287191  34.0516949  72.0670843  47.5159311  31.3469267
  72.9114580  47.9468346  31.4795423  71.7124367  47.9222155  30.5561113
  64.3289614  56.2498617  11.9068873  64.9381876  56.8183661  12.3779309
  64.8838043  55.5726433  11.5199089  21.1009288  41.9347286  38.9629030
  20.2512956  41.5715170  39.2127609  21.0583544  42.0097351  38.0095959
  40.1985741  54.8186684  38.8943768  39.5572066  54.9336958  38.1932020
  40.4219675  55.7097721  39.1631937  91.3669777  51.6227055  19.7941768
  92.1641159  51.9621229  19.3872416  90.7050323  51.6752958  19.1047561
  68.1339169  39.6729898  22.3378873  68.6668587  39.0991783  22.8882933
  68.7701321  40.2052927  21.8602705  69.7737694  66.3018608  27.2862148
  69.1294670  66.5167189  26.6117191  69.9569035  67.1367311  27.7171183
  57.6948500  57.8163862  18.4207976  57.9839611  58.6754084  18.1130302
  58.4348917  57.4819660  18.9274859  76.1861324  22.6405787  25.8975673
  75.9939766  23.5760379  25.8325672  76.5695953  22.4153733  25.0499415
  55.2964401  49.0248013  14.5105863  55.0347233  49.9020910  14.2311168
  54.5459795  48.6975861  15.0065386  50.8927250  40.4461908  23.0458570
  50.9377432  40.5755711  22.0985103  51.7383623  40.0609159  23.2754230
  57.9988432  54.5421171  23.0772114  57.7486086  54.9185753  23.9209485
  57.1893692  54.5400143  22.5663543  82.0356178  84.0299416  18.3484864
  81.4344025  84.6135998  17.8857577  82.5562286  83.6239433  17.6554108
  66.3296509  74.6114445 107.9673397  66.0573959  75.3615284 108.4959979
  66.6037178  74.9930525 107.1333762  85.7726288  47.8347635  27.5983620
  86.3153458  47.1245337  27.2559118  86.3329029  48.6093092  27.5493860
  56.1606884  61.8156481  43.7979698  56.0350847  61.1900282  44.5114470
  55.4495907  61.6266441  43.1857204  58.9193106  27.4679971  45.1933670
  58.3579922  27.2293711  44.4556618  58.7846947  28.4094310  45.3020477
  45.1015425  17.1329224  17.9079735  45.7136583  17.1447575  17.1721709
  44.2473364  16.9739068  17.5063777  23.6092305  46.0077810  44.6681833
  22.7669215  46.4590263  44.6122360  23.3977222  45.0863361  44.5183897
  52.0150185  64.1234970  21.8779206  51.1030197  64.2563295  21.6193867
  52.4996281  64.1181993  21.0524750  83.2991505  21.5842128  34.6839762
  82.7016640  21.1582661  35.2986383  82.9511833  22.4706364  34.5870113
  70.3627396   4.0246201  85.9923776  70.8754206   4.7411653  85.6182727
  71.0101843   3.3524156  86.2049564  44.4215965  75.5048943   3.8229033
  44.5953894  75.5578184   2.8831020  44.0727282  74.6230316   3.9526719
  59.6558428  42.5796700  53.5000753  59.7505665  43.4889603  53.2164335
  58.8503218  42.2800064  53.0786896  63.5497808  64.6361256  41.7535877
  64.1821051  65.1724672  41.2753248  62.9530382  64.3110609  41.0794449
  57.9580784  39.1684294  59.5232582  58.5295486  38.7582016  58.8741302
  58.4672976  39.1543341  60.3336430  42.6114225  23.0316067   7.6451778
  42.1195078  23.7164474   8.0982214  43.5285425  23.2823062   7.7559650
  61.7268896  49.1085052  33.2803440  61.2874365  49.9163437  33.0148149
  61.1651707  48.7439489  33.9643025  55.2097368  31.0933828  31.1322808
  54.7660780  31.8967819  31.4042139  55.9963274  31.0581589  31.6765857
  75.4433441  40.3050756  18.6806023  75.6172943  40.1676321  19.6117747
  76.0530567  40.9963608  18.4225309  79.1107416  34.9894428  42.1219683
  78.6328983  34.4969869  42.7893448  79.8588371  35.3617668  42.5888252
  53.2501316  61.0776472   5.8908504  52.8933668  61.1314869   5.0042552
  53.2123137  60.1461887   6.1080891  72.2363710  56.1603212  19.3099284
  72.0768785  56.6320848  20.1273847  72.4793768  56.8420315  18.6834657
  20.0764227  25.6617355  38.1742740  19.3445504  25.5796456  38.7857103
  19.9596643  26.5239668  37.7753282  79.6671057 137.2472257  30.3843403
  79.7162390 136.9637842  31.2972903  78.7860823 137.6101864  30.2933192
  67.2133160  49.2440081  48.7399101  67.5133419  50.1065636  48.4531784
  66.7319298  49.4147635  49.5494413  53.3286667  16.0301054  29.2506909
  53.7052059  16.3928807  30.0524688  54.0337563  15.5059314  28.8707924
  45.3048897  46.3183451  47.6652193  45.4505396  46.1027431  46.7440605
  46.0133696  45.8733654  48.1302786  74.8626137  46.6686535  50.8446598
  75.0704956  46.6619968  49.9103260  75.5238008  46.1013508  51.2411833
  86.9240284  39.7948337  14.2680132  87.4184132  40.5132866  13.8734972
  86.0108280  39.9872923  14.0552521  55.5490446  43.9743710   0.5694463
  54.6046925  43.8238478   0.6115742  55.7672215  44.3654394   1.4154331
 101.0708427  52.2663450 101.4591911 101.5939903  52.9585886 101.8633481
 101.5256500  52.0695734 100.6402537  22.8214169   5.7051218  43.9808750
  23.5273314   5.1772058  44.3540001  22.7381516   5.3915602  43.0803299
  61.5279865  53.1656933  40.8601856  61.3605881  54.0974331  40.7185221
  61.6755676  52.8127432  39.9827623  45.5828619  15.7575440  23.7835717
  46.4652872  16.0218918  24.0437317  45.0046921  16.2337470  24.3795443
  36.3530874 134.5039160  23.1064534  37.1286964 135.0480230  23.2428718
  35.9984756 134.3677671  23.9850593  49.2247534   4.2819074 102.1747055
  49.5576096   4.2605749 101.2774970  49.5244980   3.4590104 102.5610014
  64.8584223  31.2699056   9.6179885  64.5901060  32.1474791   9.8902082
  65.0615454  30.8169055  10.4363787  44.7790003  46.7858553   5.8474481
  45.6318808  46.8577147   6.2760055  44.4017124  45.9792662   6.1985904
  86.2646103  28.0281353  36.7041922  87.1477127  27.6599717  36.7325807
  86.1041069  28.3346748  37.5966644  71.0818863  49.9820328  11.7280924
  70.8333015  49.2337799  12.2708249  71.8969584  50.2995586  12.1167636
  57.5324678  46.4463139  25.4873562  57.5072527  46.7373705  24.5758271
  57.5269318  45.4906273  25.4338670  61.4250040  38.5500312  47.5917149
  62.0410967  39.0890908  48.0877733  61.4473295  38.9137340  46.7065859
  67.2342443  54.1574526  14.6962428  67.2216988  53.2043123  14.6090734
  67.2540665  54.4801235  13.7952852  69.8768187  51.4517975  13.9745867
  70.1980972  51.1551857  13.1230974  70.0367975  52.3955297  13.9754522
  42.2941732 140.6294508  48.7914610  42.3871422 140.8415610  47.8626966
  42.8527117 139.8626549  48.9190960  47.1296978  26.1366248  48.1572914
  46.8254948  26.4716840  49.0007544  47.4375725  25.2506781  48.3484602
  89.4934368  56.1942673  29.7391725  90.1122761  55.8819437  30.3992724
  89.3401337  55.4352617  29.1764617  79.3981314  67.2550535  12.0122135
  78.5092735  66.8999434  12.0197999  79.2807341  68.1971312  12.1344590
  65.4833651   7.8341883  13.3499694  66.0684967   8.4147155  12.8633106
  65.3214884   8.2933205  14.1741204  95.5541515  13.3368099   7.5410402
  95.9886551  13.9486146   8.1352925  96.0227108  12.5110614   7.6627809
  56.9843102  24.1485524  45.9904146  57.2899437  23.8340998  46.8412638
  57.6883984  23.9199853  45.3835773  92.5517178  44.0620279  21.4197803
  93.3734798  43.6072826  21.2349796  92.1967983  44.2755079  20.5568242
  51.1491728  78.2906055 104.7455409  52.0424747  78.1074047 105.0365462
  50.5946922  77.9636335 105.4539671  78.7992573  56.9784498  39.6616411
  79.2437983  56.3617468  39.0800142  79.0911722  56.7327023  40.5394936
  36.0171175  12.3108494  17.2906291  36.7445993  11.6891432  17.2686613
  35.8985829  12.5731647  16.3777363  41.4424467  59.4444990  34.5942283
  40.5376720  59.4442558  34.2817855  41.4633799  58.7648106  35.2678871
  50.0197744  43.6099434  13.1714618  50.5430174  42.8102160  13.2251990
  50.5832958  44.2346430  12.7149272  89.1477871  52.6869202  59.5407677
  89.8567581  53.2075214  59.9183559  89.3070984  52.7138758  58.5973024
  82.0477772  48.8728762  92.1879979  81.1213970  49.0844393  92.0727583
  82.2684765  49.2252493  93.0501803  40.1561785  47.5034714  15.9498751
  40.0659418  47.0888567  16.8078840  40.6872749  46.8900204  15.4420912
  74.6039152  40.5860472  67.7068186  75.0671005  39.7788930  67.4827814
  73.7536907  40.2915430  68.0333519  50.4252434   9.6694028  29.4842935
  50.6787205   8.7647289  29.6674490  51.1723661  10.1913810  29.7768283
  64.5848083  69.8056602  34.9319243  65.4353285  69.7279167  35.3641319
  64.5571184  69.0674877  34.3231845  64.9891424  74.1041994  13.5223615
  64.6801662  74.5147133  14.3299758  65.6724453  74.6924114  13.2009077
  44.1533852  55.5099487  22.7815557  44.9185514  55.7017326  23.3237481
  43.7145567  54.7889662  23.2330418  60.5574751  74.1592550  40.5453396
  60.5112648  74.9731159  41.0470676  61.2735319  74.3000698  39.9259281
  50.6581211  61.9394350  10.9057295  51.5604591  61.8565369  10.5972707
  50.2308226  61.1335421  10.6155729  77.2896099  40.3584528  59.5051098
  76.9659376  40.5891848  60.3758717  77.3827600  41.1975861  59.0540981
  46.7550850  11.0235572  38.6757731  47.4107504  10.8086479  39.3392086
  46.3269663  11.8122554  39.0087938  52.2550535  22.8986359  23.4735441
  51.3167381  22.7150607  23.4277153  52.6665783  22.1532440  23.0362034
  33.7354684  89.5756149  17.0131004  34.6145749  89.9048710  16.8260336
  33.2331562  90.3551769  17.2501719  46.0376358  69.1218090  19.2005026
  45.2792835  69.5167494  18.7702048  46.5711260  68.7826252  18.4817708
  79.9459362  68.8509893   6.8873203  79.1770792  68.3020067   6.7333460
  80.5908585  68.2574606   7.2720635  71.4936972  19.2127168  54.7141361
  70.8321762  19.1101384  54.0299654  72.3277092  19.0858126  54.2618561
  57.0214319  60.3610182  99.3568345  56.2428665  60.4348612  99.9087515
  57.0437717  59.4402695  99.0961512  18.2231832  37.5632858  22.9277778
  19.1098487  37.9161000  22.8530812  17.6718295  38.3310533  23.0786872
  64.5701647  51.0772133   3.1185958  64.7912884  50.7125521   3.9755434
  65.3914499  51.0502815   2.6276824  52.2486591  95.5136108   2.4293000
  51.6894388  95.9093380   3.0978078  52.4305820  96.2262440   1.8166886
  48.0805683  36.5818787  30.7676268  47.6954556  36.7401123  29.9057221
  49.0251398  36.6307831  30.6205463  20.4270649  24.1173935  65.0777292
  20.7869625  24.7658753  65.6828547  20.0351763  24.6365976  64.3755293
  85.5852032  25.1633406  11.6919911  85.1127815  24.5537090  11.1250746
  86.5070248  25.0306511  11.4709044  55.1944685  21.0478306  28.4891081
  54.5528603  21.5884757  28.0283809  55.0354671  21.2251377  29.4162059
  66.4544916  32.9334974  17.4990654  66.5067673  32.1869111  16.9023204
  67.1928692  33.4900808  17.2515917  51.1316776  71.4545393  29.8392606
  51.1672449  70.6805611  30.4013324  52.0393848  71.7535973  29.7857451
  74.8174906  31.1559129  68.9689302  75.2380514  30.7649684  69.7347784
  74.3942499  30.4201865  68.5264301  65.8012915  22.3857641  22.0241284
  66.2694645  22.9573512  22.6326776  64.9027157  22.7155685  22.0289207
  28.1397033  67.5156355   8.6420465  27.3994875  68.1009102   8.8025743
  27.8108287  66.6457844   8.8688248  65.3016090  53.0222082  19.7403216
  65.0784922  53.6821127  19.0838349  66.1990404  52.7663088  19.5273125
  67.1392488  68.0998564  89.6762117  66.3677263  68.6638117  89.6220001
  67.3578978  67.9048586  88.7649473  64.4548607  29.4002986  11.7843354
  63.7175560  29.6906710  12.3212707  64.1302299  28.6211300  11.3329566
  56.3868093  33.6342621  55.8823919  55.5201340  33.7423897  55.4907084
  56.3331270  34.1022205  56.7156792  66.9931889  79.1322517  33.6037397
  66.1494923  78.9180756  33.2055640  67.0104170  78.6254740  34.4155979
  50.1174784  48.5206747  32.4236512  50.8878851  48.8647795  31.9716597
  50.3377104  48.5822487  33.3531332  57.8810596  23.1331205  53.1625366
  58.0785894  22.6765871  52.3447371  57.3630142  23.8919473  52.8941345
  46.7638254  54.8058891  14.5431101  47.6257133  54.9563408  14.1548479
  46.8260813  55.1863956  15.4192233  86.7345619  51.1954498  62.3570871
  86.2884998  51.3067055  63.1966639  86.3392830  50.4103947  61.9780397
  74.9133301  68.4319019  31.4350152  74.1820192  68.1652451  31.9920731
  74.8240280  67.8936291  30.6485581  72.9562092  37.0744467  42.6979780
  72.0041847  37.0911646  42.6000214  73.1217289  37.5515246  43.5111380
  32.0431995  29.1396499  22.9778337  32.3097205  30.0336242  23.1923294
  31.4975762  28.8687181  23.7161589  90.5948734  80.8946419  29.5026803
  90.5976295  81.5376472  30.2117372  91.2418747  81.2234879  28.8786077
  47.7830887  68.9451504   8.0646247  46.8605089  68.7421417   8.2191086
  47.9064369  68.8000584   7.1265602  55.8307314  62.7296782  15.0146282
  55.3087234  63.5309362  15.0561941  55.4958963  62.1883249  15.7295084
  59.4791174  48.5253191  51.5394258  59.7041512  49.0357876  52.3172522
  59.7650099  49.0688896  50.8052397  88.7107182  24.0539098  11.6009426
  88.9597130  24.9194503  11.2767923  88.8489056  23.4699869  10.8551717
  56.9505024  15.6138456  42.5517368  57.4037647  14.7788942  42.6685333
  57.5497055  16.2648082  42.9170275  65.7960844  55.3847790  21.5933967
  66.5054417  55.2451468  20.9660602  65.1004839  55.7964611  21.0806680
  69.9571609  46.2994862  44.1541862  69.7221804  46.1154699  43.2447052
  70.3656387  47.1646786  44.1256714  47.2483158  35.0963283  63.6971426
  48.1487131  35.2569318  63.4147978  46.9909716  34.2987037  63.2347584
  51.4613295  18.2620323  64.8335361  52.2866201  18.6893129  64.6042681
  50.7862425  18.8848853  64.5641994  30.9374666  36.2421751  29.1923571
  31.6076350  36.9200850  29.1055059  31.2461424  35.5274844  28.6354303
  32.0778155  33.5629988  66.1045218  32.1284866  32.9986548  66.8760014
  31.3881969  34.1930556  66.3135386  72.0084763  70.7031202  10.7649565
  71.8282938  71.6281700  10.5974829  72.9000521  70.6919765  11.1130953
  40.4816818  68.2587051  41.9616938  40.9640503  67.4975824  41.6388226
  40.4299927  68.1256533  42.9081917  66.3115644  28.3797669  48.2391691
  66.1371851  29.2833638  48.5024786  65.4439783  27.9932714  48.1202364
  60.3052282  40.2772951  16.5906537  60.2871656  39.8844528  17.4633408
  60.8402729  39.6786308  16.0695350  97.9069519   1.7673749   5.4993218
  97.7086353   0.9291094   5.9167135  98.7592793   2.0169964   5.8563352
  55.4767990  41.4696169  13.3782041  55.8141613  41.6557693  12.5019825
  54.7879267  42.1204233  13.5128832  52.3045206  27.9008174  35.3161836
  51.4352512  28.1923985  35.5910969  52.9029274  28.3079171  35.9426117
  30.7336092  33.4573364   7.8357768  31.6843700  33.4525442   7.9465050
  30.6028938  33.5420370   6.8913347  87.5345039  32.4105597 100.5496093
  87.8552151  32.1270943  99.6934398  87.5699806  31.6224003 101.0916212
  84.0315819  44.2491293  40.8312273  84.1636086  45.1677179  40.5967283
  84.0198517  44.2455769  41.7883492  76.2288761  33.4185243  19.8380089
  75.4127645  32.9312897  19.9511421  76.3276339  33.5034513  18.8897121
  19.9302077  64.5615339  94.4463333  20.7224679  64.8946285  94.8677632
  19.7404289  65.1974201  93.7565037  54.4167757  67.6092482  43.2846594
  54.8584318  68.3821392  43.6365271  55.1199675  66.9756413  43.1422138
  35.7753825  57.0946503  10.9100962  35.4392648  56.5709591  10.1827705
  35.0424886  57.1513271  11.5231907  72.7351046  90.6831169  37.0740461
  72.8366661  91.0365582  37.9577875  71.9515657  90.1355457  37.1236658
  43.4912109  74.3771887  16.0100329  43.3612585  73.4857559  15.6864738
  43.1244993  74.3669319  16.8941426 102.2304344  39.8561573  46.9562578
 102.1734905  40.2557611  47.8241873 102.2753620  38.9155841  47.1281052
  50.1002741  28.8573170  36.3582253  49.7332191  29.7077155  36.5997314
  49.4108248  28.4358525  35.8451390  76.3611889  89.0811157  34.7861671
  76.2317419  88.1328201  34.8006582  77.1733093  89.2194653  35.2735591
  83.2960510  44.2336464  23.4978056  83.6788082  44.6965694  22.7525306
  84.0004921  44.1976738  24.1448689  51.9504118  26.8350315  24.0908909
  52.2341204  27.1657228  23.2386088  51.1055899  27.2585535  24.2429900
  78.6504126  16.4711869  22.2976613  78.9210320  16.2132943  23.1788468
  79.4672394  16.6973114  21.8528128  89.5972157  47.2088194  60.1818037
  90.4768181  47.1170473  59.8155880  89.3371773  46.3155937  60.4070950
  53.0689240  43.5353136  33.1016278  52.1771479  43.8738775  33.1812358
  53.0049706  42.6231527  33.3846688 101.5724754  18.8870931  25.7285404
 101.1174583  19.5208323  25.1739526 102.2388268  19.4019926  26.1835980
  72.5201559  43.5152197   8.0927169  72.0973730  43.6911106   7.2521538
  72.2970152  44.2711401   8.6358792  66.1482859  51.0436249  40.7998037
  65.7367849  51.8826866  41.0068560  67.0673704  51.1619520  41.0396338
  71.7678785  67.0722866  16.5870702  71.5352345  67.8237724  17.1323884
  71.6618586  67.3860741  15.6889999  57.4580812  37.1713305  39.3093395
  56.9087744  37.7103949  39.8784637  58.3405209  37.2669315  39.6676660
  23.9116096  68.5658216  89.9105498  24.3301511  68.9063978  90.7011553
  23.1097960  69.0812492  89.8230060  44.4352198  32.9466438  16.8428576
  45.0523233  33.1027651  17.5577307  44.0088224  32.1204925  17.0706582
  70.8124971  62.6850748  30.3028297  70.3906298  62.2045612  29.5905375
  70.8398294  63.5916662  29.9969172  92.4252415  43.7914276  32.8036547
  92.1738625  43.1897736  32.1029019  91.7562675  44.4757414  32.7832627
  77.5575209  31.7822361 106.2546670  78.0153227  31.7283154 107.0935615
  77.8513050  32.6100135 105.8742612  12.2823536  24.9471998   6.1107963
  11.7584753  25.3456879   5.4158205  12.3933053  25.6446362   6.7569411
  53.8839817   8.5651731  28.7309527  53.6346197   9.4575012  28.9713764
  53.1965733   8.2781076  28.1298733 100.7662201  49.3151855  13.6512983
 100.5953979  48.6635733  14.3313372 100.2200890  50.0630331  13.8935697
  50.8865499  11.3685679  31.7509913  50.7816887  12.2922909  31.9789624
  50.8529186  10.9094381  32.5902176  29.8874640  22.8299451  18.5556078
  30.1664805  22.3773456  17.7596581  29.4805384  23.6375117  18.2417905
  32.2953749   4.0307418  54.4024897  32.2612190   4.5581353  55.2005672
  33.2273340   3.9764664  54.1909790  60.3742743  69.6208858  32.0750976
  60.2660942  70.1481247  32.8666425  61.2150717  69.9012709  31.7136121
  82.8630161  48.9783382  41.5614223  83.6999321  48.5265207  41.6694355
  83.0089188  49.8460913  41.9381857  58.1986141  45.5831957  40.9123087
  57.4212122  45.9268713  40.4721165  58.7174702  46.3595152  41.1229086
  76.6983700  45.3431320  54.8548985  75.8648014  45.1088858  55.2629709
  77.2338009  45.6733370  55.5763626  42.3683977  38.7621188  12.6422358
  43.3126020  38.7302089  12.7961397  42.2706079  39.3153214  11.8672264
  41.5451336  26.0835981  44.7920227  42.4980497  26.0776353  44.7017813
  41.2294817  26.4675570  43.9739895  58.7949276  13.2963502  74.3387270
  57.9445982  13.6134887  74.0344286  59.3699312  14.0593851  74.2805815
  23.4159040  84.7513866  73.0700111  23.9063144  85.3474426  72.5039291
  23.8506842  83.9056110  72.9611158  79.4337511  36.9343281  35.8972406
  79.4675541  37.5824594  35.1936698  79.3223619  36.0972238  35.4465961
  34.3550229  33.2717204  94.3277904  35.1207447  33.6466098  93.8926347
  34.4287586  32.3299885  94.1730817  49.2789888  37.5125003  69.4497490
  49.9960184  37.4881124  70.0833941  48.7586880  38.2739758  69.7060108
  68.8219690  45.3590584   5.8976370  68.5672998  45.5178165   4.9886990
  68.2462120  44.6514845   6.1875999  45.1105833  11.5943277  11.2214088
  44.2297935  11.9681382  11.1947525  45.6865311  12.3474741  11.3528764
  70.6009102  46.7864037  27.1044731  71.2079334  46.9552851  26.3838911
  70.1042175  46.0177088  26.8240619  63.5479975  63.2312250  14.2540300
  63.7765646  62.4067068  14.6831691  62.7582598  63.5262823  14.7073328
  65.1646042  13.5956013  28.7432981  64.9207878  12.9938090  29.4465995
  66.0224962  13.9318788  29.0024710  65.5488729  49.6919489 106.0223853
  65.1114988  48.8629103 106.2163737  65.8023930  50.0352240 106.8791940
  17.7310884  27.7195024   3.7927803  17.8289270  28.3464861   4.5094058
  18.1610441  26.9250178   4.1092661  83.9853096  59.4803762  24.0781331
  84.6819782  60.0619411  23.7737203  84.0452576  58.7150621  23.5063529
  30.0507379  80.0582981  30.9754658  29.7816706  79.3430614  30.3990364
  29.7333217  79.8007011  31.8409848  70.3346777  77.9192448   9.6646899
  70.1625299  77.5205040   8.8116914  70.6925488  78.7825537   9.4576794
  75.6237411  73.5718727  24.3960690  75.8763504  72.8406620  23.8323784
  76.0149860  74.3405533  23.9809918  74.8377419  42.8509808  28.1439519
  74.5440245  41.9854450  28.4282279  75.0621986  42.7364016  27.2205234
  73.2569551  59.8393059  36.1310673  73.4844589  59.3434429  35.3445578
  72.4700546  60.3268671  35.8875537  71.9858742  52.8980541  27.7720737
  71.4521885  53.0140924  26.9859743  71.5959024  52.1458530  28.2174349
  84.4359970  34.3517280  21.6143632  84.3737030  33.8644147  20.7928514
  84.1633987  33.7258768  22.2853541  64.5853901   4.5166993  22.7530336
  65.3160000   4.5997167  22.1402144  64.9202156   4.8753625  23.5749125
 102.9962635  68.5755873 105.6521320 103.8012600  68.0813408 105.8068209
 103.2844162  69.4852924 105.5770736  90.4110909  65.1280785  20.9385371
  91.1403370  64.5310020  20.7714224  89.9069023  64.7022057  21.6318321
  62.1017647  44.7869635  24.1900420  61.4148188  45.3480816  23.8302088
  62.8245306  44.8638153  23.5672021  67.7599144  60.6884241  96.1926743
  67.5668812  60.9329414  95.2875885  68.6387873  61.0327673  96.3515648
  46.4912653 132.5972647  22.1719885  45.9012699 131.9514508  22.5606561
  46.3314867 133.3984346  22.6708174  41.8949080  25.4178405  19.3112051
  41.4321184  24.5837975  19.3913877  42.7476263  25.1843023  18.9443719
  42.3025656  30.8183122 100.7315555  42.0317793  31.7030859 100.4864373
  43.2566023  30.8677912 100.7915207  67.9944515  62.4765396   1.8255904
  68.2321978  63.2080269   1.2558264  67.3419428  61.9859266   1.3258269
  62.9204845  45.5743217  30.8887815  63.3503056  45.2659893  30.0910234
  63.6077070  45.5528307  31.5547347  64.5138264  23.2130241  34.5975518
  65.4367685  23.0928183  34.8210573  64.0884447  22.4091673  34.8960423
  66.1030722  41.0168791   2.3079169  66.0174036  41.9364500   2.0563723
  65.2134037  40.7469797   2.5356647  53.9470005  23.4735298  85.9807738
  54.5738411  23.1855345  86.6443714  53.4795856  22.6764607  85.7308968
  84.7919464  44.5045853   9.3062609  84.6145344  45.4426146   9.2365599
  83.9688778  44.0858030   9.0544462  47.2223186  11.6155100  17.5188768
  46.2925005  11.5244758  17.7271605  47.6645613  11.5540266  18.3655596
  82.0489120  57.9823875 109.1700370  82.2224617  57.0892382 108.8727099
  82.3297501  57.9890299 110.0850862  24.6144724  43.9406204  99.8372337
  24.1253948  44.7063780  99.5361539  25.0707316  43.6258173  99.0568753
  70.5187511  35.3297424   4.0330508  70.0264263  36.0305095   3.6055312
  71.2989521  35.2191949   3.4896377  49.7592258  26.3546348  14.9798393
  49.6814203  26.2529540  14.0312409  49.6483374  25.4689622  15.3255546
  52.5275850  58.9221191  89.1892823  52.7171040  58.2112837  88.5768923
  52.4574804  59.7012138  88.6376175  60.2555561  32.0581341  -0.0048804
  60.6194162  31.4017892   0.5892986  59.4371939  32.3299170   0.4106380
  50.5087662   4.6629837   7.2695756  50.3890228   5.5824381   7.0318854
  50.5513382   4.6663857   8.2258224  84.1712761  52.2080469   8.9443952
  84.8413467  51.5358686   9.0686017  83.5698509  51.8309259   8.3022928
  88.4077644  65.2732420 106.0284238  88.7781429  66.1536121 105.9651750
  89.0134430  64.7223854 105.5325066  82.7254295  38.8615274  63.9530953
  83.5524368  38.8079762  63.4741219  82.8448582  39.5954156  64.5559081
  67.1672344  52.2659445  24.7004843  67.4600315  52.0725250  23.8099265
  66.9727898  53.2031345  24.6904445  91.7889023  70.0708199  25.4191208
  91.9084835  70.3936863  24.5259881  92.3268223  69.2802286  25.4620361
 101.1114788  71.1064291 108.2817518 100.2486038  70.8907080 107.9280061
 100.9516144  71.8448162 108.8695114  40.0244951  56.5866184  36.3456321
  39.2419910  56.0357761  36.3679576  40.0915480  56.9434595  37.2312951
  56.3796473  37.9180455  36.9411182  55.6407976  37.3249340  36.8049073
  56.8090200  37.5884128  37.7305579  57.1695709  10.4741192  92.9346319
  56.8602133  11.3648033  92.7696701  57.9248619  10.5859697  93.5119137
  82.3048210  38.1047368  11.7784202  82.7784443  37.8658938  12.5752056
  82.0000839  37.2703910  11.4217293  88.8608074  49.1873026  22.7047968
  89.5135689  48.8536358  22.0893312  88.8622189  50.1342964  22.5654006
  59.9582052  51.5413618  96.2444504  59.8290157  50.7758188  95.6845459
  59.3733597  52.2058725  95.8802911  53.4821272  28.3453989 103.2325133
  53.4280109  27.3919344 103.1676384  53.4903193  28.6471891 102.3241701
  23.3592772  77.2991610   3.3935130  23.3122110  76.7844725   4.1991878
  24.1471219  77.8330374   3.4960359  63.2050610  84.8424149  13.4933496
  62.3353243  85.2272415  13.6014938  63.3747339  84.3968868  14.3233752
  73.0817080  27.9897094  10.6977105  72.6927900  28.7573838  11.1168206
  74.0158749  28.1921315  10.6467927  68.7386513  55.8297157  27.6322675
  69.2499781  55.7579374  26.8262768  68.2158709  56.6228390  27.5144243
  80.5571079  44.6188784  22.2560430  81.4076424  44.3978977  22.6355124
  80.4889393  45.5682421  22.3575187  31.1564040  17.8577459  18.7887192
  31.5441012  17.0853174  19.2001522  30.7949185  18.3615315  19.5179379
  56.1339521  41.6059446  10.6621659  55.6115198  40.8090782  10.5710685
  56.8705177  41.4791107  10.0641537  76.8140650  70.1257229   5.1294619
  75.8584547  70.1609182   5.0869954  77.0296478  70.4973888   5.9848106
  82.8022194  43.0448627  14.6012354  81.9645309  42.9102945  15.0444055
  82.6998043  43.8793850  14.1437244  59.9482441  80.5585480 108.1958412
  59.2138100  80.9794426 108.6426986  59.7950268  79.6211004 108.3139593
  82.6832676   4.5170876  17.0224524  82.7086830   4.1770154  16.1280608
  83.1790829   5.3348643  16.9819331  65.1045418  11.4883065   6.8113977
  64.6077347  10.6803560   6.9403601  65.9922075  11.2717783   7.0967001
  62.4997330  20.2151465  15.4859066  63.1033707  19.5289898  15.2012289
  62.1169424  19.8766994  16.2953246  55.8037424  65.5812263   2.6421401
  55.3806019  65.5858707   3.5007215  56.0712099  66.4895535   2.5020203
  61.2641764  19.8653889  36.9064879  61.8524313  19.4023156  37.5029349
  61.1069632  19.2445171  36.1951256  29.7660303  19.7576058  37.0518088
  30.6759667  19.5514524  37.2656989  29.7658086  20.7010674  36.8902183
  56.6794872  41.5218639  33.8515067  55.9640169  40.9786892  34.1821003
  56.2657213  42.0974922  33.2083297  53.1632853  73.7921715   6.7980355
  52.2605658  73.4739494   6.8063271  53.1950092  74.4409466   7.5011116
  93.0603313  23.8134289  25.1567435  93.3229160  24.6045017  24.6861243
  93.2620239  23.0979323  24.5537353  85.4071236  39.3590546  33.7423611
  85.8936119  39.0815115  34.5185876  84.5158958  39.5072651  34.0585613
  74.5899820  49.2681789  41.0342646  74.0918303  48.6379576  41.5547419
  75.5010700  49.1219950  41.2887812  56.7660999  24.2495656  21.8785930
  56.5113449  24.7023273  21.0746408  55.9489489  24.1511464  22.3672724
  74.1248322  15.9669006  41.8971920  73.9703751  16.5413702  42.6470995
  73.3843088  16.1309361  41.3132858  61.2958527  49.8096180  28.8393521
  61.7694283  49.0879917  29.2531323  61.5966845  49.8037052  27.9306746
  50.9201288  19.3135774  13.8416469  50.9219456  19.9207067  13.1016314
  50.0609064  19.4320440  14.2465389  67.1753645  30.1856494  12.1739113
  66.4184618  29.7644138  11.7666101  66.9058704  31.0959625  12.2961318
  75.0001717  33.0924964  10.4872787  75.0121212  32.6012158  11.3086987
  74.3705130  33.7973213  10.6388807  83.5975456  15.9248233   5.4767394
  82.7507877  16.3520706   5.6059450  83.6541843  15.7864046   4.5312962
  77.2157526  70.0716829  95.8612105  76.3711023  70.0137758  95.4146167
  77.1631527  70.8813429  96.3690635  79.9123955  56.2168217  21.6558719
  80.0055599  55.3345156  22.0151615  79.5747089  56.7377090  22.3844862
  63.2204247  39.1477704  39.0494013  64.1057682  39.4973135  38.9482880
  63.3297682  38.3753967  39.6041203  88.2842159  41.7822790   9.7247910
  87.7696323  42.4267197  10.2107263  87.6772499  41.0584593   9.5701623
  46.2504721  35.5123043 107.8424708  46.9786310  36.1335063 107.8313684
  45.9317017  35.5330253 108.7447946  57.7541542  70.9708643   8.2499087
  58.4513998  71.0599852   7.6001841  57.3280478  70.1419544   8.0317938
  27.6955342  28.7631392  88.8403639  28.0743122  29.5743084  88.5015949
  28.4409761  28.2830238  89.2009720  62.4941158  64.1207218  48.6331367
  62.0729923  64.7517014  48.0493927  62.7988291  63.4234905  48.0524015
  46.7509747  76.5900183 106.6949665  46.4317846  75.7472420 107.0175799
  47.5659084  76.7371750 107.1750295  63.3927584  44.0449142   3.3087194
  62.9714346  43.1854773   3.2991502  63.0966854  44.4477224   4.1250011
  81.2830925  46.3303137   3.5060230  80.7287407  45.6198120   3.8286722
  82.1394253  45.9240770   3.3721843  66.7671108  66.8731165  10.9821498
  67.4087048  67.0592690  10.2966297  66.7565250  67.6638937  11.5214038
  49.9387169  39.7422528   8.6740208  50.4624033  39.8120522   9.4722128
  49.3684292  38.9888263   8.8268393  79.5949650  34.8501682  15.6768024
  80.1839733  34.9639058  16.4227009  80.1774693  34.7741365  14.9210584
  40.8873272  30.7568312 103.0830404  40.3593397  31.5431762 103.2213333
  41.3399601  30.9148979 102.2545644  76.7821264  41.6465998   2.9161674
  76.8654108  41.3187408   3.8116026  76.8041563  42.5992346   3.0068883
  55.1644659  24.1246676 109.2923680  55.1686573  23.4514380 108.6119440
  54.2578554  24.4303608 109.3212640  68.3143234  64.5995712  93.5382851
  69.1096401  64.2125845  93.9042696  68.6297131  65.2093410  92.8712472
  80.4951572  74.3001509  92.8841504  80.5542183  73.6974716  93.6254462
  80.4615402  73.7312841  92.1150645  52.4015951  76.8560553  59.8164845
  52.0183802  77.7269554  59.9209261  51.7692518  76.2654734  60.2258587
  73.2841349 143.2411931  10.2964187  74.0441370 142.9867328   9.7730869
  72.6995039 142.4844939  10.2534080  70.0018215  40.2799511 104.6171209
  69.2694283  39.8974442 104.1338857  69.7307587  40.2396822 105.5342542
  49.9830151  74.0723133  17.6571298  49.4080925  73.8743305  18.3963847
  50.3887129  74.9084091  17.8864360  81.8624783  36.6337657   8.3109641
  81.6569614  37.5009346   8.6602646  82.0415783  36.7856193   7.3830110
  76.7509270  69.5719576  27.5193334  77.0646763  69.5634460  26.6150522
  76.5905952  68.6511660  27.7258992  63.2252169  14.1190267  90.7005426
  63.9500856  14.7426331  90.7442149  62.7238178  14.3881094  89.9308487
  64.0590048  24.1241479   8.3092731  63.3681631  24.5903182   7.8384668
  64.6174860  23.7641382   7.6202720  81.6255951  52.9853344  13.6288106
  82.1635437  53.3539772  12.9281366  81.1501598  52.2662926  13.2126808
  99.0246296  83.3139324  16.3493669  99.9417496  83.2705688  16.6200280
  98.5384083  82.9572582  17.0927310  58.0670214  13.4082925  22.4529004
  58.2046890  14.2816448  22.8196931  57.8953218  12.8533399  23.2136750
  32.7338243  62.5272465  31.7920756  32.2543645  62.0039749  32.4343657
  33.5978222  62.6546335  32.1838760  49.9336720  33.9288259  88.6442145
  50.5844784  33.7395620  87.9682954  50.1746607  33.3593750  89.3748864
  57.0886087  66.4757299  21.8220282  57.1033382  66.8478680  20.9402514
  57.0939684  65.5287743  21.6824746  74.9843216  26.2815142 109.9360044
  74.1107512  25.8908200 109.9143692  74.9293756  27.0244551 109.3349625
 101.3629436  31.2855649  43.9058018 100.8922005  30.4968047  44.1750479
 100.6913185  31.9669437  43.8761711  55.3845263  93.8919163  17.8512740
  55.9825087  94.3809891  18.4164762  54.5114279  94.1639328  18.1340110
  83.8528061  73.3746767  18.9956450  83.9359570  72.4761677  19.3150163
  82.9707718  73.6405802  19.2555296  62.2075129  68.5197544   0.4930738
  62.8884125  68.4859705  -0.1788411  62.1514702  69.4452286   0.7309519
  49.4146872  10.2568245  25.2108932  50.1220703   9.7720325  25.6361198
  49.8040819  11.1023271  24.9879026  92.2979259  51.7155504  29.1879511
  93.0562305  52.2290277  29.4664145  92.2889709  51.7993736  28.2344699
  56.6061783  46.1668968  75.1569923  55.9690571  46.7192125  74.7039350
  56.2189293  45.2916813  75.1406416  75.4972792  55.8053160   9.3005532
  75.1885271  56.6950750   9.1295880  75.4516888  55.7147169  10.2523637
  56.2813520  34.0766478 103.1140497  56.4568806  34.6547365 102.3715987
  57.1234131  33.6601567 103.2976290  38.1847572  26.8078446  94.9072787
  37.4358058  27.1816325  95.3715893  38.4913564  26.1019039  95.4763814
  46.7005873  35.2523375   9.3664759  46.4699602  34.9940395  10.2588463
  47.4823761  35.7950902   9.4687134  59.1495132  16.9800425 100.5028632
  58.3842134  17.5274181 100.3269925  59.3831539  16.6138160  99.6499141
   5.5046791  29.0191245 107.8482785   5.9558833  29.8046970 108.1573422
   6.2066853  28.4433413 107.5451385  55.2944756  34.1245151  98.4507223
  54.5737696  34.7405291  98.5824093  55.6879520  34.0273213  99.3178781
  67.4975634  46.2844992   3.4258425  67.9034138  45.9729958   2.6168412
  66.7962646  45.6565237   3.5992122  56.2973261  52.6746082 107.6561823
  56.8268204  53.4644890 107.5468203  56.9295931  51.9913864 107.8790674
  73.9794970  25.7750416 100.1665350  73.2530069  25.1543021 100.2224758
  74.4647694  25.5061364  99.3865141  47.5914001  52.7418137  28.8125873
  47.6785183  53.5028028  29.3866396  47.5949621  53.1074429  27.9279780
  63.2396221  10.5940270  18.0515862  62.3708916  10.7259631  17.6719368
  63.1250525  10.7823229  18.9830637  51.6244030  23.8004088  10.9916055
  51.9121170  24.2877007  10.2195966  52.2232962  24.0758634  11.6856384
  77.4177217  74.6862030  86.4340790  78.0269003  75.4090786  86.2837919
  76.6250849  74.9385691  85.9605058  79.9027538  29.1740537   9.6831501
  80.5031013  29.0596628  10.4198492  79.8104191  28.2969999   9.3110120
  25.5206132  30.3450561  23.9147091  26.0479403  29.8272276  24.5229959
  25.3949976  31.1829925  24.3600368  67.5043964  33.1338763  34.8449087
  68.1318903  32.6628804  34.2965961  67.7541447  34.0538764  34.7585750
  78.5759544  37.7849603   3.7179461  78.5576010  38.5028553   3.0850780
  79.5018482  37.6839089   3.9387250  87.8897762  76.5029478 108.9331777
  88.2573414  75.7840919 108.4189992  86.9743919  76.2575912 109.0677137
  48.6596155  53.3472681  20.0959396  49.1027069  54.0261126  19.5869541
  49.2523813  52.5965071  20.0610852  42.6233387  63.2111597 104.3366929
  43.1173086  64.0216923 104.2131438  42.9766130  62.8359652 105.1433273
  27.5472260 104.2443752  95.6844267  26.8638778 103.5855103  95.5612966
  28.2336807 103.7892437  96.1721345  59.3637848  78.8418436   5.0098288
  58.5214758  79.1216898   5.3681952  59.4971228  79.4025803   4.2456123
  48.5353851  58.8083792  15.5698395  47.8644323  59.0169716  14.9198067
  48.1731033  58.0700159  16.0595345  92.3101521  46.8915701  19.8230350
  92.1492577  46.0457563  19.4047713  93.0100822  46.7181873  20.4525352
  11.1460817  74.5478201  98.8353356  11.3540781  73.7456656  99.3144187
  10.1922417  74.5387506  98.7557193   3.4176457  37.6384497  20.8779025
   3.2685328  36.9422555  20.2381325   2.7030933  37.5422335  21.5074968
  98.9302731  43.9702463   7.9372799  98.9017487  43.0623436   7.6354033
  98.4421062  43.9643431   8.7606204 109.2015839  38.3867502  21.9630265
 109.2958927  37.9194832  21.1329675 108.3863831  38.8795686  21.8691874
  76.7188835  15.4188228  99.3730887  75.8164883  15.2987981  99.6689042
  77.0748615  14.5316339  99.3240293  57.9830313  29.7625947  26.0315323
  57.4678755  30.3156281  26.6189027  58.0430937  28.9219689  26.4853764
  48.0342150  42.5226307  99.9367216  48.8920069  42.8818798 100.1633497
  48.1973219  41.9829988  99.1631421  52.3484135  56.5411520  11.0572898
  52.2123289  56.1589813  11.9242716  52.0427656  55.8687353  10.4484689
  75.2853441  55.4236364  21.2220645  75.7678223  54.8813105  20.5981016
  75.3824997  56.3158131  20.8891678  73.8499784  83.1436443  22.3658848
  73.8604736  82.3163700  22.8472710  74.5716429  83.6482620  22.7411056
  67.2275782  54.6614742   4.4630644  67.6241255  55.4214430   4.0371230
  67.6071978  53.9081669   4.0106791  63.2639885  53.4933567  34.8415041
  64.1657686  53.7536049  35.0293517  63.1881142  53.5622740  33.8898087
  67.7193165  48.9970922  93.6849757  67.3495007  48.1640625  93.3925065
  68.1219482  48.7968826  94.5299812  88.6037254  86.2374496  16.3743234
  89.0506458  86.8746567  15.8171344  88.5472202  85.4473686  15.8369136
 109.8258781  76.3111877 101.5824660 110.6544876  76.2514973 102.0579323
 109.4201279  77.1146011 101.9082477  45.3342915  32.4396181  14.3416667
  45.0604582  31.6139627  13.9422381  44.8655605  32.4692535  15.1757193
  58.9398527  42.7874613 108.5367187  59.0958452  43.1420279 107.6614013
  58.7623596  43.5563755 109.0784713  59.9355745  39.3896914   3.2222766
  59.1245747  39.8650861   3.0419734  60.3603792  39.3082738   2.3683771
  56.8465376  35.9223580 100.9824660  57.3077345  35.1862288 100.5804201
  57.4829483  36.3014150 101.5887054  86.2329197  42.7143717 103.2521381
  86.5502739  41.9413805 102.7852251  85.5225277  43.0496788 102.7052005
  63.8623571  56.4614153   4.8444414  64.2323446  56.6214418   5.7126194
  62.9208040  56.3803577   4.9965665   9.5399874  38.5661912   6.0131401
   9.9881023  37.7641964   6.2818938   8.9402592  38.7585068   6.7339545
  66.0515928  35.7414722   1.2644520  66.9076061  36.1626434   1.1864314
  65.9758568  35.2048969   0.4754119  65.8279133  69.5257378  11.2583518
  65.4185915  69.5111036  10.3932071  65.5045080  70.3307915  11.6627407
  79.9173832   2.6597726  20.7056212  80.0008965   2.5805545  19.7553670
  80.5002689   3.3826450  20.9378457  10.6284153  82.2050762  35.7921934
  11.4136326  82.4246979  36.2936211  10.0669062  81.7447281  36.4159107
  47.6421213  60.1945639   2.6865011  48.5988617  60.2001286   2.7156121
  47.3758841  60.0338984   3.5917830  69.7759056  70.5755043  17.3840642
  69.8275232  70.7594442  18.3220053  69.3358517  69.7271633  17.3302186
  70.5286789  42.8470612  99.4159874  69.7898769  42.2387981  99.3954035
  70.1513290  43.6907291  99.1668590  82.4620152  49.9177885 103.9488717
  81.9432068  50.2661324 104.6739354  82.1729946  49.0093803 103.8623037
  68.3945990  77.0437431 107.1393316  68.5074711  77.8654242 107.6171730
  68.1757498  76.4019156 107.8149032  49.8611593  59.7783804   9.6257430
  50.3577423  59.0980864   9.1709578  49.8257065  60.5052137   9.0038973
  56.0602760  66.1989880   7.9397935  56.9959021  66.1146450   8.1234145
  56.0091496  66.2758827   6.9870573  55.5668879  84.5655155  61.0035475
  54.6306705  84.5531273  61.2024888  55.9532309  83.9548492  61.6312798
  60.3695774  34.0214133   2.3984326  61.0793114  34.5310330   2.0075452
  60.7808971  33.1964278   2.6562041  65.3044748  29.8716998  95.2480265
  65.5925179  30.0479293  94.3523666  65.3791666  30.7153535  95.6940111
  68.4205008  45.2939129 100.6139877  68.3637333  45.2531958  99.6593400
  67.6624203  45.8158302 100.8769556  74.7655487  41.5424013  38.9101362
  75.3268480  41.0564661  39.5143247  74.8128366  41.0499525  38.0906916
  93.1233883  67.3636007   4.2266107  93.2671642  67.8902340   5.0128788
  93.8975906  67.5229359   3.6867449  48.7935162  39.5645571  14.5270658
  49.5612574  39.2757583  15.0204253  48.0591774  39.4293785  15.1259840
  30.1385379  67.0093107  18.6658323  31.0811305  66.8443108  18.6887205
  29.7661209  66.2174606  18.2778788  64.1826153  73.1464195   9.9687558
  63.5990858  73.8891411  10.1239693  64.2380953  72.7042913  10.8159125
  52.1407318  19.4049847 103.2300600  51.3618946  19.5667386 102.6976337
  52.1497679  20.1212001 103.8650294  39.1314840  10.4459214  33.3348918
  40.0283718  10.1903212  33.5505176  39.1040158  10.4393470  32.3781085
  64.4400597  28.4094095  32.0611787  64.3440151  28.0103087  32.9258895
  65.3652763  28.2931066  31.8451357  87.4103165  40.0060415 102.0708742
  86.9307518  40.5016136 101.4070537  86.8363380  39.2693996 102.2809651
  59.8923302  64.5390558  33.9598823  60.0337982  65.3664207  33.4997869
  60.6269264  63.9871454  33.6915708  72.9344225  30.0078082  97.8152856
  73.0290222  29.0586162  97.7358040  72.8833818  30.1653099  98.7580570
 112.9883766  11.9708765   1.3783590 112.3570633  12.0511687   2.0933653
 112.4541187  11.7797923   0.6074578  48.0090332  74.3071127  95.9270664
  47.1678925  74.4452143  96.3625523  47.8311300  73.6336040  95.2705833
  31.8953252 107.4486446  96.7061552  31.4855099 107.6898193  97.5368866
  32.6643682 108.0152798  96.6450580  70.8224249  34.2735577  11.3714933
  70.7816696  34.2830229  10.4152083  70.8273697  33.3444977  11.6018271
  49.9076462  61.5576792  20.6855989  49.4125366  62.3587990  20.5144024
  50.4966402  61.4752436  19.9355876  74.6952629  34.2015195  50.3137445
  74.5565510  35.1354146  50.4713249  74.2730236  34.0355301  49.4708967
  61.5964794  88.9552975   0.6326047  61.6261625  89.4535160   1.4493853
  61.3273287  88.0759239   0.8980960  34.1260719  15.6129622  16.5594959
  33.7518454  16.4896750  16.6464567  34.5800161  15.6288040  15.7169318
  75.1250839  50.4567575 109.8599188  75.5611753  49.6078682 109.9336982
  74.4844818  50.3368092 109.1588644  76.1064577  42.9051018  17.1335125
  76.7499876  43.5297775  17.4679959  76.5373850  42.4959850  16.3830721
  76.2788534  61.8701077  99.3825074  76.4334488  62.5289917 100.0594141
  75.4437876  61.4696074  99.6243700  60.4000854  58.3637810  35.6419063
  60.4309464  59.3165779  35.7282877  60.0426054  58.2140875  34.7666740
  64.3864632  37.2926450  24.9408269  65.2460480  36.9115901  24.7615576
  64.3661404  38.0943203  24.4182014  62.0417309  53.6161613  95.5410060
  61.5309620  53.0510855  96.1206921  62.8983212  53.1923771  95.4871675
  69.4485617  21.9529700  37.2953367  68.9340258  21.4131236  36.6952944
  70.3576851  21.7917514  37.0428801  84.3286800  47.9617691   5.4213238
  84.7006702  47.6122284   6.2310636  85.0887680  48.2271528   4.9035728
  72.9656172  28.5283756  48.2978439  73.7865019  28.0409980  48.2282734
  72.6653242  28.3653545  49.1919804  98.1899548  79.1535759  13.7955868
  98.6293411  79.7460890  14.4055879  98.8854122  78.5773516  13.4785151
  25.5062246  35.0622058   4.1968617  26.3544536  34.9193883   4.6167922
  25.0176167  35.5993414   4.8205438  42.2138166  88.5115528 100.1050057
  42.0626783  87.5681686 100.1633247  43.0166674  88.5941410  99.5903774
  81.9726562  54.8952055 108.6667488  81.0812950  54.8826408 109.0153813
  81.9465446  54.2959690 107.9207822  92.9564476  22.7709150  20.5359268
  93.0897617  23.0333495  19.6251094  92.0652008  23.0549145  20.7390118
  57.7102709  69.9165392  11.9903016  57.8980064  69.0022087  11.7781913
  56.7726326  70.0133657  11.8238854  51.8648291 115.4501457 108.3749771
  52.0789385 115.3576035 109.3033218  52.0356703 114.5851464 108.0023861
  59.8408270  35.4960895  21.8563024  59.1969633  35.0264144  22.3864690
  59.4268465  35.5824041  20.9975854  50.5202532  39.3015218  67.4445009
  50.1029587  39.1861987  66.5908051  50.2205515  38.5531807  67.9606342
  59.0976381  37.0486951  17.9151384  58.3907223  36.4845514  18.2285825
  59.7102690  37.0952201  18.6491433  88.5830212  42.6815987  86.5761662
  88.7102509  41.8623495  86.0977554  88.1285572  43.2525730  85.9567451
  72.3021555  59.7252750  84.2774010  71.6589069  60.2347422  84.7702503
  72.7135372  60.3610611  83.6919308  51.9993401  49.8948050  81.5569878
  52.8202629  49.4667149  81.8000126  52.1230030  50.1482248  80.6422710
  60.5725002  44.6804953  95.6848145  61.3701534  44.4315720  95.2178955
  59.8902416  44.1263866  95.3057098  74.3886423  39.6407890  99.5061016
  73.6734533  39.0982175  99.8382950  73.9516544  40.3642654  99.0568161
  86.0049915  73.0875158  99.0659714  86.8316269  73.5113859  98.8352394
  86.2535858  72.3952389  99.6784973  45.0838709   5.9782577  73.1076097
  45.7781887   6.5940988  73.3418989  44.6560764   5.7721090  73.9387131
  74.8555851   0.1475129  77.0346689  74.2093325   0.2676706  76.3388586
  74.3512106   0.2193840  77.8450203  79.5166063 141.3106663  89.7729397
  78.9688444 140.5624152  90.0102329  79.3159008 141.9735275  90.4336739
  34.6544433  35.7372475 105.0090599  34.4901109  35.1080251 105.7114124
  34.5981455  36.5923429 105.4355240  64.0072060  25.4901600  85.5627251
  63.4989977  26.1705256  85.1210690  63.4616470  25.2267575  86.3038158
  63.7231827  13.8845050  14.7392408  63.0454350  14.5577192  14.6786538
  63.4051704  13.1737053  14.1825906  84.2121410 130.1761694 105.2330017
  83.6641407 129.5430739 104.7691917  84.6750736 129.6562738 105.8899879
  38.3398080  15.7028174  92.4435902  39.0543151  15.2209651  92.8601551
  37.6386929  15.7023430  93.0952549  32.5343037  20.5757475  17.2087613
  31.6515326  20.7162642  16.8664113  32.9112744  21.4536786  17.2667352
  55.5174828  47.5799036   5.6785623  54.9488735  47.5161934   6.4459268
  55.0566292  48.1755638   5.0877706  38.9348817   5.8554918   2.0089570
  39.7672439   5.4013634   1.8779222  39.0367961   6.3050783   2.8478376
  28.7932658 137.8881306  11.4760438  28.8260651 137.8315092  12.4310056
  28.1343770 138.5593528  11.2984029  50.1374340  18.9855504  94.7551346
  50.0207090  19.3319643  95.6397820  51.0708666  18.7810862  94.6992016
  45.2410030  12.4095118  80.4624653  44.3654203  12.7951300  80.4922867
  45.6315517  12.7635491  79.6634912  79.5182896  17.5124264  10.2085248
  79.1763258  18.4018350  10.1177255  80.4692745  17.6172936  10.1790944
  66.0342884  38.5991788  96.8276215  65.7435417  38.1108117  96.0574245
  66.8103743  38.1281304  97.1310043  50.1354933 135.3435058  11.0093347
  50.3940678 135.2910299  11.9294492  49.2879868 134.9000640  10.9730474
  78.5768604  40.6945229   5.4792253  78.9277315  41.1102200   6.2668363
  79.2550087  40.0732613   5.2139417  62.5024557  49.0984392   2.4182264
  62.8986931  48.5456276   1.7447130  63.2330894  49.6053600   2.7723924
  52.6397657  51.0723162   2.3588888  52.1446800  50.3303099   2.0116941
  52.9810286  51.5167284   1.5828267  91.0103893   8.2414329  13.2457296
  90.7376194   8.1357598  14.1571370  90.7078838   9.1171408  13.0051843
  69.3211794 140.8706129  86.9167328  69.5594883 140.0219805  86.5435600
  68.5256624 140.6961990  87.4196911  64.3493938  33.9864039   4.0616933
  64.1229010  34.8648334   3.7562410  64.0536976  33.4054494   3.3607713
  45.4807234 136.5459371  96.5973949  44.8447180 136.0012264  97.0611000
  46.2929773 136.0401446  96.6228867  55.9444571  28.3348751   6.5576021
  56.8868637  28.4070063   6.7089216  55.8481789  28.4066415   5.6079618
  41.2474442  50.6814146 106.2971497  41.2398052  49.8074961 105.9067249
  40.4259253  51.0795259 106.0093117  41.5026474  47.0673418  93.4365845
  42.0376444  46.4973307  92.8842258  42.1170187  47.4251032  94.0775108
  91.4099598  75.7531357  77.5678253  90.7100964  75.1547861  77.8293467
  91.9341564  75.2505922  76.9441938  41.8941689  10.2222705  89.7347736
  41.7079163  11.0715163  90.1351738  41.0318232   9.8412776  89.5691395
  58.1370354  56.4755821  84.1553497  58.0475760  55.5340433  84.0079021
  59.0677357  56.6521502  84.0180397 100.5445385 135.8829314 100.4631996
 100.1103592 135.7112283  99.6275902 101.4505577 135.6076116 100.3233719
  52.2216272  29.3608236  81.0606289  51.6024065  29.3536973  81.7905235
  52.9746628  29.8513103  81.3901615  44.3217039  41.8812275 107.2022343
  44.0901327  41.2597942 106.5120029  44.5569658  41.3319254 107.9500008
  52.4917078  49.2240572 102.7665806  53.0650187  48.4857798 102.9727364
  53.0815220  49.9754286 102.7050400  45.8953953  31.8231940  35.7992879
  45.5724382  31.0895586  35.2761117  45.1059961  32.2988963  36.0577241
  65.1939821  42.6400709  83.6951256  64.6457529  42.3414230  84.4207191
  64.7795057  42.2722864  82.9146290  45.4366350  46.8975449  77.3800373
  46.3415909  47.1520090  77.1996641  45.5103016  46.1831856  78.0128860
  81.7126179  33.2393217  60.9311914  81.2027168  32.4629092  60.7000828
  81.6316700  33.3045268  61.8827295  59.4681072  46.4143467   5.5928270
  58.9350510  46.6289997   6.3583413  60.1780605  45.8738184   5.9392778
  75.3318167  30.7946515  86.5808392  75.5436707  31.2918615  87.3708630
  74.4513702  31.0857463  86.3435459  59.9402523  18.8356376  82.2560787
  59.2821789  18.2589793  82.6441956  60.1372242  18.4376848  81.4081001
  57.8744268  13.4633911  68.7641096  58.5589457  14.0750122  68.4928417
  57.2317076  13.4935570  68.0554247  62.4779463 103.1092853 106.8355465
  62.4724579 102.1731920 106.6357231  62.0502234 103.5174055 106.0827351
  51.9108391  36.5798950   2.1944658  51.7338037  37.1363258   2.9529420
  52.6758051  36.0639954   2.4492208  59.2943478  34.4010282 102.9633999
  59.0184546  35.3172350 102.9373360  59.0213299  34.0931773 103.8276482
  78.3788919 145.4074743   6.5957776  78.9393568 146.0146430   7.0789472
  78.8059330 144.5565977   6.6951696  56.4037752   1.5802985   0.0274030
  57.1096468   2.2126402   0.1620141  56.8312502   0.7264292   0.0937692
  33.5660696  34.4511127  89.2096329  33.7564373  34.2047644  90.1147842
  33.6914563  33.6441255  88.7103462  59.3142796  29.7259188  82.5793648
  59.4041204  28.8818312  82.1370029  58.7801123  30.2523685  81.9845963
  73.7301111 145.9315539  11.0593263  74.3345356 146.4820046  10.5614225
  73.5785580 145.1723234  10.4964486  63.7963057  27.4213147  10.2116052
  63.4601641  26.5264750  10.2616445  64.1241980  27.5042748   9.3161527
  38.0549812  51.1532974  91.9019222  37.1738267  51.5011930  91.7649364
  38.5175109  51.8494892  92.3684120  90.7009506  13.1369746  81.7085361
  90.7097530  13.8244665  82.3745060  89.9064827  13.3046889  81.2016487
  71.9033003  26.0171962  23.1412259  71.4701986  26.0845256  22.2902719
  72.4684525  26.7885590  23.1840268  44.3827724 137.1539844  83.0265522
  44.1306591 137.9156739  82.5045395  45.0731421 136.7313642  82.5156498
  70.1979017   3.0757099  12.6475374  70.4360008   3.3628213  13.5290757
  69.2633104   2.8769499  12.7046338  48.0781221  15.4998982 109.1329956
  48.6929798  14.8878574 108.7285328  47.2186184  15.1014411 108.9961720
  35.1435375  34.3126297  83.2468987  35.4223847  35.2190995  83.1173325
  34.3238068  34.2419600  82.7577400  92.0197964   3.8767916  10.6461183
  91.2398529   3.4038913  10.3557912  91.7198753   4.7764558  10.7760660
  62.1758413  35.3598452  22.9630700  61.3226700  35.4818535  22.5466100
  62.0440960  35.6454134  23.8671247  34.3184161  14.8847032  84.8076439
  33.4580970  14.8274255  85.2233410  34.7394919  14.0498757  85.0125504
  56.2336826  15.9308600  85.1391697  56.0483122  15.0148380  84.9323559
  55.4081583  16.2700915  85.4850960  45.7929373   8.7036848   0.5465070
  46.6485405   8.6979949   0.1173917  45.4030991   9.5401543   0.2923814
  48.9221525   9.9916589  15.9009878  49.7104692  10.3294444  16.3260690
  48.1999302  10.4188633  16.3615552  46.2590551   7.3089701  51.2573568
  45.6602573   6.7549324  51.7580549  45.9708595   8.2025546  51.4435712
  23.1300950 144.5353878  77.3123598  22.7595496 143.7910710  77.7866173
  23.0254936 144.3069578  76.3887215  55.1641369  46.7974663  30.9536306
  54.7855949  46.9017076  30.0806562  56.0703754  46.5351295  30.7919542
  66.0826254  38.9497781  34.9606077  65.4307127  38.4052253  35.4018632
  65.6452036  39.2483544  34.1632692  55.5289507  27.5557804  12.9483167
  54.6102381  27.7194452  13.1614248  55.9797668  27.5868535  13.7921277
  51.7109871  31.6139936 103.2288170  52.2790527  31.3829303 103.9637566
  52.1220636  32.3871565 102.8422070  81.8932056  32.6139998   0.3471319
  81.9622898  32.2333717   1.2226812  81.0857296  32.2454834  -0.0112113
  77.4478722   6.2713820 101.5064716  78.1590939   6.7233115 101.9605160
  76.6761589   6.8132341 101.6710377  67.3163223  75.0698853  94.8581505
  67.5398827  74.2216158  95.2411556  68.1185246  75.3536272  94.4197464
  68.0540419  10.6073296  63.8055706  67.5150251   9.8174065  63.7641716
  67.4269772  11.3185883  63.9364672  38.4825993  29.6992612 109.6404457
  38.5899615  30.5540752 110.0575829  38.8079977  29.8251557 108.7490940
  43.0105782  20.0984669  98.4483910  43.4474325  19.3380582  98.0647659
  43.1161022  20.7901335  97.7951813  48.8567066  22.0993638 108.1183434
  48.5234070  22.7484202 108.7379169  49.7777224  21.9922209 108.3560181
  64.9248457  42.2450066  30.7102243  65.1935577  41.5452957  30.1148835
  63.9859629  42.1062422  30.8346311  60.2898884  37.7691674  28.9208165
  59.7649479  37.7094603  29.7189943  59.7097397  38.1851530  28.2831518
  54.6311331  18.5067928   4.5488778  53.8082218  18.5352039   5.0369684
  54.5086288  19.1338587   3.8361303  56.4261580  37.9954934   4.9223462
  57.0953083  38.1007576   5.5986539  55.9950113  37.1687126   5.1386300
  84.4607544   2.7477518  75.7728386  83.6923885   2.6797253  76.3395977
  84.6337891   3.6874461  75.7157087  84.9943829  19.6429622  83.7245750
  84.2586803  19.7004580  83.1149292  85.5041218  18.8943088  83.4148788
  26.9813251  26.8153739 104.8654366  27.5030160  27.5656009 104.5804214
  26.1218643  27.1845841 105.0685215  51.0508633  46.9091177 104.5913410
  51.7009211  47.5957823 104.4425011  51.4587116  46.3283730 105.2336979
  45.1825809  36.2750936  13.6466733  44.9015474  36.3302398  14.5600263
  46.0462523  36.6876531  13.6365072  50.1927805  18.7667322 105.8392143
  50.4412508  17.9201376 105.4680347  49.5171261  18.5565996 106.4838600
  78.1394768 145.0343562  62.5526953  77.1963644 145.1847104  62.6172256
  78.2251215 144.3155243  61.9264555 106.3166714  46.3922358  18.8113061
 105.6429005  46.4301014  18.1324712 105.9259605  45.8639336  19.5073549
  53.3274174  37.5450444  78.3288622  53.3179283  38.5011601  78.3734274
  54.1253328  37.2915530  78.7928724  56.7854309  51.8728733  82.0969486
  56.2282753  52.4074125  81.5312004  57.4648666  52.4744463  82.4014473
  74.3488359  72.8519583 109.0707207  74.8220205  72.2269678 108.5214329
  74.9628258  73.5760069 109.1931915  50.6117964  32.6734853  84.1315269
  50.8757162  33.2702255  83.4311867  50.4154539  33.2462263  84.8729134
  34.7231960 136.4094848 102.4850082  34.2384100 135.8914311 103.1275272
  35.5902576 136.0049970 102.4562645  96.4458561  40.9703493  22.2495881
  96.2634754  40.5321932  21.4183275  96.2273884  40.3193521  22.9164544
  76.6107607   8.3850461  87.4841881  75.9697008   8.9863050  87.1050358
  76.9384098   8.8416886  88.2590199  77.3760509  20.8491135  89.7398853
  76.8374109  20.5583549  89.0039730  78.1867933  21.1583900  89.3358135
  67.2698832  32.3212957 100.6625366  66.3501644  32.0731950 100.5687428
  67.5559330  31.8821573 101.4635086  80.7350254  22.3528957   4.0078965
  81.2688160  21.5591621   3.9720384  80.0959015  22.1806788   4.6993390
  67.4025059  26.8639827  70.3657103  67.1954823  27.5621462  69.7444677
  66.6251564  26.3054538  70.3661060  58.9202929  21.1703777 102.3003197
  59.1990042  20.8596134 103.1616974  58.3524752  21.9178772 102.4875641
  91.3329601   6.3917357  10.9126321  91.3220119   7.0217502  11.6331903
  91.1506367   6.9163215  10.1330224 102.4864388   3.0031392  85.5453300
 102.9142094   2.6909885  84.7479630 102.5600433   2.2718969  86.1585999
  60.2388954  22.8198409  93.2982635  59.5460558  22.7057242  93.9487934
  61.0390949  22.9151821  93.8148117  79.8873854 111.5482540 105.7987404
  80.2491379 112.0941968 105.1006603  79.7414255 110.6971020 105.3858662
  58.7418318  39.3962264  94.2851830  59.6691799  39.2699933  94.0843773
  58.5084438  38.6404181  94.8241806  56.2823391 123.5361762  22.7249090
  56.3664198 124.3038697  23.2904283  55.6754446 123.8104648  22.0373956
  51.9469833  32.1564841  87.3451805  52.4165630  31.3512301  87.5626373
  52.4654865  32.5547576  86.6460609  43.2747078 132.3870439  19.8408357
  43.7641954 131.7491133  20.3601495  43.1884146 133.1478340  20.4152814
  69.0845490  65.4943228  78.4241867  68.8624811  64.5649910  78.3670902
  69.9390459  65.5629969  77.9983282  25.8165741  46.8888092  93.6854649
  26.2769055  46.1895132  93.2214451  26.2910366  47.6858282  93.4490871
  89.8575592  45.3262520  28.3256284  89.0457344  45.2845573  28.8310281
  90.2555847  44.4632959  28.4401647  63.9100122  38.3984113  83.7966728
  63.1817961  37.8425026  84.0739822  63.5644770  38.8926315  83.0533123
  70.8449602  26.0616541  17.7120439  71.6151762  25.5057406  17.8301946
  70.4074144  25.7036734  16.9396249 104.1533279  15.6064868  54.6249676
 103.9453793  14.6858311  54.4656563 104.1304016  16.0107660  53.7576342
  62.1214581  31.2723327  15.2694265  62.3523664  30.3434348  15.2613584
  61.1669397  31.2812471  15.3404752  76.5291500  62.1192837 105.6071281
  77.1450901  62.5546980 106.1964226  75.8579540  61.7583513 106.1863136
  64.5555735  55.2649593  80.9539795  65.4711771  55.4820776  80.7785988
  64.5404911  54.3089294  80.9989071  33.4646463 126.3573188  26.8180505
  33.5333586 127.2937162  27.0042459  32.8288770 126.0323710  27.4555723
  66.0871267  39.1135120  15.1707879  65.9118366  39.1425109  14.2302266
  65.2248716  39.1975832  15.5778257  40.6818342   9.7491574 105.5753040
  40.2850628  10.1927853 104.8256397  41.3905668   9.2282164 105.1977444
  21.3027048  38.6853456  95.8415699  21.0089684  38.3972216  96.7058277
  21.9377398  38.0221891  95.5710506  59.5561218  42.4243307  83.8835907
  59.0881300  43.0303907  84.4579601  60.4632902  42.7291965  83.9019012
  62.7270222  15.0480413 102.5668716  62.5879574  14.2046475 102.9976559
  61.9454670  15.5577779 102.7803421  60.5666780  47.2254467  95.1026630
  60.4077673  46.3147974  95.3510380  59.9097013  47.4086714  94.4310665
  50.0320387  15.8884084 104.7939777  49.2534494  15.6662917 105.3045559
  50.7551241  15.4798555 105.2698612  51.5696096  14.8513722  21.5325586
  51.8805218  15.7074380  21.2380735  51.2285805  15.0101972  22.4127332
  19.3781984  34.4952464  89.2626953  20.3161335  34.3118644  89.3163681
  19.0216923  34.1631913  90.0866318  81.3882637  17.0288014  90.5142593
  81.1105728  17.9017746  90.2367115  80.7613659  16.4352965  90.1007652
  55.4456472  28.5608315  96.3108540  55.3396654  29.3030214  95.7157516
  55.2985382  27.7906823  95.7618046  36.4773703  19.0476656  43.9495182
  36.7815089  19.9020088  44.2558336  35.6192875  18.9378858  44.3592453
  41.7100954  30.4949260  32.6834623  41.0627890  31.0654426  32.2690526
  41.7815542  29.7451019  32.0927945  57.3986292  16.2188292  98.2668972
  57.6804829  16.7713881  97.5378799  56.7698288  16.7578351  98.7468052
 107.8402805  47.6069880 107.3523521 108.5514069  47.2882700 107.9081917
 107.5855160  46.8465519 106.8297958  90.8357334  23.8788700   3.4543363
  90.5560398  24.0821719   2.5617734  91.7894840  23.9562201   3.4299508
  72.0714569 131.1818237  83.0303001  71.4770174 131.9262225  83.1238079
  72.7649498 131.5002186  82.4524403  85.8429146  45.1616430  86.0589886
  85.4169273  45.1549911  86.9161510  85.1729298  45.4931736  85.4611301
  95.0968075  12.2306645  86.4130306  94.3638420  12.6760435  85.9880352
  95.2226067  12.7063930  87.2340679  89.9560833  37.2091603  98.8928223
  89.7061348  36.4438963  99.4106293  89.9770355  36.8911719  97.9902267
  65.3942823  30.3748465  74.6945763  65.9084892  29.6331310  75.0134468
  66.0466719  31.0029364  74.3845415  50.9879875  15.3582227  88.0869198
  50.9828520  14.7280693  87.3664284  50.3890610  16.0495305  87.8047657
  60.3162193  23.3320522  89.2953873  59.7803450  22.6100826  88.9670086
  59.6828032  23.9972091  89.5647907  49.2092562  17.2016013  76.3181925
  48.4194088  17.3890960  76.8253613  48.8872480  16.7859507  75.5183315
  74.6834421  40.7245588  15.3321210  74.0556860  40.3531790  15.9519903
  75.1174164  41.4239264  15.8207647 105.7045364  24.5819426  98.9094543
 104.8854923  24.9506831  98.5786438 105.4419422  23.7762356  99.3545437
  95.6648922   7.2317612  93.5711193  94.8268223   6.7986071  93.7331295
  96.3137436   6.6581303  93.9787674  51.0079575  33.6083698  76.8847466
  50.3296041  33.9056802  76.2783861  51.8253422  33.7061000  76.3963223
 100.4517365  54.1550922  97.0389843 100.5786514  55.0111914  96.6300583
 100.2261734  54.3547297  97.9475594  74.5488596  55.3180265 105.1223087
  73.7127304  55.2946329 105.5876923  74.6631670  54.4275618 104.7902870
  60.4227018 144.1378204   4.0379659  60.7384205 145.0412799   4.0202371
  60.0440216 144.0335216   4.9108735  83.6791801  40.1684952   8.5839216
  84.5687866  40.5218267   8.5854760  83.7896347  39.2424965   8.3681432
  80.3353310  11.6983807  11.0307447  79.7726822  12.1797264  10.4241411
  79.8602962  11.7138946  11.8616048  47.3225975  51.0894299  99.6877766
  48.1195021  51.0467434  99.1592312  46.7846489  50.3647184  99.3689728
  78.5243559  19.8229039  98.5290241  78.4455967  19.1498709  97.8529644
  78.2501554  19.3857908  99.3352318  75.6883192 139.5710922   3.1350747
  76.6346025 139.6163917   2.9982129  75.4741287 138.6449558   3.0227128
  26.4308310  28.9938736  68.5780001  26.0650420  28.2484245  68.1018305
  25.7141113  29.2971277  69.1352987  91.2759399  31.8838644  30.9156743
  92.0895195  31.3904881  30.8112089  90.9505653  31.6291785  31.7790929
  68.5496759  28.1250191   3.4552518  69.4671631  28.3105683   3.6553041
  68.0953598  28.2353640   4.2905084  79.2995358  43.2095432 106.8859196
  79.9115896  42.9397631 106.2012005  78.5957813  43.6564684 106.4155769
  80.5399990  11.6997123   5.6888715  79.5999813  11.5422082   5.6006662
  80.6127644  12.3100722   6.4226285  89.1753292  55.7320166   4.9966852
  90.0086689  56.0811996   4.6806947  88.5119247  56.2838793   4.5824663
  28.3214617  22.8194475  15.1707116  29.1580224  23.1680417  15.4787389
  28.0987906  23.3635998  14.4153634  55.4864740  49.8285294   0.8972780
  55.4671383  50.7691717   0.7210580  54.5689201  49.5586681   0.8584634
  74.2962980   6.7777020   6.9526521  74.3303108   6.6066158   6.0114805
  73.6151838   6.1894071   7.2785703  86.2144852 142.1924941  20.0859205
  86.4637089 143.0485953  20.4340688  85.8746910 141.7156706  20.8431569
  55.4294920   4.0533221   8.2083741  54.7357464   4.5884958   7.8229753
  55.0701714   3.1661788   8.2181493  79.7305441  25.5923724  17.1568910
  79.4330072  24.7710538  16.7655603  80.0151825  25.3487110  18.0377046
  83.3749199 141.5605310  10.6095258  83.4876823 142.1258772  11.3736669
  84.0160370 140.8605243  10.7327977  67.1745348  23.0925751  80.3625393
  67.8054333  23.3422518  81.0377121  66.3255596  23.3525777  80.7201290
  30.8591247  41.5063047   5.7267324  30.9516740  40.7076168   6.2461225
  30.1488352  41.9872570   6.1514703  84.4483662  12.0326686  39.8616449
  83.8372993  12.7261591  39.6128503  85.0318623  12.4447930  40.4987565
  60.7562160  25.4459953 109.0436172  60.8463955  26.3726521 108.8213348
  59.9377108  25.1780438 108.6259079  49.3224525 128.7632210  22.0110742
  48.8865137 128.0760140  21.5071527  50.0500202 129.0427394  21.4554254
  45.3101397  12.7132499 104.2022610  45.9132671  12.5086474 103.4876919
  44.4469166  12.7321744 103.7890816  50.1095533  34.3927002  36.1039201
  49.7236156  34.3243790  36.9771901  50.9215021  33.8889790  36.1608068
  40.4042578  23.0713058  19.4572202  40.4812241  22.4916315  18.6994020
  40.6061935  22.5125170  20.2076856  55.9323406  45.0121021  91.8353748
  55.1958179  45.4883671  91.4520550  55.5334234  44.2463160  92.2484970
  62.4168825 137.8653247  94.7043228  62.1834135 136.9452972  94.8279095
  62.9848671 137.8668846  93.9338493  62.9524755   7.6890409  88.4434319
  63.2191610   7.3199260  89.2853737  62.4953556   6.9731635  88.0020809
  39.6737194 138.8502974  65.8426523  40.5957699 138.9972980  66.0534811
  39.2622948 139.7069300  65.9572887  48.9684439   0.6218640   6.2068120
  48.5198116   0.2228424   6.9522992  49.1058397  -0.1012702   5.5949060
   8.9721751  38.8097143 107.5105095   9.1445297  38.9578009 106.5806675
   9.1214240  37.8725147 107.6354694  65.2424765  29.7328424  84.6130657
  65.4181480  29.6729875  83.6740303  66.0547495  29.4421124  85.0276947
  71.1565781  81.1804104  90.5578804  70.4067135  81.2895775  89.9730587
  71.0889244  80.2774048  90.8680916  46.4996290  28.4908867  87.4347782
  45.7042551  28.9796782  87.2233677  46.4113951  28.2803488  88.3643627
  71.6350365   8.1461674 109.9724865  72.0361328   8.8069028 109.4078827
  70.8735991   7.8402877 109.4796562  82.5021744  29.4306612  84.1880322
  82.0542622  28.5865402  84.1326427  82.8933716  29.5514607  83.3228111
  89.1602135  13.3046949 105.0431824  89.6024895  12.8227317 105.7419872
  88.4024811  13.7042832 105.4702568  48.1419325  56.5232706  21.9288675
  47.3752928  56.3883448  22.4859086  48.1489229  57.4644995  21.7548982
  78.1150150 139.6980567  43.9124060  78.9678717 139.8451121  44.3213606
  77.7338600 138.9728821  44.4074583  52.9355526  29.5697188  78.4308910
  52.0308542  29.8293352  78.2566595  53.0839396  29.8163819  79.3437815
  79.3559408  17.6274467  67.8005505  79.7377586  18.4994411  67.9009104
  79.0273237  17.6118767  66.9016600  76.8825579  39.1603041  96.4622974
  76.8607569  38.4006739  95.8803082  77.7664995  39.5135975  96.3619900
  49.3302727  53.3713865  86.8818951  49.6537924  52.4725389  86.8215084
  50.1121330  53.9145470  86.7823792  66.4480972 140.0774492 102.1615028
  66.6121626 139.5512641 102.9440880  67.1186972 139.7963823 101.5389824
  56.7249584 146.2071636  52.1533155  57.5535822 146.2761333  51.6791248
  56.3332748 145.3941926  51.8341064  76.3844109  66.4425325  23.3886663
  75.9012890  67.0051432  22.7834359  77.1359348  66.1351061  22.8817788
  69.9323702  53.9442492  76.7009401  70.4866886  54.6643734  77.0015764
  70.3238392  53.1621552  77.0899343  34.9300003  61.4137459  92.8964233
  35.2474070  61.3713217  93.7984657  34.1141081  60.9132814  92.9058266
  35.8916330   9.3447709  94.7206688  36.0763621   9.3580252  95.6597805
  35.2264762   8.6642957  94.6169853  24.3197632  27.1981931  59.7138309
  24.6909165  26.3624859  59.9967957  23.3831167  27.1175027  59.8938704
  50.3264523  49.9705267  75.6529522  50.5937719  49.3883944  74.9416924
  51.1191034  50.4601860  75.8724308  72.4971962  21.5125227 104.2152023
  71.9986773  22.0391798 104.8399734  72.0562458  20.6629443 104.2125607
  78.4367132  40.0995398  62.2183847  78.3118773  39.4008064  62.8605890
  77.5663280  40.4825163  62.1088934  42.6794577  45.7078886  96.7414665
  41.9667864  45.3661442  96.2015247  43.0301142  44.9385214  97.1901894
  34.1230106  28.1002474  14.6363107  33.6766887  28.9470220  14.6357099
  34.2244935  27.8836489  15.5631486  81.1420250  28.1196308  52.7550840
  80.9666443  28.8226032  52.1295404  81.8885040  27.6493573  52.3838186
  42.4148941  18.7910998 102.6787090  42.2464991  17.8790247 102.4420834
  42.7110481  19.1989088 101.8649483  14.1784990  13.7693644   3.0284063
  13.7952459  13.5505652   3.8778058  14.5887554  12.9561484   2.7341310
  56.2998438  22.7412605 101.2391090  56.1185503  21.9929504 100.6704330
  56.4509058  23.4692121 100.6361961  69.5481014 140.9443677  99.8487854
  69.2436266 141.8490733  99.7778225  69.7232580 140.8231092 100.7819843
  82.3069572  19.2027557  97.7441978  81.9023800  18.6677063  98.4270382
  81.9642067  20.0835752  97.8955460  26.9262910   2.0939969  67.3611116
  26.0409331   2.3754865  67.5916243  27.2688651   1.7000316  68.1633997
  66.0725069  58.3939219  81.3403606  65.6565905  57.9104519  82.0541573
  66.9846678  58.4884501  81.6147041  70.6970882  43.7257767  84.8169804
  70.9017229  42.7938652  84.8937416  69.8352337  43.7482882  84.4011307
  36.5876269  73.8272381  70.2600670  37.4424815  73.4460163  70.4603767
  36.2057400  74.0219736  71.1159134  50.7361078  25.6394315 104.7800732
  50.5158615  26.0351682 103.9367962  50.0146198  25.0358248 104.9571133
  59.0583754  51.6358709   3.9253656  58.7649441  51.8470716   3.0390683
  58.6726952  50.7789564   4.1075269  71.4045811  36.0520029  63.9383030
  71.0396767  36.0493731  64.8232174  71.6050482  35.1333332  63.7591600
  99.4255924  49.2980003  95.3879356  99.9114799  48.8781929  96.0978031
  98.8021088  48.6321211  95.0979424  58.6695719  34.7335434  73.5460901
  57.9653263  34.4876146  72.9462671  58.8932323  35.6305504  73.2979345
  24.3317986  34.1375566   0.0240365  25.0757742  34.5610595   0.4522649
  23.7361073  33.9182377   0.7404748  63.4741926  49.3601084 102.0024586
  63.7610435  50.2147865 101.6807842  63.7158251  48.7488699 101.3065910
  61.2166262  54.8335934  91.3820934  61.0468960  54.2793512  92.1438313
  62.1254873  55.1146078  91.4881039  21.0857725  17.8433406  89.5270348
  21.4625192  18.7000489  89.7278881  20.2106261  17.8698909  89.9138737
  35.2350402   6.5404910  81.2444401  35.2789450   7.4532771  80.9596157
  35.7871842   6.5065205  82.0256042  71.6368008 133.1383509  90.7131481
  72.5389338 133.3926387  90.9073734  71.2695360 132.8914375  91.5618992
  34.8814917  57.9323673  77.8713369  35.7515907  57.7183008  77.5346804
  35.0139236  58.0655527  78.8099289  54.9584246  26.2436199  94.8986626
  54.1338301  26.4013958  94.4388962  54.7350454  25.6100678  95.5805302
  90.0236607  22.3498154  68.9756060  89.2219925  22.8728247  68.9814186
  90.7171822  22.9720569  69.1948652  59.7390223  10.3620946 101.9067764
  59.2113066  10.7052696 102.6278687  60.0483179  11.1410904 101.4444637
  65.8460236  66.9644165  93.9577389  66.6747475  66.5043211  94.0909863
  66.0854912  67.8911209  93.9476490  74.5615959  48.8060760  69.3690729
  74.4537973  49.6887350  69.0147781  75.4652739  48.7830400  69.6838236
  47.9028606  32.5311518   2.0597116  47.4572992  32.3902416   2.8950921
  48.3275032  33.3836341   2.1555559  35.4550600  44.1466141 108.7707424
  35.2888727  44.4240427 107.8698349  35.9748149  43.3475924 108.6832905
  67.5565386  54.1399527  68.4026575  67.2152328  53.2457781  68.3887959
  67.8487158  54.2987394  67.5050783  32.7098680  55.4769230  83.3760643
  33.3425355  55.3673935  84.0859699  32.2407007  54.6432543  83.3426189
  74.7880173 133.2349140 106.9791985  75.5547905 133.2849390 107.5499821
  74.4608736 134.1335411 106.9382668  44.8974991  71.9630527  87.9838848
  44.5014048  71.0923624  88.0191231  45.8253574  71.8115377  88.1637573
  72.9915333  45.0471783  37.0972538  73.6679411  45.4758549  37.6216030
  72.5847435  44.4213152  37.6964569  54.8833227  25.9345341  78.0307007
  55.0501680  25.9351373  77.0881557  54.4164562  25.1143861  78.1907701
  62.5950146  10.2496934  75.7118511  62.6971197   9.6091479  76.4157724
  62.5307274   9.7223395  74.9156141  83.8996792  62.4397135  86.6837120
  83.1427097  61.9630527  87.0243359  83.6661243  62.6445913  85.7783318
  66.6274309   4.9223772  85.9819984  67.1927929   5.1285911  86.7263603
  66.8535376   4.0211660  85.7519436  89.1356564  56.3703489  58.1229591
  89.1107559  57.0622110  57.4619436  89.2593193  55.5643988  57.6215744
  45.6060123  31.3180518  81.1629295  44.6857834  31.1790228  80.9391308
  45.9049845  31.9843125  80.5441093  49.0575171  45.8448315  87.0757866
  49.5644522  45.4982042  86.3415527  49.2160463  45.2267504  87.7892876
  83.8775063  41.2602377  80.6619072  83.1435013  40.9667063  81.2016392
  84.3677330  40.4610157  80.4691601  79.2799377 145.6802274  80.4296684
  78.4262323 145.8606348  80.0361252  79.0747404 145.3246669  81.2943649
  79.3565369  47.6622248  82.0895100  80.3096581  47.5897408  82.1398544
  79.0351582  47.0737362  82.7726078  77.7939653  51.4504814 101.3875389
  77.3222446  50.7707453 101.8688583  78.4760809  51.7425632 101.9922161
  66.9631767  83.1655979  63.7805748  66.8133831  83.9087677  63.1962013
  66.8470526  83.5252380  64.6600151  84.4536972   3.4874508  58.7001896
  83.9318466   3.6506492  57.9145193  83.8463402   3.6328083  59.4255972
   7.0697194  34.0992498  87.8110027   7.6098156  34.8439026  87.5463867
   6.2606013  34.4938421  88.1363487  63.7337017  19.2453277  89.4954681
  62.9402733  18.7113118  89.5345592  63.5541582  19.8913980  88.8123894
  50.4034567   2.8972712  81.4193058  49.7142410   2.3932742  81.8519688
  50.2408314   3.8024333  81.6847610  73.3866405  29.2388606  75.7677937
  73.8898277  28.6558175  75.1993799  72.9674816  29.8555040  75.1675510
  36.7057014  32.7738857  66.3762808  36.4518452  32.6727200  67.2936440
  37.6442456  32.5861359  66.3653803  51.6046429  32.6352167  96.6308880
  52.0864677  33.4195065  96.3682652  51.8126059  32.5258565  97.5587940
  72.7569008  46.4565372  89.6099854  73.6106110  46.5270710  90.0371075
  72.8856325  45.8013773  88.9241123  35.0406981  15.6763697  91.3579750
  35.7075596  15.0284505  91.1305332  34.2237306  15.3070402  91.0227203
  61.5351105  14.4847751  88.5513496  60.6344032  14.7838092  88.4266949
  62.0082045  14.8268986  87.7928257  60.5683661  12.1488678  94.2321682
  61.0809517  12.2508502  93.4302425  60.2400684  13.0281639  94.4200325
  68.7802219 144.5862661  94.9297523  68.6345720 144.5603462  93.9840508
  69.3913460 145.3117082  95.0581741  60.7377911   1.9388346  60.5394316
  61.3325834   1.2797499  60.8972836  61.1495495   2.7755257  60.7553720
  72.2094202  38.7228799   7.5530378  71.2988567  38.8894510   7.7966729
  72.3463249  37.7975869   7.7563039  59.6278811  31.5566111 107.1521091
  58.6885452  31.7295361 107.2151756  59.9411821  31.6033053 108.0553818
  53.5045671  37.5618625  84.9801731  52.7372551  38.1337810  84.9608898
  53.1436920  36.6798592  85.0700188  73.6544418 146.2037383  79.6819830
  72.7625942 145.8570457  79.7074842  73.5414124 147.1539024  79.6565819
  74.7571993  41.1770296  87.8134632  74.1620302  40.4317331  87.8943348
  75.3911448  41.0550833  88.5202026 101.7349529   4.3241864 109.6931458
 101.1955833   4.6432781 108.9696121 101.2693214   4.6049258 110.4809284
  29.1712236  20.9914136  25.9845773  28.2649422  21.0076261  25.6769697
  29.1088700  20.7155418  26.8990365   4.3605452  23.4615350  80.5550575
   3.5210066  23.4869623  80.0959778   4.4847518  22.5385475  80.7761860
  84.5823097  52.9602051   6.0826246  85.4004288  52.7244186   5.6452314
  84.8467159  53.5665464   6.7744867  63.2066202  30.2584958   5.2654592
  63.2940292  31.0065031   5.8562890  64.0595627  30.1913333   4.8362676
  66.3444853  16.5773261  65.8341074  66.6944599  15.8577693  66.3594532
  65.4559422  16.3004351  65.6103849  55.1950693  36.3395524  83.1566715
  54.6621370  36.8944860  83.7261105  56.0542631  36.3191056  83.5781097
  52.9098463  30.9866190  70.2864027  52.0005560  30.8099246  70.5276537
  53.3822680  30.9896374  71.1188936  83.6651707  46.9212151  89.4513798
  84.4650364  47.4448538  89.4038773  83.8683033  46.1281204  88.9554214
  64.1475582  54.7347784  56.4951706  63.2795000  55.0736380  56.7139816
  64.5375681  54.5115566  57.3403311  70.7910109  13.3600497  62.7352810
  71.1258745  14.0015304  62.1087027  70.7252073  12.5473058  62.2339344
  60.7521057  20.7856131  71.6334295  61.2673616  20.0372410  71.9345665
  60.5524206  21.2754726  72.4311733  68.1682730  43.4162664  68.1571198
  67.6222229  43.2488918  68.9252663  68.1640911  44.3688393  68.0632496
  64.5087099  39.7520137  67.5672245  65.0508785  40.5408573  67.5702906
  65.0387239  39.0988779  67.1103525  58.2001543  44.5813274 101.1446381
  58.4711504  44.7218513 100.2374268  58.4707737  45.3777170 101.6015434
  62.2037983  36.7640328  77.9636240  61.9699144  37.1518517  77.1203423
  61.8225479  35.8864212  77.9376268  79.6692705  17.6207888  79.8666191
  80.1598263  16.8045139  79.7702837  78.8419771  17.4579442  79.4135237
  81.0912800  48.3091021  98.5070610  81.8876266  47.8821850  98.8229942
  80.4085922  48.0211449  99.1130733  83.3283234  37.4678969  84.5709515
  82.6392078  38.1303453  84.6211052  83.6800766  37.5548053  83.6849785
  68.8101673  46.7988014  74.3357754  69.1399145  47.4646711  74.9391985
  67.9127455  46.6357994  74.6261215  43.9210987  48.2122040  87.3182201
  43.0320597  47.8585768  87.3464584  43.9537239  48.7134314  86.5034008
  88.1254768   8.9482415  95.7022476  88.0255795   9.0361679  94.7543430
  87.2288990   8.9030701  96.0344028  81.3030052  69.7795343  82.4449253
  81.8130302  69.4470119  81.7063236  80.6347561  69.1108227  82.5949478
  62.9160547  17.9508829  85.7699299  63.0513716  17.9116058  84.8231602
  62.2320890  18.6102200  85.8869743   1.7344525  52.1065807  14.3383733
   1.4415659  51.7307997  13.5081712   2.5451177  52.5664997  14.1203538
  77.5741005  45.7717180  83.7854481  77.5108147  45.1816273  83.0344296
  76.6952610  46.1402464  83.8752079  40.7717657   2.2018771  47.3049116
  41.6009951   1.9576897  46.8938351  40.8275414   1.8407777  48.1896305
  60.9780979  78.2782078  83.8201809  61.7533302  78.6044073  83.3631897
  60.5219984  79.0676737  84.1116524  64.3342447  12.2577703 104.3376160
  64.6737623  11.9666874 103.4913063  63.3850813  12.2876072 104.2174625
  98.9092159  36.6934419  52.9564381  98.6432648  37.5991750  53.1150293
  98.5908413  36.5012717  52.0744276  28.5663795  36.7849731  67.8071833
  28.2737160  36.6146994  68.7024975  28.5710192  37.7393723  67.7341461
  76.0596800  22.9404593  12.1705285  75.5614758  23.7207437  11.9272558
  76.8195629  23.2793641  12.6437608  56.5609932  24.4405079  98.9395523
  57.4391937  24.5977831  98.5927582  56.2322330  25.3112626  99.1630077
  93.8317966  56.6051912  56.8737841  94.5819187  56.2693834  57.3644829
  93.1944180  56.8463612  57.5459576  65.2058792  36.0811472  68.1587744
  66.1605120  36.1011934  68.0916643  65.0302267  36.1509633  69.0971279
  67.4408722  11.6409576  70.7959032  67.8164625  10.9996438  71.3991261
  68.0681515  12.3639703  70.7939386  72.9213142 143.8091666  98.2081795
  72.8914547 142.8682590  98.0348778  73.3345556 143.8812400  99.0685654
  70.3454208  22.9608774  79.4066048  71.0630274  22.4794030  78.9949560
  69.6848345  22.2935605  79.5924759  89.4495869  38.1162238  51.0348988
  88.5340595  38.2274771  51.2911701  89.5327091  38.6136341  50.2213240
  32.2792029   7.1706885  83.7726402  32.0104003   7.7564317  84.4803715
  31.8697500   7.5379330  82.9892445  69.1706896  48.5001087  78.8617039
  68.3279419  48.2367945  79.2314005  69.8018503  47.8928232  79.2477989
  26.1140943  38.3077049  97.6905060  26.3233066  39.2394280  97.6245213
  26.6958046  37.9795861  98.3762074  75.4618168   5.8791965  87.3161030
  76.2574768   5.3768814  87.1405029  75.7404470   6.7936927  87.2682190
  52.8123951 138.2747091  99.8073196  52.8963184 138.7347365 100.6425190
  53.1052542 137.3828662  99.9946117  93.3254814   7.3000288 107.3326969
  93.5456944   7.2156739 108.2603931  92.9357052   6.4569277 107.1014214
  60.2437592  37.0266247  66.1221933  61.1286592  36.8081713  66.4145231
  59.7049522  36.2943769  66.4217472  65.4683208  35.8057737  94.6939945
  65.1735640  35.5304503  95.5620670  66.2595081  35.2909422  94.5352554
  48.9534426  28.9159751  82.2643375  48.5844088  28.4277987  81.5283203
  49.1972876  29.7632337  81.8916130  36.0236883  33.6416459  57.6198006
  36.2920928  34.4518900  58.0530357  36.8226147  33.3155394  57.2055483
  58.5229111  24.5288968  64.0105247  58.8264942  25.4314303  64.1079950
  57.6004076  24.6112847  63.7687969  70.2685118  37.1018720  73.6799908
  70.7889986  37.7070165  73.1516647  70.7011509  37.0963454  74.5338202
  60.9538937  38.1413674  75.4357147  60.1942348  37.9201317  74.8970127
  60.6732416  38.9018679  75.9447432  78.5437727  38.0632377 100.6864166
  79.2696619  37.6319599 100.2355099  78.5158205  37.6470327 101.5479374
  48.6015034  31.5869761  32.4074483  48.4983540  31.5137792  31.4586401
  48.9731836  32.4588346  32.5414109  44.1707516  12.8315961  91.4465332
  44.1621733  12.7520549  92.4003887  43.2472849  12.8072238  91.1958408
  32.6591802  58.9895010  66.0817957  32.9266214  58.2027769  66.5569544
  33.0581665  58.8942051  65.2169514  82.2393990  44.5078087 105.1569843
  82.0601845  44.0421820 104.3400955  83.1010723  44.1917658 105.4287434
  78.4878445  33.4725523  80.8092594  77.8119183  33.8941383  80.2785778
  78.5682487  34.0309954  81.5825081  42.3315144   0.2438150 107.6347828
  41.8244267  -0.5663826 107.5830936  42.1778727   0.6765255 106.7949104
  34.0573263  31.6247368  84.9320507  33.5347676  30.9986377  84.4308853
  34.7496438  31.8956900  84.3291283  74.5786381  40.5841541  50.5055475
  74.7671938  40.2380848  49.6332455  75.4003572  40.4832935  50.9860086
  74.4421577   6.1751497   4.3400232  75.2857113   6.6248453   4.3892423
  74.1648102   6.2851393   3.4305135  42.3860312  62.5916624  90.7651329
  42.5143051  63.1722689  91.5152550  41.6760588  62.9969406  90.2672195
  68.7359238   5.0019717  75.8842516  69.6230316   4.8572612  76.2133884
  68.8083935   4.8780474  74.9378777  76.1282873  34.2010570  79.8940945
  75.2304029  34.0350819  79.6068764  76.2616491  35.1355410  79.7353840
  35.0008106  23.6310673  71.8582535  34.1152263  23.3314514  72.0636892
  34.9254656  24.0221500  70.9878492  67.7732038  14.5774996  67.3030949
  68.4627676  14.3442440  66.6815424  68.1808758  14.4742739  68.1629658
  50.6327248   8.8048524  63.0857086  50.5836773   8.6067623  62.1505165
  50.8079910   7.9602206  63.5005713  93.1730747  33.1264377  51.0980225
  93.6970997  32.7469158  51.8034220  92.9356289  32.3800278  50.5478239
  59.9588919  37.7286768   9.7506372  60.8003092  37.7130604   9.2945615
  60.1768017  37.5334787  10.6620351  51.6453171  32.1219444  93.8006496
  51.3455200  32.9829216  93.5089874  51.6600275  32.1843219  94.7557068
  20.6902266 118.0200047  71.0610437  20.6023574 118.2107086  71.9949293
  21.6032648 118.2249756  70.8596039  83.9804935   3.7947235  88.9500713
  83.8077354   3.0962348  89.5813465  83.2166862   4.3682510  89.0124798
  76.8572140  43.7524700  81.8831348  77.4773455  43.1062889  81.5453243
  76.4512873  44.1265202  81.1011314  56.1297512   3.9521793  67.1666861
  55.1868296   3.8064590  67.2434855  56.2514782   4.8685935  67.4148798
  56.6867781  24.7114801  50.9153080  57.0557737  25.5676270  50.6983185
  56.8866348  24.1649437  50.1553154  39.4671655  23.9989591  97.0791912
  39.8317242  24.7306943  97.5770855  40.1451540  23.3241630  97.1140289
  81.2369061  29.3736815  55.4057741  80.8442593  29.3384004  54.5335293
  81.0761166  30.2686477  55.7047939  81.7244530  47.0779896 104.5565987
  82.1943760  46.2452078 104.5999241  81.1144543  47.0474195 105.2936172
  35.2954221  39.1791296  80.2539444  36.1330247  39.1041303  79.7967434
  35.3148913  40.0512457  80.6479931  41.4020014   3.7850845   9.6722928
  40.7669258   3.6872780   8.9628259  41.4594221   4.7300285   9.8137704
  92.3031521  27.8579783  32.9837012  92.3792458  28.7500238  32.6450300
  92.0192528  27.3393846  32.2309113  14.6652770 133.9834530  91.3747883
  15.5238199 134.3841309  91.5111446  14.6234679 133.8216014  90.4323006
  45.9341192  31.2977743  92.2554207  45.4069424  31.0470557  91.4968395
  46.6499758  31.8166804  91.8886662  75.6859922  51.2127113  95.6469917
  76.3766432  50.5500841  95.6595516  74.8814440  50.7172203  95.4939365
  67.6078987  37.4010468  63.0316401  68.0554199  38.0855274  63.5290813
  67.5515223  36.6624165  63.6378431  39.7689724  44.5415163  77.0377731
  39.6051335  45.2985525  76.4753819  38.9417601  44.4021225  77.4987745
  96.8290615  21.4033175  68.9586735  97.3970985  21.7140198  69.6636724
  96.3109875  22.1698236  68.7130976  66.5769196 144.2411912  52.7050018
  67.4319887 144.6704582  52.6762915  66.7266464 143.4427405  53.2112551
   5.2307349  27.4388456  87.4695873   4.3935996  26.9943786  87.6033306
   5.0718909  28.3391619  87.7531910  60.1763296  14.4524646  63.2825232
  60.1773834  14.2911077  62.3390245  61.0850477  14.6710372  63.4891462
  50.8096886  21.5694141  75.7103348  50.7110453  20.7627487  76.2160969
  50.7155561  22.2698736  76.3558817  64.9600124  59.9677610  98.5795784
  65.8071661  60.1975155  98.1977654  65.0484133  59.0458393  98.8213921
  69.2494297  25.3713131  79.6770668  69.3258572  25.5618143  80.6120014
  69.8416042  24.6330357  79.5338774  48.2138348  52.6951790  94.4155693
  48.7815285  52.8062963  93.6529350  48.1463671  51.7469788  94.5278072
  40.1643467 144.7429787  99.1851234  39.6839976 143.9216808  99.0804005
  39.7104502 145.3606888  98.6118507  31.9978476   0.6593584  76.1311674
  31.8738675   1.5928733  76.3026619  32.9473162   0.5382521  76.1399651
 107.2290611  43.5323524  72.0907402 106.5989208  43.6406565  72.8030777
 107.7729321  42.7930069  72.3624134  64.4531727  42.8284168  52.0840549
  63.8543892  42.6739454  51.3534164  65.2312469  43.2116795  51.6791487
  17.1759391   3.0259687  68.9126825  16.3972163   2.9089281  69.4568539
  16.9937336   2.5188443  68.1215715  67.3502779  19.9527586   8.6661187
  66.9081402  19.2089152   9.0753118  67.1426535  19.8722601   7.7351800
  65.5135202  42.1324015  67.1219635  66.0563564  42.2073650  66.3371468
  65.6743622  42.9442406  67.6028776  41.6797161  51.5378428  87.8476810
  41.7952871  50.7316017  87.3448372  40.8400059  51.4241695  88.2928753
  96.1687469  22.0455241  15.8297387  96.9257736  22.5909972  16.0432664
  95.4979229  22.3097515  16.4593545  40.1791573  10.0751710  62.5172710
  40.7362747   9.6851349  61.8436766  39.5642638   9.3800187  62.7515745
  83.6750698  42.2379541  60.7890987  83.6106014  41.4588881  60.2367115
  83.1733322  42.0173407  61.5738392  74.0671587  21.0986996  81.2879276
  73.6960793  21.9788551  81.2257957  73.3696365  20.5716562  81.6777039
  56.9945145  30.0267982  65.8658695  56.8736219  29.9851441  66.8144894
  57.2455978  30.9347391  65.6960583  69.7365189  38.5948849  89.4448280
  69.7137213  39.4674492  89.8376942  70.6141710  38.2668805  89.6407127
  68.1051731  48.8073015  44.0234900  67.9432917  49.7448874  43.9188051
  68.9814520  48.6737394  43.6621952  43.2377720  62.3939133  18.2339612
  42.3655558  62.0477915  18.0450956  43.8370657  61.7135191  17.9271451
  64.9234200  21.5088415  91.0789108  64.6883965  20.7192397  90.5915451
  64.0909243  21.9595146  91.2206268  90.9649563  19.1659462 101.0284519
  90.6831646  18.3843231 100.5531693  91.0603046  19.8362947 100.3518581
  50.2184153  38.1766105  97.5603104  50.4385519  37.3722482  97.0904541
  49.3419266  38.0172253  97.9104519 107.0892334   5.3616661  68.6025715
 106.5672493   6.1419243  68.7895346 106.5579510   4.6346262  68.9271975
  55.7439661  55.0998354   1.9753877  56.5880680  55.4340887   1.6720620
  55.1069212  55.7458305   1.6702787  40.5772448  29.0156770  99.1492271
  41.2042427  29.5257211  99.6620274  40.2868795  29.6146798  98.4613895
  93.7566280   7.1291685  54.5522833  92.9799175   7.0249993  55.1019192
  94.4803333   7.2110832  55.1733875  59.5055199  27.0274138  75.3678799
  60.2447557  27.3875093  74.8778820  59.9016905  26.3993430  75.9718752
  73.0168867 145.4373067  82.8217888  72.2659063 145.2242381  82.2678375
  72.8986120 144.8977500  83.6035347  71.3535786  57.3253822  87.6517296
  72.2224760  57.4595213  87.2732353  70.7708788  57.2567415  86.8954372
  77.3944759   8.3634859  84.3454552  77.4136066   9.0386808  85.0236702
  77.9536200   7.6654625  84.6865559 115.7561874  50.5780220  62.2293949
 116.1357975  50.9858227  63.0077410 116.4638138  50.0428438  61.8701220
  68.1924343  53.0544949  98.2810879  68.7938881  52.4932003  98.7704086
  68.5782099  53.9284706  98.3409119  60.4364061  23.7550640  54.1477728
  59.5603991  23.4517097  53.9094114  61.0239840  23.0785704  53.8111115
  82.4425316   7.3731196 100.1075554  83.2490540   6.8643874 100.0241852
  82.6458454   8.0383277 100.7651234  55.3831005  21.2456822  57.7879763
  55.1995897  21.8579268  58.5005140  56.2613678  21.4818621  57.4894810
  77.9829884  35.1782703  74.7746992  77.6354313  35.2830839  73.8890076
  77.4017906  34.5384645  75.1859045  96.1327267  16.0549891  95.2326584
  96.5100574  15.2194667  95.5078983  95.7767010  16.4334166  96.0365677
  79.3086576  17.3654866  59.0786457  80.0764370  17.6323652  58.5731506
  78.7706375  18.1553710  59.1320181  57.5166273  42.2027826   2.6551000
  56.6091013  41.9212341   2.5395051  57.7574873  42.5868368   1.8120614
  40.6664228  29.0101004  65.9149647  40.9139013  29.6381211  66.5936184
  41.2328529  28.2542324  66.0700655  57.2213411  18.8301504   5.6169263
  57.1279669  19.7697318   5.7740823  56.3278913  18.5231078   5.4629556
  73.1702566  59.6490717  97.4056530  73.1071758  60.5658007  97.1375847
  73.3937311  59.6863174  98.3356571  83.1206894  58.3999777  18.6426011
  82.9433823  57.5920296  18.1609098  82.4649525  59.0190077  18.3215944
  70.7538605  44.2691565  93.0105877  70.7800913  45.2236032  92.9429054
  70.7208967  44.0965843  93.9515209  43.1471777  16.2719214  90.0932980
  42.8831530  17.0638549  89.6249294  42.8202915  16.4000881  90.9837723
  27.5571728 145.0673192  89.1400337  27.4657321 144.6061316  89.9738026
  28.4915948 145.0156862  88.9389896  39.5400548  17.1878588  98.8066387
  39.0777206  16.9554543  99.6119118  39.7739887  18.1088305  98.9220428
  52.5539827  19.9575460   9.8723451  52.7717686  19.2207563  10.4432622
  51.9364882  19.5942926   9.2375318  36.6371703 146.1754809  24.6573925
  36.3954210 146.0933733  25.5799150  37.5897884 146.2685468  24.6667981
  78.9243698  43.4265804  68.1478024  78.1675100  43.6427736  68.6924648
  78.6788654  43.7184715  67.2698736  67.3025370   5.7926285  51.8090677
  68.0212545   5.2166122  51.5485239  67.6954556   6.3953394  52.4404001
  38.5674191  11.2977397  23.0778384  38.0143428  10.8260942  23.7006474
  39.3927264  10.8128762  23.0754495   8.5199994  31.1268520  61.4516640
   8.7482798  30.2230382  61.2343168   8.1498951  31.0751152  62.3328972
  59.1763496 139.5778395  74.1659641  60.1020622 139.3383128  74.1222095
  58.9043140 139.3225987  75.0474882  37.0414376  26.1202908  59.7171259
  36.5181255  26.7582965  60.2022266  37.8829360  26.1045194  60.1730490
  67.3317337  19.8805928  91.7134857  66.4309168  19.5741713  91.6092110
  67.3880196  20.6541777  91.1525726  66.3351965  12.3611879  49.3085623
  65.4962826  12.0173264  49.0016174  66.7781878  11.6044748  49.6924591
  34.3140674 144.9041440  99.1429520  33.5196209 144.3805098  99.2473221
  34.1551518 145.6879125  99.6689606  83.0688381  23.8277221  86.2004089
  83.7612915  23.6307383  86.8312359  82.6213455  24.5906210  86.5664101
  60.1599360  40.5466843  79.3228674  59.7431898  41.2562990  79.8117447
  60.2340078  40.8825254  78.4295797  68.4924841  22.0905614  47.0899868
  68.3908749  22.5742626  46.2702656  69.3531084  21.6775775  47.0192909
  61.8594122  15.7332182  83.9741707  60.9604692  16.0241950  84.1273689
  61.7960882  15.1464176  83.2205963  61.6089773  16.1955965  38.5433269
  61.3001013  16.6339064  39.3362403  61.0100126  15.4578054  38.4287047
  63.4604692 131.2634773  47.1017265  62.6875305 131.6815777  46.7222643
  64.1907930 131.8201918  46.8316793  67.3087883 140.3018952  95.4335117
  67.2735405 139.3471838  95.4928017  66.9087172 140.6073661  96.2476730
  33.2687688  24.0057492  44.9901724  33.2338142  23.4787822  45.7884932
  33.6096644  24.8529077  45.2771282  73.4094667  30.3230429  71.3885260
  73.4736347  30.9244466  70.6466150  72.9593754  29.5552373  71.0362196
  51.6361141  25.3392076  88.4241199  52.2639084  25.4690862  89.1349220
  51.2383986  26.2003183  88.2955074  56.4488411  15.0380230  66.5374660
  55.5655909  15.1376998  66.1822653  57.0158148  15.0150025  65.7665920
  44.4389296  19.1122031  62.4845552  45.3933668  19.0402067  62.4742889
  44.1654921  18.7943530  61.6240692  88.6555576  50.5798483  68.8797379
  88.4678173  50.5359888  69.8173237  87.9148769  51.0598850  68.5093546
  46.5070772 115.7768483  85.6643486  46.3077974 115.8715076  84.7329235
  46.4971685 116.6718716  86.0035610  79.3569183   9.3055683  55.5781794
  79.6412992  10.1209927  55.1653337  79.9331331   9.2072171  56.3361597
  20.9285235 135.8128781  70.5702066  21.3036561 136.1214418  69.7454071
  19.9847794 135.7930321  70.4115105  26.9012690  10.4443073  58.3482742
  26.8251777  11.3570881  58.0702972  26.4805007  10.4197884  59.2076826
  80.6858921  24.4246340  67.1296501  80.6182003  25.1327920  66.4892101
  81.4758205  24.6290040  67.6301193  34.6597528  39.3590760 102.1363068
  35.5918860  39.3800235 101.9196892  34.6080232  38.8105488 102.9190445
  58.2243967  32.8598642  53.0009699  58.6713028  33.7059712  53.0256844
  57.7235317  32.8296471  53.8161087  94.9055672  35.1504779  17.5918305
  95.0896931  34.5827866  18.3402002  94.0059757  34.9364829  17.3444808
  75.7582331 146.1074195  62.9649639  75.1486492 145.9278580  62.2491455
  75.2017879 146.1831059  63.7401247  83.8885593   1.4197363  68.5044289
  83.7053776   2.2312349  68.0309868  83.0847645   1.2403950  68.9922667
  40.3368902 142.9709289  49.1894245  40.5655003 142.3446132  48.5026217
  39.6590614 142.5289146  49.7006989  75.8165312 131.3732595  97.1720123
  75.0859785 130.8412451  96.8566132  76.5177727 130.7431097  97.3375702
  85.9532642  34.3557453  99.1952896  85.1168251  34.4114041  99.6573544
  86.4519024  33.6986566  99.6809196  69.5615482  17.1853912  61.0751486
  68.9985704  17.8902853  60.7551336  69.2459583  17.0106137  61.9617653
  59.2729092  51.2082720  86.4348888  58.8503695  50.4460430  86.8307304
  58.9056206  51.2542391  85.5521584 123.9000225  21.4877772  61.4707184
 123.8624191  21.0815477  62.3366261 123.0488873  21.2938905  61.0780334
  60.7813025 142.4975664  64.5935535  61.1132193 143.2251252  64.0675116
  60.9938478 142.7375946  65.4954672  33.1890845  16.5511858  58.8039255
  33.3010149  15.9169173  58.0958271  33.5236478  17.3728693  58.4445715
 112.5575161  21.5817857  28.4649682 111.9457436  21.7519021  29.1812277
 113.2978344  21.1409593  28.8819051  60.7216883  37.9473376 107.1059418
  61.2871599  37.7851391 106.3508511  60.7772875  38.8922691 107.2482204
  65.9788179  37.5089025  29.8167396  66.6262436  36.8859482  30.1468897
  65.2137423  37.3787475  30.3770518  47.0404053  59.3941307  72.0032787
  46.5375710  60.1672506  71.7470121  46.3943386  58.8080311  72.3973894
  90.7174397  36.6330099 103.0257320  90.3584766  37.3234606 102.4683666
  91.0977840  36.0038733 102.4127388  36.9335341  39.3024659  36.2488127
  37.0973492  39.3827581  37.1884656  36.0272574  39.5899916  36.1382532
  93.9461994  37.4900818  66.7049885  93.8252449  37.9796839  67.5185537
  94.8687553  37.6173091  66.4837790  60.4155970  44.7998476  55.7505894
  60.0599003  45.4034328  55.0983667  61.0284376  44.2516422  55.2605534
  88.3790493  42.8556013  96.8869781  87.7123356  43.5212088  96.7175961
  87.8923607  42.1164989  97.2517872  67.8048992  48.8956451  35.2147460
  67.8288794  48.7460089  36.1598730  66.8725395  48.9427185  35.0032806
  56.9000959  35.0706148  75.4868364  57.6047134  34.8916864  74.8641491
  56.9510412  34.3534446  76.1187410  91.8851566  47.7589703  91.0109329
  91.5607834  46.8657923  90.8958054  91.9223499  48.1164932  90.1237869
  65.9180307  14.4247711  57.2189283  66.8703365  14.4440734  57.1242332
  65.7449865  14.9424207  58.0052662  58.2419538  89.6977043   2.2687856
  58.2504797  89.3579865   1.3739435  57.5001764  90.3023624   2.2883741
  51.7125273  40.4654789  10.6233922  52.2148848  40.0978756  11.3505403
  52.0564699  41.3526297  10.5189840  68.4432125   7.1041465  62.0342684
  67.8918457   7.8865469  62.0254087  68.0113459   6.5137756  62.6516724
  27.6819468  22.2448230  66.4792109  27.1692562  23.0280113  66.2792206
  27.6547122  21.7285585  65.6736279  59.0292406   3.7060082  56.1391830
  59.2674160   3.9496875  57.0336819  58.6604977   2.8264529  56.2206793
  81.2959003  11.6720176  65.6681919  81.2838840  12.0771778  64.8010540
  81.3112068  10.7311559  65.4927635  60.7373095  13.8094437  56.8862724
  61.4218378  14.1092515  57.4844122  60.7358646  12.8570437  56.9820118
  65.6411362  54.0158796  51.2336063  66.1402035  54.7907257  50.9751987
  65.8980799  53.8574409  52.1419621  75.4784727  33.0479836  54.6337509
  76.3070679  32.8324580  54.2057133  74.8097372  32.6558590  54.0722656
  73.0367613 138.4010745  81.3107395  73.1856728 138.8019169  80.4543591
  73.6073160 138.8878561  81.9055080  64.9238729  38.8220143  57.9692745
  64.8327065  39.6741939  57.5429964  65.8308268  38.8028073  58.2747269
  59.5532417  46.4269018  53.9064074  59.7210693  46.0587645  53.0389166
  58.6166954  46.6246891  53.9055586  61.7394543  36.7043066  68.5730934
  61.3077831  36.3112211  69.3316269  62.3918104  37.2956610  68.9485455
  75.2550697  41.0826731  72.1228504  75.7055330  40.3805590  72.5922585
  74.7908545  41.5675735  72.8052044  20.2366519   3.3069688  64.1404629
  19.6552110   4.0628958  64.2225075  20.1714802   2.8618562  64.9853659
  80.5769157  27.4947095   1.4286939  80.4193497  26.9976187   0.6260053
  79.8984766  28.1699514   1.4293233  73.5866308  16.1339080  35.5250549
  74.2856359  15.4932237  35.3941107  73.9885092  16.9748044  35.3068399
  75.2010870  24.6151137  67.0405340  75.4327631  24.1764617  67.8591585
  74.5131445  24.0677667  66.6618824  63.0329037  36.2784624  37.6990676
  62.9057980  36.2338996  38.6467433  62.7687836  35.4151058  37.3811245
  71.3602734  28.4726524  81.2863064  70.8131504  28.0112028  80.6507301
  72.0889902  28.8168240  80.7698250  53.9442158  35.0740695  76.9075298
  54.8975706  35.0022459  76.9542694  53.7867498  35.9551454  76.5682077
  72.2911263  23.0860448  47.6132250  71.9929743  22.2049689  47.3873043
  71.8110228  23.6614227  47.0176792  48.2010365  32.9750371  81.3083744
  48.5307026  33.8656068  81.1882305  47.8988409  32.9519653  82.2163296
  81.9301319  19.1551912  45.9233236  82.8785133  19.0255821  45.9245110
  81.7519665  19.6278381  46.7364025  86.1176395  58.6160278  77.6132727
  86.3220024  59.4749117  77.2434330  86.5892506  58.5954475  78.4459734
  44.2520046   6.2504423  81.4329720  43.8458157   5.7940334  82.1698093
  43.5898399   6.8794608  81.1464310  76.1825991  84.6943569  79.3107510
  76.7185831  85.1870918  79.9321795  76.5712833  83.8196850  79.3001127
  64.7871876  41.1696529  43.0432367  64.1062069  41.8066263  43.2594967
  64.9780607  40.7321072  43.8729048  73.2399416 137.3367281  92.7426815
  73.9166451 138.0099619  92.8137875  73.7244606 136.5251017  92.5918961
  58.8921165  31.5184927  80.5566120  59.5274734  32.1543646  80.8855724
  59.2058659  31.2982059  79.6795321  63.2912350  40.5029202  56.1124754
  62.9581547  39.6068120  56.1602402  64.0685225  40.4402590  55.5573797
  71.7589760 143.0794803  91.5417194  71.8549442 144.0234373  91.4153671
  72.2612667 142.6897530  90.8261490  68.7266588  18.2337546  82.4435711
  69.5899820  17.8204572  82.4528313  68.6841249  18.7180877  83.2680988
  44.3263721  16.1765242  87.1643543  43.5269642  15.6598878  87.0630550
  44.6049500  16.0125792  88.0653191  69.6464539  61.2299347  79.8611498
  69.1386271  61.7009544  79.2004776  70.5551338  61.4717245  79.6820831
  88.1697369  35.7863760  88.6842060  87.3128796  35.3874278  88.5329533
  88.0315208  36.3772297  89.4244957  62.3713541  30.9395599 102.4333763
  61.8381071  30.2819133 102.8798962  61.8759441  31.7532468 102.5267220
  72.5635481  52.3270798  54.7526979  71.8771458  51.8095255  54.3317270
  72.8006840  51.8226147  55.5308485  57.6668215  46.3100433  82.3989391
  56.8306208  46.1366272  81.9665909  57.6306486  47.2390890  82.6265240
  94.3824387  49.5553780  26.3418245  95.0980282  49.4197178  25.7207251
  93.6918831  49.9701166  25.8247542  69.5229340  41.1498928  69.0036201
  69.0445662  41.9534588  68.7994576  69.0193224  40.7440710  69.7092533
  54.3161297  97.6147194  63.3099699  54.3077993  98.5469217  63.5271454
  54.7513103  97.5710315  62.4585342  85.6970406   6.3272727  67.7041340
  85.0143147   6.9245303  68.0097389  85.3348064   5.4536855  67.8519964
  88.8166237  22.9915118  90.7660770  88.8415623  23.7259483  90.1527119
  87.8876591  22.8793526  90.9677792  76.5011311  25.7092166  96.3579655
  75.9948111  26.0960245  95.6436443  77.0571089  26.4226770  96.6711712
  64.7490454  49.8552990   5.8581201  64.0461206  49.2779779   6.1561624
  65.5177879  49.2876959   5.8024923  59.4526148  44.3451691  98.5109329
  59.0013647  44.2501450  97.6721478  60.3503895  44.0648413  98.3330345
  77.8109026  58.4866524  93.1280994  77.0187426  58.6098337  93.6511040
  77.9746342  57.5440931  93.1597328  64.6295071  24.6261215  89.0392017
  64.3937969  24.7984791  89.9507809  63.7902832  24.5454979  88.5859489
  77.3072195  29.4171000  75.1285458  77.2214890  28.5271430  75.4703951
  76.6881657  29.9328351  75.6452894  87.8413773  12.6053882  73.1015873
  87.7714443  12.0970464  72.2935486  87.6576138  11.9748282  73.7979078
  44.6497726  26.8448520  52.6086664  43.8840103  26.8235421  53.1825876
  45.3916788  26.9558501  53.2032156  53.3979273  47.6320362  38.7489033
  53.3527470  47.7357674  37.7984142  53.5939932  46.7042828  38.8795352
  71.5399933  41.0468197  62.5012493  72.2283363  40.4572058  62.1933937
  71.9257355  41.4920664  63.2556915 111.3640594  14.5014024  48.0847979
 111.9497490  15.1622736  47.7154016 110.6361485  14.4531918  47.4650764
 109.9455166  52.3943996  58.0320501 110.3263283  52.2745466  57.1620798
 109.4146824  53.1870842  57.9540157  54.1319799   8.3914107  71.5438461
  55.0654554   8.4884864  71.7320824  53.9986229   8.8832438  70.7335711
  88.6515045  31.7759180  52.1337509  87.8010368  32.1174836  52.4099255
  88.8653755  32.2747397  51.3452911  71.2947750 141.3913126  22.1837521
  72.2374821 141.2272657  22.1586275  71.1820555 142.0337869  22.8842878
  79.2992449  31.1605215  63.5971737  78.8041735  31.4966297  62.8500652
  78.8403797  31.5052938  64.3632078  41.4607191 127.7127142  73.2606697
  41.2039137 128.3950872  73.8808680  41.0620117 126.9135911  73.6051512
  45.6606245  22.6097012  55.1569080  46.1769676  22.0000315  54.6297216
  44.7563791  22.4572420  54.8824549  72.1424150  22.6240683  28.6856461
  72.4194717  23.5311294  28.5563827  71.2078524  22.6849604  28.8834262
  53.4016275  14.1995299  71.4850426  53.6649895  14.9228215  72.0540094
  52.6649904  13.7922549  71.9408131  45.1163721  20.7335567  85.9303761
  45.2237988  20.8854270  86.8693256  44.4081354  21.3232994  85.6718540
  64.4040680  21.5684056  39.8343682  63.9652014  22.2562003  39.3337989
  64.5210981  21.9446373  40.7067156  65.7911777  21.2764502  47.3109007
  66.6555023  21.6836214  47.2527647  65.4768753  21.2515330  46.4071178
  69.8639727  39.0909481  67.4062967  70.5063486  39.2660785  66.7186069
  69.6318197  39.9563026  67.7431917  76.3588810   9.8967934  67.0573330
  76.3928890   9.5657045  67.9548073  77.1245337  10.4664266  66.9830132
  66.7688942  45.4733515  78.2868910  67.4427128  45.0477505  78.8170433
  66.0034847  45.5143738  78.8602114  74.0893364  47.0364332  80.4759502
  74.3509769  46.9144011  79.5633268  74.6740723  47.7198696  80.8034134
  45.7838297  46.5978622 107.5526905  46.4960384  46.7835474 108.1646633
  44.9923611  46.8720436 108.0159855  89.1060638  50.2607584  60.7218027
  88.6615849  50.2644682  61.5695429  88.9707947  51.1432314  60.3765821
  38.8405895  44.8525572 101.1618233  38.5471725  45.5954266 101.6893482
  39.7137403  45.1031065 100.8600521  78.3987141  30.9164262  34.6197748
  77.5113916  30.5792165  34.7429919  78.2773209  31.8471861  34.4322062
  75.0521851  55.3779554   1.7013303  75.4174137  54.5575380   1.3700429
  75.4738760  56.0575056   1.1753789  67.7499866  54.2084122  65.7979727
  68.3395100  54.5658350  65.1339340  66.8730021  54.3546534  65.4433680
  77.5414085  38.5499001  25.4646707  77.9565668  38.3030272  26.2910676
  78.2383442  38.9736390  24.9637151  78.9535475 134.9961311  61.5007067
  79.8681974 135.0736613  61.7720747  78.7617159 134.0608878  61.5696430
  67.4673128  15.5259144  79.5859861  68.1671953  14.9635482  79.9178553
  67.0934772  15.0360703  78.8534975  82.8664970  25.3011250  77.6980352
  83.5155582  25.9510851  77.4287701  83.0765724  24.5240450  77.1801090
 105.6032276  29.9014425  59.8034668 105.7908916  29.7118926  58.8841820
 105.1165581  30.7254505  59.7836065  68.4216070  31.0187054  56.4534855
  69.0464115  30.2998471  56.3580990  68.9263535  31.8042731  56.2428951
  37.8745151  38.5871577  91.4207840  37.3725390  38.3879471  92.2110844
  38.2377410  37.7443027  91.1489487  54.8793507  30.7992387 107.9269505
  54.4654894  30.5566740 108.7552643  54.2199945  31.3256669 107.4748898
  50.4217482 144.9981190  66.9279861  49.5584917 144.8437407  66.5443325
  50.8552647 145.5890826  66.3123131  84.4986343  28.5686517  48.3820248
  85.1086044  28.2390404  47.7220869  84.4441319  29.5086098  48.2095766
  49.6761036   8.9269316  49.7815561  49.0641499   8.9486879  49.0458441
  50.4102278   8.3993852  49.4669342  95.6799507  60.2513266  90.4179859
  95.9476757  59.4572592  89.9553680  94.7369671  60.1477623  90.5456066
  52.2456789  42.7866745  90.6765556  52.2392368  42.7695370  91.6335773
  51.6484976  42.0838308  90.4203892  70.0735569   3.0530772  73.6413431
  69.6707773   2.2367215  73.3454323  70.3085804   2.8870422  74.5542669
  69.9928331  29.0734744  32.2860360  70.2470398  29.1041207  31.3637185
  70.3724098  28.2574916  32.6121140  68.9719868 117.2941537  55.0705481
  69.0394926 118.2439561  54.9728155  69.1845798 116.9484610  54.2036390
  62.4449110   9.3480891 106.0098553  62.0336390   9.1464001 105.1693726
  61.7213821   9.6320188 106.5685272  47.2020197  29.0969849  60.7723713
  47.1956491  28.4702873  61.4958668  46.3346624  29.0141058  60.3760672
  83.5829830  52.8727770  67.5310469  82.7122021  52.4770975  67.4935341
  83.8126564  53.0335140  66.6158152  89.3562508  25.2350903  34.1710925
  88.8324547  26.0251880  34.3038130  88.7135601  24.5492935  33.9898348
 104.0077209  35.3865814  67.1582556 104.8234081  35.4638028  66.6633606
 103.6432552  36.2716746  67.1588945  50.4478502  49.4218254  94.3272591
  50.0757551  49.1334772  95.1607037  49.8003006  49.1603613  93.6726189
  90.9634113  13.5099411  64.6491098  91.8977356  13.6897910  64.5445824
  90.6148434  14.2933261  65.0745964  70.0294542   5.3292418  80.5429840
  70.5920315   5.6076509  81.2656403  70.2236032   5.9458351  79.8370457
  45.8904600  12.6078403  48.6511087  45.3062773  12.9156065  49.3441010
  45.4493523  11.8389571  48.2898998  63.9515257  24.4361138  91.7991734
  64.7835207  23.9989233  91.9805050  63.4388685  24.3164754  92.5986099
 104.5350742  70.3191710  90.1514721 104.3546104  69.4585514  90.5296230
 105.1053524  70.7467222  90.7903862 104.6273899  13.9113259  35.0465941
 104.3153858  13.8497722  34.1437697 104.8566246  14.8339212  35.1584077
  86.7933846  21.9146538  29.5549893  86.4011192  21.4099836  30.2675009
  86.9838810  21.2652159  28.8781047  70.0571680  51.9600868  57.6626396
  69.1576958  51.6986322  57.8596735  70.2113008  52.7247572  58.2173920
  83.9679050  31.5531254  93.8758564  83.1667328  32.0765090  93.8962746
  84.1660023  31.3824034  94.7966385  61.1886358  40.9379721  96.4189625
  61.8365622  40.7964230  95.7287502  61.6000795  40.5879164  97.2091579
  59.2469168  56.6564989  98.4983444  59.5605612  57.5458479  98.6624146
  59.7988987  56.3356113  97.7851963  95.5357552  28.6287522  10.4084531
  95.5362320  27.7916288  10.8726255  96.2100124  29.1467690  10.8480779
  27.3291278  29.6003032  54.7969484  27.6529384  30.4593706  54.5260620
  27.4867773  29.0354586  54.0404224  62.8612089  14.1065013  23.2488394
  62.9263783  13.1708896  23.4401917  63.0111074  14.5343947  24.0918517
  65.5318356  47.9127407  96.1233711  64.8701239  48.5201502  96.4541626
  65.1966047  47.6342010  95.2711582  54.1406012  14.2172360  43.3654881
  53.8358116  14.8981214  42.7657127  54.7821140  13.7203991  42.8576994
  54.5511436   4.8841903  63.8535452  53.7406588   5.0789893  64.3240738
  55.2461910   5.0859499  64.4799900  33.2010198  23.4181213  38.4509277
  33.2065821  22.7574515  37.7583122  33.7512779  24.1244912  38.1125641
  40.8914089  33.6482096  58.5350704  41.2318277  33.0987477  57.8290701
  40.0894070  34.0287113  58.1769562  71.5292072  59.7547960  27.8234005
  70.7724476  59.4505167  27.3224378  71.6894531  60.6414890  27.5004053
  68.2157326  46.2847471  69.1859770  68.1988764  45.8536339  70.0404263
  67.7972603  47.1322727  69.3370247  74.7920036  24.7398496  75.8455658
  75.5887508  24.2708516  75.5976439  74.0790272  24.1773915  75.5430222
  62.7941608 130.7248647  51.1881351  63.6766481 131.0899551  51.1236525
  62.2716951 131.2532253  50.5847311  60.1793051  59.2063093  98.4501743
  60.0556040  60.1255894  98.6865044  60.9546328  58.9349222  98.9415455
  64.8689795  15.8299100 100.9550476  65.4235172  16.1510527 101.6660881
  64.1689062  15.3485692 101.3959980  57.3700333  12.0699060  77.2868872
  56.6385365  12.1712041  76.6778803  58.0304575  12.6875019  76.9728041
  53.8617420  68.7994528  71.5702295  53.6292934  67.9574823  71.9617462
  54.0289164  68.5975122  70.6496286  47.5683403  16.6794074  64.0443468
  47.0383453  16.0753894  64.5644426  47.1544218  16.6790032  63.1812716
  45.6801367  58.1667948   4.4644681  46.4761019  58.6650324   4.6500150
  45.9903860  57.3738861   4.0271131 100.6803799  28.0856037  67.8044701
 100.1747417  27.3942494  67.3771667 100.4639721  28.8786149  67.3140287
  62.6115179  16.7235100  76.5307379  62.1083403  17.4679410  76.2007904
  63.4835148  17.0800662  76.7002201  72.2668743 132.2848231  42.3941183
  71.7595720 132.1217818  43.1892824  71.6195917 132.5786562  41.7530870
  47.7351522  40.7197952  89.5602608  47.6817036  39.7926116  89.7920036
  47.2012806  41.1626959  90.2198410  96.3460827  78.5226059  74.3105984
  96.1527061  77.6232052  74.0461826  95.5050373  78.8715887  74.6056890
  60.5560637  31.0352349  71.5401602  60.8316994  31.0810757  70.6246567
  59.6513891  31.3478947  71.5338612 103.7105560  57.1029139  97.8822136
 103.5439587  56.4717770  97.1821022 103.1502819  56.8147087  98.6028099
  70.1290941  33.0156970  54.8846197  70.7963562  33.1427073  54.2101812
  69.3718672  33.5083270  54.5681477  59.1531801  27.2921777  81.2159634
  58.8100052  26.9297576  80.3991985  59.3735790  26.5251112  81.7444229
  37.1629214  39.5859075  70.5802917  37.6942563  40.3107119  70.2507782
  37.7050161  38.8092542  70.4418230  76.2206411  44.6813869  66.5747833
  76.6747475  45.4657841  66.8825817  76.8556643  44.2440462  66.0075903
  54.8363781  36.4697742  73.1204033  55.4273844  37.0888710  72.6918459
  54.8146629  36.7529559  74.0345001  79.8448467  49.4870281 101.1581326
  79.2319727  50.2222919 101.1576366  80.6873608  49.8773289 100.9256077
  42.5069046  48.2183838  17.8985429  41.9247103  47.5444555  17.5476849
  42.7369595  48.7547970  17.1398830   5.5118561  10.7753551  45.8610249
   5.1318502  11.5263093  45.4050732   4.9356174  10.6345975  46.6122675
  27.0095611  24.1225028  76.4363766  27.1990228  24.3780947  75.5335951
  27.8606820  23.8779306  76.7997026  65.8628511  35.4876208  71.0498190
  66.5995693  35.4000854  71.6546392  65.2136612  34.8617959  71.3709545
  11.0972464  38.6384273  99.6028137  10.6343174  39.4282436  99.8823071
  11.0876334  38.6809039  98.6466026  73.0702972  53.6143303  61.6986990
  72.5995636  54.0358925  62.4176741  72.4558735  52.9636621  61.3590622
  82.1852493  58.2091951  38.2972026  81.9011974  57.3230076  38.0731010
  82.9822350  58.0822754  38.8119149  23.5495877 136.9411803  71.9345236
  23.0449867 136.1534543  71.7318058  24.2617917 136.6319365  72.4943161
  72.3280716   7.8592587  76.0083723  71.6821575   7.1532482  76.0323286
  71.8063879   8.6589813  75.9411192  79.3674612  13.8295829  69.1483927
  80.2052116  13.4629130  68.8656235  78.7808752  13.0749321  69.1998672
  97.1437740 145.0552034  83.1294155  96.5830803 145.6664002  83.6072159
  97.7599430 144.7316302  83.7865734  22.9479694  23.1247783  71.8272829
  22.0530248  23.0407524  71.4982748  23.3925653  23.6675239  71.1761379
  50.7407951  45.2179480  84.9171162  51.4228153  45.6837702  84.4332886
  50.5074120  44.4810677  84.3525124  43.3362961  14.1967893  56.4118433
  43.2015610  13.9646602  57.3306417  43.7531042  15.0579786  56.4410162
  24.0572286  39.2226553  52.9961729  23.1576610  39.0860701  52.6989269
  24.1146135  38.7350297  53.8178539  69.5001030  23.4559941  49.7869539
  69.3180132  24.3883061  49.6692038  68.8975620  23.0166101  49.1868591
  45.8334064  18.4142470  72.3465681  45.4807997  17.9244554  73.0895376
  46.4360666  17.8039265  71.9216681  58.9767313  30.6376147  42.0159578
  58.7402010  29.7238255  42.1749449  58.5761881  30.8453035  41.1717606
  57.7170277  62.3403740  30.2030182  58.6257410  62.4552727  29.9250293
  57.2811937  63.1502724  29.9377871  59.8871088  26.9066453  54.8130989
  59.6083784  27.4547482  55.5466652  59.7701502  26.0097241  55.1262856
  81.7821217  35.4323125  25.4433036  81.8863392  34.4810462  25.4647017
  82.4922562  35.7384348  24.8791885  56.3385773   6.6137993  68.7073994
  56.3977289   6.8997425  69.6189737  55.9480762   7.3572522  68.2480335
  46.0602045  14.6530080  54.9131680  45.1845217  15.0391793  54.8963881
  46.0986519  14.1122413  54.1242933  40.6560659  40.7684565  59.8604012
  41.4088678  40.6475353  59.2816973  41.0328865  40.8024311  60.7396507
  81.2471676   6.1307752  39.1050720  80.3177166   6.2891680  38.9399242
  81.4456463   6.6561925  39.8801684  87.6612186  41.4088869  83.0342293
  88.2867527  41.1904478  83.7250423  86.8971634  41.7471409  83.5011864
  65.2228880   5.3652245  55.2532387  64.9582243   5.1831269  56.1549187
  65.9012747   6.0357285  55.3335094  74.8933792   0.0383861  69.6283865
  75.4592228  -0.5167924  70.1648808  74.5295143   0.6750208  70.2436352
  15.7985711 144.5426724  27.2564721  16.3385260 144.7556605  26.4953446
  15.0095320 145.0732716  27.1464086  86.8556118  36.8954730  22.8152966
  86.2785721  37.0507431  22.0675373  87.2811317  37.7390599  22.9686928
  46.9574976  34.7218204  40.4794216  46.0457754  34.6504283  40.1967573
  47.1183348  35.6638432  40.5338001  70.1181126  20.9589458  39.8660612
  70.5115271  21.7236710  40.2863598  69.6921921  21.3084579  39.0833330
  52.4297810  48.2152128  51.8018150  52.1444941  48.5641193  52.6462698
  52.2802067  47.2721910  51.8694258  56.1901045  25.1800156  34.2986703
  57.0688772  24.8018026  34.2678881  56.3375568  26.1212444  34.3912959
  57.4514341  51.3971233  43.8103867  58.3364010  51.1280727  44.0567017
  56.8881607  50.6954765  44.1369534  38.2634044   0.3929559  62.6205158
  37.5209427   0.9882633  62.5176096  38.3787394   0.0019746  61.7544556
  99.6135044  10.3666151  49.6723843 100.3475857  10.9669614  49.8025179
  98.8873291  10.7694948  50.1484013  40.4765844 136.4527149  28.1450915
  41.4042473 136.2177069  28.1661773  40.3146982 136.8653495  28.9934754
  70.5336332  34.0711761  44.6714258  70.8937216  34.1586304  45.5539894
  71.0501242  33.3722639  44.2701864  58.5535192   4.8770073  45.4656458
  58.1202269   5.6820410  45.7492113  58.6617756   4.3675953  46.2687683
  75.6701565  46.5284920  63.5566854  76.0354614  45.7421970  63.9623022
  76.0575056  47.2532320  64.0475464  77.3362446  15.2715802 109.5658684
  77.8494024  15.3961575 108.7675095  76.8164062  16.0715425 109.6437263
  70.2568483 142.9352106  36.9938636  70.5221462 143.4894706  36.2599397
  69.4858599 142.4668274  36.6738200  74.8878145  47.0180941  57.6624107
  75.7802582  47.2523594  57.4076796  74.9696922  46.1451626  58.0464935
  79.5736170  18.2026470  84.8369598  79.5037603  17.4442422  84.2571545
  80.5148315  18.3579814  84.9157810  69.1552401  17.1517491  34.6986127
  69.4220877  18.0498683  34.8945880  69.5677900  16.9575512  33.8569951
  33.0089664  34.1443419  81.3454628  32.6539969  34.3732023  80.4864788
  32.3218060  33.6199379  81.7566013  81.7297840  47.3690224  39.8480058
  81.6435909  46.6390657  40.4611683  82.0329380  48.0998373  40.3867435
  63.3429337  51.6958857  18.4159911  63.5038233  50.8151960  18.7547171
  63.8738012  52.2668028  18.9713919  63.9121294  64.7427368  99.0799809
  63.9735222  65.4276085  99.7458744  64.0520382  65.2010775  98.2513809
  57.8157806  22.5872684  73.1849146  57.8640556  23.0268955  72.3360157
  56.8791628  22.5375772  73.3759880  75.1013231 139.0376235  25.7858753
  75.3504944 138.1151796  25.7289219  75.9098577 139.5159037  25.6021500
  38.5494661 143.8877655  55.4011393  39.3672895 144.3835981  55.4404593
  38.7849617 143.0720175  54.9591780 103.3613968   5.9872621  72.5918627
 103.3038902   6.5908414  71.8511772 103.5954952   5.1467204  72.1982622
  69.5163679   3.8609695  69.7896433  70.4696798   3.7750334  69.7962379
  69.2082691   3.0761623  69.3364477  78.3037186  27.5741911  47.5410557
  78.0402040  26.7826533  47.0717382  77.9792643  28.2932734  46.9989491
  29.2967606  39.0786529  48.6962795  30.1024842  38.6253858  48.9444590
  28.7801099  39.1069841  49.5015717  97.2056770  64.4864941  58.4484768
  96.5831280  64.5274734  57.7225399  97.0903111  63.6092615  58.8137007
  62.4400473  49.5746374  69.4600630  61.9618511  50.3549051  69.7406864
  62.0645523  48.8638163  69.9796438  46.8980169  34.2899871  31.3643122
  47.5002956  34.9918675  31.1176252  46.9438314  34.2599058  32.3199415
  90.2827644  47.3408127  54.1860819  89.7575188  47.0689058  54.9386883
  90.4674721  46.5274239  53.7164974  24.3713331  50.3940296  26.0137653
  24.4841266  51.0129929  26.7351484  25.1025772  50.5776978  25.4240346
  60.8667755  10.5685723  38.6741590  61.2046242  10.5865395  37.7787447
  61.6424561  10.6741035  39.2249870  67.3980570  29.1480160  61.0431337
  67.2348261  28.5729980  60.2955103  67.8799295  29.8886108  60.6749630
  68.3113050   9.7081476  57.5496244  68.2645512   8.9714229  58.1589508
  67.4113369   9.8245817  57.2451019  95.4799843  32.9364443  49.2503452
  96.4317703  32.8352475  49.2601967  95.2595997  33.2156515  50.1389980
  75.6084538  10.8448541  58.4002733  76.2653208  11.2736917  57.8517723
  75.8038855  11.1458790  59.2876434  30.3011084  43.0870676  41.1318398
  31.0505104  43.3391857  41.6713428  30.2249956  43.7884045  40.4848719
  45.4423332  23.6564994  72.0925808  45.0543070  22.8947163  71.6620541
  46.1203909  23.9547014  71.4863253  54.9553823  20.0679445  70.5401611
  54.8190355  19.6630454  69.6835995  55.5956459  19.5031130  70.9728909
  91.6838646  56.4173841  62.3775434  91.5489197  57.3594618  62.2749805
  91.6931248  56.2784529  63.3245611  53.7168789  17.3396063  59.1053343
  52.8963327  17.7976763  59.2873001  53.4864187  16.4113271  59.1430044
  65.7991934  30.5504990  44.9731493  65.1378536  30.3764439  45.6429005
  65.8907747  31.5032983  44.9688864  48.2904959  13.8032269  48.0023050
  47.4277496  13.3999276  48.0985165  48.8166475  13.4125817  48.7000084
  40.6888151  30.3182435  59.0408278  41.2332916  30.7949615  58.4143162
  39.7948503  30.5962181  58.8413572 119.6850872  28.3971143  46.9790268
 118.9788532  28.8720489  47.4170876 120.4798412  28.8720155  47.2220850
  69.2430353  45.6541634  71.7210007  69.1475725  45.8754778  72.6473570
  69.7064447  44.8166132  71.7213678  87.4221230  22.5833821  57.6472235
  88.1599331  23.1650305  57.4640417  87.0137787  22.9536533  58.4297800
  85.7856750 139.9348010  68.5063505  84.8505020 139.7454888  68.5827065
  86.1167431 139.2677982  67.9049063  79.2119169   3.0854827  88.1714249
  79.3283415   2.1361974  88.2105923  78.4541035   3.2571164  88.7304306
  41.1024332   1.0885056  62.4706936  41.3878822   0.9943879  63.3794832
  40.2780771   1.5716770  62.5273943  80.4706764  27.8878331  38.2470298
  79.9103785  27.3243761  37.7133560  80.4804039  28.7248182  37.7827120
  72.1109676  60.5964470  70.2565908  72.6593018  59.9021673  69.8911619
  72.0642900  61.2547302  69.5632505  75.6220055  20.8220029  37.9982638
  75.7883167  21.4661646  37.3100567  76.4793444  20.6692100  38.3955646
  57.7996969  27.0430565  68.5137844  57.2125292  27.7770901  68.6945248
  58.5999155  27.4519968  68.1841707  57.3615360  27.2303295  43.0260658
  56.4079380  27.2607923  42.9488707  57.6470709  26.7209244  42.2676420
  84.5457268  36.4077806  93.3814335  85.4788113  36.2150693  93.4733486
  84.2091274  35.7034779  92.8274536  94.2944050  38.9466214   7.1550071
  94.4824791  38.0847144   7.5264597  94.9741268  39.5162010   7.5152808
  78.3910704  25.5451059  39.6048832  78.3774757  26.2894869  40.2065039
  78.7050819  25.9111166  38.7780452  67.8103209  49.3942022  60.0923729
  68.6050034  48.9563990  59.7873497  68.1096220  50.2528477  60.3913403
  35.5231071  49.5570421  24.6346188  35.4298806  48.6822844  24.2573333
  34.6459126  49.7774744  24.9479389  38.1911874  31.9805551  59.8958778
  38.9556646  32.2281146  60.4159880  37.8319144  32.8123569  59.5872355
  48.8760328  27.2778869  38.5779953  49.0024853  26.3706374  38.3002543
  49.5956326  27.7567625  38.1667972  29.2318916  15.2017677   8.2790905
  29.1845131  15.0378966   7.3372126  29.9300170  14.6242583   8.5878569
  74.9611187  23.2869005  47.8342724  74.0161371  23.1931138  47.7140951
  75.3238583  22.4505973  47.5423050  50.0076008   1.7147861   2.9204619
  49.6965599   0.9647331   2.4136022  49.3892908   1.7853765   3.6477479
  25.9238005  13.2322741  88.8379097  25.7791376  12.8478003  89.7024822
  25.1171255  13.0490875  88.3563042  66.5359163   9.7703916  39.9448848
  66.6774797   9.2935634  39.1270685  67.4147654  10.0151074  40.2346659
  38.2560802  35.9694433  11.6127670  37.5936413  35.9654760  10.9218323
  38.4876871  35.0478387  11.7278147  38.6664867 143.2032053  19.8023987
  39.5847678 142.9857049  19.9626648  38.2297134 143.0273102  20.6357789
  24.9729991  42.8937578  28.6273551  24.1572213  43.3032179  28.9155984
  24.8033977  42.6332617  27.7220321  63.3124208 132.6205165  90.6343365
  62.7795124 131.8359894  90.7638073  63.6642122 132.5276775  89.7489834
  60.4410744  57.5277424  47.3527813  60.4514742  57.6296806  46.4010811
  61.1999369  58.0265236  47.6553965  35.3083348  18.8416982  58.1064749
  35.5976439  18.2702899  58.8178301  35.4822183  18.3397067  57.3102331
  72.3332834   4.5661452  73.0395842  71.6147852   3.9901537  73.3007860
  71.9661474   5.1040041  72.3380470  81.2170124  37.6839566  53.1073713
  80.8308697  37.1149731  53.7732410  82.0273018  37.2413898  52.8547907
  20.5135393   8.7268198  77.3123360  21.3718724   8.9139730  77.6924276
  20.5893159   7.8330743  76.9781113  56.1223030  38.1362367  49.5098734
  56.1581945  37.4049520  50.1264477  56.9934034  38.1584954  49.1137362
  53.7465239  11.7499948  66.2848425  53.1845331  11.5220237  65.5442858
  53.6843920  10.9975362  66.8732119  52.5943136   3.2573110  39.1733503
  52.6249838   4.2113212  39.2451572  53.4267569   2.9624468  39.5425773
  80.5306530  54.0666676  58.9008665  80.8924294  53.3311653  59.3952274
  79.5827055  53.9411497  58.9440823   8.0172354  50.9811211  59.7445536
   7.0658892  50.8761311  59.7323322   8.1857765  51.5501308  60.4955912
  56.0405350  30.8096504  68.2050228  56.3098431  31.7036772  67.9942560
  56.3399792  30.6749821  69.1041470  77.1364355  26.0957098  52.0232964
  77.6548433  25.9412479  51.2335920  76.2642908  26.3181758  51.6975689
  70.1684189  20.8055282  67.9603243  71.0766077  20.5443692  68.1127167
  70.1881695  21.2609220  67.1186256  79.1314268  50.1629305  25.8495498
  79.8475313  49.8894119  26.4227986  79.0614367  51.1075115  25.9877515
  44.4443560 142.6113904  28.8567424  45.3937817 142.4956701  28.8944983
  44.3244171 143.4950716  28.5089564  58.2340002  44.3045473  43.5255909
  58.3539343  44.6841240  42.6550913  58.2879877  45.0512743  44.1220045
  64.4784880  24.2839408  46.7768860  63.9897299  24.4695973  47.5786829
  64.0343428  23.5265946  46.3955736  76.5033960 142.3900614  47.4362230
  76.5537453 141.4541233  47.6304293  76.1732340 142.4310167  46.5387011
  62.2801018  19.8709393  65.0814724  62.6578951  19.5097637  65.8833790
  61.6640806  19.2013252  64.7842073  94.8149300  55.3475237  64.1446924
  94.7430801  54.7999191  63.3628941  95.6207848  55.0538158  64.5696068
  86.5589714  31.9447994  60.4221392  86.3038063  32.7929473  60.7851362
  86.4678383  32.0522809  59.4753647  50.6558704   1.1583184  58.5421324
  50.5526590   0.7777946  57.6699018  49.7947979   1.0619112  58.9489269
  32.9775691  26.6125798  29.8438621  32.8355956  25.6732893  29.7263622
  33.9192033  26.6954899  29.9944758  70.3836393 135.1391084  53.2330942
  69.8667955 135.1216299  54.0385771  71.2131929 134.7254700  53.4717846
  63.1728268  27.5312519  76.7800474  63.2449436  26.9107008  76.0548258
  62.5634050  28.1985641  76.4645720  85.0597858  27.3269963  34.3858075
  85.3277683  27.6160359  35.2580881  84.1231823  27.5205588  34.3465781
  10.9621716  24.9959087  63.2096481  10.1753175  24.4764090  63.0446863
  11.6586435  24.5288825  62.7480745  43.6547709  27.9430723  61.4462185
  42.7741051  28.3180428  61.4537144  43.9010906  27.8917193  62.3697567
  62.3364735  30.1265359  26.3469887  61.5442276  29.9828458  26.8646049
  62.9902458  30.4137254  26.9844341  28.3521271  30.4777241  45.0842047
  27.4417114  30.2814245  44.8632050  28.3073258  30.8735394  45.9545803
  68.9840364  28.9937067  37.4602723  69.6689701  28.3775663  37.2005224
  68.1652737  28.5382199  37.2643352  44.7022676  25.5520511  27.3368764
  44.2561197  25.7441044  26.5120745  45.6276608  25.4906678  27.0999861
  62.4872351  47.4352551  49.0108442  63.3020115  47.4800253  49.5112085
  62.6932240  46.8678093  48.2680082  97.9707146  30.8750606  83.5461521
  97.4311829  30.1989985  83.1361866  97.9814625  31.5908909  82.9107761
  69.7931910  14.0211821  21.8866253  69.3290567  13.2430112  21.5779901
  70.3870821  13.6936688  22.5620985  67.5098038  28.8996792  68.4579659
  67.2276258  28.8531113  67.5444889  67.5417852  29.8366046  68.6512995
  50.2454758  22.6004148  29.3354654  50.5592203  21.7192769  29.5389199
  50.8786821  23.1829238  29.7549486  88.2225132  68.4745216  91.5960217
  88.3890152  69.0463734  92.3453522  88.5207558  67.6112890  91.8825722
  55.9490681  46.9429874   9.6273041  55.7889938  47.5640154  10.3378904
  56.1100149  46.1094141  10.0694394  83.1126213  14.6436465  26.8853402
  82.5184059  13.9812374  26.5327168  83.6134815  14.1823292  27.5580668
  54.9597836  13.8067925  69.2404842  55.1245308  14.5655060  68.6806202
  54.4700575  14.1592777  69.9835539  46.5214968  32.6223826  18.6461341
  46.7573643  31.7115402  18.8221002  47.3152065  33.0079603  18.2752037
  96.3423252  55.6379175  57.9675150  96.6700268  56.1122847  58.7315893
  95.8558846  54.8996782  58.3344173  47.8772879   1.7071179  27.1830034
  48.5211658   1.2091659  27.6866865  48.1770849   2.6142776  27.2414255
  44.4048357  26.9364238  68.5338116  44.5161200  27.3399472  69.3946362
  44.9947643  26.1826992  68.5445452  68.5012913  40.3546429  31.2092924
  67.8468227  40.5317116  30.5336070  68.0805254  40.6223726  32.0263052
  46.2527514  49.2938900  30.2861691  46.7928362  49.6222448  31.0050035
  45.8387375  48.5059309  30.6382251  32.8232694  23.2246447  50.7916355
  32.6488042  22.8922939  51.6721678  33.7626767  23.0900598  50.6666040
  61.7343235  11.5224302  57.6666498  62.2578669  11.3538074  56.8832588
  62.3791599  11.6716850  58.3581257  41.2023449  48.0963182  87.4613285
  40.6699276  48.3173323  88.2254696  40.7131243  48.4495449  86.7182732
  80.4685688  60.4554605  29.2539430  80.4738426  59.6848249  29.8216772
  80.2788162  60.1092577  28.3819532  10.4376745 143.0706368  72.7099657
  11.0731363 143.3238001  72.0403910  10.7287347 143.5252012  73.5004616
  37.1870875 137.9011978  65.9239626  38.0921936 138.1963057  65.8243465
  37.0972347 137.1869452  65.2930880  74.0619659  32.8415608  65.5951262
  73.7110949  32.6519608  64.7249699  73.3010769  32.8002572  66.1744118
  21.6105270  21.2445903  44.1420555  21.9608569  21.0641909  43.2697296
  20.8436942  21.7949796  43.9830875  52.3287868  28.3130836  69.2188311
  53.1588364  28.0555129  68.8177061  52.4318457  29.2464733  69.4042873
  59.0240002 139.4657356  32.5351572  59.7201252 139.0189792  32.0534396
  58.6775589 140.1075322  31.9152308  62.1104050  33.4608555  48.5754156
  62.8815746  33.5301185  49.1382027  61.8537092  34.3677044  48.4081841
  44.2260790   4.1408104  87.3832607  43.4913397   3.7626934  87.8663921
  44.1642809   5.0812155  87.5507450  90.2459908  30.1740623  58.5398483
  90.1296234  29.6715713  57.7335024  89.7700500  30.9898853  58.3844566
  98.7015057  21.7700243  12.9548514  98.2791901  21.0438132  12.4960494
  99.3338299  22.1159387  12.3249793  51.7332458 138.4997744  58.2519913
  52.5276709 138.0872692  58.5910511  51.8718100 138.5448010  57.3059416
  72.5456715  31.9656467  43.7597466  71.8258905  31.3411140  43.8497782
  72.9944563  31.6998053  42.9571533  49.3599844  35.6021929  33.7545013
  48.4393883  35.6096196  34.0165687  49.7519588  34.9020910  34.2764664
  61.9424629  52.9507542  47.4756002  62.1897316  53.6834574  48.0397224
  62.4686050  52.2164965  47.7922535  73.5936403 144.5645180  74.0545130
  74.4877005 144.8266167  74.2740345  73.4250450 143.8016851  74.6075869
  51.7786789  31.1587548  45.8281374  52.5392294  31.7393494  45.8016348
  51.9207191  30.5449224  45.1075363  72.5352907  41.5084743  75.5529070
  71.6920280  41.7106056  75.9582233  72.3080397  41.1223841  74.7070169
  32.7509642  23.1329608  26.8840504  32.9083705  22.1960378  27.0007873
  31.8843675  23.1817842  26.4804935  42.4171162  16.5506685  35.9635162
  42.0616531  15.6621337  35.9439182  42.7660942  16.6885018  35.0829196
  86.0568142  18.8639152  62.9201412  85.1653862  18.9008200  62.5733948
  86.2163353  19.7425795  63.2647133  95.9481716   4.0887800  39.8885655
  95.1835728   3.7269497  39.4405580  96.6970062   3.7057421  39.4316649
  29.3932056  18.6825264 102.6859570  28.4952307  18.4947193 102.4128246
  29.9309063  18.0804741 102.1715260  84.6983433  58.1097794  50.4553366
  85.5408478  57.8320837  50.8149242  84.1816998  58.3598328  51.2213564
  66.1690760  40.6699085  55.3954124  67.0894289  40.7009554  55.1342154
  66.1541080  41.0645962  56.2673235  68.8561726  51.4791536  40.2014399
  69.4255972  51.0110950  40.8121014  69.2939758  51.3963127  39.3542719
  67.3189783   3.4942409  54.9780273  66.5503550   4.0616468  55.0371742
  67.3271561   3.0149022  55.8065176  53.1828499  40.0555563  50.8888340
  53.0979776  39.1380692  50.6295109  54.0464449  40.1098728  51.2980890
  33.6607385  14.2327583  44.2994595  33.2806134  14.2257845  45.1779175
  33.3070612  15.0232565  43.8917112  63.9259720   1.9011855  93.3224106
  63.0466413   2.1531522  93.0403996  64.1926146   2.5958189  93.9245796
  25.7967496  11.9334817  55.4435158  25.9895372  12.7433383  54.9710751
  26.6465187  11.5030801  55.5377531  47.3900509  31.7379546  51.8220901
  47.4395561  32.0617628  52.7214956  46.5297222  32.0212436  51.5125513
  53.4236002  14.2550242  59.9820662  52.5478506  14.1079152  59.6247816
  53.7812901  13.3762622  60.1088190  48.3430910  34.5174527  66.1357737
  49.0746117  34.3365049  65.5455494  47.6590967  34.8720527  65.5677557
 109.5452499  16.9292724  67.6384258 109.7959042  17.8530669  67.6356983
 108.8202763  16.8796444  68.2614660  83.1408024  41.8234301  64.5025826
  83.6548996  41.4464188  65.2165890  82.7495098  42.6115608  64.8793793
  64.2598104  18.1082928  41.8876457  63.5472536  18.2113945  41.2568855
  64.8553991  17.4821830  41.4759493  65.1905155  57.8982925  49.4409513
  65.5447054  58.4924793  50.1025629  65.8743000  57.2394705  49.3200493
  54.7601700  11.0365796  78.3543348  54.5524836  11.2393022  77.4421930
  55.5068684  11.5988243  78.5606194  95.7898331  25.4698229   4.9384576
  94.8398685  25.4874134   4.8223528  96.1269283  25.1409841   4.1051134
  74.1325283 134.3873305 103.0745538  73.9325380 133.6107666 103.5972252
  74.4502687 134.0398199 102.2411832  76.3257647  17.0039415  65.7486343
  76.8091869  16.2294900  66.0363102  75.5816507  16.6535902  65.2589560
  63.1523180  13.9078355  41.8829966  62.6593542  14.6554267  42.2211170
  63.7316847  13.6576915  42.6027155  57.7402210  36.8483686  55.4479027
  58.5999489  37.0802736  55.0967455  57.9324818  36.3442183  56.2385368
  76.1923313 141.8648607  44.7131538  76.1052465 142.4640135  43.9717627
  77.1141863 141.6072596  44.7059298  54.9586916  30.9392309  58.4671879
  55.6667805  30.3747797  58.7774038  55.1915121  31.8118095  58.7844133
  83.9171600  39.0853071  49.9457884  84.3385792  39.2972755  50.7786798
  84.1583347  39.8068404  49.3648767  62.8133917  20.5779886  26.8870616
  63.7481308  20.4236436  27.0237279  62.6415014  21.4110494  27.3260307
  99.4571972  30.7814217  61.1470747 100.2154636  30.8873940  61.7215729
  98.7019253  30.8751988  61.7275858  54.2192698  30.6985164  53.0286455
  54.5088625  30.4652834  53.9106703  55.0011396  31.0538340  52.6059675
  55.0727272  12.3357809  73.2156038  55.5811119  11.9923282  72.4808788
  54.1610718  12.1758854  72.9715729  63.4504890  23.8984299  39.0348506
  63.6401033  24.4844556  38.3021498  62.5058985  23.7515378  38.9858127
  74.8087025  63.1633282  37.2051716  74.3613482  63.4513474  38.0008817
  75.0410032  62.2509480  37.3779011  61.9006824  41.6219187  62.7010202
  62.6545382  41.2115955  62.2772598  61.8797874  41.2372923  63.5772943
  37.1147513   1.9863389  27.5077057  36.9260192   1.0553608  27.3898458
  38.0597138   2.0222570  27.6559877  86.3695145  26.8059063  53.8226080
  86.6813946  27.6199698  54.2179155  85.9089756  27.0849943  53.0312538
  63.0785751  42.1916437  77.5318909  63.1256485  42.8531599  78.2221174
  63.9672947  42.1502924  77.1787596  29.3768883  14.6202779  64.2921686
  29.2036009  14.8741078  63.3856487  29.8147726  15.3808331  64.6743250
  55.4253197   1.4074364  70.4056406  54.7979927   1.9922641  70.8306980
  56.0634899   1.9945449  70.0003386  70.2561855  31.0091949  84.8469257
  69.4223547  31.2558055  85.2470970  70.0113201  30.5914330  84.0212440
  39.7930455   0.9821205  58.4959078  40.4129457   0.5401901  57.9156876
  40.3200912   1.6345577  58.9571905  55.0313663  28.1494331  48.7570047
  54.4938803  27.4723148  49.1679239  55.7735777  27.6730680  48.3849430
  62.4746037  35.5321813   9.2026532  61.8951035  35.2672529   8.4883541
  62.6449394  36.4601707   9.0412378  36.9382930 140.7687039  74.1071081
  36.8545198 141.6890685  74.3563938  36.1158657 140.5654306  73.6615467
  50.2778530  12.2287846  42.1422243  49.9284363  12.9985404  42.5912428
  50.8392048  12.5868905  41.4545679  31.1545277  21.7022443  66.9727564
  30.4312944  21.1188006  67.2024488  31.1814737  21.6851592  66.0160923
  48.5603046  32.4036288  56.9806814  48.9720726  33.2318139  56.7341328
  48.6853886  31.8378115  56.2188148  20.7340360  34.3539405  16.4094472
  20.6451344  34.5366859  15.4740679  21.6399002  34.5860577  16.6137993
  76.5597105   7.0530605  41.8673277  76.9814301   6.5614021  42.5720644
  77.2815466   7.3285866  41.3022852  88.0332184  52.4353647  55.5683899
  87.1445847  52.7784634  55.4743671  87.9276562  51.6345024  56.0819197
  67.6223660  16.2107563  46.1037207  68.5134745  15.8820856  45.9848356
  67.7298307  17.0173109  46.6078568  63.9717484  20.1458836  93.8139248
  64.1348553  20.5868220  94.6477127  63.0391312  19.9313712  93.8348389
 104.6166325  18.0255270  22.9263735 103.8195515  18.5118270  22.7156305
 105.2284431  18.6921918  23.2385850  63.5123777  53.9787245  15.4940379
  63.4182024  53.4348392  14.7120202  62.7215528  53.8037348  16.0041440
  64.8121262  26.2651968  61.0527039  63.9281082  26.6189981  60.9548664
  65.1556778  26.6925716  61.8372774  88.4849930   6.2553185  79.6367407
  89.2672825   6.4117700  79.1078043  88.8232136   5.9862667  80.4908180
  51.9183493  15.5922806  56.1973906  51.3684845  14.8834252  56.5311670
  52.8104877  15.2499115  56.2531281  53.0258560  32.6709533  38.7277532
  53.3794641  32.1218419  38.0279899  52.1717644  32.2866273  38.9253688
  71.3718510  41.8457699  88.1655964  72.1192503  41.3602018  88.5146602
  71.7573357  42.6290035  87.7729400  36.8210483   4.9969134  32.4284673
  36.1216450   5.0337195  33.0809331  37.0340109   5.9136045  32.2536635
  47.2762060  29.0297437  32.5847101  47.3957634  29.9177599  32.9214120
  47.6860857  29.0443182  31.7198300  84.0620995  11.6586781  58.7631273
  83.4237003  12.1494520  59.2806387  84.9037457  11.8499196  59.1770077
   8.5145783  18.0551136  19.5775926   9.2745650  18.5996962  19.7827351
   8.8590056  17.3686850  19.0062642  63.8427830 143.3521951  63.2439995
  64.4711447 143.8516752  62.7225447  64.2770100 143.2280005  64.0879488
  60.7438374  41.2686300  25.1851892  59.9319601  41.7643452  25.0786138
  61.2573576  41.4795351  24.4054151  45.4726267  15.7606435 108.1925192
  45.3186893  16.4989424 108.7819683  44.5985174  15.4984784 107.9036690
  56.1632013 143.7525124  19.6712089  55.2818155 143.5144932  19.3835592
  56.3373137 143.1738532  20.4135489  67.4560118  45.6497812  16.6402078
  66.5344715  45.5590820  16.3978016  67.7011585  46.5208292  16.3280952
  74.9875402  61.8307304  10.8885479  75.6889486  61.7400360  11.5335536
  75.4413462  61.8885136  10.0477433  37.7375364  16.8530059  43.1207037
  37.4314523  17.7201664  43.3863688  37.8512788  16.3767898  43.9432096
  65.4596949  15.1051641   5.0948906  64.9506330  15.1112711   5.9054774
  65.3266287  14.2281961   4.7350964  86.1569023 138.6537440  85.6983384
  86.8783379 138.0597437  85.9055384  85.7918835 138.3117003  84.8822530
  77.0614481  18.5279584  56.4659023  77.6585960  19.1852164  56.8231964
  77.1947002  18.5727799  55.5190849  72.9773951  20.1079273 107.6404335
  72.6010656  19.7539711 108.4462396  72.2230148  20.4200602 107.1407186
  53.8028383  44.2630768  55.9359074  53.9860058  45.1424599  55.6051874
  53.1039762  44.3893003  56.5776920  59.1141701  20.7660675  43.4469748
  59.8788691  20.5813599  43.9922762  59.0877867  21.7210245  43.3870173
  35.7189989  29.3799353  12.9946864  36.3265276  29.8440981  13.5706139
  35.2116251  28.8204622  13.5827291  76.0328579  60.1527596  33.3831763
  75.2314901  59.7101355  33.6626840  75.9827757  61.0179806  33.7895155
  56.5953493  27.1116829  31.7165232  56.0669374  27.8725481  31.9575453
  57.2269583  27.0229197  32.4302602  60.0119686  32.0426917  49.8007059
  60.6908321  32.6256704  49.4608355  60.1715183  32.0136118  50.7440662
  70.2876806 141.8705369  29.8250818  70.4976940 142.2301648  28.9632273
  70.6344795 142.5133029  30.4438043  43.8836813 130.3206558  24.2665267
  44.1136074 130.6008835  23.3806157  43.3824396 129.5150036  24.1403818
  71.6450691   8.5766822  17.8871715  71.7635155   8.5302085  16.9384658
  72.1507740   9.3442136  18.1543648  73.6994743  43.7889147  23.5993743
  74.2324638  43.3470106  22.9384112  74.1432142  44.6243620  23.7455010
  66.7652750  25.5844665  46.0064173  66.2451124  26.3507795  45.7646990
  66.1217308  24.9442387  46.3100433  52.6644850  28.0533409  65.4112625
  53.6008263  28.0610228  65.2126884  52.2834826  27.4789929  64.7470379
  63.6565304  33.8659358  31.9709969  64.2061949  33.2682943  32.4778724
  63.8713264  33.6730695  31.0583663  64.8653412  20.8862686  63.8585854
  64.0917587  20.4299259  64.1895723  64.5169353  21.6668797  63.4278917
  28.7729001  46.0572386   6.7852765  28.0381560  45.4573631   6.6566962
  29.4179988  45.5448246   7.2726256  43.5679913  20.6718111  51.8524790
  44.5224190  20.6781888  51.7799520  43.3127069  21.5867782  51.7345858
  77.5810385  41.3804770  26.4460158  76.7709494  41.6876078  26.0389924
  77.6958942  41.9475365  27.2085667  80.1940918  29.4513035  65.9561396
  79.9700117  30.3652143  65.7806683  80.5245876  29.1210771  65.1207066
  25.0434184  15.1790845  46.0423136  24.6384668  16.0066545  46.3018847
  24.3127990  14.6390605  45.7409811  89.3598843  34.5061660  10.3132021
  88.4416103  34.2574906  10.2075434  89.8446941  33.8512659   9.8109126
  69.2364740  12.7248502   7.4788731  68.6411190  11.9756746   7.5016570
  69.5392084  12.7626991   6.5715963  51.2715483 142.9192818  37.1725035
  50.9001923 143.7643612  36.9191885  51.3706732 142.4442358  36.3474369
  55.6580496  16.8075049  11.8387794  56.5998697  16.9705093  11.7873847
  55.5042028  16.5789878  12.7554810  21.4833093  43.2923269  20.1032925
  21.1743498  43.9095449  20.7664824  20.7639527  42.6689243  20.0026584
  38.0363226  50.3029966  29.3920231  37.4279952  49.9468851  28.7444472
  37.4817419  50.7988977  29.9943137  62.6384354  18.2830298 104.2568942
  62.3505211  19.1677070 104.4820257  61.9482088  17.7129984 104.5958378
  48.6426878  46.2321997  28.5100412  48.9200974  47.1482849  28.5183954
  48.6491823  45.9715700  29.4310522  83.9059162  39.7409487  59.7838831
  84.6122932  39.6836662  60.4272938  84.1078091  39.0573239  59.1450357
  54.9614191  33.4370732  11.9007599  54.7728443  34.3111181  12.2423995
  54.8461819  33.5199213  10.9541392  58.6665583  49.3228340  31.4756703
  59.4430971  49.3616819  30.9173656  58.0815649  48.7101316  31.0300136
  80.4637432  53.5916281  54.6714067  79.6437645  54.0486622  54.4843531
  80.6209087  53.0542326  53.8950443  88.3437538  40.4232645 106.9896223
  87.9051018  40.7648134 107.7688231  89.0070343  39.8237896 107.3315656
  81.4153099   2.3530406  55.6164217  81.3983917   1.4189200  55.8246660
  80.5808258   2.6869640  55.9455967  49.2967176  30.0912237  -0.0559672
  49.1099882  30.2301884   0.8725001  49.1718197  30.9514546  -0.4567624
  88.1893539  29.6540666   8.6809444  89.1103554  29.8327017   8.8708591
  88.1629467  28.7180924   8.4822303  51.9793272  25.2362466  26.5654016
  52.7959776  25.6319571  26.8699241  52.0052767  25.3356981  25.6137371
  74.3189526  32.0615268  51.9362068  74.5790768  32.7467775  51.3205814
  74.5678377  31.2444043  51.5042353  27.1404696  16.5878832  37.5103307
  27.9882145  16.5602696  37.0667100  26.8406415  17.4899483  37.3980141
 122.3270173  27.2647524  49.2080641 122.2232581  28.0861473  48.7276745
 121.8826962  26.6126370  48.6662579  61.9837427   4.9499086  45.2140617
  61.5969419   4.0872386  45.3637886  62.8060102   4.9319696  45.7037354
  51.1334324  19.2136991  58.9621449  51.3404608  20.0357962  59.4065857
  50.4722786  19.4525456  58.3124828 124.8026848  17.9487681  42.5822401
 125.3663254  18.2539403  43.2931662 124.0055370  17.6501179  43.0199528
  60.2222347  24.5100760  47.7193260  60.2307129  25.2689481  47.1359921
  60.9469986  24.6654224  48.3249760  72.0905209  14.5201457  37.7466202
  72.1131849  13.8430607  37.0703983  72.5884390  15.2477109  37.3738480
  46.5730143  39.7775340  37.2986698  47.1422195  39.2003202  37.8076506
  45.7350874  39.3162513  37.2621894  48.9359236   8.5673571  20.0638223
  48.3796310   7.8462470  20.3583860  48.3255243   9.2048246  19.6933126
  86.4108849  52.1680832  67.8985310  86.1475372  52.9917669  67.4881363
  86.2260056  52.2943306  68.8291836  52.9183435  19.6545422 106.0420927
  52.0476913  19.5869434 105.6501379  52.8995275  20.4799342 106.5264543
  70.7962275  26.6052151  57.5473309  70.7375288  25.7244205  57.1772146
  69.9194670  26.7802811  57.8891897  27.2723508  40.1724768  23.4608698
  27.1824622  39.4929266  22.7927613  27.0194817  39.7409177  24.2769861
  55.4139280  18.9434767  36.3047433  55.3418589  19.8771822  36.1066723
  56.3374329  18.7382841  36.1589122  34.9065447 142.9552583  20.1465154
  35.5037808 142.2361715  19.9404657  35.4536295 143.5998563  20.5953193
  60.5396557  31.4269066  68.7886143  60.0156307  31.9746614  68.2041502
  61.4015102  31.3902450  68.3737803  72.5739574  14.3080735  19.6622944
  72.0835590  14.4697630  18.8563180  72.6028728  15.1589239  20.0998449
  46.3396502  30.8966541  40.9544086  46.5436172  31.8215919  41.0926819
  46.0323381  30.8519125  40.0489855  52.1132803  19.8618627  37.5085974
  52.5228739  19.8659933  38.3737278  51.5386152  19.0964377  37.5193238
  28.9914894  14.1856873   5.6888419  28.7129664  13.4467816   6.2298369
  29.6165657  13.8075244   5.0703716  75.2920675  46.2875414  15.6128335
  76.0316086  46.4702225  15.0332284  74.7987986  45.6016779  15.1628232
 105.9000874  33.3447409  19.6386695 105.6183243  33.0300593  18.7797081
 105.4718494  32.7572155  20.2612901  58.1009197  18.7808657  35.8649039
  58.4913015  19.6043324  36.1577106  58.8229895  18.3068001  35.4524612
  84.4290829  18.6464238  32.6714253  83.5659122  18.3555877  32.3771811
  84.4255257  18.4899032  33.6157346  25.0957227 130.7203622  23.7996101
  25.1861548 129.7682089  23.8378096  25.9035850 131.0535426  24.1902304
  51.3966370  38.1816244   4.0857551  52.1755743  38.7280059   4.1904280
  51.5195417  37.4670839   4.7107011 101.9693756  43.1232595   7.5244105
 101.4387894  43.9199257   7.5305885 101.4944935  42.5236750   6.9488919
  74.7450304  10.1043105  10.3406215  73.9036512  10.4219794  10.6683481
  74.9807405   9.3927717  10.9359229  60.5970478  38.0267906  39.5149350
  60.8986855  38.4146523  38.6934686  60.5782270  38.7580013  40.1323557
  88.4574986   9.1146952  41.0106945  88.1589317   8.2064915  40.9632349
  89.2251015   9.1446227  40.4396105  72.7311087  12.8942311  43.6263847
  71.9524145  12.5579333  44.0699720  72.4900913  12.9123700  42.7002001
  42.4579859  58.4801626  32.1273303  41.7790985  58.9632416  32.5984764
  42.1058655  57.5942087  32.0417380  75.3966236  60.4985666  42.4854326
  74.8075008  61.2467337  42.5824738  74.8140717  59.7503328  42.3550224
  67.1644449 141.3493080  53.6209488  67.0309925 140.8139140  52.8387880
  68.0975771 141.2611664  53.8151884  37.7220845  64.6459484  90.4235169
  38.5166597  65.1063824  90.6934866  38.0392361  63.8421440  90.0117644
  59.3346930  31.6901612  14.9534655  58.8346529  31.4353967  15.7288933
  58.8849115  32.4679232  14.6232951  79.5616150  10.0354004  74.9733170
  79.3343544   9.7432762  75.8560666  78.8394833   9.7273111  74.4257411
  74.3709707  52.2794294  26.5982461  73.4636784  52.4255562  26.8660116
  74.8933172  52.6734018  27.2969389  65.0623941  47.7699518  23.2256174
  65.3341770  47.7079439  24.1413260  65.8288002  48.1201220  22.7714920
  37.8790712  32.0313931  27.5019073  38.7996173  31.9493699  27.2527075
  37.6068926  31.1377478  27.7105999  52.1490574  10.8752930  96.1912104
  52.3573112  10.7468736  97.1166142  52.9301357  10.5755889  95.7261034
  50.2573299  28.2076240   5.5115068  50.2145243  29.1109371   5.1977801
  49.7444534  27.7086973   4.8756927  44.2011309  15.8003664  20.5310345
  44.2670965  16.1839509  21.4055300  44.7515249  16.3590860  19.9822795
  81.8404579  24.6319652  39.8394704  81.5386677  25.1315045  40.5981588
  82.4849987  24.0207314  40.1961279  54.5557213   3.1844884  88.7756547
  55.4310942   3.5328588  88.9447364  54.5670843   2.3095223  89.1636451
  70.2961779  28.9517713  24.0351248  71.2323236  28.7966061  24.1607761
  70.2347469  29.3589163  23.1710100  40.8181763  19.6924138  28.8189530
  41.3167095  19.9697936  28.0503464  40.2926540  18.9544225  28.5100389
  48.0706739  34.7151256  43.6961174  48.5499525  33.9396572  43.9879608
  47.5205994  34.4007635  42.9786015  53.4388161  37.3225307  48.2133055
  53.1484127  36.4744139  48.5488605  54.2929935  37.4621177  48.6221266
  32.3212290 145.9269653   7.9549098  31.9487524 145.3280545   8.6020565
  32.3057699 146.7826405   8.3836436  67.9881668  48.3340168  26.5060472
  67.3753548  49.0635300  26.4138317  67.7037239  47.6978636  25.8498192
  57.4297571  10.6769049  35.3975344  56.8519926  10.5684197  36.1529493
  57.2258520   9.9326408  34.8312068  52.4590015  37.7048755  61.1504889
  52.4299383  37.7040315  60.1937294  53.3116961  37.3262954  61.3645411
  39.5009804 142.3757789  14.6639132  38.8477111 142.3617626  15.3633952
  39.5003676 143.2813264  14.3537283  37.5892377  37.6302862   3.7546870
  36.8586540  37.0703292   4.0172249  37.7503443  38.1867671   4.5166609
  65.3488207 142.9711638  42.8765821  66.0390139 143.6093027  43.0572605
  65.0924635 142.6449347  43.7391901  77.0860863  57.5870514  22.9422712
  77.1388340  56.6320229  22.9793072  76.3689280  57.7638912  22.3334670
  47.8542852  44.7139359   9.8806751  47.1857882  44.7317266  10.5655301
  48.0765724  43.7876320   9.7869593  37.5660300  33.4091496  55.2480078
  37.0653176  32.6934505  54.8564816  37.1386147  34.2035842  54.9279690
 101.0980415  16.0505784  24.9052572 101.7526340  15.4976845  24.4785905
 101.5764999  16.8425643  25.1503515  63.3126688  34.0669680  57.8645658
  62.3888636  34.0992928  57.6160240  63.7436533  34.6752691  57.2641897
  61.9251299  56.4070177  29.8988962  62.8084373  56.1359596  29.6488428
  61.9764137  57.3606825  29.9631238  58.2872057  16.3024187  64.3302822
  58.7243032  17.0205045  64.7880316  58.9988613  15.7218039  64.0607214
  79.9520826  55.1384878  51.5200233  80.6408978  54.4905424  51.3719511
  79.1706228  54.6186256  51.7079020  88.1182957  34.9394727  47.7139378
  88.0417061  34.8366785  46.7653608  87.5401878  35.6732297  47.9227877
  48.8180685   6.0576779  43.7963724  49.0490055   6.8614769  43.3307457
  48.3264732   5.5429459  43.1563616  93.3800030  39.9689746  24.9497771
  92.7032757  39.3271041  24.7346520  94.1373253  39.7023821  24.4286013
  29.7905731  14.6948433 100.5421933  29.2328644  15.0767672 101.2199297
  30.1916242  13.9341605 100.9626117  37.6296210  53.1736851  34.4773698
  37.3086786  52.5252295  35.1040530  38.3918428  52.7592373  34.0730429
  26.6534686  36.9880652  15.1746368  25.9042716  37.2253537  14.6281683
  26.5710473  37.5447869  15.9489095  48.2342863  28.6198497  25.8687353
  48.7744665  27.9466605  26.2825632  47.4049664  28.1799817  25.6817150
  67.9347563  33.6373949 104.7363534  68.7300491  34.1556311 104.8595252
  67.3897409  34.1692352 104.1564079  83.1294060  26.0002470  19.7777247
  83.8142967  25.4179096  19.4490230  83.4785843  26.3393855  20.6019163
  38.8397431  57.7222157   5.3068340  38.8079429  58.4602404   4.6981168
  37.9949260  57.2855186   5.1981366  42.7184248  28.9072299   0.2794083
  42.9270983  29.8413348   0.2910057  43.5541821  28.4773421   0.0979311
  38.5761404  26.8934441   8.3885491  37.9605889  26.6586208   9.0829450
  38.7144852  27.8341150   8.4991330  67.7381802 140.0259764  21.5695500
  67.0134544 139.4021303  21.5268946  68.1744909 139.8299170  22.3986602
  52.6378393  18.5127616  22.5251222  51.8142653  18.1904149  22.8912544
  52.6887655  18.1095278  21.6584969  37.6897979  54.4353342  51.0764217
  37.5404572  55.3079844  51.4402962  37.6311302  54.5576715  50.1288891
  36.8301272  34.8092008  63.1748247  37.5720692  34.8698640  62.5730944
  37.1022177  35.3127050  63.9420795  47.6816893 135.6967611  37.0812917
  48.4811449 135.2434058  36.8137598  47.1734810 135.7822818  36.2746668
  21.7837477  69.9804449   9.5232785  22.0926571  70.7361746  10.0229621
  22.1391964  70.1128721   8.6444432  76.4695120  37.9955101  50.8157396
  76.3507414  38.8692045  51.1882734  75.6850767  37.5142431  51.0789347
  56.0364580 107.5135297 109.9927355  55.5482817 108.2733340 109.6755380
  55.7442236 106.7916817 109.4361690  86.7955971  40.6007338  16.8840837
  87.0282841  40.3296709  15.9960461  87.5650692  41.0749722  17.1991134
  57.9682970  17.0777297  24.0771174  58.3613396  17.8309095  24.5181060
  57.4000072  17.4610615  23.4090328  42.2737169   7.7468508  97.9054722
  41.6039848   7.5653249  98.5648199  42.8304911   6.9682467  97.9089459
  49.6341753  52.0634031  26.6966724  50.4390287  51.5646505  26.8370080
  49.2593288  52.1643496  27.5716186  82.5631332  45.5802822  13.4601903
  81.7824268  46.1330128  13.4950209  83.2400703  46.1451340  13.0874550
  17.5189900  33.0651689  26.9829059  17.8069317  33.0635166  27.8957677
  17.2093678  32.1728063  26.8278074  78.9326715  55.5581045   3.9775386
  78.8555861  56.4223623   3.5733721  79.4677877  55.7052755   4.7574243
  46.2593603  15.5255771  26.9971514  45.3837633  15.9016621  27.0872784
  46.7479420  16.1747551  26.4910984  28.1972814  60.6632233  18.2847190
  27.8818560  61.3476706  17.6945758  27.7657819  60.8485651  19.1187978
  41.5007496  14.5392656  22.2043276  42.0460415  14.4536376  22.9863477
  41.6078758  13.7062001  21.7452455  63.4385777  33.9729524  41.4183474
  63.1770086  33.6303973  42.2730255  63.0327511  34.8386717  41.3728905
  63.5814095 141.8060825  21.6391635  62.8192091 141.9939117  21.0914397
  63.3661938 142.1903686  22.4890089  67.6161480  27.8289485   6.0563129
  68.0343246  28.6821604   6.1720181  66.9086695  27.8195667   6.7009985
  90.4747105  31.2217498  10.2897513  90.8179760  30.3287482  10.3205466
  90.2134514  31.4091468  11.1913383  37.3636246  31.0534716  20.4703212
  37.2119689  31.3414335  21.3704920  37.3604178  31.8611979  19.9567056
  95.5374527  52.9652977 107.4981458  94.9947834  53.7537909 107.4940211
  96.2313652  53.1554174 108.1294773  75.8122778  12.5714660  32.7379465
  76.3095427  11.8657005  33.1512928  75.4612350  13.0779421  33.4703946
  34.5399046   1.5837435  24.1189432  34.5244360   2.3563668  24.6837854
  35.4285192   1.2393793  24.2084312  54.3015385  11.2471819  42.3130274
  55.1924467  11.3642704  42.6428795  54.4173765  10.9063268  41.4261055
  31.1985898  48.8259935  38.6854863  31.9404078  49.4230843  38.7825465
  31.5974116  47.9594898  38.6058402 113.8274574  49.5666265  77.3632288
 114.0830898  48.6474133  77.4402237 113.8556862  49.7451496  76.4232445
  62.4141026  36.5347028  40.4443121  61.6175508  36.8491578  40.0166988
  62.5820780  37.1733761  41.1372137  62.5391006  41.3303137  47.8479099
  63.3986425  41.2761211  48.2656193  62.6780844  41.8928862  47.0860529
  39.7549438  47.4786997   2.9322326  40.6679440  47.3369217   2.6821032
  39.5883775  48.3971453   2.7202341  75.3845787  38.5268950  58.0425787
  75.1000357  37.9866862  58.7797642  75.9160709  39.2157865  58.4415483
  98.2556152  51.2086535  15.2649307  97.6450157  50.5480862  14.9377370
  98.4535217  51.7509699  14.5014155  72.1627522  11.9989765  29.4155860
  72.0959759  12.1955597  28.4811711  72.9145336  12.5103664  29.7148037
  47.5573969  13.8754904  15.9682906  47.4940014  13.1974530  16.6409552
  47.6898718  13.3921659  15.1527667  19.6875501 136.5141297  30.6682467
  19.9027801 136.8994845  29.8188901  20.2240896 135.7228274  30.7151151
  65.7365036  21.0724807  44.6252012  65.3529119  20.2955246  44.2184734
  66.5113401  21.2619853  44.0961027  62.1131849  43.6359882  35.9898019
  62.2068548  44.4177246  36.5341759  62.2992611  42.9077196  36.5824556
  34.5394564   1.2222088  11.4987063  35.2701378   1.3305953  10.8899462
  34.8863888   1.5103084  12.3430216  35.9246802  14.5524681  34.4828558
  35.6991911  13.6294210  34.5984817  36.5329528  14.5596707  33.7438107
  52.1041203  45.8004808  25.6550026  51.5450144  46.5552330  25.4706526
  51.4918280  45.0877333  25.8375406 105.5795670  30.7297468  68.2310247
 104.8800945  30.0800514  68.3007431 106.0342407  30.6833625  69.0720654
  64.6230412   5.0727296  12.5366390  64.5481491   4.4461429  13.2563698
  65.0068235   5.8528095  12.9371607  69.9922276 135.1848895  71.9647893
  69.1620255 134.8081762  72.2564825  70.6293631 134.8948319  72.6175984
  49.7452068 127.7092154 105.8429181  49.4288206 128.2051582 105.0878214
  49.6059132 126.7930550 105.6031730  80.1206779  38.7401628  23.6675715
  79.7691584  38.7440991  22.7772617  80.5707169  39.5808268  23.7511086
 114.9713230 141.5761156   6.5960008 114.2109966 141.7305387   7.1566159
 115.0376797 140.6228841   6.5396333  55.5275536  20.3525090  13.7162817
  55.3892088  21.1156487  14.2772710  54.9748373  20.5139780  12.9516482
  66.7510509  30.3036094  58.3758974  66.5783739  29.5111370  57.8675652
  67.3676300  30.8023739  57.8398991  35.6724739   9.7615957  37.1829319
  35.1395559   8.9838743  37.0174694  36.3429403   9.7422427  36.5000439
  43.1288958 133.4552867  89.4385966  42.5315809 132.7188689  89.5694932
  42.7120638 133.9837272  88.7579855  85.6774712  68.6677837  25.8184934
  86.5161514  68.5226870  25.3805637  85.0677490  68.0834246  25.3679371
  43.0043077 130.5875773  43.7166166  43.8372850 130.9504933  43.4154987
  42.4620295 131.3542754  43.9019299  54.8171616  16.8999374  69.6099329
  55.7668304  17.0100188  69.5625401  54.5052242  17.1317506  68.7351799
  72.9359818  75.3230858   5.5867141  72.4623537  75.6975842   4.8439765
  73.4567690  74.6156216   5.2065742  65.4289770  39.0803957  23.2193232
  66.1605120  39.2139578  22.6166248  65.2523708  39.9500728  23.5780787
  62.2575378  44.0839958  15.1925552  62.1866512  45.0106239  15.4218400
  63.1952858  43.8972664  15.2372205  51.3075495  35.6549883  53.7837362
  50.9071159  36.0453415  54.5605946  51.1112452  34.7209835  53.8567543
  51.8026781   3.1581807  46.8474722  51.4778614   4.0095553  46.5544081
  51.4608812   2.5371000  46.2042999  63.9553213  25.7977819  37.0304799
  64.2925501  25.8260965  36.1350989  63.0089951  25.6978559  36.9269514
  68.4273005  18.7968075  41.3880014  69.0371418  18.1579995  41.0188818
  68.6675119  19.6250439  40.9726048  65.1600361  17.0114875  45.3316736
  65.8747339  16.4314473  45.0690126  65.3620243  17.8466415  44.9098349
  77.1493864 144.6409584  24.6453071  76.9444704 145.2863892  25.3218126
  76.9740248 143.7959937  25.0594521  89.8485184  35.6261015  37.0775557
  89.0454197  35.3374505  37.5110722  90.5442524  35.1266289  37.5050139
  37.5393534  33.3512354  19.0263450  37.0575690  33.2587790  18.2044160
  37.4079180  34.2649364  19.2795384  47.1963692   8.0251092  34.5015669
  47.5911617   7.7176422  35.3175545  46.7544413   8.8396287  34.7413325
  64.1835451  45.5311346  39.5502710  64.9786806  45.1625299  39.1654015
  63.5378218  45.4970980  38.8444996  95.7726574  35.2050567  70.5163050
  95.7041073  35.9394908  71.1263371  96.7051601  35.1543546  70.3063154
  65.6413126  33.1444573  43.4911680  64.8838997  33.4977746  43.9577770
  65.4121685  33.2269001  42.5654602  93.1105137  23.8246083 109.0515037
  93.8993835  23.2825875 109.0400339  92.7024841  23.6717629 108.1992226
  55.2117920   7.4121952  30.9665680  55.3014183   8.1967878  31.5075064
  54.7766161   7.7183032  30.1708603  61.4190626 145.7188051  22.9949093
  61.7342377 145.9019054  23.8799930  60.6325817 145.1890726  23.1255293
  63.6062574  38.2566690 109.5755884  63.5451698  37.6609921 108.8288155
  64.5236444  38.5294700 109.5899465  52.0210934  23.0349517  52.3081160
  51.2088394  22.5658512  52.1172905  51.8609571  23.9266467  51.9991350
  59.7425842  29.0649390  49.7531176  59.6107578  30.0003862  49.5988703
  60.6564331  28.9941287  50.0289822  55.5605459  17.5165784  16.8575585
  55.2709389  16.6828370  17.2280085  54.8308468  17.8003442  16.3068771
  23.9684081   1.1431549   2.3289067  24.0179920   0.2046832   2.1471258
  23.1795907   1.2425229   2.8619379  53.6658335  37.4294329  34.7526050
  54.1873693  38.2319784  34.7402453  53.7508202  37.1023297  35.6481576
  71.4113808  17.5697327  82.7869948  72.3256683  17.2884393  82.7525076
  71.3751698  18.3370745  82.2159370  78.2917261  42.5199270  43.0784273
  79.1444445  42.5252104  42.6435900  78.4105349  43.0800962  43.8454485
  36.2351274   9.4535780  23.9921832  35.4229403   9.7473466  24.4048405
  35.9740925   9.1916806  23.1092906  91.1790752  25.2246046  15.1613998
  91.5598965  26.0942650  15.2834570  90.2358150  25.3805590  15.1149189
  50.2562857  18.5241807  36.0265589  49.8089790  19.3043804  36.3543367
  50.6273794  18.7957776  35.1870608  56.2360477  39.3346334  55.7614279
  56.4549589  38.4850335  56.1441660  57.0254612  39.8623228  55.8822775
  77.8195906  45.2711058  94.2404839  77.9488802  45.7803917  93.4403940
  77.3056173  45.8445644  94.8089989 107.8668594  31.2354612  43.7958431
 106.9876671  31.6042900  43.8808584 108.3162975  31.8248367  43.1901455
  36.8900704  20.3458309   0.5776779  37.5539351  19.9168873   0.0377495
  36.8864512  21.2542820   0.2761273  50.9054422 144.9689398  90.0022610
  51.1094427 145.3958646  90.8343383  50.0871944 145.3764256  89.7182687
  70.4382849  45.0978470  11.7036581  69.7893238  44.4448900  11.4414990
  71.0598803  44.6131325  12.2467053  20.9935737  19.8545611   2.7009597
  21.0954165  19.3480217   3.5067374  20.7324290  20.7263947   2.9975086
  87.4211597   7.0053136 105.5790698  88.0080700   6.7462915 104.8686677
  86.6942692   7.4471557 105.1401561  24.1262364  12.2182000  37.0199704
  24.5738745  12.9369223  37.4663901  24.8027563  11.8164468  36.4748573
  54.3137836  41.7365646  38.5995817  53.8060713  42.4665880  38.9538813
  54.1225719  41.0048056  39.1862631  95.8365822  28.3278799  97.6255401
  96.1365700  29.0203404  97.0366927  96.3799763  28.4262562  98.4073874
  51.9257355  19.0799880  82.2545656  51.3516951  18.6346567  82.8777727
  51.5808058  19.9715602  82.2060713  65.8845043  52.1990395  49.0437651
  65.8123970  52.6859093  49.8647356  66.7543316  51.8008900  49.0770292
  57.0789671  66.9187260  86.2686452  56.8469286  66.0724211  86.6509517
  58.0290365  66.8795252  86.1588248  36.0809803  25.8357835 106.6709193
  35.2375650  25.3861642 106.6187241  35.8547449  26.7647243 106.7169475
  44.5041704  47.2656250 101.8233355  43.6726379  46.8507576 102.0528492
  45.0431013  47.1726418 102.6089164  68.5117483  11.7791641  21.1989260
  67.5944424  11.9470227  20.9830403  68.6407995  10.8533931  20.9927106
  24.6826029  12.5418472  71.6896820  24.5182109  13.3378267  72.1952724
  25.6106448  12.5910902  71.4604521  37.1000528  13.4688234  59.0963610
  37.1671844  14.2558491  58.5556992  36.8053508  13.7884820  59.9491223
  59.5438480 132.9164679  21.1852145  59.9727106 133.6275561  20.7091188
  59.3904972 132.2429163  20.5226111  52.0399618  24.1238976  30.8845663
  52.8387070  24.6151400  31.0767102  51.3713503  24.5280147  31.4376307
  89.4288063  29.6740603  99.6663328  89.1800404  28.7499976  99.6876975
  90.2447319  29.7140408 100.1652261  46.3153362  44.1950703 105.9433054
  46.0397148  45.0165510 106.3500410  46.1698294  44.3307495 105.0070097
  44.7654104   9.6220952   3.6678657  45.1662683  10.3436828   4.1524854
  45.5066776   9.1207653   3.3281177  91.9847679  47.7268648  23.5133719
  92.6362801  48.2050896  23.0004716  92.2947884  46.8212652  23.5097837
  69.7762251  29.4619060  98.8260814  70.0155735  28.9269304  99.5828804
  69.8876333  28.8784575  98.0754765  80.4900551  15.3625691 100.7396325
  81.1091995  14.7260904 101.0971042  81.0400963  16.0755515 100.4150751
  50.3847980  39.0190244  84.6353086  50.3002930  39.9667025  84.7401603
  50.8698988  38.9108706  83.8172539  79.6139002  51.5135002  12.2977459
  79.0186119  52.0684958  12.8015733  79.1598463  51.3666534  11.4679873
  88.2458687  70.6264591  20.5442262  87.3560905  70.7379341  20.8790350
  88.8101387  70.8599615  21.2813210  59.9161386  30.3616762  85.0429710
  59.7581387  30.2040482  84.1121539  59.5515490  31.2319922  85.2037748
 104.5597744  12.6561093  81.5184172 105.4131699  12.2358692  81.4119371
 104.6620941  13.2140791  82.2894105  77.5077248  21.0090566  94.8890313
  78.2492399  21.4404511  95.3136333  77.4171972  21.4596462  94.0493866
 110.1461124  35.8696771  10.8712506 109.4088650  36.1370182  11.4200854
 110.8867359  36.3790441  11.2002873  67.1942043  26.0684776  27.5044608
  66.4118624  25.5822563  27.2441411  67.9239368  25.5228424  27.2112012
  51.1545277  33.5999489 105.7086488  50.3708315  33.2276607 105.3043499
  51.0090446  34.5457768 105.6867688  47.2161484  14.2953718 105.4512372
  46.8139458  15.0972462 105.7850959  46.4949942  13.8190627 105.0397768
  45.9916544  36.7911053 101.4508572  45.0830793  36.6096950 101.6912945
  45.9325838  37.4959683 100.8059468  93.9076138  63.3310223  14.3502879
  93.0495167  63.6953115  14.5675290  94.4884205  64.0910387  14.3146873
  73.4550428  35.2798510  26.2831259  73.2417107  36.1947608  26.4665961
  73.3956766  34.8448563  27.1337056  49.3591070  58.6136580  98.2972487
  49.6261978  59.5301867  98.3670696  49.5209122  58.3861113  97.3816749
  56.9676876  57.6976538  99.2982062  56.3614607  56.9804382  99.4834872
  57.8356028  57.2975540  99.3518397  52.1035194  21.6170335 108.4470006
  52.5567102  22.1684170 107.8091715  52.0263863  22.1667218 109.2268244
  66.0688925  62.9069328  27.8226638  65.3976107  62.2750521  28.0802250
  66.4296055  63.2240486  28.6506462  56.8490601  11.4454913  43.3755064
  57.1375418  11.7883015  44.2213726  57.6568365  11.1767673  42.9378843
  44.2648983  30.1623082  12.7207661  44.2903185  29.2160916  12.8630960
  44.9368429  30.3230023  12.0582724  71.2689066 138.9033855  28.0369592
  70.3390121 139.0106154  28.2370353  71.3759470 137.9632301  27.8924537
 108.9611340  43.9871216   1.7706665 108.9352322  43.8841152   0.8193778
 109.4316673  43.2141018   2.0825550 110.0652885  57.9667854  28.3738565
 110.5015469  58.7385559  28.7347937 109.4099331  58.3212137  27.7729297
  65.6672525  10.9227979  10.4047942  64.9184799  10.3422344  10.2687156
  66.2886715  10.3979552  10.9093833  60.3682709  31.3810968  78.2003435
  60.7549763  30.5924630  78.5807975  59.5980883  31.0659504  77.7273329
  85.6882763  68.9453697 102.0343556  84.8794365  68.5983086 101.6581204
  85.5995655  68.7928152 102.9751482  50.8959293  51.2739515  87.2807511
  51.5555239  50.9815359  86.6517337  50.3976965  50.4838943  87.4900492
  15.6294560  28.7151480   2.3046374  16.3711715  28.3775210   2.8067315
  15.3129077  27.9604650   1.8081689  73.3364534  12.2054541  13.5919297
  73.2840347  11.6036475  14.3344343  72.6404238  12.8430521  13.7508011
  95.8397770  25.8147359  14.0199292  96.4720821  26.4004993  13.6036217
  96.2715149  24.9604416  14.0243292  60.3877640  19.8818362  91.2888535
  60.9824896  19.1929388  90.9922775  59.6521664  19.4109690  91.6805288
  55.4631758  20.0772357  86.8492993  55.5825329  19.8720145  85.9220084
  54.8436880  20.8069158  86.8553098  69.9898291   4.7288993  54.7366810
  70.3206730   4.7901076  53.8405609  69.0659714   4.4996893  54.6357775
  58.4556627  30.6520104  17.1998072  59.1636992  30.2781987  17.7243817
  57.8180170  30.9607959  17.8434622  54.9182320  17.9461312  96.3254543
  55.1532459  17.9871345  97.2524484  54.3610573  17.1711266  96.2536749
  76.6092682  60.4219818  29.3383145  77.2184086  59.8365211  29.7882152
  77.1318865  61.1959171  29.1282678  37.0385599  40.3389072  97.1150824
  36.7228675  40.9568119  97.7744492  37.9555702  40.1902151  97.3457690
  67.4349403  36.7020535  25.3250241  67.0220900  35.8825874  25.5975389
  67.0877123  37.3578382  25.9296823  24.2481899  26.5422416  24.6987534
  25.1917768  26.4170003  24.5978212  24.0521502  26.1946440  25.5687976
  61.3814259 120.1234455  13.4822989  60.9332943 119.7284479  12.7343786
  61.7609835 120.9306736  13.1350911  66.7747831  28.6585975  27.6523352
  65.8783197  28.4505987  27.9156137  67.1945238  27.8060699  27.5372243
  47.8036356  12.1102309   8.5486156  47.1585798  12.5837457   8.0233377
  47.3280382  11.3502920   8.8840699  62.0799637  13.5406613   3.0637065
  61.9857740  12.7611852   2.5161880  62.5458622  13.2324922   3.8410118
  53.1656647  30.0426793 105.2134781  53.2185555  29.2825603 104.6341219
  52.6428986  29.7415042 105.9566101  33.9146280  50.0071049   2.9110336
  34.0325189  50.2158403   1.9843388  33.2437372  49.3244123   2.9193065
  28.7248755  38.6146927 101.8639138  29.2847610  38.6570382 101.0886940
  27.8377008  38.5312676 101.5143510  32.2064590 146.2522702  11.6152465
  32.9963183 146.7875251  11.5387154  32.4476933 145.5551842  12.2252524
  57.0850515  13.1909919  37.7787590  56.2248802  12.8191876  37.9739428
  57.6965761  12.4690592  37.9239535 112.8560925  11.7661703  31.9021130
 112.8883839  11.0140741  32.4933314 112.7960014  11.3811481  31.0278249
  70.3940773  47.6259089  12.8630924  70.7459974  47.3159647  13.6975479
  70.3839493  46.8489933  12.3040485  52.4136925  15.2363384  25.0729704
  52.5901127  14.4733524  25.6233883  53.0976200  15.8637929  25.3070045
  86.1018372   1.4621679  94.6075865  85.8891296   1.2566142  93.6972352
  87.0563412   1.5326864  94.6204837  62.5361919  22.0352268  11.7032981
  61.6282606  22.0184517  12.0059609  62.7818537  22.9598570  11.7339981
  66.0605526   7.3393172  84.7443875  65.1680946   7.6316154  84.9296292
  66.1249685   6.4832985  85.1678427  61.7911768  27.9233646  52.9286289
  61.2847996  27.2344398  53.3589697  61.4227915  28.7389970  53.2681417
  60.0793648   7.5058001  95.7328900  60.2351809   8.1885642  95.0803670
  59.4605112   7.8992093  96.3480982  79.3604374  35.7058311   6.3636583
  79.5006800  35.1619458   7.1387410  79.2459488  36.5909290   6.7096698
  76.0902023  46.6701698   8.3776337  75.1727772  46.7706203   8.6315376
  76.5438890  47.3790789   8.8335323  57.6102448  34.5447087  28.2889009
  57.1909618  35.4044151  28.2522774  58.1684399  34.5833540  29.0655327
  31.9630980  18.8607788  33.3395362  31.4052415  18.5993862  34.0721369
  32.7450657  18.3158004  33.4275937  48.8335991  51.8248653 103.4667166
  49.4124317  51.2828588 102.9306056  47.9506969  51.5684414 103.2003381
  66.9491482  13.4893370  14.0396333  66.3776588  13.8274038  13.3501828
  66.5537500  13.8021457  14.8532927  49.4453764   2.9995546  96.0365697
  50.3747988   2.9760394  96.2642666  49.3191528   3.8585883  95.6336292
  53.2605457  21.6522813  77.2574099  52.5058746  21.1563230  76.9400414
  54.0186882  21.1878085  76.9028457  62.9952049  36.5468431  73.9437421
  62.9886961  37.3386693  74.4815143  62.3437452  35.9756255  74.3506106
  65.5936909  55.3903246  32.2147751  65.5537224  54.7972345  31.4645195
  66.1660051  54.9465513  32.8406739  56.8427706  63.3589411   5.2074903
  57.1256208  63.5146904   4.3063954  57.4804354  63.8303757   5.7435566
  37.2839236  49.2282629   0.4151621  38.0266356  49.7469997   0.1060959
  36.5831327  49.8671722   0.5452339  44.4034910  40.4718447 104.8265436
  45.3529644  40.5548906 104.7380128  44.0505028  40.9411001 104.0706130
  77.7853060  41.0570574  88.9091166  78.0940008  40.4182720  89.5516857
  78.3151388  40.8882713  88.1300005  52.8480339  20.9299183  85.5854329
  52.0915890  20.7633662  86.1478194  52.6455927  20.4717135  84.7697767
  42.3120403  20.2779984  19.4347441  41.8229628  20.5215788  20.2206850
  41.6701794  19.8326516  18.8816488  48.7442923  30.2966762  91.4927550
  48.3566713  30.1631045  92.3577055  47.9948664  30.3440332  90.8991631
  74.7996330   7.0671886  89.9919947  74.9102736   6.4181209  89.2972287
  75.6915903   7.2727579  90.2719721  87.9994297  49.7867584  30.0283170
  88.5420895  50.2331734  30.6782889  87.9217243  50.4141331  29.3095732
  82.5632572  40.9879589  90.5037256  82.6768780  40.5198908  91.3309094
  81.9544411  41.6968203  90.7113084  52.7338028  37.0721245  40.8700228
  51.8532753  36.8202090  40.5917549  53.3009338  36.3837862  40.5224800
 121.0809422  48.4816313  35.9779048 121.0052299  48.7572622  35.0643802
 121.9397640  48.0623102  36.0311699  29.7131634  47.5916529  14.5985317
  30.5393744  47.3007154  14.2125797  29.8101401  47.4139786  15.5340838
  81.7057419  40.5885649  27.3860002  81.1664104  39.8631549  27.0711493
  82.3762703  40.6986904  26.7118311  38.5124016  66.3410616  99.9929299
  38.4350395  67.0555687 100.6251737  39.4522429  66.2695265  99.8261561
   3.3970219  46.0133982  91.7584547   3.2482505  45.1202631  91.4479586
   2.8687099  46.5602350  91.1770006  42.6228809 145.6500135  19.7223198
  43.3839989 145.1203925  19.9598682  42.2657251 145.2208892  18.9448082
  42.4268818 142.8799514  96.9398411  41.5980864 142.6108319  96.5437325
  42.3796082 142.5543923  97.8387328  32.1086740  26.1668944  99.9195971
  31.2979412  26.5916348 100.1998510  31.8306446  25.5321050  99.2593142
  80.8496189  23.9486313 100.7787033  80.3601265  24.4103789 101.4594498
  80.5688477  24.3597651  99.9611648  51.9676781   4.9314767  36.2283087
  52.8559685   4.5790872  36.2829852  51.6520452   4.9266315  37.1319580
  87.6939678  26.0749507  30.0368142  86.7832565  26.3604045  30.1100612
  87.6462364  25.1189446  30.0391340  82.1032238  51.6178894  53.4657431
  81.6277027  50.7874441  53.4439516  82.8401756  51.4565134  54.0548897
  68.7830973  14.7923863 101.4624443  68.9838743  13.8838291 101.2378468
  67.8894329  14.9253714 101.1463561  63.9808321  34.4924521  18.3658946
  63.8888502  34.9512959  19.2008984  64.9151707  34.2941928  18.3031976
  73.6649656  33.4388280  83.6859878  74.2638254  32.9825187  83.0949029
  73.1675816  34.0259576  83.1166729  85.7092381  28.0305386  31.8513179
  85.4397106  27.6209831  32.6734209  85.4416656  28.9452529  31.9404221
  28.5446548  64.2035770   7.5063527  29.3537760  64.4097137   7.9743981
  28.4932446  63.2479668   7.5262696 123.8377582 129.2807836  88.5935720
 123.5291564 128.4488172  88.2346448 124.3727841 129.6589501  87.8957399
  62.4910402  21.6573286  21.9489598  62.2273207  22.2055793  21.2099695
  62.2821617  22.1811819  22.7223778  58.9605808 145.9781294   9.9236482
  58.0880833 146.0230232   9.5325458  59.3677235 146.8144016   9.6975565
  59.5914793  15.4593539   9.6378785  59.7216702  16.0660851   8.9090723
  58.6536264  15.2682579   9.6258289  71.7414618  52.0506620  64.8340806
  71.6938782  51.8091106  63.9090832  71.3045263  51.3325453  65.2919396
  41.9075823  20.5634785   7.2815430  41.1253691  20.5402422   7.8327543
  42.3906136  21.3327169   7.5835097  24.2762399   3.6592788 108.9670839
  23.7005830   3.7773860 108.2115033  25.0801206   4.1218486 108.7303586
  69.8253393  17.7421772  15.7100487  69.2598104  18.0645227  16.4118338
  70.5121994  18.4043503  15.6327176  67.1778631  28.5024929  31.7126822
  67.6154757  29.2925072  31.3954973  67.1773005  28.5951138  32.6653910
  43.8597441   8.0163294  11.6393936  44.1570520   7.3316211  12.2385716
  44.4157982   8.7689441  11.8409085  53.3355093  47.1305418  86.4807519
  52.8840208  46.3534403  86.8101557  53.6270905  47.5899649  87.2682413
  69.5467329   4.2731547  36.5398502  70.2459240   4.5452723  35.9454465
  69.2652225   3.4218869  36.2047005  61.4288950  32.0829940  11.8591368
  61.5031862  31.3902879  12.5155413  61.5756702  31.6385150  11.0241950
  58.9045811  32.4382520  35.4207182  59.6170139  32.7063370  36.0010672
  58.1495380  32.3355365  36.0000157  42.9868412  26.0333133  32.9773688
  43.6438656  26.7189956  33.0973291  43.4302950  25.2276111  33.2427406
  57.1466589  30.8291554  97.9198226  57.0347834  31.4644599  97.2126445
  57.2395706  29.9876022  97.4732908  69.2952585  37.9271126   3.4660539
  68.7916565  38.7389779   3.5251787  70.1852465  38.2118940   3.2585707
  76.4659739  15.0119936  26.2003732  76.7328978  15.7736552  25.6857300
  75.5097818  15.0542307  26.2124205  90.3021908  42.2678423   7.5316572
  90.5736542  41.4336872   7.1486098  89.4615650  42.0778561   7.9481649
  73.5281610  27.0186496  54.0523672  73.9361572  27.2934628  54.8734951
  73.4241629  27.8290081  53.5536337  45.8083582 134.7198243  23.9549518
  46.1757994 134.3851108  24.7729897  45.2469873 135.4468293  24.2243123
  73.6461210  45.4552460 100.8870658  73.8974762  46.3254881 100.5776646
  74.3314266  44.8756123 100.5544796  87.7929592  51.5542650  33.5610271
  87.4868393  51.7638922  32.6786566  88.0897903  50.6461620  33.5021257
 100.4974365  66.6307735  30.2364802 101.1854076  66.6670513  30.9010243
  99.6819019  66.6071701  30.7370615  62.6430607  45.7969856   6.1981386
  63.5545588  46.0646963   6.3153529  62.4612236  45.2311850   6.9484961
  68.6265755  71.5709782  93.7652620  67.7427626  71.8385839  94.0172418
  68.7148952  70.6820917  94.1092178  64.7032356  43.4929419  63.3525991
  65.1452112  44.2994213  63.6180735  65.1942396  42.7962065  63.7881565
  66.2607193  39.4162941   0.1578396  67.0375872  38.8684368   0.2699153
  66.2572241  39.9870062   0.9262843  77.3978567  34.0689278  10.3074217
  76.5622473  33.6086249  10.3855705  77.1550751  34.9772072  10.1276457
  80.3419495  26.8758893  14.1554999  80.9694004  27.3870921  14.6665800
  79.8290396  26.4022660  14.8103571  75.1101303   7.2636789   9.8362923
  75.6708527   6.9122171   9.1447014  75.5772686   7.0646042  10.6476998
  78.1320429  55.9549809  28.2247519  77.4905014  56.2836027  28.8545632
  78.1604242  55.0112247  28.3820772  60.7064867  23.8933730 102.1895548
  60.1588535  23.5704589 102.9051378  61.3780260  23.2202315 102.0793357
  93.9297867 146.2299780  14.2013144  94.1100979 146.9758640  14.7734809
  93.4920788 145.5941979  14.7673786  74.3732595  24.7622132  22.8459430
  75.2736521  25.0317359  23.0272698  73.8737154  25.5787206  22.8484678
  90.9397411  35.3516483  81.8489321  91.3047409  36.2358832  81.8152269
  91.2573433  34.9928594  82.6775654  45.1843309  42.0490503 100.0871637
  46.1401081  42.0984936 100.1036807  44.9211407  42.7128410  99.4497117
  25.8205557  21.2241650  26.6973042  26.1777568  20.4691768  26.2297225
  25.8399391  20.9662318  27.6188946  58.8323212  37.6835990  49.0833712
  59.6069431  38.0091858  48.6249113  58.6634254  36.8274426  48.6900473
  57.0068407  19.4348598 109.2252329  56.9406700  18.9116871 108.4263932
  57.1685791  18.7945938 109.9181479  34.0995812  30.6665802  33.5969114
  34.9735379  30.8554506  33.2552075  33.5044479  30.9534383  32.9042625
  60.6235743  38.4631467  32.3114514  61.0997295  39.2329407  32.6227808
  59.7105980  38.7474871  32.2683406  63.8362074  10.3729606   3.5228544
  64.3866444   9.8001081   2.9889160  63.2584476   9.7754717   3.9976552
  37.4174833  61.5443420  84.3659815  36.4661241  61.6033363  84.4535454
  37.6216316  62.0839834  83.6022123  90.6021404  14.6438742 100.5203798
  90.5966568  14.1141379 101.3176134  90.6565285  14.0056348  99.8090943
 109.4567585   6.4514959  23.1629920 108.8183784   5.8377939  23.5264087
 108.9267826   7.1130842  22.7184057  79.5879269   0.9617405 105.4962929
  79.6374035   1.8144187 105.9284084  80.4981709   0.6727071 105.4318576
  37.6504302 141.6016553  30.9902811  37.0510864 141.4473153  31.7204833
  37.3938918 140.9581531  30.3297329  73.5709143  17.2016287  29.5664048
  72.6873684  17.2121131  29.1983438  73.5400343  17.8371525  30.2815199
  28.2950616  34.7630143  19.2232132  27.3977280  34.6520591  19.5374024
  28.7789869  34.0386081  19.6198034  70.8825302  20.2129364  23.6683559
  71.3064194  20.9369993  23.2076120  71.0239172  19.4536889  23.1028605
  88.1559467  61.3910770   2.1791923  87.4449062  61.9539881   1.8729438
  88.0573940  60.5842733   1.6736376  80.5982018 131.6713066 109.0971623
  80.4391956 132.6103527 109.0015639  80.6904125 131.5388281 110.0406557
  41.3734436  12.9990911  90.9222611  40.4975367  12.9026270  91.2960430
  41.2828112  13.7008488  90.2776273  44.2252731  30.0106883   9.0655297
  43.8233471  29.9592018   8.1983286  44.2869806  30.9487677   9.2456037
  61.2095404  22.6585245  14.9322760  61.6063929  21.8303299  15.2021503
  61.8077850  23.3292985  15.2615118  38.0103993  27.0878720  15.0792682
  38.8679552  27.3967743  15.3715122  37.4113989  27.8017545  15.2979088
  40.5671978  52.6103163  12.2952163  41.2580299  52.1699095  11.8002164
  40.4480028  53.4476662  11.8470299  38.0178094 141.3886584  47.4776173
  37.7495956 141.2747366  48.3893824  37.8726792 142.3178900  47.2995806
  62.6044798  39.2319441  29.2224264  63.0938816  38.9017653  29.9758840
  61.8247557  38.6782074  29.1819572  45.6158209  46.2302303  21.4426017
  45.3530598  46.6991901  22.2346020  45.1837540  46.7018986  20.7305050
  83.8784409  44.5454025  75.3688821  83.6847496  44.8044205  76.2697848
  84.7839642  44.2364979  75.3979000  35.1694369  53.1088114   8.0898517
  35.4687238  52.2005844   8.1321031  35.7246065  53.5131693   7.4231327
  86.0073185   2.4189892   6.4189327  85.3212070   1.8491013   6.0714942
  86.6877174   2.4125624   5.7456994  77.4974489  44.0572977 105.0503182
  76.7374229  43.9927912 105.6286185  77.1407938  43.9310408 104.1710641
  44.5986128 122.9018206  39.4714165  45.3356695 122.3832197  39.1488719
  44.9552536 123.3886714  40.2143955  61.8495893  12.6258922  76.8023452
  60.9042883  12.7028930  76.6730627  62.0712280  11.7666936  76.4433392
  21.4329696  27.3688602   3.4772533  20.8134556  27.6972318   2.8256363
  22.2358847  27.2043061   2.9828027  38.4573412 137.2337050  33.1287313
  37.5669074 137.3601104  32.8010416  38.4721589 137.6963539  33.9665651
  54.0600252  37.1242738  90.8498427  54.0673161  36.5583754  90.0778731
  53.2853889  37.6748896  90.7358750  71.5381479   1.8221889  98.8925227
  70.6811571   1.3960110  98.8793501  71.3493061   2.7328771  99.1188344
  58.7239552  41.0177326  35.7217979  58.0206919  41.1581993  35.0878215
  58.2808447  40.9951925  36.5699601   9.1582990 116.2107820 103.4108123
   9.7758090 116.9230313 103.5769811   8.5923558 116.5422196 102.7136120
  46.9247055 142.1886230  22.3931408  46.8939352 141.2319941  22.3810220
  46.1359501 142.4476145  22.8696012  47.8426456  76.7218494  33.9003420
  48.3582306  77.4768972  33.6169577  47.5709152  76.2981844  33.0861545
  67.1415281  29.6408820 105.7543957  67.4472475  28.7478828 105.9135266
  67.0857716  30.0337481 106.6254743  46.0199881  47.8936052  88.8313564
  45.2127981  47.9219007  88.3176669  46.3495541  48.7920094  88.8092788
  98.1599998  57.6214981  12.0372510  98.9203262  57.1387148  12.3613536
  98.1939888  57.5119495  11.0869479  85.3678989  50.5917311  21.3382840
  85.9100723  51.1116171  20.7449794  85.3328800  49.7251225  20.9333253
  63.7723541  30.7444119 105.4239606  62.9164314  30.4020596 105.6816840
  64.2369318  29.9860716 105.0699600 110.6171989  54.7767782  18.9332962
 110.3913116  54.6931744  18.0068934 110.6194782  53.8775587  19.2613649
  67.1442556 112.6705188  56.4523935  66.5792513 112.4721927  57.1991682
  67.7945614 113.2810969  56.7995644  66.5494347  33.4930611   5.7688752
  65.8696508  33.6493349   5.1133577  66.3308811  34.0871429   6.4868871
  57.8066015  18.9052176  91.7033768  57.6444244  18.6253393  90.8024883
  56.9748449  19.2819893  91.9905376  90.2022648  34.1343975   6.8616144
  89.4066238  33.6102104   6.7699281  90.8467388  33.5293317   7.2287504
  81.9113159  43.0093288  25.4429475  82.0025158  43.6175442  24.7094671
  82.8000832  42.9110098  25.7844869  60.7105923   6.0045868  99.0052414
  60.6222343   6.9575715  99.0209293  61.6484165   5.8491212  99.1172504
  38.6145949   0.7457174 107.5825787  38.7580276   0.8474369 108.5234928
  37.6913333   0.5050737 107.5056839  60.8889437 117.2400040  97.8683090
  60.7220793 117.4643893  98.7837601  61.4584589 117.9404087  97.5500107
  77.0082092 143.7468524   9.0469686  76.8736696 142.8023053   9.1241876
  76.3741159 144.0258921   8.3864442  23.9142060 133.7921924   1.7201272
  23.3855391 133.9354903   0.9351388  23.8941813 132.8444225   1.8526594
  58.4410191 134.8602814  74.0143967  59.1121769 135.3643686  74.4744778
  57.6972055 135.4587931  73.9453983  72.9096222  45.5586529  77.5866413
  73.7719250  45.9729815  77.5551653  72.8448868  45.0773811  76.7617655
  89.4523621 129.8843510  86.3615131  88.5334396 129.9752707  86.1094379
  89.7061825 129.0213234  86.0344219  82.5593376   4.1161042 102.2989464
  82.4384785   4.3606338 101.3814354  82.6174259   3.1607485 102.2865486
  70.1093626 139.3047149   2.8860322  69.5381880 139.1041828   3.6274949
  70.3501177 140.2227337   3.0105726  45.4095745   1.1055484 107.9245377
  44.8808002   1.0321787 108.7190533  45.9863567   1.8516001 108.0887413
  35.8680916   1.8112071   7.2040693  36.1241865   1.7346327   6.2849561
  34.9591780   2.1100143   7.1753637  51.6280603  12.3067689 105.5141354
  50.7883120  12.0214427 105.8741951  51.7854166  13.1592798 105.9199619
 109.3212891 143.7116102 108.1959248 109.7866726 142.8954596 108.0127525
 108.8139153 143.5258729 108.9860535  89.3874264  35.1722550  58.8084507
  89.3213844  34.2393899  58.6044216  88.4800816  35.4606009  58.9074564
  14.8528218 129.8700792  67.9971790  14.6020281 129.1192562  68.5353279
  14.3834734 130.6093104  68.3838081  77.1197128   6.1265445 107.2337055
  76.6180849   6.3416231 106.4473629  78.0325174   6.1367643 106.9457531
  63.4057426 117.3172612   2.8036538  62.9680347 117.3916597   3.6516515
  63.7619829 116.4288659   2.7951185  77.2702694  40.5075645 100.1740551
  76.3362932  40.3119326 100.2492237  77.6956749  39.6500993 100.1781940
  78.1814575  18.8085997  87.2298908  78.7813377  18.7751019  86.4847374
  77.4511766  19.3473339  86.9254303  79.3266058   0.5388693  88.1411839
  79.8552847  -0.2377314  88.3245468  79.1575861   0.4967855  87.1999645
  78.7968779  20.0726771   9.8287145  79.0984106  20.9793162   9.7711316
  78.2881737  20.0404501  10.6389085  65.3934669 145.9500862   0.9757463
  66.3109446 145.7570394   1.1686269  64.9342346 145.7759794   1.7973462
  40.1513052   8.3640099   2.9643289  40.9428883   8.0735350   2.5112859
  39.9072433   9.1773003   2.5224820 113.0645561  10.8547449  96.5873528
 113.4328270  11.0828078  97.4409389 112.5905228  10.0376010  96.7416096
  53.9277220  23.1783223  59.9140215  53.9006948  22.8920865  60.8270216
  54.4183445  23.9999557  59.9350262   4.3476611  13.5903835  82.2887802
   4.4686442  14.5383370  82.2342014   5.2350550  13.2332599  82.2536182
  50.2652264 143.6561752  75.3394079  51.1974335 143.5995222  75.1296091
  49.8215914 143.4228046  74.5239592  69.8210907  34.6680951  81.5320301
  69.2872763  35.3955579  81.8515205  69.2017269  34.0992522  81.0748196
  73.9687538 135.5380912  78.6454296  74.1299582 134.7013707  78.2093763
  74.5758772 136.1477000  78.2258987  40.8966255   9.0642351  68.0513000
  41.0512066   9.0912300  68.9955521  40.0085688   8.7179351  67.9637861
  75.7921219  12.8358626 108.8550091  76.3214159  13.6048889 109.0663910
  75.3740597  12.5980103 109.6825886  84.9223328  17.8451753   7.1156923
  84.8940945  17.4898911   8.0040590  84.4027138  17.2319770   6.5958635
  41.2792444   7.8894490 108.8532925  42.1829891   8.1387496 108.6600971
  41.3546038   7.0541859 109.3146896  69.7908926 145.4701803  18.0008832
  70.2644300 145.2906095  17.1886388  69.8592901 146.4182791  18.1134073
  81.6173649 128.9367981  92.7763939  82.2978592 128.6340899  92.1751213
  82.0977592 129.2603368  93.5384846  72.9221964 145.5033185  90.7560825
  72.4112797 145.0115032  90.1131821  73.5029936 146.0533374  90.2303600
  74.4450951  11.6856515  76.9094181  75.0735044  12.3955917  76.7778254
  74.9869108  10.9091592  77.0498610  56.6440821 131.0336656  83.5813427
  57.2455740 130.3980131  83.9691353  55.9753418 131.1708672  84.2523098
  70.1427841 138.6129434 104.2175674  70.9411955 138.4786076 103.7069511
  70.4508066 138.9449591 105.0608444  48.9481020  12.3075032 106.3356304
  48.4286404  11.8239677 106.9779491  48.3020306  12.7876163 105.8176327
  52.0501375  26.7689776  94.2381477  51.4795351  26.0626483  93.9352512
  51.4669085  27.3610806  94.7130013  63.8347483   3.5636142   3.5603849
  63.9643097   2.9226524   2.8613702  64.7126818   3.7188247   3.9087716
  45.7864571 137.4737407   0.9964505  46.2033653 138.3195967   1.1606065
  44.9079418 137.5640584   1.3656274  89.1715527  40.0709343  84.9962807
  89.3679619  39.6463513  85.8313847  88.7925339  39.3762922  84.4577217
  48.8623714  42.8667259 109.8149109  48.4055805  42.0906830 109.4903660
  48.7934732  43.5010910 109.1014290  75.7149553   1.4782371 101.8258762
  76.2887192   0.7122109 101.8410397  75.0835848   1.2908652 101.1312580
  56.3963079  28.4199786 103.6397839  55.4427671  28.4763265 103.7015152
  56.6898441  29.3309903 103.6284924  69.1759062 106.1075658 103.3779526
  69.3241692 105.4838962 102.6671124  69.5034790 105.6623430 104.1594315
  30.6509018 138.0890561  41.8140069  30.5805922 138.8267232  41.2080900
  31.5793991 138.0559135  42.0442907  61.5396547  21.5708041 103.4679317
  62.1727848  21.4340401 102.7631855  62.0507479  21.9618821 104.1765022
  50.8844614 123.0118580  34.6724168  51.7287970 123.3369965  34.9848501
  50.6627131 122.3027129  35.2758828  97.5708866  14.3086195 101.6273308
  98.1855106  14.9576044 101.2848473  97.9998875  13.9619064 102.4096203
  96.1627769  19.2062402  23.9700643  96.0353374  19.3082094  23.0268804
  96.4865208  20.0585699  24.2615358  31.4622259 145.9714331  94.9547768
  30.9713006 146.0895630  94.1415882  31.9409490 146.7926896  95.0669956
  72.9905510  46.8866301  67.8744507  73.6720800  47.3448801  68.3661413
  72.7115774  46.1784554  68.4548712  35.8506656 125.4895491  18.1121103
  36.1360884 124.7789688  17.5377885  35.8319855 126.2616796  17.5466958
  74.4513416  10.0144196  94.7060966  73.8059568   9.9378395  95.4088306
  74.6041775   9.1132146  94.4220066  73.2617331 127.7048690  25.9499208
  72.5074482 127.1979434  25.6493989  72.9038191 128.2982177  26.6102735
  84.6247101 142.9185135  83.3323860  84.3912315 142.8528098  82.4064255
  83.9944649 142.3532320  83.7790012  78.0887079  48.8685226  97.1141338
  78.4881306  49.1250944  96.2829494  78.2803345  49.5955992  97.7064800
  23.8564444  23.0670285  84.2750931  23.0725741  22.6130557  83.9657688
  24.0497065  23.7058568  83.5889626  17.4388170  33.3536792  -0.1161059
  16.8324029  32.7211308   0.2690831  18.3005273  33.0829668   0.2007524
  45.1386023 145.0719150  54.5413113  46.0016775 144.6924443  54.7066402
  45.3164911 145.8513152  54.0148878  65.7267952 122.2377033 109.1960335
  66.2758303 121.4645404 109.3264484  65.1514339 122.0028467 108.4679985
  46.4044046  28.8286662  67.4436474  45.6850243  28.2386684  67.2186375
  46.1378908  29.2260361  68.2726812  75.6390095  42.6160288  22.0514051
  76.1013746  41.8017340  21.8529550  76.2498999  43.3069181  21.7950574
  71.2723017 137.7911932   9.8490182  70.5136251 137.6310463  10.4102651
  71.4008665 136.9671966   9.3792001  65.4199362   2.9008600 109.1821957
  65.7439137   3.6088517 108.6254025  65.6557131   2.1003816 108.7132835
  54.8571920  30.4009032  82.0536423  55.4020357  29.6600008  81.7882252
  54.7214556  30.2741456  82.9926491  42.5522375 127.8979618  59.4805670
  42.2878504 128.4761460  58.7650013  43.3817625 128.2625754  59.7890711
  86.4377499 123.6225505 107.4660492  86.3782883 122.6683707 107.4187660
  86.8013954 123.8821120 106.6195202   9.8709679  21.2545800  10.9496538
   9.3343884  21.8403792  10.4156534  10.6999934  21.7207837  11.0573808
  77.0560932 135.1840789  16.8568460  77.8520870 134.6737880  17.0059434
  77.3711681 136.0397691  16.5657178  56.7289209   5.5156779  94.5865345
  56.3920784   5.6382960  93.6989880  56.5494680   6.3459998  95.0276661
  49.8659515 122.5010247 100.7159042  49.2452335 121.7729849 100.6858921
  49.8730612 122.8466649  99.8233223  33.5018897   6.5170431  24.5445005
  32.7548480   6.4918607  25.1424352  34.2607021   6.6422129  25.1143876
  97.7947235 142.4944464  -0.1726683  97.3793507 143.0660916   0.4730264
  98.7166691 142.7516151  -0.1623114  53.6156225 124.9697656 109.0914726
  53.0791664 125.1605553 109.8609257  53.7354374 124.0203280 109.1124725
  62.2134352 127.6851887  89.1859722  62.8861523 127.0091278  89.1045856
  62.3139238 128.0168731  90.0782299  71.8880749 130.8385868  19.6826879
  71.7789841 129.8958726  19.5576993  72.8258896 130.9528548  19.8365537
  32.3219728 129.3641824  23.8812295  31.8647838 128.5435099  24.0648214
  32.9912138 129.1270919  23.2392541  42.4120998  18.3672714 108.2059860
  42.1668863  18.5277641 109.1172123  41.5999556  18.0844808 107.7856445
  82.6497173   5.5215067  14.1599599  81.7971134   5.9395170  14.0393010
  82.7198982   4.9056473  13.4305612  66.9097376 129.4286711 107.5432777
  67.4833536 128.9784867 106.9231701  67.4406672 130.1503629 107.8801823
  51.9519711 146.4344014  83.9484596  52.2594213 145.8290640  83.2737255
  52.5398970 147.1867594  83.8811588  80.5539894   2.5267127  90.6819153
  80.4144764   2.6984081  89.7506332  80.5113697   3.3898067  91.0935974
  58.8906956   1.9731127  88.9117527  59.8028803   1.9704650  89.2018223
  58.9131355   1.5631743  88.0470753  45.6745529  18.4127355  59.5814991
  45.8192825  18.8408422  58.7376928  46.2145424  18.9082444  60.1972198
  64.1734695 146.4224908 108.4309292  64.5892859 146.1647305 109.2536640
  64.9006605 146.6877307 107.8678417  48.2525778 138.1377263  24.4299070
  47.5281954 138.7570662  24.3409101  47.8971720 137.4289180  24.9661008
  32.9941249 134.4439191 103.7975025  32.0916891 134.2125864 104.0173340
  33.5003257 133.6588604 104.0064907  89.2640305 104.2776127  74.8102713
  88.3146095 104.3917913  74.7678900  89.3986702 103.3394737  74.6760893
  70.3618097 144.5598453 108.2548046  70.9463549 144.8047393 108.9721394
  70.9492588 144.3340217 107.5335979  71.2373018  21.7545652   2.6409856
  71.7762375  20.9715056   2.7532426  70.6777096  21.7734933   3.4173433
  62.7202177  32.7850246  99.1116428  61.9167185  32.7199006  98.5955238
  62.4204731  32.9961157  99.9958515  48.1508112  20.1380873  76.2263393
  48.1559944  19.5184791  75.4967594  48.8160944  19.8047256  76.8284178
  81.1673164  13.5100067   7.8722135  81.1971569  14.4666612   7.8845636
  80.3981113  13.2875824   8.3966867  68.9858818 145.5461766  37.1603719
  69.1720724 144.7094134  37.5862733  69.6954727 146.1225119  37.4441854
  63.6746550  36.8149734   6.1071149  63.8900948  36.9330788   5.1819745
  62.7581310  36.5389085   6.1062471  43.6706257  17.8714836  97.1663761
  43.9708900  17.3810256  97.9315758  43.0622292  17.2784901  96.7254257
  49.0803289 113.7396593  91.8852615  49.9185228 114.1185422  91.6204739
  49.2934084 113.1903834  92.6396656  68.7211370 140.6705005  93.0624485
  68.3406878 140.4328955  93.9080429  69.6487093 140.8151723  93.2493019
  97.8375435  48.1769705  89.3944073  97.0652199  48.7384987  89.3277931
  97.5508499  47.4380398  89.9310780  82.4726677  39.6433043  19.5365564
  82.2632790  40.3884029  20.0997773  83.0039883  40.0165462  18.8332597
  68.1450891  32.4664736  19.9784986  67.6750135  32.4869442  19.1449205
  67.4602938  32.3485279  20.6368104  97.2841358 104.9510021  74.9449539
  97.8635597 105.5640096  75.3974199  97.8572559 104.4841451  74.3368387
  38.4071302  34.2496538  97.8010941  37.6063156  33.7284589  97.7437973
  38.9795136  33.8842320  97.1265030  47.0081711  10.3738678 108.2996368
  46.5780258  10.9891367 108.8934708  47.6027155   9.8756266 108.8604450
  74.8938084 137.4251307  19.8398534  74.3768072 137.3154331  19.0417806
  75.8029509 137.4033726  19.5411531  43.8756227   1.2409901  57.8281498
  43.9799023   0.3145441  57.6112223  43.2728910   1.5760483  57.1643066
  49.8612213  19.6153736 101.7687607  49.2184448  19.3842888 102.4393368
  49.7773600  18.9267683 101.1091995  49.4919157 139.0143449   6.8897859
  48.8049173 139.0820474   7.5528661  49.3955946 138.1307752   6.5344564
  53.7203455  35.3486514  88.7517262  53.6017275  35.9312320  88.0015564
  54.3820667  34.7196174  88.4641933  75.2848339  24.3296576  83.7349606
  74.4331121  24.3961835  84.1666603  75.1477051  24.7223139  82.8728390
  65.7252073 141.9732914  90.0883389  66.1975765 141.1407942  90.0813007
  64.9930573 141.8383405  89.4866943  61.0383654  23.4630251  73.8694763
  60.8551216  23.7794900  72.9848814  60.8087063  24.1973400  74.4389200
  65.7048368   4.8299512 106.9925594  66.3525391   5.0336897 106.3178730
  64.9437332   4.5132768 106.5060711  82.8585625 127.0243461  82.4373245
  83.7500572 126.7831309  82.1857548  82.6687050 126.4778061  83.1998730
  45.3607559 145.5002751 103.6321735  45.7352304 146.3040276 103.9927006
  45.4334974 144.8626039 104.3423271  55.6949949   6.1554003  91.9154549
  55.9468412   7.0693028  91.7828369  54.7731400   6.1215091  91.6599846
  72.4220037  12.0453024  93.7244034  72.5800467  11.9939244  94.6670628
  73.1080389  11.5020001  93.3365631  47.9811573  13.3765841  75.0717115
  47.3878384  14.1179836  75.1922512  48.2225466  13.4110272  74.1460896
  78.3239079  40.9056902  18.2389966  78.1592417  40.4674482  17.4040929
  78.7301826  40.2336025  18.7862436  94.7609711 117.7244944  75.5719471
  95.5586720 117.5676436  76.0772228  94.5745087 116.8848176  75.1519394
  39.3224907 136.6834135   6.9358293  39.2763090 137.6197750   7.1290246
  39.5354867 136.2758631   7.7753297  54.9955273 142.0473824   7.4153940
  55.5843258 141.5606821   7.9921666  55.4606819 142.0911146   6.5799562
  55.3459692 135.6032295 107.4522591  55.4639435 135.0079078 108.1924629
  56.2026215 135.6279916 107.0259094  96.4571381 124.9586887  75.6195831
  97.1542168 125.0213284  76.2725639  95.8221912 124.3544645  76.0042715
  96.4552784  19.9836111   6.4883558  97.1744251  19.9188507   5.8599607
  95.8578300  20.6247640   6.1033765  54.0311766   7.2292030  95.7140160
  54.5677900   7.4499083  96.4753056  54.0299416   8.0255216  95.1828766
  34.2306185   8.8079029  99.6310425  33.3088064   8.8130665  99.3732262
  34.7076392   8.9743656  98.8180351  43.2422256 123.7656207  33.5965196
  43.9781618 124.0096540  34.1578332  42.9223919 122.9422803  33.9653627
  58.8262606 119.5396347 102.4376106  59.6684647 119.3917651 102.0074177
  59.0085888 120.2085609 103.0975533  49.1556549 145.6755736 105.7981491
  48.6468554 146.4859386 105.8239174  48.5606194 145.0312577 105.4147148
  80.1275635  11.6887701  84.8708248  80.1869583  11.7686307  85.8228397
  80.6715775  10.9300172  84.6597195  77.1716976  43.1150913  90.7641888
  77.5618458  42.8991508  91.6111755  77.5561810  42.4842310  90.1555634
  38.7466097   3.8823941  19.7212640  38.0700207   3.5838789  20.3290025
  38.7881112   3.1975263  19.0538255  55.2337694 128.1579704   2.7688829
  55.1100063 127.2127838   2.8556958  55.1172972 128.3299501   1.8344919
  76.0494328  54.3212080  88.6165142  75.5085325  55.1034164  88.7251854
  75.4201984  53.6057901  88.5244465  58.0584812   3.4904104   8.1707708
  58.1376123   3.4070373   7.2205011  57.1444750   3.7357473   8.3143941
  54.1724014   0.7383045  62.0939970  54.2909145   0.9182836  63.0266237
  54.3746853   1.5683302  61.6622877  91.1339474   9.3149734 107.6613712
  91.9673538   8.9356339 107.3825169  90.5876827   8.5595500 107.8785324
  77.7914667  36.0458088  87.2101974  77.7743816  35.2125335  86.7394638
  77.1354103  36.5843606  86.7677212  45.0448942  35.1895571   0.6943075
  44.1421604  35.0501704   0.9804384  45.2911282  36.0304928   1.0795728
  36.8447518  16.6998351  56.4782190  37.5380754  16.0738564  56.6872311
  36.5632510  16.4595461  55.5954647  46.8230581  13.5490596  83.3079243
  46.4243317  13.2611001  82.4867535  47.1559286  14.4261706  83.1179142
  65.8515453  44.2225504   5.1229802  66.2856436  43.7500048   5.8332483
  65.5930376  45.0573254   5.5135671  30.4115939  12.0136905  33.9497320
  30.2680111  12.7470434  34.5479051  30.5280375  12.4231601  33.0924074
  41.2922049 123.8908477  93.7282276  40.5469036 123.4499378  93.3203506
  42.0595312 123.5027427  93.3077335  52.7312040 133.3700568  96.0420418
  51.9054937 133.4585125  95.5660057  52.7529669 132.4530048  96.3154888
  49.3307400 142.2544322  84.1304684  49.4291925 142.4061311  83.1905079
  49.1294098 143.1173331  84.4925404  80.8490562  28.9103198  63.3242846
  80.9509182  28.6269379  62.4156857  80.2655792  29.6675205  63.2750320
  74.5493460  26.5915966  56.9009638  75.4216719  26.2469959  56.7098379
  73.9697647  25.8340001  56.8211603  91.5980434   0.6610844   1.8864957
  91.7956257   0.1636567   1.0929242  91.5101719   1.5657791   1.5864316
  74.1772413  58.2927322  81.0562801  73.2332468  58.1536579  81.1322212
  74.4932270  57.5310469  80.5702591  61.3468885  19.7015357  94.1133022
  60.8998203  20.1319075  94.8421001  60.8565569  19.9733114  93.3374500
  49.1845989  12.1380281  11.2092153  49.7790051  11.3921905  11.2907258
  49.0612125  12.2439909  10.2659360  47.0522213  19.2313075  61.8471670
  47.3573399  19.7921431  62.5603294  47.8412199  18.7859082  61.5384007
  85.8776188  15.7010770 100.2556133  86.3790607  16.4884281 100.4674435
  86.0865498  15.0873685 100.9598446  83.4462738 128.2028646  75.8689833
  84.0010548 128.4213216  75.1201677  82.9536915 129.0046866  76.0441208
  90.5076504 136.5897919   0.5529538  91.1362553 135.8772690   0.6687108
  89.6689701 136.1493427   0.4156915  44.2583466   4.5609713 105.2409744
  43.9173746   5.2117723 104.6274376  44.8533869   5.0534421 105.8063412
  71.9222927  21.5397334  85.7279682  71.9671106  20.6838655  86.1542511
  72.8150463  21.7027450  85.4235744  38.4653258 131.6218550  84.4117069
  39.1709161 131.0171253  84.1821861  38.3807302 131.5416736  85.3617764
  83.4372807  31.8781519   9.5209829  82.6594257  31.7253494   8.9844838
  83.2950592  31.3483596  10.3054086  51.4618158   0.0034661 104.8435783
  51.9983578   0.3192853 105.5706406  50.6441736  -0.2781115 105.2539539
  62.3221111 129.4426889  95.7711983  62.7472591 130.2732367  95.9849167
  61.9716024 129.5728154  94.8900414  39.5243001 143.2661358  79.9665356
  40.2769661 143.5951338  80.4579544  39.0179157 144.0493659  79.7512341
  82.8420162  30.7491899 100.6743813  83.4866619  31.1044717 101.2862873
  83.1699371  29.8754597 100.4615498  80.4921627  10.0265336  90.4055786
  80.7498169   9.9687052  91.3256264  81.0919094  10.6704748  90.0289059
   9.7768098 146.7179237   1.8545476  10.6061625 146.6295708   2.3242322
   9.6196067 145.8508001   1.4808980  26.8851757 125.6399173  93.3485126
  26.6843843 125.8298797  94.2649364  26.2456727 124.9738450  93.0962944
  62.5181150  38.9592457  23.1813184  62.4144173  39.8880076  22.9742376
  63.4152126  38.7538815  22.9181234  44.9747419  27.6821661  99.4336891
  45.8057308  27.2148609  99.5192337  45.0102425  28.3595276 100.1090717
  90.1143456 145.6056982  79.7963762  89.4667625 146.1799721  80.2051449
  90.4984379 145.1200310  80.5263233  42.1910381 135.7052953  23.5808793
  42.8853273 136.1708982  24.0471498  42.1870375 134.8302824  23.9689103
  44.7893286 126.5749759  91.5784740  44.8101807 127.5039596  91.3487244
  43.8599825 126.3780708  91.6958332  51.5380001  45.5211782  11.6010705
  52.4792194  45.4723597  11.4338723  51.1857033  45.9982824  10.8497468
  78.7848854 146.1150387  76.2319279  78.8937807 145.6913649  77.0833206
  79.0899563 147.0117747  76.3698673  59.9973297  21.9872570  12.4260465
  59.1905546  21.4721847  12.4192182  60.0589800  22.3239398  13.3199540
  68.5344553   5.1882446  42.9487745  69.2113972   5.4436749  43.5754625
  68.9882278   4.6239042  42.3228017  47.8322792   5.9624457  80.7689285
  47.4881077   5.0704789  80.8155441  48.4279966   6.0286123  81.5152359
  41.4822483  29.4524980   2.7929059  41.5095997  29.2133951   1.8664590
  41.7947340  28.6722589   3.2509652  90.3050137 136.3058788  95.9433079
  90.9796238 136.8971665  96.2772369  89.8885918 136.7942978  95.2331829
  70.0328588   9.4487906  85.5999851  69.4297266  10.1712227  85.4251862
  69.8037243   8.7832057  84.9513531  56.8988276  53.7428808 102.2101116
  56.3918591  54.4522572 102.6050854  57.1638012  54.0845442 101.3561344
  35.5953813 141.7419360  76.6415691  34.8288941 142.0725829  77.1099758
  35.5669546 140.7944299  76.7744493  67.1465158   0.5551200  94.5917416
  67.3263407   0.6583451  93.6572647  67.8487778   1.0395867  95.0257301
  83.6595821 145.7069504   3.4941331  83.1496716 145.8711529   4.2873994
  83.0040646 145.6160198   2.8025762  72.2675467  26.5946436  90.5545330
  71.9238186  27.1699905  91.2379456  72.8482485  25.9917045  91.0187244
  71.7160797  15.6530893  84.7922993  71.5235090  16.2540388  84.0725708
  71.0333252  14.9846327  84.7353745  20.8495116 123.7046356  91.5978909
  21.7430854 123.7212438  91.2551308  20.8984327 123.1366081  92.3667717
  49.7039795   3.8623932  99.5859623  49.7862053   2.9216060  99.4297886
  50.4242373   4.2513931  99.0898418  60.8177710  21.3085246  75.7578087
  60.1797342  21.5584970  76.4261341  60.9047556  22.0864177  75.2068567
  87.7903080 136.7239506  87.9803467  88.5117817 136.2131602  87.6131821
  88.1789207 137.1892233  88.7211037  58.3976555  36.2056327  96.9141865
  59.0279102  36.9207144  97.0017433  57.6275444  36.6124058  96.5170670
  58.9291716   1.8775077 101.0033703  59.3340445   2.3378980 100.2682877
  58.0897856   2.3198201 101.1299515  69.4454861 140.6792969  90.4890347
  70.2844572 140.2202011  90.5288506  69.1889095 140.7891954  91.4046383
  74.0445042  14.0100837  58.2078981  74.4153786  14.8303652  57.8825951
  73.1016684  14.1712654  58.2441711  66.7073917  42.7957773  70.4202461
  65.8012772  42.9509926  70.1536131  66.7260551  43.0241585  71.3496161
  25.3098512  28.8523221  75.4677868  26.0738707  28.7499762  74.9003077
  25.1353025  27.9702091  75.7958746  61.9802761 122.2167868  77.5155401
  61.5323019 121.5071602  77.9759550  62.8083420 121.8313522  77.2292280
  56.6206217   8.4897935  62.8258038  56.9501495   9.3585026  63.0559969
  55.9784460   8.6525565  62.1349001  67.3281431 145.4850078  83.2535839
  66.8057775 145.1837025  83.9969444  67.7822113 144.7004128  82.9462242
  76.2849569   2.8502887  96.5010548  76.7993307   3.2376692  97.2092819
  76.2015820   1.9277948  96.7424774  86.1202240   8.8418102  69.2542696
  86.3042068   9.6763402  68.8230610  86.9559288   8.3753228  69.2397070
  63.6864138  17.6522863  82.9338646  64.5388794  17.2630787  82.7387810
  63.1018400  16.9031525  83.0492115  31.4383888  22.4333858  23.1920282
  32.0879149  21.7895699  23.4746019  31.5839100  22.5229192  22.2501985
  76.6307116  24.3090963  49.6554518  75.7953167  24.5520711  50.0545835
  76.4724350  23.4446979  49.2759848  64.6855116   5.0760591  88.7172699
  63.7450886   5.0748783  88.5388374  64.9009752   5.9976399  88.8604355
  58.8010263 132.2301407  92.6828671  58.1639290 131.5631218  92.4270821
  59.5669222 132.0515580  92.1372128  71.2984800  15.6254447  90.1944351
  72.1874714  15.3028917  90.0464821  71.3493776  16.5626526  90.0065994
  60.7476664 132.7534647 101.5221786  61.1192179 133.3685870 100.8898735
  61.3097477 131.9809062 101.4634800  49.8696899 119.6707196  63.7706757
  49.2562819 119.8735923  64.4769335  49.9237633 118.7150545  63.7675428
  65.7908010  18.5333693  85.5363083  65.0790310  17.9649544  85.8304596
  65.3494167  19.2975974  85.1656723 101.0307980   9.0882832  42.8039122
 101.0736656   8.2571340  43.2767630 101.2754917   9.7466880  43.4541893
  81.0585403 138.0936886  74.1069841  81.1577320 138.3580233  73.1923723
  81.2203217 137.1502704  74.1025352  62.9091978  61.3187408  85.8483505
  63.1038761  60.4163885  85.5951691  63.3948135  61.4490461  86.6628647
  44.5962238   4.9829769  70.2307796  43.6953497   4.8581347  69.9323320
  44.5176172   5.5464906  71.0005236  91.4387321  34.2537236  38.9244938
  91.0577393  34.7109008  39.6741986  92.3841953  34.3232632  39.0567684
  60.9190941  46.6056252  99.3542480  60.6434393  47.4395514  98.9737129
  60.3818798  45.9501123  98.9093399  21.6599011 144.0903377  63.9689589
  20.9777641 143.7003843  63.4222794  22.4122047 143.5076553  63.8652515
  95.0798130  10.3102124  62.9183388  95.8176136   9.7012722  62.8856754
  94.5285702   9.9807423  63.6281395  78.0465460  22.8707457  17.2934858
  77.4723673  22.5843334  16.5831891  78.7288857  22.2007227  17.3348466
  86.6151333  11.3815963  89.5830345  86.6228867  10.4570997  89.3350887
  87.1807480  11.4275897  90.3538704  46.7524529 143.3514527  71.7235279
  46.5827179 142.5270451  72.1793509  45.9201717 143.5687155  71.3035965
  80.4791164  17.4162781  47.8028059  79.9164724  18.0434358  48.2570505
  80.8402634  17.9086351  47.0656538  87.9238892  19.3114829  48.3688879
  88.2057190  19.2528546  49.2817783  88.6212063  18.8803864  47.8747845
  73.5645342  32.5715780  92.2020531  72.8006792  32.5254583  92.7770615
  74.3133211  32.4732304  92.7901649  39.9746442 133.0767996  90.5268669
  39.3878126 132.7931590  91.2278748  40.3916407 133.8676054  90.8688736
  67.3604631  19.0793920  63.4243917  67.1125126  19.8877156  63.8731289
  66.6820478  18.9562464  62.7604532  39.1984415  56.3462019  96.3666630
  39.6634102  55.5447340  96.6068459  38.2740736  56.0977268  96.3724899
  76.2884188  30.8256125  89.7758865  76.7798948  30.0460839  89.5170021
  76.4650774  31.4613771  89.0824699  66.9457006   8.7386316  96.6260624
  67.4491072   9.5479906  96.5380192  66.2201691   8.8396108  96.0099125
  60.7919455  12.3749399  52.5448036  60.6186533  13.3037198  52.3912716
  61.7220449  12.2686386  52.3451805  67.5384283 139.0695775  99.9769783
  67.8093433 138.4607453  99.2898369  67.9583836 139.8972554  99.7428417
  67.6038265  40.9037781  85.9482765  66.6661787  40.7260036  85.8745003
  68.0209970  40.1982880  85.4538250  66.0661793 144.4082084 104.4654846
  66.3907719 143.6218996 104.9043369  65.5817795 144.0775997 103.7089825
  84.3558979 138.8589919  81.6652775  85.2782822 138.6067898  81.6224957
  84.3450928 139.7753693  81.3889217  93.6353779 108.9422412  61.8831730
  93.3852100 109.4866390  62.6296854  93.8276768 109.5675893  61.1844635
  51.5919447  50.3583288  78.8251114  50.6793880  50.2653170  79.0986347
  51.6410542  49.8902512  77.9916096 108.4587479  30.1840997  55.4429626
 107.7718067  30.3900576  54.8089886 107.9863358  29.8764205  56.2165165
  80.6862545 124.9177069  89.6478653  80.3354931 124.5679874  90.4669476
  81.3109207 124.2552418  89.3526268  61.8396711   3.3042619  92.0863247
  60.9266949   3.5916251  92.0978355  62.3299170   4.0501395  92.4320984
  82.1775627  17.1091938  60.5105400  81.5416050  16.3963842  60.4497719
  83.0256271  16.6692042  60.5690670  49.1516495 124.6449561  79.9953651
  49.9994326 124.3459839  80.3241634  48.5942459 123.8674969  80.0283813
  28.5521483 145.4160229  85.7002449  27.8321862 145.9213154  86.0778236
  28.8265324 145.9238452  84.9366570  78.9457130  50.1056623 108.0921459
  79.6620131  50.2738857 108.7043858  78.2408094  49.7573853 108.6380863
  56.3474798 125.7506890  75.6378222  55.8831692 126.4808364  76.0471296
  56.8175507 126.1469073  74.9041462  28.8915443  19.9647737  67.5680113
  28.4687662  19.2728341  67.0593739  28.3417249  20.7355547  67.4271965
  50.0428391   7.2184223  15.3702203  49.4046354   6.5396398  15.5897275
  49.5916843   8.0413181  15.5587236  57.9821157  31.9579601  71.1897182
  57.2785139  31.3363528  71.3762331  57.5353479  32.7954650  71.0663700
  79.4305849 142.2903858  95.9120560  79.8660231 143.1364907  96.0156631
  79.9985981 141.7998556  95.3179455  79.6398497 145.1640428  73.5641384
  80.4132652 145.7204891  73.6559343  79.0897226 145.3930875  74.3132257
  89.0595722 119.7027964  74.8650408  89.1139889 118.8839883  74.3722725
  88.4311295 119.5205826  75.5636692  53.5500050  19.3768942  15.3933755
  52.7346706  19.5592451  14.9262468  54.2362309  19.7167480  14.8190728
  70.9056664  16.0903931  93.9003849  71.7540169  15.7224143  93.6531353
  70.3390026  15.9111738  93.1500435  26.6235209  19.0700543  74.9669027
  27.2048783  19.5227587  75.5778980  26.0246444  18.5764682  75.5272150
  83.1357861 125.7198281  98.5320568  83.4881592 126.5785618  98.2982922
  83.7650490 125.0960560  98.1698799  44.5222282   9.9900514  72.8853369
  45.0021505   9.4775999  72.2347212  43.7206697  10.2575934  72.4357224
  43.7028551  12.6888442  58.6741924  42.8587008  12.4002838  59.0211391
  44.3299580  12.4819684  59.3671417  49.3577194 133.0572493  57.2844553
  48.8458872 133.6776490  56.7654514  49.7914124 133.5978372  57.9446888
  67.6606655  15.3476655  60.2183962  67.9392242  15.5146265  61.1188173
  68.4524918  15.0427866  59.7753477  97.1158600  16.2430120  77.7761745
  97.3030281  16.2689173  78.7145424  96.2351608  16.6096163  77.6974010
  58.7345982  20.3095007  29.8230306  58.0252028  20.2704072  30.4644815
  58.6381149  19.5071685  29.3100110  85.8003712   4.8135909 100.9393597
  86.2061310   4.5715687 101.7718315  85.1426983   5.4680210 101.1747837
  82.4719715 143.5661388   8.6441842  82.8619862 143.0039654   9.3135778
  81.5555382 143.6512552   8.9071218  14.0755546  37.6441073  91.1364174
  14.8605096  37.2907805  90.7178020  13.3780563  37.5014496  90.4965973
  51.5095997  25.7886028  68.1509876  51.0973120  26.6489553  68.2287216
  52.3694468  25.8974671  68.5572386  58.2276869 129.4750960  52.1946096
  57.3602962 129.8426099  52.3643017  58.0658007 128.7451644  51.5969276
  92.0398903  37.5089741  57.3625612  92.5231457  38.2189918  56.9399786
  91.4124298  37.2190428  56.7004013  53.3276796  46.0068703  43.0474663
  54.0516472  45.5507612  43.4764910  53.1406927  46.7510176  43.6197519
  69.4150972 137.4001528  75.7668924  69.6310377 138.0049110  75.0570536
  70.1953983 136.8539507  75.8618975  86.6136074  12.8519702  77.3294640
  86.2492752  13.5884583  76.8384695  85.9426689  12.1715605  77.2736502
  42.7798939   7.3477757   2.4131719  43.4560442   8.0059493   2.2523633
  42.9702663   6.6505408   1.7855970  70.5604410   0.5763962  86.8345261
  69.9366856  -0.1466507  86.9006157  70.5601597   0.8088411  85.9059811
  71.8501520 139.3003697  90.6141758  72.3655510 140.0013120  90.2150822
  72.2622967 139.1551406  91.4658070  75.1184559 143.7834067  60.9331894
  75.8941650 143.4726913  60.4663277  74.4920301 143.0630804  60.8628273
  60.6367064  24.7840643  76.6047144  61.2984514  24.3561006  77.1480131
  59.8923349  24.1823721  76.6154289  28.8001847   5.4115599  77.6401615
  28.6833572   4.5279118  77.2912359  28.3406544   5.9769124  77.0193243
  48.8832855  18.0041158  66.1370468  48.2802916  18.6051095  66.5745831
  48.3261156  17.4873376  65.5550385  67.9259729  10.2865362  51.3587618
  68.7295961  10.3616226  51.8733358  67.5201797   9.4756109  51.6652966
  84.8764896  10.2673054 106.2502384  84.6030807  11.1457825 106.5143585
  85.8114338  10.2363229 106.4530754  89.9896908 129.8932607  49.9863482
  90.3369808 129.1021676  49.5742893  90.4485416 129.9478597  50.8246279
  78.9525461  37.6995778  92.6228237  79.1349792  37.2156668  93.4282875
  78.0680323  37.4293351  92.3761749  80.6295586  15.7289398  65.3299999
  81.2049770  16.3599634  65.7623625  80.1433849  16.2479484  64.6893024
  68.6177826   4.3909100  96.3576412  68.7928581   5.2915192  96.0847187
  68.7229013   3.8738868  95.5589676  55.9561062  21.7392230  66.8073797
  56.0518551  20.8889866  66.3782406  56.8453550  22.0917773  66.8415260
  50.9854698  18.9161086  45.1803780  51.8834591  18.6270165  45.3424644
  50.5986691  18.2141948  44.6569872  84.2068863   5.5900198  96.5426445
  85.0181389   5.1421010  96.3029194  84.1416168   6.3158059  95.9219933
  63.5325861 136.6507013  75.0642252  64.4668865 136.8571819  75.0902510
  63.2161713 136.8613846  75.9427023  85.7541370 128.2673235  82.6242924
  86.6209602 128.6162645  82.4167061  85.9038925 127.3364086  82.7892208
  61.9244146  19.5175910 108.5636330  61.5759134  19.3934500 107.6808167
  62.1380711  20.4495883 108.6079216  63.4497595  50.8400202  84.3721962
  63.1654167  49.9387407  84.5241070  62.7698040  51.2145090  83.8121510
  52.8371477 143.0673433  65.5089998  52.2566557 142.9500751  66.2610054
  53.6792755 142.7171935  65.7995939  47.5847864  36.3576126  59.9620581
  46.9158125  36.9968319  59.7168922  47.1500683  35.5095625  59.8722601
  72.2544527  32.5263405  60.0748014  71.4479017  32.3837972  59.5794392
  72.8988791  31.9590187  59.6516085  59.8978186  21.7910171  99.9345970
  59.6716690  21.8846035 100.8599758  59.4863081  20.9684610  99.6694756
  65.8619690  23.0066466  86.9875908  65.6811810  23.2117200  87.9049206
  66.7801142  23.2477808  86.8647194  39.2209697   1.8382905  36.8635941
  39.7386861   2.3536997  37.4821067  38.3183765   1.9361685  37.1668696
  36.6596270 141.0249008  97.4814987  36.3834429 140.8585406  96.5802288
  36.0416460 140.5274231  98.0170727  78.9978075 126.4378042  80.9910965
  79.3039846 126.7456515  81.8441582  78.9940786 125.4837055  81.0679913
  97.3329926   9.4338423  76.3068867  96.6653252   8.9520192  75.8187199
  98.1002045   9.4263881  75.7345581  59.0660524  14.9586248  77.0411253
  59.2356586  15.8997071  76.9983387  59.1468143  14.7426939  77.9701471
  37.9270720  42.3712158  82.1815300  38.2852125  43.0935192  81.6655445
  38.2184172  41.5825224  81.7240238  57.6915026 130.3217990   1.5080682
  57.2295618 129.8323316   0.8274404  58.5840082 130.4121954   1.1741582
  74.1955376  39.3187428  80.3186226  74.8529148  39.9729514  80.0817776
  73.4856558  39.4544148  79.6910095  52.2376251  28.0423212  56.1304283
  52.3481226  27.2462201  56.6502810  51.4441061  28.4481287  56.4795446
  65.2864218  29.2491508  77.6557875  64.6364307  28.5477567  77.6981449
  64.7718191  30.0552869  77.6953030  85.6880951  15.1897371  88.5169220
  86.3835049  14.6859610  88.0940247  86.1247921  15.6414104  89.2390823
  45.3225183   1.2142388  68.1565666  44.9926710   0.7903774  67.3642445
  45.9471083   1.8656042  67.8374434  66.7550564 117.5910396  21.4156199
  66.2966537 117.2506041  22.1838641  66.1427069 117.4566931  20.6922841
  41.8949223   3.0350834  75.6334352  41.0951519   2.9827577  75.1101208
  42.1166992   2.1235824  75.8237314  71.8393183 145.0435863   0.6906644
  71.7324209 144.9327960   1.6354028  72.5664234 144.4644288   0.4623452
  61.6105032  33.7359738 101.4651203  60.7455254  33.7779951 101.8728924
  61.9722080  34.6147776 101.5795898  68.3099985  10.2980340  25.1805726
  68.4886456   9.3604833  25.2534906  67.9066467  10.5307496  26.0168687
  82.1197128  30.6394577  98.0629444  82.3610973  30.7416081  98.9835644
  82.0475960  29.6932173  97.9378223  72.6944923   1.2281894  96.5792942
  72.1187830   1.4840579  97.2999287  72.9872751   2.0571625  96.2007236
  59.6249342   4.5401356 107.9839802  59.6437359   3.8983604 107.2740459
  59.5441628   5.3848791 107.5411224  85.2253437  39.7084284  52.1855497
  84.6407223  39.5229506  52.9204321  85.5427742  40.5963230  52.3502064
  44.0671825 129.1631109 104.3924332  43.2590532 129.6667714 104.4898224
  44.0067053 128.4814710 105.0617218  59.0577698  10.4596257  74.7436428
  58.9946413  11.4147329  74.7395277  59.4499922  10.2491641  75.5910492
 102.3988247  39.0191221  66.1761427 101.7444134  38.9845324  65.4784489
 103.2049370  38.7083340  65.7640409  63.3671188  17.0068848 109.6824741
  63.0540752  17.1178615 108.7847424  63.1007051  16.1189866 109.9209881
  68.6181450  20.7216311  80.5592155  68.4341908  20.1156783  81.2770081
  67.7629089  20.8921909  80.1646233  33.6697030  19.8547101  97.2819996
  33.0855894  19.7866201  98.0372524  34.1878676  19.0502667  97.3066711
  62.6776648 133.6999113  43.2278299  63.0281067 132.8441174  42.9807711
  63.4444475 134.2718191  43.2623911  60.7505322  39.6967149  20.4243604
  61.0184908  40.6009626  20.2607576  60.4759836  39.6904373  21.3413183
  66.6972923   7.5830573  79.0284538  67.5986338   7.8939295  79.1131592
  66.7723465   6.7591536  78.5470200  53.7219477  30.3175616  97.3679066
  54.3477678  29.6097469  97.2143364  54.2282200  31.1185122  97.2322750
  74.3751717  43.2806349  60.5362940  73.7750864  42.6161480  60.1977921
  73.8262939  44.0534210  60.6695986 115.0822735 133.2872159  17.4421064
 115.5327415 132.5228221  17.0829240 115.4762936 134.0324254  16.9886247
  68.3844662 144.1087944  11.1565152  67.5408792 144.4657976  10.8787671
  68.4238243 143.2431931  10.7498018  66.1004686  26.0022140 106.9472980
  65.6720352  26.7418718 107.3780918  67.0010328  26.2950993 106.8078709
  75.3680372  36.4566278  76.3319540  75.3807640  36.8260312  77.2149086
  76.2915182  36.3611627  76.0989285  70.9425497 134.9979837  94.8961258
  71.6666698 134.3730838  94.9333668  70.8583212 135.2118880  93.9669418
  67.6316786   2.3833638 100.0670147  68.0910826   1.6486287  99.6603870
  67.7779675   3.1172121  99.4701099  48.2549238  36.9165182  99.7137833
  47.7061462  36.6131735 100.4370117  48.2457590  36.1934996  99.0865707
  44.7564459   4.6836492 100.7674980  44.2423916   3.9305738 101.0588074
  45.5050755   4.3002963 100.3105259  84.3978786  13.6468053  79.2490578
  85.2779865  13.2732034  79.2944479  84.0920639  13.6502206  80.1560879
  46.6993713  28.7053752  78.4212971  45.8102608  28.3655930  78.3199787
  46.6680574  29.5785761  78.0304384  38.9302611 141.4383228  66.2788296
  38.2708669 142.0916570  66.5124655  39.7639155 141.8431444  66.5183592
  51.1459208   6.3523453   2.9635564  51.4816904   5.4776341   2.7676812
  50.2660751   6.3610965   2.5866834  90.6554317   0.6980607  90.4926968
  91.4992905   0.7857812  90.9359169  90.7120895  -0.1398264  90.0333881
  74.2796421   9.3711287  55.6710625  74.2379189  10.2105629  56.1291456
  75.1675463   9.3363595  55.3151703  40.5348063  26.0786533  86.2444401
  41.4363289  25.7570028  86.2389660  40.3428507  26.2690234  85.3262043
  44.8483324   1.1615000  91.3421917  45.7089663   0.7492340  91.4168453
  44.6251106   1.4138526  92.2381401  64.8702621  18.6233830  78.5332680
  65.3075314  19.1626978  79.1921854  64.1640186  19.1772890  78.2006407
  26.9304085  19.8986220 106.3736820  27.8354096  20.2009487 106.4498806
  26.4830136  20.2905321 107.1236610  50.7320166  22.6979065   1.0228864
  50.2964687  23.5075688   0.7564679  51.4366579  22.9849195   1.6036836
  68.7210608  16.3036215 109.3069363  68.5839415  15.5357420 108.7521458
  67.9316235  16.8310785 109.1852379  50.6046724  23.7998247  73.7053776
  50.5930090  23.0576825  74.3097925  51.4795065  24.1754961  73.8042212
  54.1943264  47.0107985 103.2706642  54.6454048  47.2886181 104.0678978
  54.7809219  47.2711182 102.5604725  66.7002773  56.3731670  85.4266357
  67.3354101  55.6705856  85.5652523  67.2253370  57.1735048  85.4234695
  76.0907221  27.2547793  68.2836103  75.7244492  26.3812780  68.1455135
  76.9223022  27.2434664  67.8097153  60.9444571 129.4903595  84.2182541
  61.3256121 129.2804379  85.0708294  61.6476917 129.3173225  83.5923481
  78.7921238 134.7540850  71.9272327  79.7268295 134.6036369  71.7861032
  78.4159803 134.7666533  71.0471201  49.3585300   0.9025262  47.5296640
  50.1342821   0.3781280  47.3310423  48.7136936   0.2676331  47.8416395
  62.3899937  36.8872166  58.7980986  63.3312893  36.8191934  58.6381817
  62.2152662  37.8283215  58.8029337  80.2708626 145.7562011  94.4743252
  80.1203251 146.2319481  95.2911663  81.2092686 145.5674640  94.4765282
  14.3618739 141.6685168  84.2583179  13.7486589 141.3209719  84.9059391
  13.8302457 142.2466592  83.7111855  54.1557932  32.4496555  19.4056741
  53.8723516  32.3414731  20.3135244  54.0686560  31.5770698  19.0219537
  30.9616756  19.8687351  50.0621319  31.6633964  19.5976210  50.6540060
  30.3395534  19.1414773  50.0792408  56.2194252 141.0317243  51.1449718
  55.3907967 140.6460042  51.4292717  56.7066765 141.1770899  51.9559526
  86.2473488 140.4348303  90.2739620  85.5871773 141.0908807  90.0503540
  86.3323116 139.9015010  89.4836617  55.1465130  21.9657779  72.7119827
  55.1779842  21.3428617  71.9858837  54.3744135  21.7078495  73.2155371
  45.3706789  16.6409492  45.5070448  44.8938990  15.8124411  45.4571295
  44.8666525  17.2408378  44.9571991  72.9867697   0.3962693  39.7992539
  73.5573578   0.0330455  40.4765511  72.7371502   1.2579179  40.1331425
  78.6552000  41.7944956  81.4576340  79.4930220  42.2567034  81.4831543
  78.8904715  40.8686590  81.5185356  79.7094059  16.4619458  93.3415222
  79.8969364  17.3507440  93.6433506  79.3296099  16.0252261  94.1039276
 107.6443672 136.9202841  68.0823231 107.0063686 137.6319785  68.1340885
 107.1700573 136.2036104  67.6608515  57.4386024 130.2494461  76.1681128
  57.4986744 131.0286100  75.6153631  57.9742241 130.4570753  76.9337654
  78.0492783  21.1804724  66.6202641  78.4967899  21.5179896  67.3961782
  77.1571541  21.0012436  66.9172907  56.4236736 114.6925420  56.2545156
  56.6838169 114.7015900  57.1756411  55.5098343 114.9772973  56.2609100
  70.1423502  21.2642193  51.4342165  69.8954630  22.0655560  50.9725523
  69.3127346  20.8138227  51.5926933  69.9641371 120.3940220  93.1603718
  69.7668982 119.6789236  92.5554276  69.7881317 120.0294132  94.0277290
  61.1103392 137.3533131  87.5455856  61.9235516 137.2097106  88.0296326
  60.5859709 137.9125012  88.1188107  71.4737892  20.6137419  82.4999809
  70.8453846  21.1057711  81.9715405  71.0374022  20.4967809  83.3438587
  50.6169081  19.2448223  77.4896336  50.3941393  18.4035325  77.0910931
  50.6785345  19.0573084  78.4262609  50.4363918   5.8287901  20.2870218
  51.3746738   5.8166635  20.0980512  50.0985098   6.5638447  19.7754041
  88.9897346  36.2191319  52.8037071  89.8028278  35.7157922  52.8458071
  89.2261982  37.0170259  52.3307514  65.4692316 145.2020023  61.8303013
  65.0817871 145.6530424  61.0801792  65.7517767 145.9064251  62.4135590
  40.1879406  43.8360929  87.1861458  40.2109337  44.5433950  86.5416145
  39.6846485  44.1945124  87.9172134  22.4644375 135.9491880 102.9250145
  21.6622281 136.4065892 103.1769562  22.5717640 135.2696259 103.5905266
  90.5782127  30.6057525  62.0508718  89.9090004  30.0939512  61.5965080
  91.2924957  30.6814289  61.4181709  87.5914764 138.9686454  76.2881708
  88.4172058 138.5370959  76.5076208  86.9581318 138.2540537  76.2213182
  87.2170544  25.1434994 105.6361294  86.4698887  25.5854726 105.2328396
  87.1742153  25.3943324 106.5588856  28.1283379  11.0148990  79.7515678
  27.9037690  10.1428080  80.0759983  28.6588860  10.8511078  78.9718723
  54.1736269 144.6309587  61.2005949  54.8681641 144.2879919  61.7629337
  53.9790010 145.4961205  61.5609407  91.9393063 134.5194347  82.5844574
  91.2982559 133.9762408  83.0429649  92.7717781 134.3209285  83.0131817
  40.6054831   8.4128809  79.8349047  41.3132715   9.0571898  79.8234129
  40.4725170   8.2196802  80.7629299  71.5162182  56.7212009  56.2107611
  71.0260010  57.3701286  55.7059717  70.8631992  56.0660553  56.4568853
  50.5427742   5.5049843  81.9810200  50.8969927   5.6843030  82.8520012
  50.7652092   6.2815225  81.4674664  63.0760860  22.3438811  28.9129210
  63.0252790  23.2995415  28.8938761  63.6895514  22.1507263  29.6218538
 111.5123940  34.4560170  71.7029333 111.7271805  33.5837078  72.0333481
 110.8731079  34.7981334  72.3278332  26.4259148 140.4325301  79.1582966
  26.4230275 139.5076627  78.9116335  26.2859821 140.9004135  78.3350515
  39.5857596  22.4856806   3.8689176  39.7415733  22.6436353   4.8000470
  39.2002797  23.3012748   3.5488550 100.5448914 119.2076392  73.8472748
 101.3368034 118.8937087  73.4107494 100.3785896 120.0645609  73.4545135
  65.5931520   5.4761368   0.8225004  65.7821035   4.5830452   0.5345479
  64.6648264   5.6001574   0.6248704  69.1470909  32.5685310  78.2715416
  69.9458694  33.0402517  78.5074711  69.0769196  31.8738580  78.9263201
  55.3991508   8.7780601  66.9526005  55.0575924   8.7757307  66.0584164
  55.6986713   9.6764016  67.0922422  59.4989634   6.6228288  39.0309978
  58.6358309   7.0241714  38.9302158  59.6297836   6.1295736  38.2211709
  74.1052771  28.9559484  67.5984335  74.0692282  28.7219787  66.6709709
  74.5749950  28.2307291  68.0103207  65.0542355 133.4589262  57.3458576
  65.3824472 133.8808031  58.1399155  64.9203491 132.5452621  57.5978947
  42.1002913  12.6877117  48.3748007  42.1961975  11.7360580  48.3375406
  41.3784933  12.8319156  48.9867210  66.8405294 142.3494003  59.2942810
  67.3459816 141.6895760  58.8195372  66.4753771 141.8782652  60.0432301
 111.4202785  12.6951754  69.9950123 111.0486221  11.8218803  70.1193333
 110.8934879  13.0823684  69.2958689  89.6946239 123.8711257  80.1114082
  89.7765541 124.3655128  79.2958736  90.4500198 124.1424818  80.6329155
  28.0066729  44.4193697  52.3385954  28.6288857  45.1427746  52.2626591
  27.1529436  44.8450184  52.4173164  37.8895450  36.8215227  32.1790600
  37.7318788  36.8245363  33.1231809  37.6255631  37.6948023  31.8893600
  51.3025284   1.9511373  36.1000657  51.7795420   1.4978033  36.7951775
  51.9684124   2.4755764  35.6553221  95.2629566  10.3354490  42.9161024
  94.7364902  11.0623908  42.5834990  95.6830692   9.9684364  42.1382570
  31.8233800  47.2764635  53.8287640  31.1519432  46.6164017  54.0011692
  32.0164800  47.1836901  52.8958464  50.1286983 141.8120218  53.5174894
  49.7477007 141.4640428  54.3237066  50.3308773 141.0365928  52.9939795
  53.0100489   4.9287286  87.7225780  53.5681057   4.4269666  88.3167458
  53.3680344   4.7532967  86.8523407  60.2482414 137.0282061  91.5281487
  60.4801035 137.9481436  91.4009190  61.0371685 136.6311927  91.8972111
  51.1621857  22.4801993  37.7422810  51.8714380  23.1026411  37.5817966
  51.5697956  21.6204596  37.6377320  49.7233200  12.1939993  69.3326473
  50.2030039  12.9356849  68.9638138  50.3838396  11.6984582  69.8167801
  43.0602217  27.8999615  25.0947118  42.6059008  28.1059408  25.9116554
  42.4414301  28.1473303  24.4075871  38.9147449  41.0848665  69.3124866
  38.9096713  40.6454706  68.4621096  39.7158027  41.6087961  69.3065882
  39.8319197  23.1440425  71.2575817  40.7137489  23.1061196  70.8872223
  39.2797208  22.7117872  70.6060743  48.2492542  21.7854810  68.7453699
  48.1856728  21.5380216  69.6678400  49.1290236  21.5131760  68.4844303
  81.0225105 142.9619653  59.6468019  81.3381577 143.5271157  58.9416790
  81.4506912 143.2990087  60.4337549 121.4036751  37.6560187  66.6913700
 120.8597851  38.3847451  66.9903326 121.5279198  37.8178120  65.7561588
  57.0832253  18.7282932  48.2239866  56.9214773  17.9704940  47.6620150
  57.6526690  18.3950210  48.9174509  91.4145088  26.6453242  57.4517202
  91.1756706  26.1338735  58.2247686  92.0924759  26.1251235  57.0204544
  49.8813105   9.6011239  43.4375334  49.2408133   9.6898758  44.1433048
  49.9567080  10.4818809  43.0703592  44.4829559  32.6700830  87.3672199
  45.3122807  32.9949141  87.0165920  43.8129234  33.1563735  86.8867874
  19.4730604  14.1425514  51.5408325  19.6854734  13.7011182  52.3631763
  20.3019786  14.1705906  51.0629797  46.7508459 142.8705929  62.4405098
  46.7620754 143.8274271  62.4165535  47.2245502 142.6454754  63.2412338
  91.9268513 126.0468192  69.4549084  92.7356339 126.5043540  69.6846151
  91.3941193 126.0887427  70.2490568  40.1509333  13.8770938  42.5375366
  40.0066328  14.2078531  41.6509676  40.4765320  14.6335661  43.0253601
  35.8783674  42.4913692  57.7937174  35.2300572  42.1199703  57.1953964
  36.5690494  41.8302011  57.8389168  48.5709095  25.9378266  42.8080654
  48.8856459  26.3506055  43.6122942  48.3239794  26.6704059  42.2436285
  42.0712996 137.1616186  78.1478739  41.8611336 136.3636262  78.6329174
  43.0264425 137.1592600  78.0851841  66.1498260  24.4000673  39.8250055
  66.7260838  23.6545777  39.9935269  65.2681160  24.0609169  39.9792743
  74.8716974  36.9517446  69.2348242  74.3209410  36.4511752  69.8367643
  75.2986622  37.6056051  69.7883606  66.4901257   9.4755185  60.7667828
  66.1732864   9.6555960  61.6518927  65.7144451   9.5616025  60.2125788
  35.8395147  30.5039048  42.7052736  36.0984945  31.4067411  42.5207567
  35.3656960  30.2256989  41.9214821  53.0328512  44.4539738  87.6701927
  52.5249577  43.6429739  87.6936436  53.4086990  44.4758415  86.7901421
  57.5628948   6.4020747  73.9790440  56.8117332   6.7863792  73.5270548
  58.2850599   7.0035338  73.7974930  58.1073952  21.9362426  90.5814075
  57.5168896  21.9730806  91.3338566  58.9289045  21.5982842  90.9379768
  73.3940601  12.9690409  63.9637184  73.6739635  12.2659373  63.3775997
  72.5109816  13.1901562  63.6679029  39.1817641   7.3122162  42.5994778
  39.9839616   7.1089935  42.1184254  38.8977432   8.1553084  42.2462654
  47.8055429  16.4366257  52.5078535  47.5282335  15.5207968  52.4835730
  48.7575388  16.3962829  52.5989962  41.0235548  25.2297592  73.7736940
  40.7890081  26.1477304  73.6374950  41.8937826  25.1445746  73.3842325
  54.4686842   5.7846856  33.6497235  54.4420719   6.5695757  33.1024837
  55.2190065   5.2891868  33.3215022  84.9093628   7.2648829  58.9635801
  85.7147121   7.6928461  59.2542458  84.4049454   7.1331722  59.7663498
  69.3290186  41.4835644  73.2540226  68.8159561  40.6861401  73.1231976
  69.0099430  41.8403673  74.0829468  71.5050983 142.3064477  87.0446873
  72.0434761 141.7827354  86.4513016  70.6964588 141.8034560  87.1413040
  63.2433462   8.8062668  54.3980837  62.3992443   8.6667007  54.8273182
  63.0706882   8.6419874  53.4710264  80.0144386  26.9871330  44.7633839
  80.7767868  26.9161367  45.3378582  79.7766447  27.9138064  44.7943878
  79.8660278   5.7351494  94.6489143  80.1367283   5.2214962  95.4099083
  79.9164963   5.1218498  93.9157295  38.2250166 136.4348991  46.2041473
  37.6868916 135.6812770  45.9618521  38.7204337 136.1397309  46.9681311
  15.4700780  17.7213502  68.6064196  14.9981999  16.9935870  68.2015419
  15.0411987  17.8432345  69.4534349  90.0148010 119.9764485  28.6731124
  90.7379818 120.1432700  29.2776084  90.4125786 119.4870729  27.9530334
  41.0424614 117.5660462  59.0761805  40.2607250 117.4437208  58.5375214
  41.5577221 118.2210178  58.6052799  61.6384125   3.8988012  85.5321884
  60.9736776   3.4475568  85.0118637  62.4577904   3.4571445  85.3090382
 105.1486206 123.1674213  50.6248569 105.1414871 122.8412885  49.7249603
 104.2619324 123.4990139  50.7664728  86.7045116  16.9057751  51.6422415
  87.4092007  17.4508512  51.2921858  87.0366669  16.0107875  51.5722227
  40.8898830 123.5455317  75.3342295  40.3544331 123.0124302  75.9218740
  41.7322111 123.6233277  75.7821798  80.6008625 130.9127874 102.0680046
  80.7949638 130.0028832 101.8429852  80.0496960 131.2246759 101.3502502
  80.8314133  24.3510556  79.2637062  81.5728474  24.8134041  78.8729000
  80.7806683  23.5270691  78.7792444  34.7654796   6.9637871  51.1139965
  35.3519058   6.2923032  51.4624834  35.3487802   7.6687795  50.8329678
  95.1425171  22.7420449  82.0862103  95.4964638  22.6682043  81.1999321
  95.2640724  21.8718362  82.4659348  74.6026468 112.0821924  69.1620827
  75.4614449 111.8138308  69.4887066  74.7909164 112.5458927  68.3461380
  50.5210590 137.6856692  95.1990891  50.7160425 138.2141931  95.9729576
  49.8302937 138.1695569  94.7463989  32.5862169 143.8643239  44.8283100
  32.8478122 143.2631255  44.1309166  31.6718435 143.6429993  45.0048590
  53.4223747   8.8061076  40.1220036  53.8978338   9.4136590  39.5553851
  52.5227213   9.1329902  40.1221991  50.5798197 126.6232247   7.7842943
  51.5320778 126.7141742   7.7501813  50.3058815 126.6266305   6.8671457
  62.0531321 136.5890522  77.5101566  62.1779633 137.3972965  78.0075407
  61.1033010 136.4785905  77.4671078  44.1059732  10.0015008  76.9295359
  43.3232307  10.0313246  76.3793945  44.8284435  10.1819348  76.3281155
  42.4106789 125.1053114  41.2363195  42.1073246 125.1804228  40.3315735
  43.3654785 125.1235313  41.1710930  77.9820824   3.0842799  57.7956390
  77.4145222   2.3324445  57.6257801  77.7413940   3.3719462  58.6762953
  57.8526211  11.4798439 106.6736271  57.4297810  11.3939595 107.5280628
  58.5978556  10.8804798 106.7138641  69.2631674 131.8106861  44.5227194
  68.5676432 131.1993582  44.7651243  68.8208437 132.4839348  44.0056896
  58.1448984 128.0165584  90.2072906  57.2450542 127.7519018  90.3982735
  58.6480141 127.2033949  90.2505207  60.1732492  28.3564210  69.2514515
  60.2344036  29.3057895  69.3572378  59.7031784  28.0584359  70.0302124
  53.1068897   6.1072356  69.3299627  53.4437180   6.0590255  70.2246475
  53.2352257   5.2264178  68.9779377  23.4698653  29.7513700  48.3585978
  23.7564802  30.3989697  49.0025663  24.0223002  28.9875555  48.5248280
  65.5436707 145.2321208  47.6718664  65.6321669 144.2804489  47.6197100
  65.0232410 145.3813680  48.4612417  65.1195288 136.1314745  64.2570734
  65.7514191 136.6704983  64.7328854  65.1425600 135.2850706  64.7035027
  48.2538557  21.7599416  73.3150673  47.7121878  22.4146771  72.8744459
  48.0830431  21.8956876  74.2470694  37.7063727 127.9909260  79.6679544
  36.8959904 128.4923775  79.5781755  37.6824975 127.6556141  80.5641842
  74.6989489 138.3638812  52.7271128  74.8412895 137.4328692  52.5562716
  73.9259481 138.5871012  52.2085810  47.8557539   1.3725151  40.3155422
  47.4376297   0.6041371  40.7041311  48.2491922   1.0472891  39.5058107
  48.3625364  24.0744472 104.3911171  47.4173594  23.9951229 104.2623711
  48.6878586  23.1758428 104.3371677  43.9281607  15.1109886  76.7496395
  43.5238409  14.8013783  75.9391499  43.9495373  14.3399096  77.3163986
  48.5063934   5.2424306  60.8405209  48.1867790   4.3495506  60.7107401
  47.9781818   5.5833572  61.5623236  39.3582582  14.3239927  37.8087664
  40.0837517  14.2497230  37.1887898  39.6414661  13.8183022  38.5705423
  81.4192200 139.8300142  91.0530949  80.8295822 139.0792806  90.9827137
  80.8951664 140.5746687  90.7579899  44.0338755  39.0678215  36.4686155
  44.0193462  39.7073507  35.7565594  43.1968880  38.6091661  36.3957238
  34.9961352 132.8644461  29.2715478  34.6711993 133.7640459  29.3085265
  34.2457438 132.3508436  28.9726233  70.1051235   0.2192906  90.7763290
  69.8996496   1.0912808  90.4392147  71.0190296   0.0765355  90.5301094
  46.4761019   4.4200012  22.9575157  45.6980228   3.9656007  23.2805371
  47.1452379   3.7379503  22.9001117  68.4092331  26.0113978  48.8370657
  68.7145758  26.6607189  49.4706106  67.4882841  26.2301755  48.6948395
  78.1389141  14.6307576  66.2841034  78.9291716  15.1454771  66.1204386
  78.1192970  13.9895654  65.5736685  50.3638458   3.8338315  62.4394703
  49.7946978   4.1896206  61.7570353  51.0795116   3.4158006  61.9606113
  96.1944294 108.6470503  27.9172707  95.9901905 107.9358310  27.3100758
  96.6279602 109.3069167  27.3761058  67.2241449  33.9476514  26.2077069
  67.6516056  33.2896495  26.7559266  67.8688526  34.1500497  25.5297542
  48.2813644  26.2762690  30.5653095  48.8179779  25.5500627  30.8829641
  48.9054537  26.9852734  30.4101992  76.9024229  12.9475033  86.0254669
  77.4018002  12.4318218  86.6586494  76.4250374  13.5836840  86.5580082
  55.6547928 139.0921164  45.4305410  55.7835722 138.2749695  45.9121180
  55.0408792 139.5926482  45.9679508  48.6724567 133.0965359  40.3157282
  49.3015146 133.8027305  40.1680517  48.9180422 132.7308459  41.1655474
  69.2613173  27.3523903  42.8227949  68.4608316  27.6788664  42.4118567
  69.9693537  27.7234650  42.2962761  55.1998186  38.9597583  52.9046488
  55.5751324  39.1916943  53.7541056  54.6150923  38.2258248  53.0935001
  86.1658096  32.3183131  53.3042240  86.0112000  33.1672120  52.8898573
  85.6654644  32.3550367  54.1194153  60.3942108 131.5314932  70.0361156
  59.7386837 131.5438921  69.3387127  60.1551580 130.7782061  70.5761576
  18.3443773  27.9503250  57.9408550  19.2838800  28.0254650  58.1079435
  17.9975033  28.8228774  58.1267548  94.9939823 129.9003942   8.8778371
  95.7011509 129.6377999   9.4670707  94.6327400 129.0750594   8.5544872
  71.4876556   0.8191828  24.8281240  71.9757605   0.4930751  24.0720558
  71.7988825   0.2882730  25.5612683  97.2925758  18.3868265 109.4128895
  98.1453228  17.9577196 109.4829655  96.9513035  18.1043279 108.5643864
  18.3284104   9.8527044  75.8579683  18.6152232  10.0021195  74.9570560
  19.1124344   9.5415682  76.3104439  50.3235674 139.3240065  28.7193298
  50.6135273 138.9776511  27.8754139  51.1334801 139.5522989  29.1755748
  72.4983740   9.0774095  53.7864685  73.3146858   9.2306012  54.2622900
  72.0969343   8.3321398  54.2332935  29.1041231   9.1398787  59.8613501
  29.5258594   9.9977249  59.9110413  29.7804880   8.5604244  59.5106411
  80.3024197 145.6520764  53.7696314  79.4991827 146.0612816  54.0914869
  80.3579903 145.9219106  52.8529310  48.7732458   5.1042080  88.2664013
  48.2500648   5.1120359  89.0679359  48.1788349   5.4272354  87.5892353
  33.3581114  11.1201012  43.6008835  32.9333901  11.6841269  44.2471981
  32.7015162  11.0066569  42.9136848  69.7684336  18.0300844  45.1809072
  70.3623486  17.4939299  44.6555138  68.9008665  17.8529060  44.8173618
  87.7152061 134.1624481  68.8953400  88.1895924 133.4863336  69.3791294
  88.3822155 134.8133535  68.6770582  62.7039099  21.3860226  60.3824949
  62.4786949  20.5012608  60.6700850  63.0131817  21.2742209  59.4835615
  49.9767160  12.9399002  28.3069372  49.2965555  13.1205261  27.6581025
  49.4948769  12.7065957  29.1004324  46.7411327 127.3109157  65.3760672
  46.1503792 128.0557794  65.2646112  47.5422525 127.6922447  65.7352638
  42.9180431  31.4734364  77.1109104  42.4870586  30.9712720  76.4193106
  43.0997849  30.8302736  77.7961445  74.2502880  22.7746487  65.4429340
  74.0078020  22.8646612  64.5213413  74.9356461  22.1064401  65.4461050
  79.5560694  24.4008708  70.8188677  79.1823149  23.6824846  71.3292217
  80.1050758  24.8769760  71.4418840  93.7474918   7.2184813  30.4576492
  94.4415665   7.5441533  29.8845577  93.0261517   7.8355533  30.3347301
  38.2775927  26.4115500  46.0913038  38.8993168  26.9813371  46.5441132
  38.3153582  26.6941404  45.1775503  60.7357931  26.1860132  66.8440199
  60.1946354  26.6350389  66.1945868  61.6322517  26.4419246  66.6269779
  76.0483932  58.3347893  67.2232056  75.4659653  58.9737511  66.8124247
  76.7010736  58.8649416  67.6805592  58.7645626   6.2270814  49.4857645
  58.7999630   5.4106504  48.9873505  58.7526369   6.9141614  48.8194227
  68.7264729  38.4760213  84.8939610  69.4292593  38.2325339  85.4964924
  68.5980940  37.6993871  84.3493652  66.5844488  16.6593063  37.0294714
  67.5250483  16.8280494  36.9744897  66.1818123  17.5256765  36.9701433
  46.8773794 135.6168408  41.9871330  47.6167440 135.6118555  41.3792276
  46.3213539 134.8949725  41.6939211  38.5689402   4.8646820  54.7302246
  38.4194994   4.5653015  55.6270361  39.5168805   4.8037523  54.6122026
  37.6248550  39.0216541  55.1186419  37.8425074  39.8582268  55.5297422
  38.1205392  39.0210414  54.2997837  98.7574387   1.7296204  96.7955780
  98.5471439   2.3431715  97.4995422  97.9203320   1.3203320  96.5765572
   9.6317202  16.9888330  46.8363476   9.3391716  17.2610664  47.7061367
   9.8006564  16.0506725  46.9232178 112.1340281 129.4938452 107.5112057
 112.5803203 128.8654966 108.0788612 112.6811904 129.5389743 106.7271137
  14.9152052  34.0346408  38.1737804  14.8066115  33.1407118  37.8492332
  14.9882233  33.9375281  39.1232371  75.6599188  20.2554321  87.7070045
  74.9011660  20.3543758  87.1319103  75.5159426  19.4202328  88.1519127
  65.9961653   4.8194665  43.5781527  65.5123186   5.5897206  43.8761997
  66.9150639   5.0851065  43.6141586  62.3171091  21.5821195  56.9207716
  62.4621344  21.6933179  55.9811783  61.4868975  21.1094761  56.9806957
  53.1208134  34.9001288 109.5696449  53.4800148  35.7754898 109.7143841
  52.6598597  34.9656534 108.7333107  75.7436609  18.1001008 107.1066284
  75.8613443  18.2225037 108.0486488  75.6208420  18.9852381 106.7635918
  70.5233240   0.9192807  35.2022910  70.7274008   0.8432414  36.1343861
  69.6603203   1.3326991  35.1790047  43.9987230  27.5397253  77.8170347
  44.4212294  27.5439286  76.9581413  44.0764523  26.6343260  78.1177664
  23.6449647  39.7577643  36.5779066  24.0992641  40.5399990  36.2649298
  24.1348124  39.4915009  37.3559713 123.8849545 143.3425865  39.3417048
 123.4763241 143.4409262  40.2016926 124.6115303 142.7372382  39.4895792
  69.4464254  14.6412897  81.8252182  69.1222572  13.8354242  81.4230633
  69.3770361  14.4838023  82.7668190  88.7155819  31.5164518  68.2467222
  88.7672901  32.4419975  68.0081272  88.3151817  31.5152478  69.1161489
  71.0285664   6.3181233  62.2746563  70.0912809   6.4827389  62.1715450
  71.0876942   5.3821945  62.4664211  13.1988907  15.0558901  86.2572002
  14.0074420  14.8519850  85.7872009  12.6014161  14.3448102  86.0256290
  27.9355741  38.0015993  57.8931141  27.8728676  37.6209474  57.0171022
  27.8072643  38.9402199  57.7561522  20.4571199  33.8674736  33.4702396
  19.5392847  33.9244962  33.7358665  20.9365487  33.7461257  34.2897844
  35.7793045 139.4767184  69.6774769  36.3397527 140.1899470  69.3718052
  34.9449205 139.8987121  69.8823071  76.7187929  18.5196531  63.6219120
  76.5459061  17.9289949  62.8887892  76.4414740  18.0288208  64.3954802
  94.1882992  30.2233577  84.8162842  94.0487289  29.4563913  84.2608356
  93.3066273  30.5119514  85.0520706  61.5429211 141.3919402  77.0499134
  61.8045807 141.9171185  77.8061867  62.1776152 140.6758810  77.0244217
  50.6273842 141.6554231   0.6161920  50.1800060 142.4953509   0.5132047
  50.8421040 141.3872916  -0.2772387  60.6781006 146.3070052  92.5025082
  61.1019802 146.2143109  91.6493034  61.3104439 145.9470968  93.1244755
  75.3377008  14.1909254  35.0754619  76.2073421  14.3907595  35.4218984
  74.9227476  13.6646545  35.7589006  57.6892233 112.0294327  55.2424240
  57.1112585 112.3399086  55.9394121  57.1444130 111.4351363  54.7264528
  55.7176971 144.9240170  44.1203117  55.9748268 145.7419720  43.6947918
  56.0347414 144.2382882  43.5325241  74.7721148  16.3012743  21.8888068
  74.3710375  16.8582761  22.5559807  74.9417686  16.8913901  21.1544967
  67.4390554  34.0340090  53.4609032  67.9542398  34.8266101  53.6112499
  66.5486383  34.2750502  53.7164164  72.7917862  44.6468210  69.3087721
  73.1931496  44.3160534  68.5051966  72.4988079  43.8614893  69.7709990
  74.4396162   8.2877719  73.9383078  73.9884377   7.8953737  74.6857643
  74.2241907   9.2189592  73.9904022  67.4031401   6.6761851  92.7919102
  66.6740990   6.7514420  93.4075928  67.2836065   5.8191353  92.3827553
  47.6533699 142.6167090  75.4646635  47.9786587 141.7218433  75.5628109
  48.3417654 143.1645102  75.8418274  65.7031059 141.6829113  86.9593811
  65.9999514 140.9992988  87.5600338  64.9293232 142.0544750  87.3829746
  31.9771004  10.1715195  78.4931850  32.4936748   9.7179645  77.8270960
  32.6074362  10.3841329  79.1814470  49.5410967  19.8365271  56.8701839
  49.1757631  18.9656639  56.7141056  49.9621344  20.0713587  56.0432529
  83.6049557 126.5501113  53.3588266  83.4049034 125.7584138  53.8582516
  83.6555672 127.2425694  54.0177441  49.5184517 129.6807332  44.1905737
  49.6112823 129.0796513  44.9297047  50.3070307 129.5397014  43.6666632
 110.9842873  12.2123981  59.4520664 111.0251236  12.8808367  58.7681437
 111.2483406  11.4039278  59.0128851  70.3875065  19.1086102  94.4231796
  69.6531630  18.8567007  94.9831009  71.0407877  18.4229147  94.5620155
  78.7084675 139.7160507  63.1478786  79.0282011 140.2502997  62.4208450
  79.4963360 139.4850112  63.6399317  52.7300787  10.4348397  51.1663532
  52.2906542   9.6844721  50.7662439  53.0909061  10.0928998  51.9843483
  65.1904297  13.2732439  40.1107693  65.7127237  13.8225222  39.5261884
  64.6391010  13.8910949  40.5909014  46.2713766 130.8018274 104.8320770
  45.7382774 130.0729150 104.5147133  46.1054420 130.8274121 105.7744408
  34.9843216  19.4462907  50.1111460  35.0952315  20.3970432  50.1107740
  34.1356850  19.3043149  50.5305386  95.5083656  14.2725050  76.5351915
  95.7795048  13.6313295  75.8782196  96.2850094  14.4003427  77.0799112
 102.3239040   1.7246531  96.8627930 101.9303513   2.4201070  96.3358212
 102.2555637   2.0393491  97.7641964  36.8907475  20.8480835  65.9246826
  36.9889283  20.3933883  66.7612505  36.2764168  20.3070021  65.4286432
  28.9685273  32.6056719  72.1484995  28.0971003  32.4316812  71.7927265
  28.8074589  33.1403494  72.9259396  64.4575882 122.3254604  34.6216893
  65.0714397 121.7209143  35.0387573  63.9237404 122.6598329  35.3424048
  80.3232670  53.0634499  70.8136272  79.9249649  53.1048870  69.9442148
  79.6366978  52.7027512  71.3746595  58.7000990  46.3491631  45.3792524
  59.5956993  46.1695862  45.6654024  58.1851387  46.3432884  46.1861086
  91.2231541   6.3941085  60.3425169  91.6820621   7.2181076  60.5057907
  90.5351639   6.6228741  59.7175598  59.9362516   6.0793537  52.0986891
  59.5734882   6.0194975  51.2149191  60.2547598   5.1965934  52.2871494
  71.5909719 134.9899275  56.2507153  72.0731592 134.7057206  55.4742146
  72.2700834 135.2604003  56.8686819  72.9688311  29.0827203  78.4291029
  73.2349348  28.7346053  77.5780821  72.1240616  28.6679840  78.6039972
  31.7803788  11.0859334  46.3854790  31.8416715  11.9269443  46.8384409
  30.8671713  11.0315824  46.1038256  44.1643047 133.1599695  81.2896633
  44.8464155 133.5918350  81.8039036  44.1818476 133.6082477  80.4440975
  92.9670525 119.9921746  67.2213888  92.3601055 120.6121130  66.8170071
  93.0594921 119.2916579  66.5756607  77.8106737 130.4828519  52.3062038
  78.4917593 130.2857382  51.6631651  78.2230282 131.1004526  52.9101610
  12.9732215  42.7447796  85.3425217  12.9664743  41.9133663  85.8167934
  12.5882864  43.3725166  85.9540749  63.1674099  26.3063741  74.2458916
  63.6807394  25.5401087  73.9898491  63.1353664  26.8476748  73.4570980
  30.4429436 143.7739588  87.0000935  29.6669173 144.1944002  86.6296291
  31.1556315 144.0271697  86.4134121  69.8374319   0.5707096  83.9936733
  69.1325760  -0.0761145  84.0257454  69.8224211   0.8969030  83.0939007
 103.0911827  51.4668274  39.9787068 103.1342506  52.3997068  39.7686768
 103.5443878  51.3891602  40.8182335  36.4413238  10.8776367  79.6214724
  36.6139388   9.9962169  79.2905092  37.2850800  11.3256061  79.5612144
  36.7434430  15.0172615  37.1742964  36.6449833  14.6662474  36.2892389
  37.5115442  14.5674229  37.5262880  91.1250782  14.2987359  59.9510813
  90.6291103  13.5849941  60.3520966  90.4609108  14.8460627  59.5320988
  87.6637459  29.2063689  66.6072273  86.9303513  29.6939373  66.2321949
  88.4415340  29.6091056  66.2211180  55.0766230  22.5882268  15.2689207
  54.9493790  23.5357690  15.3158498  55.7653046  22.4070764  15.9085524
  71.0716343 116.3875074  56.9657040  70.6999683 116.6993422  56.1405611
  70.6306076 116.9064588  57.6383209  53.8142490   6.3827735  50.2998447
  54.7256374   6.5166116  50.5600119  53.5077906   5.6691194  50.8593225
  71.3877439  34.9078679  77.5515556  71.4214039  34.5712471  76.6561317
  70.9295416  35.7448435  77.4757195  86.2625790   8.5370612  84.3980026
  85.6474304   8.6306739  83.6706352  85.9654427   7.7554780  84.8639107
  48.0164766   7.8041613  24.3248463  48.7165499   8.4238589  24.5300364
  48.4471178   7.1153450  23.8185740  55.3858709  29.3014097  45.5546427
  55.1488876  28.3750963  45.5097485  55.1991081  29.6391392  44.6786928
  78.0894661  25.8713698  59.4844818  78.2032776  26.2369800  60.3617573
  78.0117989  24.9279428  59.6264076  68.3618689  25.5779433  20.5506682
  68.4559822  24.6448851  20.3589010  67.4360275  25.6854868  20.7685733
  79.2143440  22.5004864  25.3148603  78.3600998  22.4209285  25.7393312
  79.2438030  23.4051847  25.0036001  35.0643373 134.0836293  42.6919651
  35.0440979 134.3529899  41.7736721  34.1462612 133.9346010  42.9181480
  60.9211349 121.0839314  49.2380953  60.9467745 121.2784023  48.3012104
  61.7088795 120.5637068  49.3963766  92.9393768  10.2251661  68.9946842
  92.9650402  10.6391883  68.1320333  93.2275295  10.9102964  69.5978403
  66.0004139  32.8033090  21.9953394  66.0588455  32.5356078  22.9124832
  65.0641298  32.7787256  21.7978406  56.0942221 143.2719720  46.4675045
  55.8318663 143.8582284  45.7577801  55.5566645 142.4897973  46.3431406
  66.3909149  21.6578054  17.6357889  66.8732786  22.4730825  17.4983776
  65.8041382  21.5967202  16.8820035  50.4883337  22.7906489  70.8559942
  50.2824688  23.0319405  71.7591143  51.2797499  23.2879686  70.6496716
  94.9943733  31.6575480  39.6501732  94.8465919  32.4544191  39.1408706
  94.6296215  30.9567761  39.1097069  39.3626070  28.1404471  61.7203808
  38.9009809  28.3087730  62.5418425  39.2706752  27.1976566  61.5828133
  52.2247934 128.2760496  44.5194578  52.8118134 127.8297574  45.1297569
  52.6505804 129.1161341  44.3485880  70.3139067   0.6411944  41.2766075
  71.1844206   1.0392237  41.2737942  69.8156595   1.1503883  40.6373072
  56.5804195  30.0754929  88.2525730  56.6799736  30.8592367  88.7930107
  57.3893833  30.0317526  87.7427769  77.0586252  13.3645940  51.4012289
  76.9781399  13.6708081  52.3045492  77.4597645  14.0978062  50.9346247
  37.8777122   7.1316981  19.0165770  37.8254223   6.9426256  19.9534595
  38.7376523   6.8036538  18.7536657  37.7057624   5.3639084   8.6550158
  37.9619098   5.7699996   9.4830924  37.5600529   6.1008734   8.0618179
  96.4301872   1.1918176  50.0503683  96.3977051   1.4532334  50.9706068
  95.9470081   0.3661236  50.0187349  48.5184479  40.8927441  42.7054548
  47.7084970  40.9173203  42.1959352  48.4275770  40.1196957  43.2625675
 100.4388332  20.7042193  61.4025784 100.5617714  19.9336314  60.8482265
 100.6857967  21.4421391  60.8451605  63.1190872  31.3160038  51.2908459
  63.7392282  30.8983636  51.8885326  63.1314135  32.2400761  51.5401793
  45.3594303   3.1840745  48.1555939  46.2688732   3.3411825  47.9017067
  45.2830935   2.2307466  48.1952286  84.8348904  25.7138014  39.0895963
  84.5420933  24.8914933  38.6967683  84.4496346  26.3937902  38.5369396
  85.0594139   5.4973358  51.0328770  84.9488354   6.4136767  51.2864923
  84.8915386   5.4876941  50.0905609  75.3516245 144.5731153  34.2046666
  75.3726196 143.7415335  33.7311029  75.9676790 144.4528220  34.9273300
  62.9691315   4.4327930  50.4756498  63.3839083   4.9061513  51.1968470
  63.1453085   4.9704367  49.7035551  80.5455875  29.5497179  50.4126787
  81.0681629  29.2386723  49.6734953  80.4936409  30.4972601  50.2873898
  60.8246469 145.1052588  59.1235590  60.8761597 145.0060321  58.1729126
  60.5732489 144.2381502  59.4416046  81.3269520 115.7083864  65.8505583
  80.7016468 116.2889547  66.2843418  82.1730042 115.9372706  66.2353134
  58.9597464  27.3554635  71.4586687  58.0142879  27.3198414  71.6038227
  59.3188095  27.6589012  72.2924709  46.2622452  33.5060072  69.9553919
  46.8140745  34.2137837  69.6225691  46.5401459  33.3928442  70.8643436
  47.8384924 145.7701649   8.2678914  47.5565290 144.9244065   8.6163491
  48.2329941 146.2180357   9.0162301  98.0489922 125.4516620  65.2219391
  97.2373867 125.9466500  65.1100302  97.7688503 124.6110243  65.5839920
  57.1884012  15.7142234  59.0369225  57.0715237  15.5293882  58.1050348
  56.8115854  16.5858591  59.1573143  19.2791188  10.0531542  66.4810705
  18.7441385   9.2594427  66.4740276  18.7176895  10.7168615  66.8817234
  82.2121716 127.8373999  95.5375417  81.3012981 127.6567251  95.7697006
  82.6469421 126.9864769  95.5935987  65.1660204  51.7573595  15.7558668
  64.6499205  51.0961342  16.2170184  64.7853422  52.5919390  16.0293472
  64.3730831 143.9890877  68.0501842  63.6948156 143.6996604  68.6604452
  64.8609161 144.6562066  68.5330963  50.6745529  23.9719343  77.2603083
  51.1130619  24.8027778  77.0768976  49.7899485  24.0862060  76.9129658
  77.7136135  25.4208851  44.8198318  77.6766586  24.6800470  44.2148352
  78.5966063  25.7743430  44.7120237  68.3374262  17.2179770  89.9396324
  68.6777067  16.4337432  89.5090294  68.9325857  17.3649120  90.6747723
  71.8696833  12.2332549  78.2413912  71.7584991  13.1838799  78.2548761
  72.7762842  12.1020615  77.9637432  67.3186016  29.7436357  54.2382574
  67.8726578  28.9960408  54.4626474  67.4637890  30.3705835  54.9468374
  19.5008671   0.0251853  53.2397938  19.0380967   0.1115285  54.0732336
  18.8307762   0.1875332  52.5758266  62.7806997  21.5286994  46.1990547
  63.1391954  20.8436489  46.7633438  62.1011782  21.0877252  45.6891298
  81.7126942 146.1248003  66.2285471  80.9693336 146.1178652  65.6255531
  81.7852688 147.0371750  66.5087891  63.8280487 127.6207156  44.8294449
  64.7781324 127.6174361  44.7129822  63.6985111 127.3842067  45.7478762
  71.0259676 145.7107590  80.2601814  70.7388783 144.9034999  79.8333931
  70.3686666 146.3603658  80.0107861  83.8764095  36.0662389  41.3539553
  83.9962101  36.5543342  40.5393124  83.9409161  35.1472116  41.0942268
  57.0802021  22.6824832  41.0033560  56.6824865  22.5902987  41.8691254
  57.8760433  22.1524835  41.0477066  61.9325590  10.8565068  61.9775677
  61.4255333  10.0896776  61.7108583  61.4882278  11.5944505  61.5601444
  71.9764185  18.8562775  57.3387337  71.3833570  19.5280051  57.6753235
  71.8238020  18.8537323  56.3937807  54.7914076 130.5368609  79.5291042
  54.5740986 129.8006494  80.1009464  53.9493227 130.8201856  79.1729403
  48.8274240  12.8267467  72.2238350  48.4027958  12.4581945  71.4491796
  49.2822170  13.6044610  71.9004869  51.8816566  13.9083469  30.1013827
  52.4241352  14.4767237  29.5546699  51.3526869  13.4103656  29.4781399
  71.5521336  38.9500666  58.8216257  71.9847584  38.5082531  58.0909634
  70.8927488  38.3250332  59.1229153  53.5346270 130.9549756  68.6746740
  53.6517239 131.5601844  69.4069576  52.6934624 130.5315382  68.8460541
  73.9096928  25.1146197  92.1271610  73.6880255  24.5058727  92.8318024
  74.4960880  24.6175265  91.5568352  21.1423039 117.0671363  24.7441983
  22.0376182 116.9529457  25.0629520  21.1192751 116.5857358  23.9171839
  19.5677185 142.6855103  67.8885412  20.2351809 143.1221832  68.4177303
  20.0638247 142.1236295  67.2932243  70.1335382  29.0308142  56.1161327
  70.2071381  28.1967330  56.5799475  71.0195160  29.2081642  55.8001852
  48.5129452  28.3793831  41.0526705  48.6884117  27.9511213  40.2147961
  47.5607061  28.3457994  41.1440420 104.8771477  36.8335772  46.9256449
 105.0239182  36.8404961  45.9797907 103.9253044  36.8685293  47.0205879
  78.4042788 130.2518804  22.9517269  78.5227251 131.1973936  23.0423212
  79.0355253 129.8717923  23.5627079  34.2053819  23.9886785  12.2806120
  34.0937877  24.4475603  11.4480209  34.5114827  23.1159353  12.0339310
  86.4845753   4.4145754  21.0671067  85.8992863   4.4473687  20.3104115
  86.9985104   3.6174276  20.9380174 101.7013359 134.5864601  69.2053890
 101.2805176 134.2471118  69.9953127 101.0442924 134.4767863  68.5180044
  88.2359314 118.7517352   8.2437539  87.4465179 118.2146854   8.3118427
  88.4326649 118.7707109   7.3071802  61.1766005  10.7896578  31.6617966
  60.3992605  10.2405381  31.7639947  61.1522532  11.0714340  30.7473350
  62.5129223   4.3305683  37.4656343  61.9941378   4.9168658  36.9148636
  61.8703032   3.9019537  38.0309319  85.5304909  10.9365165  49.3985987
  85.5118370  11.8914151  49.3349457  85.8377075  10.7617271  50.2881479
  53.8518810 108.8373084  45.8367920  53.8402319 107.9879827  46.2780857
  53.4744072 108.6643047  44.9743462  58.3780193 140.8824248  49.7052288
  57.4627209 140.6960524  49.9143171  58.3796310 141.0466910  48.7622309
  61.6452169  26.7187786  44.6255684  60.7222033  26.8657851  44.8321199
  61.8289614  25.8413744  44.9611712  19.3107736  18.2388830  48.8547945
  19.2454433  17.3676515  48.4637451  18.5075951  18.3323324  49.3670464
  25.7844973 142.1208400  76.9385767  25.6574917 142.1206961  75.9898424
  24.8977399 142.1150116  77.2989368  89.2476273  24.7903681  47.8447533
  89.3420315  24.0007973  47.3119307  89.7849941  25.4454827  47.3994493
  47.4975729  21.4310026  53.4646893  48.1155491  22.0951700  53.7700176
  47.9974318  20.6147885  53.4776020  48.3645391  28.0006003  46.1685562
  48.1999111  28.8901377  46.4813709  47.9019737  27.4386477  46.7902279
  47.3407316  97.5194521  29.1238260  48.0497074  97.3410291  28.5059667
  46.9972754  96.6551895  29.3503547  43.1365538  39.0926170  50.4453516
  42.9106569  39.9796271  50.7253742  43.3423996  39.1803813  49.5146751
  53.2705069 134.9773366  54.7369432  54.0875006 134.7088833  54.3166113
  53.5483217 135.5097336  55.4823303  82.8094387   5.3188860   1.3230571
  83.0319118   5.0710416   2.2204487  83.5883141   5.7715374   0.9995062
  59.8615074  23.1466508  30.9833097  59.7893190  22.1984291  30.8742476
  60.3490210  23.4398556  30.2135086  53.5762215 128.5625524  51.6146612
  52.6939297 128.9334626  51.6294622  53.6890030 128.1780417  52.4839497
  93.2514477  27.3890328  46.2131786  93.2623100  28.1321263  46.8164444
  94.1381741  27.0313311  46.2577868  68.5471582 130.6754751  64.1514635
  68.8868141 129.9442715  64.6674156  68.9881229 130.5969376  63.3055210
  52.7860117   6.3711941  22.5908732  53.3685923   6.7490369  21.9320345
  51.9235182   6.7299002  22.3819041  63.1171894  24.9001694  49.0004301
  63.5062313  25.7705832  49.0856314  63.1767273  24.5241976  49.8786831
  57.9691982  59.5865726  33.7956929  57.4472618  59.9544287  33.0825996
  58.7240076  59.1903830  33.3603501  58.5492659 118.8122816  36.3207769
  59.4036436 119.2401189  36.3775682  57.9560328 119.5009250  36.0206437
  64.0250874  44.6696138  75.7429218  63.5093784  45.1222992  76.4102650
  64.2816067  43.8454533  76.1566687  72.4977255   3.3387956  24.2297554
  71.9039011   2.6493043  24.5267487  72.3650551   3.3775786  23.2825875
  28.2064772 139.2475481  68.3482790  28.6474180 139.6389235  69.1023493
  28.6992955 138.4461124  68.1720304  85.4378700  38.8200974  37.2179556
  84.8807144  39.5906854  37.3274875  86.3191605  39.1301680  37.4263120
  46.4264727 140.6354166  42.4472475  45.5311394 140.9593202  42.3487854
  46.7691994 141.1059523  43.2070923  30.7787490   5.0408530  33.1699276
  31.5495229   5.2951032  32.6624894  30.4184771   5.8682537  33.4890604
  13.6899781  20.2064586  52.5715208  12.7957380  20.5469656  52.5964546
  13.8367093  19.9858665  51.6517162  84.1902447 123.7176342 101.0709572
  84.0656376 123.2561059 100.2416801  83.3602905 123.6055941 101.5344715
  75.7145071 134.3198723  34.0643954  74.7944975 134.0954847  33.9248943
  75.9451056 133.8855524  34.8856282  44.9928141   9.9990720 106.1777609
  45.6607533  10.0150394 105.4923179  45.4649878  10.2299964 106.9777324
  30.6785250   4.8806623  46.2457848  30.8851457   3.9641857  46.0624552
  31.3307667   5.1483577  46.8932056  72.4971151   4.2320132  33.5166359
  71.7345095   3.7359783  33.2189584  73.1597996   3.5658538  33.6991549
  63.0952215  42.8027582  45.6726694  62.9771471  43.5174894  45.0470161
  64.0073586  42.5348806  45.5609512  59.2573786  11.3257062  54.4312334
  58.5740423  10.9264135  53.8928604  59.8854637  11.6764081  53.7997675
  68.3648396 129.9276704  69.9808264  68.4721756 129.0143127  69.7153282
  68.8916016 130.4229231  69.3535423  90.6018162  21.2552977  77.4531746
  90.5563641  21.0626245  78.3896828  89.7383118  21.0152388  77.1170759
  78.5584688 141.8763096  38.0879831  79.4795465 141.6470415  37.9643679
  78.4397364 141.8871967  39.0377283  74.7808933 140.3932060  42.3379087
  73.8984108 140.2886666  42.6936245  74.9389029 139.5860750  41.8482113
  87.7013016 143.1734911  92.9021999  87.8341198 142.2737456  92.6037904
  86.7507076 143.2855145  92.9096028  45.4348040  23.5993528  39.1696310
  45.3034973  22.7311969  39.5508051  46.2872267  23.8805008  39.5021510
 119.0402508   3.9238432  50.6478786 119.3346024   4.2716315  49.8060703
 119.7434521   4.1462809  51.2580061  19.2156827 145.2876520  48.4298754
  19.2780626 146.2105774  48.6759424  18.2762873 145.1260785  48.3423328
  58.5104704   9.3905371  44.7053194  59.2330790   9.3124545  44.0824461
  57.7526522   9.0385693  44.2383480  80.8829689  12.5142062  26.3770580
  79.9579716  12.6052725  26.6057873  80.9200096  12.7193916  25.4428411
  91.9606495 141.1437119  50.0099945  91.6055393 141.7763824  49.3856096
  92.6816845 140.7234491  49.5412493  35.6036305 115.1922006  41.1915636
  35.0620842 114.7720236  40.5234241  34.9801207 115.6655354  41.7424011
  14.2277062   2.0183431  47.3687983  13.7383246   1.6660082  48.1121683
  14.5103812   2.8860089  47.6577330  74.3714190   7.4477607  21.0014439
  75.0131798   8.1082755  20.7404876  74.8547983   6.8606740  21.5827417
  43.9004850  32.9685926  61.4683104  43.5234594  32.6033854  62.2687483
  43.9489698  32.2262168  60.8660126  69.1500950  28.3991861  72.0944691
  68.5115957  27.8228211  71.6745186  69.5965719  27.8394604  72.7297592
  60.9442377 139.6516491  65.1581907  61.4974642 139.3373896  64.4430590
  60.8401012 140.5876244  64.9869061  68.1756592  26.7883801  58.0302095
  67.4441481  27.1611691  57.5381231  67.8256464  25.9795094  58.4036446
  73.7753105  13.4743428  66.5282345  73.6695862  12.6154315  66.9372892
  73.8090754  13.2900596  65.5895472  56.3549280  34.3060684   5.6764007
  55.7139921  33.8343835   5.1444745  55.8382225  34.7042751   6.3768864
  67.8676510  39.0675187  72.9182100  68.2438803  38.1977534  73.0530834
  66.9503069  38.9007211  72.7016687  40.9135771 145.9042157  56.6030455
  41.7105198 145.3745507  56.6270018  41.1793470 146.7175283  56.1739540
  27.7750015  33.8360143  62.0121813  26.8481922  33.6082172  61.9389534
  27.7814674  34.7896385  62.0946026  68.0762768  29.8942947  46.4258528
  67.2499084  30.0896502  45.9840631  67.8522921  29.2172885  47.0643854
   9.9917793  12.9330361  58.6190033   9.0861642  13.1440187  58.3918905
   9.9483353  12.6395714  59.5290709  54.3040323  43.1217432  52.3933601
  55.2239656  43.3769655  52.4627209  54.1749859  42.4950981  53.1053257
  58.3987951  19.5969188  59.6256304  58.7869787  18.7669337  59.9025202
  57.6914024  19.7511804  60.2517557  49.0622473  12.3838854   3.9837542
  48.8942242  13.0860758   4.6121868  50.0130844  12.3835576   3.8735369
  42.6875210   6.6219819  20.9713984  43.5804415   6.2877148  20.8865690
  42.7972603   7.5568050  21.1454558  45.1362467  33.1427026  55.6349850
  45.4530287  32.2739840  55.8823919  44.7693014  33.0233240  54.7590065
  60.0659275   1.1616567  63.2710886  59.3865061   0.5424968  63.0041504
  60.3231668   1.5994826  62.4596882  57.9554701 139.1217203  58.4533787
  57.2247410 138.5037340  58.4343719  58.2189035 139.2093814  57.5373268
  64.0940380 144.3713821  54.0957069  64.9936819 144.2856491  53.7802458
  63.8162756 145.2366840  53.7951565  28.0232596   1.1937447  64.6226120
  28.3555627   2.0276809  64.9548101  27.3744512   0.9192292  65.2706289
  72.3220587 121.5735383 104.9325477  72.6929760 122.1713514 105.5816051
  72.3061132 120.7231612 105.3716769  93.9869976  41.3936901  41.1949539
  94.5067978  41.9018793  40.5722284  94.4407082  40.5530500  41.2558031
  80.5036163  13.2090187  44.6142626  80.6436539  14.0516055  45.0463152
  79.6024323  12.9735804  44.8348761  57.5044727   6.5307152  30.0091600
  56.7215109   6.7543125  30.5123568  57.5244379   5.5737239  30.0098634
  48.3211231 146.7692707  60.2949762  48.9221573 146.1863481  60.7588673
  48.0209923 146.2560966  59.5447731  49.8295116 141.3997317  39.1217780
  50.4575968 141.9855587  38.6992311  49.0888405 141.3658334  38.5163927
  39.7785544 128.3079106  41.6426420  39.9696159 128.6745793  40.7793427
  40.6358433 128.0747480  41.9989061  62.8688908 137.0158566  49.2711830
  63.3448410 137.5077004  48.6020088  62.6439238 137.6689608  49.9338102
  32.7389026 132.9538459  22.7946401  32.9910803 132.4944646  23.5956430
  33.3160782 132.5947196  22.1207500  43.9334536  11.2733006  34.7028375
  43.1236792  11.2106740  35.2093744  44.6024990  10.8943903  35.2729535
  62.9351187  28.1847095  71.9974470  63.3821630  29.0288997  71.9364262
  62.8629589  27.8858209  71.0909748  78.0379009  15.2795494  49.8549700
  78.9259434  15.0509965  49.5804310  78.0719328  16.2226629  50.0149965
  79.0187740  11.0303736  51.5553856  79.5578384  11.1872876  52.3306417
  78.3720732  11.7359841  51.5665197  35.0075388  37.1563053  51.9029331
  34.8652482  37.7524996  52.6381445  34.6271729  37.6091433  51.1502743
  55.3990698  21.5243649  20.1203609  56.0589027  21.6214991  19.4337606
  54.8612738  20.7864928  19.8330522  87.1293259   2.4349399 109.2932452
  86.2917423   2.3275326 108.8425305  87.0971489   3.3225110 109.6501961
  65.5096102  19.0256083  36.5015173  65.1051044  19.4933939  35.7709146
  65.8992243  19.7140980  37.0404220  57.0090485   9.5205045  18.4350657
  57.8182125  10.0279200  18.3717358  56.4186430  10.0739884  18.9462543
  58.2619047   0.7784437  23.9145517  58.1675243   1.7308465  23.9304423
  58.3665180   0.5327548  24.8337507  41.1355543  53.7621260  23.4217238
  41.0430384  52.9698372  23.9508247  42.0806074  53.9030409  23.3646846
  18.6554241  16.6647911  36.0949087  19.3874025  16.6649032  35.4781127
  17.8971112  16.9142318  35.5667305  73.6849070  15.2697754  45.0288725
  72.7358961  15.3856254  44.9820566  73.8941813  14.7046030  44.2852211
  47.5698805  24.8085952  40.3744936  47.6397085  25.6358051  39.8979616
  48.3282137  24.8038983  40.9585619 103.4121323  42.3004389  83.5091209
 103.5145760  41.9569016  82.6215935 103.5877228  43.2376242  83.4249496
  33.3285928  21.1509156  32.9645514  33.4243369  20.9981632  32.0244813
  32.7575111  20.4439878  33.2651329  52.8016043   9.9334383  58.3432961
  52.5373459  10.1690495  57.4539804  53.0029106   8.9989614  58.2936954
  86.8641186   9.1304284  59.9092054  87.7984715   9.1338283  60.1170778
  86.4424133   9.4755346  60.6961632  84.1411018 143.6933575  42.3664093
  84.0014744 144.3740497  41.7080832  83.2937717 143.2542826  42.4403858
  18.4494686 118.0790205  12.2545028  19.0598845 117.5140519  11.7807591
  17.6151943 117.6108904  12.2217536  91.9813251 145.2629211  53.1668854
  92.6826000 145.6514213  52.6438904  91.9230652 144.3594850  52.8560162
   3.0418521  13.1161571  73.9568138   3.5898429  13.8493049  74.2368793
   2.2026759  13.5171473  73.7304831  73.6348486   8.8285828  15.2349007
  74.1463852   8.7760192  14.4275594  74.1299820   8.3069623  15.8665538
  76.4782143 145.1151488  14.5827770  75.7899332 145.6116426  15.0254941
  76.9137764 144.6314190  15.2845752 113.9584064 120.5924625   8.0202067
 114.6784592 120.0466056   8.3361191 113.6669254 121.0754938   8.7934792
  80.9486389  40.0910187  73.5563803  81.7186832  40.6312370  73.7336397
  80.8170319  40.1643991  72.6111126  69.3932772  18.1845641  52.7990532
  68.7209558  18.6008692  52.2596979  69.0287495  17.3265564  53.0162525
  69.7984838 139.1160507  56.1205053  70.7359743 138.9901824  56.2671566
  69.3838167 138.3877475  56.5829515  54.8494959  47.4739552  51.0657454
  54.5871735  46.9781828  50.2900982  54.0249109  47.7725410  51.4493370
  73.4922791   7.3935801  25.3474402  73.2299995   6.4911509  25.1656055
  74.4170952   7.4280983  25.1029897  81.4924622 138.8871456  50.5562210
  80.8845806 139.3462689  49.9766350  81.4797020 139.3950195  51.3674784
  57.0784712 138.2179601  53.5656881  57.0470285 137.3267133  53.2179499
  56.1822128 138.3954740  53.8510609  34.0373611   9.7015315  58.5483980
  34.5764422   9.9040633  59.3129921  34.6633196   9.4163305  57.8827620
  76.0541010   6.5035367  35.8674455  75.8456278   7.1884573  36.5027833
  75.7500172   6.8531859  35.0298810  46.6822481  35.2325320  24.5910597
  46.0742331  34.9652839  23.9017653  46.2824488  34.9133492  25.4000783
  63.6868763  37.6249599  65.4187393  64.6386528  37.5783443  65.3282785
  63.5461521  37.9313970  66.3145781  65.4390001  15.6203854  52.6222277
  64.8751354  15.7191324  53.3893919  65.3043222  14.7154331  52.3408794
  68.9093542  36.2484288  54.1527700  69.1524792  36.2584591  55.0785255
  68.2601213  36.9466782  54.0680599  95.9580231  18.5610783  53.8131857
  95.4234219  19.2921817  53.5034752  96.1355495  18.7661755  54.7311449
  16.2618029  25.7964158  23.8240910  15.6859004  25.8556533  24.5863628
  17.1275568  26.0295200  24.1593003  36.4313936  19.1843951  52.6957035
  36.0675287  19.0380156  51.8225431  37.3176908  19.5080817  52.5346613
  80.1750278  15.5610716  39.6994233  80.1527691  15.6928766  38.7516046
  79.7065020  16.3152099  40.0571823  60.0320768 132.1888573  14.3517542
  59.6230173 132.9881949  14.6833622  60.9672499 132.3135478  14.5134175
  43.4475136  19.6117043  66.4622355  43.6793137  18.9570355  65.8035183
  42.4927282  19.5699048  66.5158319  52.4297047  26.7688155   6.3608533
  52.9915476  27.5365686   6.4663059  51.7622137  27.0449328   5.7328027
  63.3606100 143.6384083  13.3611882  63.2911873 142.7859081  13.7909043
  62.5027895 143.7743748  12.9588282  74.2437935  38.1586671  40.6318569
  73.7213421  37.8664637  41.3787794  73.6091137  38.5589910  40.0375891
  29.8208070 124.1443343  63.3348608  30.6524801 123.8486261  62.9645777
  30.0478172 124.9245305  63.8408184  84.3197250  13.5597730  29.0811276
  84.6433258  14.0798223  29.8166966  84.9442387  12.8383982  29.0047216
  71.4897585  30.2860808 104.7249647  71.8623066  31.0678411 105.1327481
  70.6237030  30.5620456 104.4249209  84.9439240   8.4117615  81.6317463
  85.0608921   8.0759293  80.7430553  84.0030098   8.3408540  81.7926693
  83.3168888  52.7752209  34.1602397  83.6171818  53.1079149  33.3144426
  84.1125679  52.4625921  34.5908189  55.1264954  26.4423490  45.3587198
  54.5078850  26.0502219  44.7424507  55.6889248  25.7162070  45.6282043
  43.2120705   2.5625545  20.2998209  43.5260963   1.7274803  19.9530208
  42.7899551   2.3343939  21.1280656  55.1454639  10.4199421  10.0097942
  54.2860460  10.0077140  10.0975084  55.1856804  11.0460663  10.7326925
  40.3092575  16.9714820 107.3656508  39.7376776  16.8570089 106.6064262
  40.0466299  16.2772202 107.9700168  63.6611605   1.3105416  58.2095385
  63.6978292   1.7551127  59.0564442  62.7509975   1.4050347  57.9286385
  14.3876660 135.2713627  20.2719545  15.0453675 135.7644899  20.7623506
  13.7780726 134.9559803  20.9391594  90.9576416  16.8294752  30.4872894
  90.2753162  16.2769020  30.8685040  91.7108631  16.7139101  31.0665488
  84.0968800 142.6913349  24.3406177  83.7823963 142.1946309  23.5852242
  84.9616146 142.3247201  24.5251799  66.1953020 102.4084587  37.1584916
  65.4354095 102.8910656  36.8330908  66.9472265 102.8548832  36.7691994
  37.9894543  16.8576419  48.4585238  37.4500704  17.6434159  48.5471630
  38.8874197  17.1867537  48.4188080  58.8623476 131.0253627  16.7520201
  59.4422293 131.5986247  16.2506831  59.2872524 130.1682121  16.7206705
  46.4951563 141.5766687  19.3474340  47.3856592 141.7595226  19.0477753
  46.5663338 140.7455260  19.8168659  82.6175499  17.9809439   2.8371558
  83.5741425  17.9477251   2.8446499  82.3488045  17.0916140   2.6067200
  27.4130130  53.3237886   7.2930861  27.7083802  53.6491585   6.4427185
  28.2197571  53.1788301   7.7874386  16.9905787   4.4529513  10.8516872
  16.9656211   4.6539369  11.7872155  16.1672240   4.8014075  10.5097973
  64.7097111 145.0235430  26.7353559  65.2036381 145.4366576  27.4435949
  65.0143337 145.4642656  25.9421349  39.7672677  33.3011746 107.3364719
  40.5094671  33.8945699 107.4516257  40.0395632  32.4907184 107.7668760
  39.5621634  17.3115277  15.2083516  39.4841313  16.3752675  15.0251567
  38.7172818  17.6779020  14.9472475  42.1072769 142.5305615  23.2873154
  41.3015079 142.9049767  22.9312491  41.9701338 142.5239877  24.2346168
  39.6513677   5.8044171  34.1195750  39.6175838   5.8368450  35.0756288
  39.0761423   5.0764620  33.8841414  57.0896196  32.5896215 107.2809153
  56.5890837  33.4053993 107.2665741  56.4344835  31.9093585 107.4367026
  46.6892195  42.3575974  30.9138870  46.2714243  41.6365814  31.3848615
  47.2608566  42.7681255  31.5626764  54.8991537   0.7970918  90.4601821
  55.0122738  -0.1529773  90.4318258  54.1104412   0.9287897  90.9863218
  68.3415985   0.3018835   9.1965425  67.5655985   0.0797777   9.7110528
  69.0739727   0.1699357   9.7985828  41.7655420  12.5301933  20.6291080
  41.6016579  13.2117760  19.9773264  41.3522100  11.7470050  20.2657819
  30.3212214 141.4247007  29.5618844  29.8173618 141.2343431  28.7706041
  30.8500910 142.1884278  29.3311238  61.3773298 139.3832392   8.8552320
  61.5373182 139.1984768   9.7807038  60.4941607 139.0512491   8.6939055
 112.8031254   4.6631712 103.4644421 113.5647106   4.0899119 103.3773371
 112.5055695   4.8043478 102.5656863  55.9319639  10.1924980   2.0940408
  56.6457319   9.5783949   1.9218823  56.1734009  10.6154346   2.9180935
  65.6144285  17.2309315  18.3023524  64.7203445  17.4806631  18.5357618
  65.6895876  16.3190842  18.5836315  79.5689726  12.8508282  20.6873822
  80.4603386  12.7097154  20.3683567  79.0923977  12.0641232  20.4224229
  86.8877888  24.9256587  21.0055828  86.7571259  25.7874870  21.4010668
  86.8260956  24.3137169  21.7390370  60.8401775  17.4729908  35.6084251
  60.3258848  16.9177103  35.0224233  61.1635017  16.8751323  36.2824106
  48.1185865  15.8855176  21.8832922  48.2575035  14.9447274  21.9921350
  47.2983456  16.0614204  22.3442602  77.6507711  19.7127843  41.9585228
  77.2018909  19.7736442  41.1152935  78.5658550  19.5476973  41.7313623
  40.1752615  30.1106501  21.6750884  41.1319208  30.0798035  21.6660929
  39.9560308  30.8919334  21.1673784  54.9356937   9.2627054  32.8259087
  55.1687193  10.1737106  32.6470184  53.9843416   9.2749912  32.9308057
 111.7283821   8.5402435  41.7644787 112.2723961   9.0526104  42.3626137
 110.8713341   8.9652824  41.7965984  68.4531498  16.1170256  56.7424440
  67.8495407  16.0368621  56.0038948  69.3231821  16.0492599  56.3491488
  71.7615938  21.1891007  18.1005502  71.1173105  20.5130172  18.3104122
  71.2401295  21.9272399  17.7851784  68.9226961   7.6141894  32.5932097
  68.5152578   8.2433194  33.1885409  68.2666779   6.9252580  32.4871802
  32.7422714 146.1453729  41.0635662  33.5451984 146.1209574  41.5840864
  32.5540733 145.2269613  40.8703470  63.2863331 142.7349345  28.7751508
  64.2298841 142.8907005  28.7341332  62.9408216 143.4839410  29.2607832
  51.3501501  20.6945801  48.6395025  51.5658331  19.7898149  48.8655806
  52.1855736  21.0817981  48.3780575  46.4552641 120.1234646   0.2293407
  47.2971010 119.8700041   0.6078919  45.9310198 120.4059953   0.9787227
  57.2983265   4.9803039  36.7863917  58.2055759   5.2515376  36.6465402
  57.3086262   4.5383689  37.6354027  62.3324156  13.7959146  47.4843025
  61.5431547  13.8817763  48.0190229  62.1686172  13.0278003  46.9371271
  68.6775255 119.8664946  19.2328346  68.7039948 120.0073666  18.2864285
  68.9527178 118.9568896  19.3473816  50.5665159 139.3362612  19.6262956
  49.8419762 138.7554098  19.8584354  50.3197336 140.1853187  19.9929464
  61.3402510 142.5139637  26.2799740  61.8789577 142.7064780  25.5125308
  61.9693565 142.4065632  26.9933629  64.5716619  30.3057504  42.4606180
  65.0505543  29.5231080  42.1879148  65.1906490  30.7857251  43.0108118
  53.1427717  22.9508209  27.6332450  52.8628111  23.5707974  26.9598341
  52.6459360  23.2023263  28.4117889  92.8697014  11.6314054  82.4644645
  93.5811043  12.2468984  82.6414117  92.1358299  12.1842825  82.1961459
  53.0178165  45.4512787  93.1008705  52.8173351  46.2948751  92.6954230
  53.1610298  44.8588276  92.3628195  40.5353355   0.9257623   2.9856348
  41.0719728   0.5783454   3.6980653  39.7808266   1.3191736   3.4240115
  92.1398449  47.1366262  45.6152916  91.9617558  47.9042816  45.0719452
  92.2087479  46.4130878  44.9924135  74.1835308  45.4543447  27.2362542
  74.1687155  44.5604610  27.5782871  75.0925779  45.5943203  26.9711661
  86.7411232 130.5401952  17.8015840  86.1683941 131.2960238  17.9317236
  86.2426567 129.9578662  17.2282994  75.5629587 133.9405079  12.2756410
  75.5197811 133.6535186  13.1877840  74.9880791 134.7049005  12.2375870
  32.1908617  17.4906278  36.5737748  32.9742646  16.9991791  36.3268113
  32.5264978  18.2666361  37.0225430  49.7496653 146.6910846  43.0737448
  50.6388521 146.3368169  43.0647707  49.3037176 146.2370363  42.3587608
  81.5117359  10.7833612 109.1542316  80.5614185  10.8765638 109.0876174
  81.8043709  10.6618202 108.2510028  54.3277073 115.3388304  17.7397215
  55.1834917 115.6203599  18.0631566  53.8234043 116.1485381  17.6604438
  81.4087677 131.7763705  95.1668390  82.0316219 131.0758359  94.9730989
  81.6615009 132.0879991  96.0358878  71.4366341 145.0983703 103.5416403
  71.2371445 145.0857870 102.6055428  72.2348738 145.6222519 103.6094006
  45.6851339 146.0342007  13.6680233  46.6223764 145.9694070  13.8513517
  45.3106070 145.2414023  14.0519929  45.1967287  22.9566240   6.9528586
  46.0583687  23.3236647   7.1505594  45.3680944  22.0356607   6.7561567
  45.9403849  24.8135185  15.4927731  46.4199686  24.1831350  16.0302222
  45.4516315  24.2748594  14.8705244  62.0648050 121.5548534  39.4157791
  61.9640541 120.7165045  39.8666191  61.5372229 122.1673627  39.9283433
  56.9313097  13.1845915  45.7409104  57.2690582  13.9455402  45.2685603
  55.9797382  13.2786012  45.6973132  91.8460655  33.3053684  57.5369072
  91.8850136  33.4759212  58.4779835  92.0152473  32.3666835  57.4564075
  66.9891405 117.7350158   8.5212582  67.3391342 118.1323404   9.3186724
  66.7713928 116.8384165   8.7760687  68.2086086   6.6447622   7.1370876
  68.9784956   7.2133797   7.1235651  68.4421301   5.9397578   7.7409661
  39.1675806  21.4840055  49.5303869  40.0696135  21.7581725  49.6959352
  39.2518353  20.6813383  49.0157461  99.8773861  11.6952717   7.8717619
  99.9182606  12.6454461   7.7634567 100.6299114  11.3656306   7.3805583
  22.6938844 133.3470900  19.1762984  23.4149384 133.9451880  18.9798498
  23.0223513 132.8028340  19.8919284  50.8212280   5.4506028  51.9108963
  51.1961126   4.5874405  51.7358446  50.4467773   5.7234502  51.0732985
  58.7640953  17.0591295  12.3429596  59.6525812  17.4135828  12.3085392
  58.2015944  17.8297842  12.4198878  29.6499872 120.5315203  17.8334963
  30.1067638 120.2896018  17.0278525  30.2736306 121.0828299  18.3061039
  38.8279247 142.7704475  39.7930527  38.8339114 143.7276174  39.7977138
  38.7598777 142.5268588  40.7162333  52.9952240  19.3333077  40.0728035
  53.9073610  19.4020212  40.3547955  52.4864388  19.4733429  40.8714008
  80.5713558 142.2011069  48.4943771  80.1316452 142.9356820  48.9225054
  80.1422787 141.4237643  48.8519573  98.7195206  17.1596420   2.4336733
  98.5832500  16.2254643   2.5917110  99.0237141  17.2073591   1.5273514
  93.9688206  52.0890045  98.8765236  93.6936665  52.8184938  98.3212205
  93.5086060  51.3293982  98.5195478  79.1832066  26.4447331  61.9407558
  79.6102715  26.3565707  62.7928543  79.8858261  26.3075233  61.3053608
  43.6828709  10.5848706   7.6717639  42.8881979  11.1050022   7.7908665
  43.7434340  10.4532874   6.7255878  35.5443478  24.8264861  36.8180037
  35.4408550  25.6952357  37.2063231  35.3085995  24.9457383  35.8979845
  68.1699038 129.2264611   5.8606374  69.0454340 129.5568735   6.0618997
  67.9196930 129.6843953   5.0581902  55.6359196 129.7961290  29.5503330
  55.0103903 130.0647373  30.2232337  55.6760979 130.5404658  28.9498520
  84.5177937  27.6754546  22.8838825  85.4121208  27.4344635  23.1254148
  84.0053749  26.8823147  23.0406737  58.2381296  34.0340328  23.3993411
  58.5288620  33.8125348  24.2840123  57.9792070  33.1962538  23.0155253
  97.6250458  24.3544912  46.0185146  97.6091290  23.5877061  46.5912485
  97.2921371  24.0342140  45.1801729  82.9194450  55.6598234  20.4109168
  82.8026295  55.2861500  19.5374429  82.0520687  55.6064510  20.8122134
  66.4640284 146.5403838  39.6147156  66.4751053 145.6409968  39.2872810
  66.5884829 146.4527767  40.5597401  47.9809141  25.2617288 106.8523001
  47.4285030  24.5672941 107.2112408  48.1175470  25.0109506 105.9386959
  59.3384743 137.3332829  78.1123980  59.0468025 138.2412065  78.0297455
  59.0773392 137.0774121  78.9970287  81.2188530 142.5014747 108.9693817
  81.6731548 141.7097674 108.6812013  80.4158497 142.5197847 108.4487384
  78.3864737  15.2350712  95.5759355  78.8295078  15.0623524  96.4066704
  77.6645422  15.8197677  95.8065363  45.3733397  19.5248973  26.8656898
  45.2983379  18.9642751  27.6378989  44.6019125  20.0902629  26.9043279
  38.3329320  22.2181010  27.8625965  38.9135408  22.5417614  28.5513401
  37.7929926  22.9734588  27.6299334  77.9407215  11.1269224  92.6819118
  78.8659620  10.8972108  92.7678939  77.8670835  11.4994836  91.8032714
  70.9784412  20.5204391  46.8975973  71.3335514  19.8602140  47.4927664
  70.7213402  20.0271726  46.1186123  59.9106836  40.5878735  87.0671304
  59.8701954  41.5407133  86.9853600  59.2463398  40.2667141  86.4574345
  57.2788811 143.7337697  99.5728775  57.7292299 142.8892822  99.5890268
  57.3073864 144.0377968 100.4800638  93.3672905  20.4881549  21.7694378
  94.0706158  19.9667692  21.3824868  93.3571815  21.2956357  21.2555289
  28.1210136  41.6025877   3.3237016  28.7150693  41.6708660   2.5762597
  27.8285766  40.6911993   3.3147472  64.8488140 136.7523147  39.3689775
  65.5416059 136.0927052  39.3345428  64.0437603 136.2481649  39.4870996
  10.9800994  21.3417792  45.5205250  10.4272032  21.5537810  44.7684669
  10.3906262  20.9056735  46.1357975  53.6124611  31.5462255   7.1873683
  53.9794445  31.6037011   6.3051814  54.1120625  30.8473706   7.6095438
  32.1807194   7.7725536  40.0775814  32.0822668   8.6288840  39.6613669
  32.7659822   7.9320133  40.8180380  31.8985176 114.1435427  24.7890019
  31.9207501 113.6065001  23.9969635  31.6151023 115.0060410  24.4856834
  61.5497255 143.7266822  36.4482188  62.4836588 143.5176406  36.4657307
  61.4126873 144.2758333  37.2201538  39.6744895 132.8896947  20.9001160
  39.1556311 133.4236688  20.2985430  40.5225325 133.3316214  20.9420466
  33.2641554  16.9716251  40.5010939  34.0472889  16.4363837  40.3728247
  32.5381589  16.3944411  40.2644157  75.1938057  25.8515930  16.9380462
  75.1427221  25.3885055  16.1018813  75.8778286  26.5081882  16.8068004
  63.7843084   3.4979388  17.6908088  63.5655451   3.8971904  18.5328150
  64.7326708   3.3725873  17.7243614  86.7605686  22.1657252  40.3343534
  85.9639931  22.2654414  39.8130560  86.9853687  21.2388325  40.2533293
  79.6237469  38.8125110  51.0951662  78.7026072  38.7867546  51.3541460
  80.1031494  38.5885119  51.8928051 105.5816841   0.4867335  17.8830349
 104.8822594   0.7044636  17.2668874 105.6958389   1.2803006  18.4059596
  53.4120655   7.1781683  44.2836285  53.4537506   6.8971163  43.3695698
  52.7816868   6.5826237  44.6888161  56.6887283  49.8094463  49.8790407
  57.2567844  49.8075056  49.1086245  55.8287144  49.5569134  49.5431376
  54.4104862  12.7377927  37.8813815  53.8644552  12.2364807  37.2757649
  54.3705368  13.6358547  37.5525665  29.1646433   5.5600566  21.7146039
  29.9273157   5.3471005  21.1768198  28.6903954   4.7325939  21.7960095
  70.6398439  47.4918079   2.2748849  71.2899637  46.9633102   2.7377757
  70.8390379  47.3589182   1.3481192 103.2095814  28.7488770  68.7859678
 102.3622799  28.5264945  68.4001493 103.6800671  27.9162884  68.8268471
  52.9212332  68.7437105  97.9178830  52.9594231  68.8101721  98.8720092
  53.3804893  69.5230532  97.6049300  66.9696093   6.5732396  21.3447928
  67.0581341   6.4376390  20.4013920  66.5699244   7.4392170  21.4258313
  56.7917490  47.5275660  43.3347750  57.5275087  46.9690371  43.5856390
  56.7432880  48.1856489  44.0281820  44.1726351  34.5772600  20.2148914
  44.9875927  35.0792956  20.2085423  43.5233736  35.1697564  19.8358953
  65.1976442 119.6604795  26.2615347  64.9512863 120.3892512  25.6919479
  65.5270910 118.9897461  25.6633592  30.5511403  28.1766796   5.5529058
  31.2653732  27.6067305   5.2678418  29.9425459  27.5910091   6.0032797
  79.5358801  17.5543380  71.7948055  79.4972849  17.0797944  72.6251984
  79.0502024  17.0031631  71.1811638 110.7809734  42.1317625  15.6465495
 110.0959587  42.7992916  15.6838989 110.6654263  41.6247797  16.4501953
 109.9854374  14.9185538  36.3902283 110.5197048  14.5136583  37.0734906
 109.5549107  15.6535411  36.8268871  46.9777918  31.8450665  23.0440974
  46.6873312  31.3516712  23.8111854  47.1497297  31.1769271  22.3805785
  68.7880516  16.3254786  22.4791694  69.0702868  15.4512286  22.2103524
  68.5391092  16.2248445  23.3979368  32.8483653  16.7265368  27.7436137
  32.5192857  16.0686910  27.1310949  32.1302152  17.3533869  27.8304982
  67.0741558  10.9391809  30.0024557  66.6159201  11.4217424  30.6904840
  67.9260015  10.7281220  30.3846121  42.9634953 106.4773197  61.8898344
  43.2763004 105.8431453  61.2446928  43.6357689 107.1586008  61.9014549
  53.8766146  31.7498064  26.9764686  54.1802502  32.2981668  26.2530494
  53.7176991  32.3646069  27.6927066  57.9487562 128.9898665 101.8107458
  58.4675550 129.5603604 101.2436309  58.1291676 128.1059296 101.4908400
  79.0397596  33.3901334  18.5504854  78.3987999  33.8926077  18.0475700
  78.6110258  32.5499535  18.7133241  53.4334803 143.8154648  33.7382770
  52.9874372 144.5512856  34.1576147  53.7323046 143.2702682  34.4660783
  90.4966545 145.7090780  37.3287797  90.4004574 146.6590727  37.2617888
  91.4312649 145.5733892  37.4847484  43.8989115  14.6201825  28.9617515
  43.3372021  14.6988070  28.1906939  44.3305540  13.7721348  28.8581586
  60.4081297 141.3333459  97.8695675  59.7175837 141.3566918  97.2071239
  60.9089327 140.5434758  97.6657661  92.6184845   9.1051221  41.8468332
  92.9462814   8.3133841  42.2733641  93.2085705   9.2394745  41.1052275
  71.5656424 110.5790753 108.6596754  71.7971754 110.8244581 107.7639010
  70.6123734 110.6597490 108.6913159  22.4138355 102.9941101   7.8855008
  23.2116079 103.5092706   7.7655029  22.0888996 103.2531328   8.7477982
  87.5181198  23.1944466  24.8648548  87.1534824  23.6396313  25.6297612
  88.4646797  23.3085370  24.9499655  81.2907028 145.8343391   5.3757989
  80.8507729 145.1606257   5.8942646  80.6522274 146.0749028   4.7044489
  66.1212921 146.3396493  29.8117232  66.8004322 145.6900543  29.6299767
  66.2247086 146.9940031  29.1208124  50.3085709  27.0143366  11.0321987
  51.0876465  26.4790058  10.8815348  49.5752096  26.4203119  10.8723593
  41.7765188  20.5262065  38.4683490  42.1592999  19.9145210  39.0972805
  41.5225887  21.2838936  38.9952850  32.0493507   3.4968024  39.3500090
  31.7204022   3.9863977  40.1038790  31.7800403   2.5932440  39.5151925
   7.8364110 128.4901542  32.3100853   7.6728839 128.0774350  31.4620566
   7.5836360 127.8266854  32.9520726  77.1900606   3.0014861  13.5252190
  77.9831886   2.7101862  13.0754137  76.6574574   3.4006360  12.8372896
  82.5908279   3.6409146  29.6348953  83.4304619   3.1867269  29.5644617
  82.5442600   3.9176825  30.5500245  46.3883018   1.8949546  50.8528900
  45.5654001   1.9722879  51.3356733  46.8182802   2.7413344  50.9753323
  69.3997002 127.7705164  36.0313010  69.1032457 128.5543449  35.5687451
  68.5985565 127.3830564  36.3838291  43.4887266  23.4119916  28.8400269
  44.0969801  24.0698695  28.5031939  42.8188515  23.9181876  29.2996645
  25.8104086  28.1383467  49.3656349  26.0290670  27.3661041  49.8872280
  25.9663367  28.8769197  49.9542189  64.3767405  25.8805084  33.8058662
  64.3046427  26.0492921  32.8664279  64.5129490  24.9351954  33.8696146
  55.8312750 135.0240225  69.4462824  55.0348473 134.5101494  69.3125963
  56.5108728 134.3722005  69.6180582  35.9669781  12.7316034   7.3765635
  35.3969646  12.3618364   6.7023301  35.4823899  13.4854817   7.7128309
  69.4290018 126.1300821 108.6192764  69.6174002 126.5880496 107.8001278
  70.2281284 126.2270898 109.1371789  49.7307920 144.8596848  40.7679176
  49.1256952 144.2191290  41.1417913  50.3864384 144.3320649  40.3118753
  56.9465208 127.0196540   7.5122857  56.8733454 127.6618118   8.2183385
  57.4020243 127.4855323   6.8110698  43.8292837 117.7051301  26.3145900
  43.7138939 117.8766985  27.2491908  44.6402788 117.1993775  26.2622595
  85.2726936 145.0445876  45.8414555  85.6549168 145.1324026  46.7146254
  85.4230213 145.8945082  45.4276133  59.7104979 112.6058168  35.2073526
  60.2005625 112.5608916  34.3863487  59.8791838 111.7653627  35.6332779
  43.7384367 131.0578186  93.8837215  43.0462503 131.0352559  94.5444795
  44.4853258 130.6321246  94.3046352  40.2407169   3.9145482 103.6221167
  39.5943785   4.1932622 104.2708077  40.4289484   3.0035436 103.8476630
  97.3914051  31.6405320  34.0081573  96.8068504  31.5279937  34.7577286
  96.8041992  31.7822337  33.2656360  80.0482750  44.5964766  26.7133689
  79.9230194  43.9133215  27.3720360  80.5622101  44.1741896  26.0250473
  59.3914318  26.0781598   4.8162991  58.7134123  26.5180802   4.3034676
  60.1976490  26.2218809   4.3207324  68.8993025 142.3780794  20.5717754
  68.3867741 141.7295245  21.0543990  69.8100424 142.1295456  20.7299304
  51.0243988   1.5634966  32.5842023  50.4685831   2.3321947  32.4561334
  51.6284132   1.8182003  33.2817149  63.4041548 127.7058966  22.1437430
  63.1110764 128.5817904  22.3950362  62.6645947 127.1360964  22.3549509
  89.1304111 141.8005765   5.3137606  89.0955448 142.7238334   5.0635338
  89.5685387 141.7994563   6.1648029  66.0020542  18.5433125  11.0241294
  66.4849186  17.7709901  10.7298648  65.2948570  18.6409581  10.3864980
  89.2907143  32.4373031  24.5511794  89.3612385  33.1561518  23.9230776
  89.3786144  31.6457701  24.0201640  46.9048882  20.0849557  12.2630477
  46.0084486  20.3622293  12.4521196  46.8042803  19.2944622  11.7327356
  61.5313101 134.5251758   5.3351665  61.8698215 135.3230781   4.9289724
  60.5923462 134.5419247   5.1499712  63.7150192  29.0245318  97.6543184
  63.9906931  29.3239784  96.7879673  62.7896833  29.2636871  97.7071627
  71.2140179 127.7731497  12.7010024  70.8186722 128.6309428  12.5456786
  71.4900541 127.4761016  11.8339396  64.6533823 131.5201134  35.0201035
  65.3766012 131.8011458  34.4595623  63.9354038 132.1138115  34.8004150
  54.3699121  24.6691322  22.9477143  53.7082100  23.9982367  23.1158876
  53.8992691  25.4977155  23.0381417  73.4630251 136.8512292  17.7241611
  73.2326460 136.7965949  16.7967069  73.9209318 136.0305543  17.9059541
  59.9893618 132.7991683  65.5429602  59.8151875 132.7769894  66.4839172
  59.6653557 133.6540920  65.2594900  41.3307333  24.5632720  49.7962379
  40.8331394  24.8103738  49.0167665  42.0320940  25.2125788  49.8484659
  67.9923868  21.4233398  89.4576931  68.8605881  21.6215825  89.1067696
  67.6496649  20.7426238  88.8785553  25.1112628  37.8370738  10.9286237
  24.8141074  38.6836767  10.5951691  24.6819615  37.7508426  11.7797971
  50.3766775  37.1659684  36.8197107  50.4056978  36.2107491  36.7654276
  50.3579569  37.4572134  35.9080863  53.7358999 139.8208780  34.0419388
  53.4379435 139.0809495  33.5128260  54.4671202 140.1902808  33.5468769
  41.5766764  26.9467688  21.6532946  41.6112137  26.3765621  20.8852434
  42.4923706  27.0628524  21.9067883  59.5977116   4.1576010  21.0546017
  59.4901705   5.0798309  20.8218813  60.5426645   4.0096915  21.0169363
  39.1300225 145.5248853  25.5447888  39.8137450 146.1319904  25.8279467
  38.9402485 144.9986968  26.3215399  38.9048886  32.2651339  36.3346672
  39.6651006  31.6951728  36.2186670  38.1517029  31.6913652  36.1941981
  79.0965223  27.8380132  72.7380562  78.1636047  28.0160713  72.8571701
  79.2843676  28.1311178  71.8464088  66.0856628 142.2876901  28.9167261
  66.4663839 141.4248855  28.7528706  66.7084360 142.7167852  29.5034623
  61.6646194  11.2158954  25.0858045  61.2664557  10.3454423  25.0832963
  61.0525465  11.7578208  25.5837154  70.7343531 144.7636423  34.8624492
  71.5659618 144.6547192  35.3237486  70.3763247 145.5828837  35.2043414
  77.3152399   4.0189883  60.2306938  76.3784409   4.1518828  60.3755426
  77.5491571   3.3012772  60.8192587  74.8376179  35.1574850   0.3036388
  74.0134335  35.6338549   0.4037903  75.3035021  35.3093886   1.1258971
  88.8490677  36.4909816  34.6805954  89.0813923  36.2411523  35.5749345
  88.2007408  35.8404469  34.4109416  36.9596362 121.4634938  30.3858614
  37.3665595 122.2402258  30.7697010  37.5743055 120.7539363  30.5727935
  61.8672037 138.3663244  55.3067875  61.6561174 138.0951423  56.2001705
  61.5696335 137.6397283  54.7593021  59.7555399 137.1515770 109.4657154
  59.4107151 136.2756951 109.6393715  59.3104887 137.4298377 108.6652596
  52.9426050  10.3410101  98.6553880  53.6926365   9.8772353  99.0276762
  52.9643297  11.2034142  99.0701398   4.4142130   1.7397295  14.1551399
   4.0826347   0.8864649  14.4348323   4.8472804   1.5661599  13.3193421
 104.7109795 121.8015141  99.7410461 103.8632679 121.5619201 100.1154890
 104.5266151 121.9652743  98.8161560  53.4302902   7.0977521  82.3541077
  53.4916353   7.2518736  81.4113911  54.3394089   7.0235145  82.6443227
  79.6567965  34.0127516   8.8422674  79.8212767  33.1315088   8.5067242
  78.8059044  33.9489365   9.2760253  55.1973534 105.8309717  87.1332678
  54.5899010 105.2954406  87.6436051  55.7472992 105.1968403  86.6731962
  51.6527796   8.9781481   4.5244855  52.5131226   9.3799937   4.4038364
  51.7078590   8.1477267   4.0516236  62.0226622  44.1662121  97.8511652
  62.3209810  43.3219624  97.5128087  61.6456509  44.6092081  97.0910009
  72.6971960 136.1516256 109.8012658  71.8250799 135.7727594 109.6912145
  72.5429344 137.0944066 109.8612715  77.9594564 140.8617724  11.7495096
  77.4447632 140.6657703  10.9666264  77.5878620 141.6787995  12.0820987
  69.8142481   7.7050364  93.1289502  70.1250029   7.8304583  92.2323259
  68.9685392   7.2676730  93.0303582  51.0610580  20.5537152   3.4608707
  51.9081354  20.9977531   3.4998220  50.4748774  21.1107159   3.9730957
  60.8178854  36.7769885  85.0143346  59.8636580  36.7233109  84.9614152
  60.9860945  37.2603512  85.8232244  83.1110191   3.6958179  12.0857751
  83.6649799   4.1856053  11.4779401  82.3550320   3.4318998  11.5613055
  82.2722149 125.6304092  16.9553661  83.2045937 125.4757542  16.8038023
  81.8407154 124.8480911  16.6118228  42.2874784  12.4884927  11.1225784
  42.0740747  12.3416770  10.2010942  41.6726446  11.9333684  11.6022098
  42.4923611  32.9303432   1.5643187  42.2585344  33.8366294   1.3638106
  43.3981323  32.8452301   1.2667185  90.7868385 127.2581525   5.3011322
  91.0846329 126.6569037   5.9838104  91.4163494 127.1430237   4.5893079
  61.9521427  16.8113613  92.1768161  61.1647606  16.2670732  92.1735581
  61.9938707  17.1668923  93.0645593  49.9942398  30.7089353  26.4891005
  49.3214893  30.1679802  26.0755730  49.5048189  31.3227129  27.0368052
  74.8012352  11.6321957 105.0805690  75.5847406  11.8114531 104.5607432
  74.1005325  11.5427458 104.4346240  76.3356543  33.6742234 101.5054169
  76.5145779  34.3148422 100.8170679  77.1885872  33.2845759 101.6975489
  78.2589960  30.3315473  11.2932336  78.9497519  30.0181293  10.7094061
  77.6943970  30.8634353  10.7323790  74.0751505  28.2214117 101.8853238
  73.9492369  27.3858428 101.4356556  74.8392916  28.0798984 102.4441566
  68.2905674 136.3673730 102.1032461  68.9224529 136.3081522 101.3866934
  68.7580347 136.8326045 102.7969780  46.9759989   6.2443858  86.1720308
  46.1671543   6.7561734  86.1632665  47.6245737   6.8143785  85.7588848
  73.9040470  13.1184936 106.9262987  74.5860529  13.0675936 107.5960075
  74.2111301  12.5410688 106.2273621  92.5488949  21.4273262   7.6727158
  91.9928932  21.4713764   6.8947995  93.0392075  22.2493625   7.6635355
  52.9605770 139.5695085  15.7536221  53.3642864 138.9108832  15.1884103
  52.6781654 139.0809728  16.5268016  69.7954416 138.4410585  85.9141978
  69.3641329 137.5865723  85.9218010  70.1411533 138.5269571  85.0257524
  68.9209414 134.3705065  12.3035204  68.6713457 133.7977345  11.5783536
  68.7453413 133.8526387  13.0891466  80.6080818 138.7940509  97.3607536
  80.1167011 137.9737217  97.4036618  80.0337410 139.4391329  97.7733561
  87.5885773   3.1929299  29.1737461  87.8746891   2.7247632  28.3894062
  87.5862980   4.1145256  28.9151192  50.0526905 136.1511714  43.6054659
  49.6036577 135.5092437  44.1554976  50.9431219 135.8108897  43.5184479
  72.2709990  30.1149797  12.0399511  71.5349054  30.6830788  12.2672451
  73.0451441  30.6004357  12.3250222  47.3405886 144.1250933  17.5514948
  47.6251841 143.7735675  16.7078900  46.4669561 143.7564141  17.6821601
 108.4997940 144.3591554   1.5487833 107.7043629 144.7545105   1.1921027
 108.9659882 145.0874827   1.9591890  96.0879707 138.0122513  91.4050063
  96.0394001 137.2548545  90.8217212  96.9557381 137.9516811  91.8044468
  88.3442211 139.6119578  96.5351709  88.3601570 140.4191787  97.0493420
  89.2040825 139.5779640  96.1159989  45.7250834  18.4680438  56.6919136
  45.2355289  19.0943980  56.1587620  46.3625145  18.0864608  56.0883331
  42.9349756 143.7327672   1.8968497  42.9218340 144.6872012   1.8253320
  43.4836054 143.5574020   2.6613665 105.5721378  60.0648594  19.6042705
 106.1657810  59.5185900  19.0890980 105.3026390  59.5050049  20.3323960
  83.7346554  40.2776241 105.4870548  84.5171547  39.9451470 105.0472885
  83.5975361  39.6762681 106.2190392  73.7588978 136.2530369  12.6664519
  74.0042925 137.1312476  12.3753202  73.1805229 135.9252925  11.9777596
   1.7728299  26.6592145  96.9310971   1.2227176  27.4417782  96.9657489
   2.0520087  26.6029692  96.0172435  61.3820839 141.1099113   5.0087428
  62.0714903 140.7385237   5.5592126  60.6305361 141.2004579   5.5945867
 109.7107124  23.8357353   9.3055129 110.0308228  23.1313848   9.8691201
 108.7592697  23.8102198   9.4072390  50.2580070  35.9710097  40.3115749
  50.2871132  35.2234173  40.9086418  50.2422285  35.5795550  39.4382215
  82.8303528 144.3901593  93.9571961  83.5755062 144.7059850  94.4683047
  83.1093025 144.4806732  93.0460271  55.5438566 136.0074587  28.5377979
  56.2525988 136.4023657  29.0456986  55.1123095 136.7484606  28.1124568
  64.4720984   3.0243349  41.7975235  63.6178350   3.4553608  41.7714834
  64.9886894   3.5530227  42.4056816  56.7093849  46.9832897 109.4187503
  56.9843245  47.5224686 110.1603178  56.0808754  47.5288677 108.9459343
  42.5547218 138.6325169  27.3949862  42.9871273 137.9819704  27.9482031
  41.8677330 139.0007610  27.9505706  42.8285551 138.2719065  90.3513416
  43.0821371 137.6063711  90.9908637  41.9591093 138.5560996  90.6333610
  69.9519205  10.7236505  16.1053801  70.6865788  10.9097004  16.6900969
  69.2515373  11.3008177  16.4096344  68.2733059 132.4468643  14.1213739
  68.0715132 131.5442104  13.8749421  68.3190250 132.4296457  15.0773263
 111.0891438 137.8255952 106.2872230 111.3986683 138.5863406 105.7956039
 111.7344284 137.1429116 106.1034414  52.8579187   0.3611151  37.9876184
  53.2946777   0.8778486  38.6647177  53.1870222  -0.5285578  38.1157017
  72.8478765 107.7819318  92.3730346  73.7595606 107.5302787  92.5204667
  72.5079584 107.9735679  93.2470843  49.7212553  14.3197250   1.5877964
  49.3283844  13.6503804   2.1480283  49.0066862  14.6051121   1.0184345
  55.1511478  14.5293069  27.8904343  55.4335976  14.5346153  26.9758725
  55.9416294  14.3106902  28.3839726  68.6478376 143.2371081  16.6172028
  69.5634127 143.4626476  16.4526057  68.4616899 143.6063079  17.4804938
  77.8717995 140.3958286  26.3418484  78.2983160 139.7079594  26.8528819
  78.5588408 140.7242633  25.7618999  89.7471619 125.6803412  78.0300316
  88.8650608 125.5616803  77.6778253  89.9233437 126.6152746  77.9247268
  45.4101992  30.7184410 105.8164298  45.5302620  31.6649699 105.7396042
  44.8405457  30.4888964 105.0822430  84.1489124   9.6558928  19.0898621
  84.7225380  10.1869690  18.5374641  83.4063625  10.2279520  19.2837882
  61.9131899  28.6192679  36.6503048  61.7791843  28.1013846  37.4440765
  61.4433336  28.1387925  35.9686804  58.2523298 139.5468254  14.0561485
  58.6271000 139.0562219  13.3246529  57.4024153 139.8462433  13.7333059
  60.7752514 142.9903162  99.7817787  61.1379242 142.4881680 100.5115362
  60.5417395 142.3300169  99.1293141  40.0428963 121.8261118 105.1940020
  40.5183363 122.2621817 105.9011304  39.5540237 122.5285692 104.7652926
  48.8520479  31.5364456 102.1824911  49.7710752  31.6475201 102.4259850
  48.6086988  30.6856990 102.5475165  43.2938099  18.3619881   6.9214815
  42.8797579  19.1994190   7.1300530  42.8754854  18.0843616   6.1065227
  45.3336954  21.9475508  16.8280733  45.3295898  21.0533547  16.4865685
  44.4085741  22.1632099  16.9458449  85.6082058   1.0894528  31.8087602
  86.0548496   0.2549999  31.6658282  85.0643635   0.9406126  32.5822687
  85.0812531 116.4560027  86.4316710  85.2260971 117.1170039  85.7546695
  85.7816696 116.6060061  87.0666155  56.9549894   7.2628319  13.7392449
  56.8668509   8.1731802  14.0216088  57.8678274   7.0420152  13.9241648
  41.9886541 108.2536406  32.5733566  41.2430811 107.7497811  32.2470450
  41.6041470 109.0686960  32.8959513  69.4245291  27.0040131  90.7714924
  70.2942419  26.9598126  90.3741559  69.0716171  26.1195588  90.6744023
  41.5348291  11.2486243  25.2479339  42.3918772  11.6746855  25.2346182
  41.3392496  11.0751796  24.3271208  78.7882662   6.8244994   1.5544741
  78.6475658   7.7656293   1.6579595  79.5152473   6.7576581   0.9353903
  46.5939474  33.4829378 105.8650863  46.0355902  33.8377690 105.1733064
  46.4460659  34.0619326 106.6128349  61.7169619  51.9138193  89.8763033
  61.8299055  52.8253937  90.1455756  61.5234709  51.9628239  88.9401468
  30.7860827   5.7118803  29.9179578  30.7580781   6.3987738  29.2519045
  31.6338086   5.8285856  30.3468800  47.1426153 124.2195863 103.9358302
  46.5819645 124.4045229 104.6892866  47.0608568 123.2752509 103.8025006
  21.2479448 139.3137831  19.8545790  22.1789455 139.4349630  19.6680820
  20.8255100 140.0848264  19.4760656  54.7132349 137.5534917 102.8304400
  53.8353348 137.9244537 102.7415129  54.6186781 136.8709696 103.4948608
  44.4648743  35.7568479  29.3420434  44.8435116  36.2015963  30.1003766
  43.7712860  35.2079558  29.7079444  97.6267719   5.8327079  10.6504679
  98.1047535   6.6399777  10.4605234  98.3036995   5.2105778  10.9168363
  50.0225735   0.5570077 108.4931342  50.2372456   1.4200330 108.1391084
  49.4518328   0.1627565 107.8335469  58.4172630 123.1547303  92.4396535
  57.5500441 123.2192678  92.0396491  58.2727194 122.6602454  93.2463905
  93.0122757  16.0846996  99.7207423  92.9927158  15.6244767  98.8816687
  92.2049427  15.8168423 100.1597103  57.7311754  21.5890670   1.9652714
  58.5734558  21.1683869   2.1379551  57.4996424  21.3072014   1.0802981
  54.4487810  18.1897056 102.8322657  53.6342764  18.6870730 102.9060044
  54.2218113  17.4382758 102.2844788  61.7433262  35.4226923  28.4897709
  62.6595879  35.6994843  28.4806919  61.2469101  36.2342024  28.3836865
  61.3378620  21.6152883  33.0840826  60.8442831  20.8016896  32.9807830
  60.6675816  22.2957540  33.1467128  90.3348160 117.8745646   3.7325564
  89.4897652 118.3220358   3.6891082  90.7074356 118.1473179   4.5710021
  94.7435760 138.9897401 107.0146390  95.1823330 139.1345633 107.8529402
  94.0161991 138.4035004 107.2231378  57.1341467  26.2016034  56.9277906
  57.6906443  25.4845643  57.2317648  56.3788652  25.7671642  56.5315056
  38.7959313   5.0542444 105.5525851  39.1711497   4.3622956 106.0972401
  39.0514016   5.8672279 105.9885024  43.9653063 145.4829680  27.7795124
  44.0604734 145.4907235  28.7319374  44.8277712 145.7363073  27.4505615
  24.9821568  17.9561126  93.6917063  25.4963446  17.9377127  94.4988629
  24.4925261  18.7772834  93.7383040  40.1532316  17.5283360  40.4221201
  40.7180500  16.7676091  40.5581570  40.7270098  18.2811689  40.5644417
  71.2988949  27.0658565  40.9624052  70.4454947  26.8341708  40.5959845
  71.9059229  26.4372492  40.5717611  57.4737883  21.3785720  22.5456476
  57.1271849  22.2242022  22.8302574  57.1951342  21.3003230  21.6332555
  99.6840858  16.2504208  88.8729199  98.8808537  16.2596130  89.3934616
 100.2703667  15.6611598  89.3475636  54.8621035  15.1721847  22.9390788
  54.4836998  14.3308997  23.1945825  55.1666117  15.5572915  23.7607837
  71.0171652   3.2665423 109.1461478  71.5567684   3.5960910 109.8647960
  70.4207945   3.9875361 108.9442972 104.4804573   6.8979347  13.2509303
 104.9724483   7.1477443  12.4687684 104.8005676   7.4875063  13.9336932
  74.7968340 114.5737261  28.4468031  75.0966549 114.1962547  27.6198483
  74.3004847 113.8702840  28.8651752  83.7346268  33.9376330  91.9934269
  83.1332874  33.9115405  91.2491544  84.0637779  33.0418134  92.0669290
  51.5969896   3.6481783   1.6764486  52.2351265   2.9492724   1.5331186
  50.8530092   3.2117891   2.0915210  55.7416773   6.0590726  11.6012609
  56.4428949   5.9979326  10.9525812  56.1271954   6.5530318  12.3248720
  92.8157139 129.5849104  37.9621625  93.1040573 129.3882746  37.0708561
  92.3379040 128.8024993  38.2374215  85.7468414   8.5133785  91.3245388
  85.7787800   8.4116280  90.3732988  84.9658775   9.0438068  91.4825889
  92.3995590  50.5462313  24.5305681  92.0072460  49.6953869  24.3346262
  92.0531273  51.1306906  23.8563132  64.5688105  39.3022394 100.1883163
  65.3788328  38.7971091 100.1180705  64.7759771  40.0022125 100.8074691
  38.7009788  12.7321911  44.4199038  37.7813148  12.9945076  44.3794012
  39.1025162  13.1481874  43.6570501  73.6498690  21.9144034  52.8447056
  73.2242727  21.8864012  51.9877815  73.1922102  22.6100278  53.3168125
  39.3850327   6.7388034  23.9111400  39.8060179   6.2054837  23.2369184
  39.6607327   6.3418156  24.7373486  77.0415401 141.8710388  16.7594492
  77.9253054 141.6102282  16.5002787  77.1757746 142.5037331  17.4650776
  58.4434700 142.7295802  13.4074223  58.1125450 142.9756392  12.5436091
  58.6454582 141.7971558  13.3298445  34.8805857   9.4526488  85.4887541
  34.2946601   9.1465193  86.1810025  35.3603411   8.6700177  85.2175411
  81.0952854 138.5872281 108.0684515  81.5814209 139.4005353 107.9326884
  81.4623833 138.2201541 108.8726435  46.6733503 141.5952469  92.0221432
  46.8763304 141.5643845  91.0872217  46.0534286 140.8783848  92.1564361
  78.1493235  12.8751993  90.4047867  78.9434004  13.3644140  90.1895209
  77.8802633  12.4786854  89.5761641  83.8735771 123.5189647  21.3270903
  83.3664608 124.2540116  21.6717124  83.8473606 123.6343164  20.3772283
  41.4100599  17.8992951  24.2446947  41.2654638  18.8402414  24.3444133
  40.9879827  17.6787794  23.4143615  83.1799316  23.0421472  12.5591397
  83.4568501  22.8085518  13.4451330  82.4407291  23.6364341  12.6880980
  45.1333857  42.2417307   8.7583917  44.6247911  41.4308834   8.7487417
  45.1572418  42.4985361   9.6801901  26.0469079 111.3337106   5.1036954
  26.7886591 111.6007180   4.5607898  26.4313626 110.7671494   5.7726014
  66.6935015 136.7017735  75.4648288  67.4595118 137.2701741  75.3849777
  66.6659546 136.4658196  76.3920816  45.0446320   9.8323780  81.1984166
  45.1112890  10.7853198  81.1376651  45.5462170   9.6066535  81.9818028
  65.1882172 138.8107807  33.7685084  64.5436811 139.5183856  33.7787223
  65.8260679 139.0581197  34.4379878  71.2161112  67.4117088  30.7712173
  70.6530714  67.4057388  31.5452862  70.7272387  67.9191732  30.1233602
  73.8845539  17.6552618  96.7344626  73.4271765  16.9180810  97.1389421
  73.8589907  18.3456421  97.3969980  58.2663488   2.3223086  96.7647716
  58.5897446   2.5783420  95.9010025  58.3555555   1.3694146  96.7811354
  45.3126001  32.7259040  29.2700338  44.9651623  33.5855699  29.0323591
  45.9586477  32.9089236  29.9522042  38.8270617   0.2280658  98.0834266
  38.4388804   1.1004037  98.1510445  38.1664681  -0.3574032  98.4536608
  69.4095373 120.2249665  79.2707523  68.5548162 120.6534428  79.3164452
  69.2062235 119.2941780  79.1784223  82.7491856  20.6698704   9.9247700
  82.5570488  19.8056328  10.2886474  81.9996834  20.8649302   9.3622446
  54.6558905  41.6196680  18.2057190  55.3103161  42.1739197  17.7805483
  54.6773863  40.8007908  17.7105343  84.8580265 128.3354313  87.9014143
  84.7033501 128.1819756  88.8334855  83.9843178 128.3353347  87.5104364
  60.1808357  38.4770727  96.9978555  60.3296280  39.3844295  96.7317804
  60.9302855  38.2646227  97.5541135  34.8753238  35.8386731  21.2852907
  34.8673081  35.0313473  20.7710981  35.6255865  36.3291144  20.9494257
  73.7735701 132.9380531   8.0920368  73.7626028 133.8926620   8.0225050
  74.3026829 132.6497979   7.3482764  25.6868863   3.6183658  84.6087345
  25.2315664   4.4258976  84.3703898  26.5554452   3.7084740  84.2166694
  54.6804523  20.6747818   2.5450492  55.4247618  21.2641096   2.4228592
  53.9401674  21.2565136   2.7176687  61.3378716  36.2438631  44.9450493
  60.6023741  36.1723566  45.5534601  60.9362459  36.1983633  44.0773726
  59.8660803 143.8612542 108.6899377  59.5961142 144.3667738 107.9232573
  60.7969856 144.0594233 108.7918383  76.2294149 146.3892754  96.9091901
  75.4636669 145.9321091  97.2568425  76.9633484 145.8041812  97.0969101
  45.9286785  11.5640509  59.9503469  46.6213655  12.1800137  60.1891088
  46.3487768  10.9547186  59.3433332  89.2137146   0.8966798   0.4858101
  88.9019489   0.0277837   0.7388952  88.4155178   1.4034607   0.3365533
  39.9747801   1.1340787  93.9089211  39.3162012   0.5852655  93.4831163
  40.3562021   1.6469438  93.1963798  96.4897346  16.6178477  81.8582066
  96.1914635  17.5169051  81.9958981  95.7163143  16.1557662  81.5348920
  54.9192858   8.9141995 109.0236525  55.4068947   9.7363162 108.9727317
  54.7298431   8.8054180 109.9555911  81.1968899  31.1043620   8.3808476
  80.8312988  30.3167939   8.7837255  80.6438160  31.2606311   7.6153910
  49.0379667  21.8167520  79.8388275  49.0222931  22.7593899  80.0044092
  48.9778709  21.7398047  78.8866194  49.8197556   3.2317165 107.0203387
  50.1291323   3.6286744 107.8345522  48.8712120   3.3590585 107.0370980
  60.7475138   4.9573138 102.8277912  60.4958820   4.1272527 103.2326516
  61.4453125   4.7234449 102.2157314  69.8324108   0.7738057   6.8774480
  69.4049692   0.5525182   7.7048278  70.0529432   1.7013755   6.9623697
  81.3207054  28.3706689   5.7787549  82.1847343  28.3274937   6.1884177
  81.3076496  27.6329994   5.1689142  56.2032843   7.5924093  97.3249742
  55.9915113   6.8936187  97.9439052  56.9865942   8.0052090  97.6886376
  59.6413517 143.8543923  32.9853773  59.6129417 144.2598762  32.1187711
  58.7225676 143.7672974  33.2392979 109.8218822 145.6247001  85.8047041
 108.8947392 145.7328715  86.0166916 109.8255444 145.0824318  85.0159296
  65.9143639 115.0039930  12.9078794  65.1022863 115.4983396  13.0191767
  66.1091948 114.6636910  13.7810731  53.5396671   5.5057991   7.1529186
  52.9710674   5.9890634   7.7524000  52.9730940   4.8328713   6.7755681
  20.1425266  29.5511246  10.3601384  19.8813891  30.3830767   9.9653029
  20.5464935  29.0621281   9.6432525  61.9963264 139.1342182  83.9441642
  62.9410076 139.0297253  84.0577015  61.6790342 138.2516719  83.7526711
  41.2041664 142.5038431  43.3748722  41.2954283 142.8931487  42.5051928
  40.3079176 142.7129293  43.6380339  64.5432329  41.9208384 101.2734314
  63.7084246  42.2532558 101.6033157  64.8227072  42.5718069 100.6297209
  67.9860973  18.8659751  57.0907688  68.2558012  17.9514265  57.1749926
  67.9096174  19.1771674  57.9927349  72.9999542   2.5220463  12.2114527
  72.6835108   1.7195988  11.7965162  72.2048903   2.9820317  12.4807465
  45.7081175  45.3381777 100.1863202  45.1039457  45.9589767 100.5935278
  46.5682173  45.7492733 100.2727189  45.8244324  27.5585175  24.7684431
  44.9854279  27.8231478  25.1456380  45.6193066  26.7801619  24.2504501
  44.0047789 131.6493113  33.8951683  43.2716703 132.2564084  33.7940645
  44.7817373 132.2083051  33.8855839  59.7283077   4.8248383  71.5781268
  58.9511347   4.9686274  72.1180900  60.1495790   5.6830770  71.5313348
  88.7887096 122.2506637  93.1653854  89.7315025 122.3785562  93.0604871
  88.4109306 123.1165523  93.0112621  77.1942806  26.2667203  12.3663116
  76.8674088  25.9493661  11.5244842  77.3527288  27.2001171  12.2252488
  48.5416460 139.0800054  93.4793957  48.3571339 140.0026233  93.6553653
  47.7022696 138.7177510  93.1957599  75.9401274 144.0967489  89.9253794
  75.0548983 144.0618789  90.2878448  76.5141773 144.0302240  90.6884488
  54.8493195  29.6587539  18.0616140  55.5008554  29.3967366  18.7120593
  54.0190411  29.6514440  18.5378706  57.5534153   4.6299797  76.0072526
  56.6859770   4.7077113  76.4044150  57.5450850   5.2617091  75.2881678
  77.4568081  33.7676167  31.1058497  77.0764732  33.1065702  31.6842890
  78.1297684  34.1925597  31.6376185  54.6552467 135.7123334  19.3288600
  55.4683590 135.2072806  19.3284798  54.7898293 136.3824351  19.9989963
  38.9690995  12.6175320  91.7133447  38.5162926  12.9865623  90.9550461
  38.2719684  12.2333765  92.2450086  66.6441536 143.8946364  40.0122070
  66.2416792 143.0343480  39.8932528  67.1126604 143.8269092  40.8441639
  13.5275793 113.8233013   6.2781590  12.6737046 114.1610427   6.5484583
  14.1531312 114.4784732   6.5874588  38.0388403 130.2898378 100.8106264
  37.8562379 130.8696015 100.0711926  37.4390554 130.5812962 101.4973154
  51.9076872  34.1658735  81.8479904  51.4196825  33.7938571  81.1133560
  52.2023153  35.0199676  81.5318402  28.6083746  16.3702261  40.4384995
  27.8743744  16.2042964  41.0300589  28.1971979  16.5993977  39.6050453
  67.3202896  -0.0633024  26.6587138  67.7947760   0.7264853  26.9181967
  66.7462635   0.2244968  25.9488559  41.7756844 134.6935940  81.8395519
  40.9211493 134.2740822  81.9396305  42.2642708 134.1070747  81.2620544
  70.0490141 114.3643570  81.6867352  70.8185530 114.2391586  82.2420406
  70.0380325 115.3032589  81.5007877  36.0714054 137.5780678  93.6681843
  35.4950213 137.8455925  94.3840313  35.5073142 137.0731831  93.0824184
  32.7753830 143.6247444 106.9688797  32.9733491 144.5527172 106.8427467
  33.6031842 143.2402897 107.2572708  25.2452731 140.3365993   8.0419580
  24.7991252 140.3344345   7.1950952  25.4636168 141.2558556   8.1952993
  20.6635404 109.8274612   0.2545492  19.7177494 109.6825790   0.2813760
  21.0076737 109.2963505   0.9726945  26.3372660  24.0549260  73.3144808
  27.1226525  24.3826275  72.8762913  26.3159180  23.1219273  73.1016684
  45.1601648 131.2131023   4.2357770  45.5052900 131.7017269   4.9830095
  45.2451944 131.8148232   3.4962217  58.1550121 144.5637131 104.2954445
  58.8936901 144.9170113 103.7996960  57.4632597 144.4472504 103.6441708
  28.4261203 119.1612148   5.5932847  28.2374287 118.5213947   4.9068109
  28.6978221 118.6336040   6.3443128  47.4320269 124.7916126   4.2273752
  47.2827339 125.7304001   4.3397466  47.1743679 124.6147251   3.3226339
  34.9905086 134.3299675  10.9765664  35.7083726 134.9368191  11.1572210
  35.0837255 134.1184235  10.0476972  52.5808716 108.6803913  81.7103481
  51.6753054 108.8969135  81.9323921  52.7660656 109.1989899  80.9274101
  17.0359528 141.7617893   5.9435026  17.4211681 142.0077038   5.1024572
  17.3709035 142.4130058   6.5599099  21.8916535  18.6182003 107.7170563
  22.2124767  18.4962635 106.8235016  21.6096663  19.5324116 107.7476311
  48.1113958 111.1762428  97.9535580  48.7367535 110.4623604  97.8288937
  48.3423948 111.5513515  98.8033581  47.6664972 115.4936314  94.6193027
  47.7289391 114.8718929  93.8941956  48.1196737 116.2755871  94.3040180
 124.4713020 137.3331070  95.9329510 125.0128429 136.6150093  95.6053829
 123.6023427 136.9469833  96.0427284  24.7642899  21.4231472  81.0266209
  24.8926520  21.9133168  80.2145290  25.4771733  21.7123585  81.5961742
  41.3210869  99.7114944  10.9070150  41.1222315  99.0940380  10.2031461
  40.9594250  99.3028164  11.6934148  34.5638847 123.3057213 107.7695370
  34.9236226 122.8919220 108.5541344  35.3322482 123.5977554 107.2790623
  11.1612439   3.6463433  18.0711500  11.9279981   3.3349877  18.5521642
  10.4649842   3.6813717  18.7270681  82.0210743 118.4019375 109.4893265
  81.1168861 118.4071732 109.1752434  82.0829201 119.1723156 110.0540638
  44.8540068  16.1191922  80.8512020  44.8564434  16.9580250  80.3901577
  44.3807697  16.2943058  81.6646004  38.8375783 139.2446709 104.5722961
  38.5480118 140.1334953 104.7781277  39.7921824 139.3058205 104.5373440
  86.6360760 107.4290562   1.5279523  86.9123840 108.0552101   2.1971456
  85.7009792 107.3032284   1.6891996  52.3331928  14.2558270  18.0409280
  51.5489197  14.5805722  17.5985662  52.0010614  13.8061886  18.8179437
  62.5856256 142.4783134  96.7500305  61.7430067 142.2370434  97.1347618
  62.9009056 143.1983852  97.2962189  71.4266729 116.4802742  93.1930447
  71.8756437 116.6059017  92.3570538  71.4017582 115.5307293  93.3112049
  55.5674314 128.4832954  18.4951536  55.6348944 128.2978916  19.4317952
  54.6348143 128.6416245  18.3488981  37.4994898 142.1169853   5.7600251
  37.5544667 141.3177109   5.2362100  36.5675163 142.3351765   5.7669393
 110.1926136 130.1224136  95.5620766 110.1091385 130.4152584  96.4695454
 109.3065453 130.1895809  95.2062511  44.8582554  17.6319867 103.0767918
  44.7879601  16.7429905 102.7289677  43.9624786  17.9687291 103.0562782
  15.7429802  21.2380963  49.8566190  15.4933631  20.3171902  49.7800294
  15.6999636  21.5731984  48.9610235  56.1389065   1.9645672 104.5441914
  55.6826115   2.7756672 104.7680950  55.9420872   1.8269711 103.6176014
  83.3891392 130.7173824   6.1229554  84.1290474 131.2299824   6.4485494
  83.6787796 129.8077297   6.1927453  70.4096746 137.8868771  95.3145885
  70.6143522 136.9659996  95.4768181  71.1501884 138.3659554  95.6865597
  44.5541286 144.2063141  15.0209085  44.1231489 144.8903084  15.5334035
  44.4039726 143.4030533  15.5193559  51.1426783 111.0288429 104.4451523
  51.6930532 110.4260826 104.9451447  50.4874516 111.3321781 105.0735569
  44.8823023 139.0811062  97.3801422  44.2643070 138.8537979  98.0748749
  45.1136351 138.2422066  96.9814491  76.8546915  27.8360157  15.8962575
  76.7538738  28.3747273  15.1114980  77.7106142  28.0818730  16.2472192
  36.7780447   0.6906300  74.0482903  36.5467429   1.5521698  73.7011909
  37.7341485   0.6993275  74.0932465  60.6735945 130.8886242  90.8069324
  60.4839182 131.1330509  89.9011040  61.0937023 130.0310993  90.7406616
  62.3425245 128.8250065 108.9953136  62.9865789 128.6437893 109.6798420
  61.4986563 128.7933826 109.4460011  43.9819288 138.6676025  80.9119987
  43.4523201 139.3778038  80.5495644  44.0391779 138.0261040  80.2038765
  60.7164764   9.3977433  93.7988567  60.5595827  10.3221493  93.9914608
  61.6497469   9.3513947  93.5912704  10.4649401 102.6606369  93.2911110
   9.8835111 101.9932461  92.9267311  10.3870034 103.4007359  92.6891041
  52.7454329 134.1692162  11.7888967  52.8885651 134.9187756  12.3667470
  52.4257183 134.5536518  10.9726754  37.0033336 123.0434227  38.8170949
  36.7692828 122.8814888  37.9031793  37.8861046 123.4112835  38.7766877
  74.7361612  15.6581860  74.9969482  75.1507378  14.9957066  74.4442415
  74.8471737  15.3294354  75.8890486  14.9877429 141.4296436 102.7430439
  15.1888859 142.3567104 102.8707790  14.9553192 141.3203335 101.7926502
  28.4541750 122.2727108 105.1266003  29.1714263 122.0638275 105.7250595
  28.5371351 123.2137871 104.9725628  62.3354721  28.2011586  94.3233967
  62.4099636  27.8574543  93.4331417  62.7324438  27.5267010  94.8745346
  79.7511101 121.6180801   2.5610582  80.0002098 122.0620537   1.7504541
  80.2401257 120.7954121   2.5435869  28.4733462   5.4555970 102.2427750
  28.8174176   4.6920948 102.7063656  29.1636491   5.6904106 101.6226292
  38.2979965 128.9753246  91.2697029  38.7370849 128.7353611  90.4537010
  37.5973368 128.3299351  91.3634205  64.6584129 113.7261200   5.5669442
  64.8606157 112.8025818   5.4172269  64.9791384 113.9011574   6.4516584
  65.0905609 107.9425430  96.6207790  65.6985426 107.5751400  97.2623444
  65.6307411 108.1130981  95.8491993  55.2405977 141.8086433  89.6085644
  55.4326010 142.1174240  90.4940128  54.7907877 142.5431919  89.1910267
  39.0991473 121.3282967 101.8778229  38.7729311 122.1555996 102.2319412
  39.4617796 120.8697510 102.6357555  37.3001885 133.6789131  16.3138906
  38.1041002 133.9155769  15.8513490  37.3415756 134.1715431  17.1335450
  49.8270178  15.6735020  91.7370987  49.3472433  15.7417279  90.9116268
  49.4885349  16.3922673  92.2709656  84.4070244 124.1769600  82.6564598
  85.0688648 124.7523403  83.0400372  83.6612225 124.2384815  83.2533169
  41.8963528 112.6125622  24.1780416  41.1044264 112.1212769  24.3965093
  42.1358538 113.0552101  24.9922506  78.7360287  99.6311092   9.5591966
  79.1688681  99.6791840   8.7068025  77.8628302  99.2901611   9.3655149
  42.5580263 120.2170658 105.0036621  42.1283770 121.0718727 105.0341702
  42.5700331 119.9223995 105.9142971  92.7300358  97.2767353  26.9657842
  92.1909714  96.7818260  27.5828115  93.5644722  96.8081188  26.9473687
  53.2004547 127.9982376   0.8104459  52.9474735 127.0785522   0.7303373
  52.9922581 128.3791065  -0.0426825  42.3084831 118.6372852  28.7006608
  43.0767727 119.1363049  28.9780275  41.5829277 119.2580986  28.7669030
  44.3566036 142.4515247  17.6730958  44.8447180 141.8777370  17.0825521
  44.8783731 142.4692249  18.4753839  78.1964684 141.2306118  76.6367722
  78.6476803 141.7686844  75.9862947  78.8673306 141.0314846  77.2898579
  32.6210904   2.7503281   3.7303964  33.0333924   2.0318299   3.2508127
  32.6252770   2.4624710   4.6432821  67.0545483 110.7886982  73.8195896
  67.9694605 111.0641003  73.7619400  66.5548849 111.5603352  73.5528564
  76.0265684   0.2965432  94.0013123  75.2476597  -0.2426929  93.8643360
  76.2680626   0.1409130  94.9143791  40.7408953 117.0707512  96.2656593
  40.0732660 116.7866039  95.6413555  41.0748148 116.2581444  96.6456509
  40.7098579 117.4062824  10.0488321  41.4544773 117.7419949   9.5497552
  40.7669163 116.4555264   9.9537984  33.3361983 132.3756599  40.0484697
  33.6771584 133.1180668  39.5496503  33.7643242 131.6112328  39.6629945
  74.1829967 122.9831696 100.1166153  73.8303089 123.6292553  99.5047283
  74.5724678 122.3111439  99.5572186  21.6186523 108.2584667  13.2107393
  22.4224377 108.7764740  13.2535878  20.9676027 108.7880325  13.6710969
  33.6782146   0.4313259   2.5445310  33.3608317  -0.0595302   1.7865316
  33.6570978  -0.1993675   3.2642595  61.2020397  22.0043354  78.6554909
  62.0680094  21.9766407  79.0623903  60.6015921  21.7382222  79.3518257
  40.8999205  29.5226078  74.6338987  40.4147673  29.3030720  73.8385010
  40.7060862  28.8059788  75.2381516  52.7979851 143.7550735  29.6823446
  53.4005165 144.4987202  29.6956006  52.4768829 143.6909103  30.5817930
  44.0467882 124.2802334   0.7775728  43.1876516 124.6402645   0.9977952
  43.8853073 123.7244511   0.0151674  40.8861971 124.4815254 101.7820740
  40.7390308 125.4252243 101.7188168  40.6404638 124.1425610 100.9212971
  22.5444722 140.1651573  29.0334836  23.1681895 140.2492332  29.7546903
  21.7587996 140.6162262  29.3424836  25.4559517 128.4013367  86.6342258
  25.7931566 128.3597183  85.7393551  25.1278996 129.2959595  86.7252064
   8.7591487  82.8338146  95.9825516   8.4472930  83.1691551  95.1420021
   7.9819185  82.8276730  96.5412140  34.6990037  24.0251141   1.0378305
  35.5076814  23.5976010   0.7558671  34.0318012  23.3417874   0.9734289
  53.4257078 106.9690418  58.8997316  54.1572666 107.5649357  59.0608788
  52.7299690 107.5307941  58.5582447  50.5632019 115.7706642  69.0160131
  49.7348595 115.5156231  68.6097717  50.4464436 115.5697346  69.9445724
  19.0449703   5.1320248 101.5447903  18.2789934   5.6350689 101.8212986
  19.6035862   5.7705193 101.1015129  41.3386726 143.9526749  10.7536832
  41.0316849 143.0514336  10.8524553  40.5591536 144.4442272  10.4949323
  50.9562731  21.1970501  20.2168790  50.8830595  22.1154003  20.4767171
  51.4663744  21.2171727  19.4071714  50.7349396 136.6516399 107.5661373
  50.6667233 137.1997643 108.3478928  51.0843182 137.2362041 106.8934917
  64.3070269 139.3018818  69.7677279  64.4670057 138.3597469  69.8226595
  63.3700514 139.3755436  69.5863867  30.3496671  19.5041638   3.7862150
  30.4420805  19.3366986   4.7241060  29.8656869  18.7479000   3.4544317
  85.2674198  18.7339192   2.7409498  85.9699440  18.9768391   2.1378843
  85.6431675  18.8648014   3.6115304  59.7067499 138.7781525 106.8804932
  60.5099201 138.2749176 106.7466831  59.9963140 139.6902657 106.9015884
  57.8104925 128.0450726  74.6417093  57.5162745 128.7620544  75.2034998
  58.7655687 128.0719376  74.6995211  67.4642038 138.4553719 104.1261768
  67.1888304 137.9879856 104.9148178  68.4170580 138.3649635 104.1146088
  47.2373390 114.4134903  33.3202020  46.5128422 114.5621300  32.7125493
  48.0235815 114.4991875  32.7810232  63.6971807  13.1207352  61.5411663
  63.3343554  12.2350293  61.5300369  64.5751619  13.0245476  61.1722136
  19.1824222 133.2910442  36.7410985  18.6924744 132.4743366  36.6453496
  19.4263566 133.5302544  35.8469526  28.6036205 137.0880413 110.1051235
  28.2513332 136.4045715 109.5350266  29.4119000 137.3661709 109.6743584
  24.1035199 145.0941849  95.6602955  23.6869383 144.3165684  95.2887917
  24.9593306 144.7874355  95.9598351  48.7966967 118.5294342  90.0660324
  49.5428991 118.1849003  89.5754147  48.6895466 119.4238281  89.7422695
  66.6028023  87.8546810  57.2865152  66.6508579  86.9006062  57.3470306
  67.0061111  88.0618191  56.4435053  59.2129993 142.4477673   1.2446348
  59.3314457 142.8850079   0.4014150  60.0886679 142.1417713   1.4808503
  49.6866512 133.9367962  96.1995411  49.7851372 133.9958572  95.2492523
  49.1445017 134.6907997  96.4314651  21.8809938  12.3062687  27.7780572
  21.4291763  12.9604035  27.2449628  22.6278424  12.7750950  28.1504194
  67.1766949 104.2320061 105.6955624  66.6624165 103.4727383 105.9698868
  68.0646896 104.0417957 105.9980774  33.6215138  10.6880265  24.4062082
  33.5086298  11.6363602  24.4707242  32.7849150  10.3267651  24.6991674
  51.7213678  12.3557644   3.6966554  52.5076103  12.1071797   3.2105962
  51.7587280  13.3112507   3.7400857  73.4309435 144.2643261  67.9055691
  73.9321756 143.5025597  68.1966162  74.0535927 144.9902344  67.9455042
  52.5982904 132.0390415  32.6406709  52.8033876 131.1122036  32.7637140
  52.9819393 132.2585869  31.7916337  49.6812105   9.0454464  92.8891468
  50.1008892   8.5351925  93.5817814  50.3516674   9.6698265  92.6118755
  28.0681443   2.7252655  71.8932152  28.4522390   1.8799000  71.6607332
  27.1515751   2.5271969  72.0853043  96.1384010 128.5736084  79.5940971
  97.0357323 128.9008045  79.5311689  95.8935642 128.7201214  80.5077839
  50.6469154   2.1302777  91.0175800  49.9897003   1.5359001  90.6556320
  50.7079697   2.8387051  90.3767776  16.2641490   1.4217358  43.5805845
  15.3934324   1.1741619  43.8917017  16.3252139   1.0352211  42.7070236
  59.2258739  11.1756592  18.5977022  59.7309732  11.2196522  17.7858106
  59.6304417  11.8300228  19.1672269  62.8293371 122.5637245  73.5103703
  62.6089668 122.5556946  72.5789165  63.0024624 121.6467476  73.7234497
  24.7667623   7.6084023   8.4673921  24.7112942   6.9274597   7.7969590
  23.9111209   7.5926094   8.8961831  70.5304861   7.7170639  99.4514084
  71.2524033   8.2791500  99.1701031  70.5555534   6.9747906  98.8475513
  42.6411057 115.3222656  17.4903337  41.8736267 114.8015499  17.7271024
  43.3280039 115.0203896  18.0846921  49.0813828  26.1107617   3.9293805
  48.8385248  26.5307026   3.1042138  48.3258343  25.5672627   4.1529981
  90.2163315 118.6411572 109.6500206  89.9042034 118.2431316 108.8373756
  90.0812817 119.5803642 109.5239925  38.9816737  19.4711476 108.4316730
  39.0337467  20.0870114 107.7007580  39.3483448  18.6574154 108.0858231
  38.9726424  23.6472302  11.7679635  38.0579519  23.7474041  11.5042535
  39.2122555  24.5002156  12.1302072  52.7851820 119.8582268 109.8501587
  52.4478769 119.7320271 108.9632988  53.7271881 119.7074795 109.7718430
  55.7329130 100.9231853  12.4675218  55.5140591 101.2488747  13.3405916
  55.1224089 100.2005577  12.3214570  61.1739349   5.6047135   6.2482873
  61.5021324   5.4887944   7.1399633  60.3780603   6.1263256   6.3519231
 105.4379368  18.9380436  51.0451642 106.0530949  18.7758618  50.3299466
 105.9730816  18.8884526  51.8372480  19.4551790 119.4499016  93.8411236
  20.3106570 119.8575592  93.9760399  19.2043626 119.7074509  92.9539967
  16.9831467 110.5819130  81.0382843  16.7776704 110.6141853  81.9726086
  17.0821440 109.6492767  80.8468914  78.5236311   0.1075344  99.7852707
  78.0108404  -0.3150768 100.4742336  77.8754187   0.5687123  99.2529392
  61.1656761  29.7127705 105.9633064  61.1010885  29.8636799 105.0202847
  60.5030584  30.2891331 106.3440418  34.2405200 103.9114761 109.1627026
  33.3807731 103.9354610 109.5828152  34.0845871 104.2442989 108.2788754
  74.2100286   4.9211102  42.1031228  73.8866520   5.2507477  42.9415742
  75.1443958   5.1288586  42.1083871  74.2803764  83.8522339 100.5024433
  73.7394476  83.9840031  99.7238064  73.6557531  83.6322975 101.1935997
  53.8273525 101.7997456  91.4080620  54.0647411 101.3974285  90.5725861
  54.6657419 101.9966316  91.8258858  88.1674480 134.3066502  16.6488687
  88.8159084 134.9418449  16.9526330  88.3565426 134.1984081  15.7167951
  35.5852437  27.1165638   6.0047094  35.2998829  26.9585018   6.9046060
  34.8498821  26.8252926   5.4655973  53.4684992  -0.1469726  71.1513853
  52.9890442  -0.0605602  70.3274393  54.3144608   0.2671318  70.9807920
  60.3934860  12.0883828  83.3302879  59.4988918  12.4266510  83.2914639
  60.3471136  11.3589554  83.9483643  41.2508535  22.5804310  81.1793804
  41.7432261  22.6818257  80.3648090  41.8578529  22.8639965  81.8630314
  12.4216092   5.1607304  73.6286831  11.8743539   4.3757992  73.6537933
  13.3183098   4.8268109  73.6031008  73.2951593   2.6312046  86.3193035
  72.5098610   2.2249108  86.6860008  73.5329819   2.0698147  85.5813885
  21.5801334   4.4839268  24.0225831  21.5851355   4.9123268  23.1666128
  20.9406829   3.7773114  23.9330331  25.5720234   2.1713906 101.6050243
  25.6139541   1.3416081 102.0803547  24.8203421   2.0747643 101.0203266
  25.7712746 131.7817879 105.4414749  26.3620424 132.2546387 104.8552704
  26.0571957 132.0296955 106.3206863  67.2222042 117.5921345  83.4027576
  66.3663864 117.9845142  83.2300186  67.1991158 116.7541122  82.9407883
  22.5536799  88.4890747  15.5210916  22.5243068  88.0738926  16.3830510
  22.7608728  89.4055843  15.7036344  45.6062937   5.0570565   0.8812372
  46.2977123   5.1110440   1.5409795  44.8683262   5.5277710   1.2686197
  65.7000875 123.0094910  87.2237682  66.4743042 123.4137440  87.6154327
  65.9349871 122.8831482  86.3044834  58.8932371 111.6514969 100.0348663
  59.2963076 110.7882500  99.9422932  59.4740343 112.2399902  99.5525932
  61.0709143   4.6509915  69.2041826  60.7090521   4.5988064  70.0888109
  60.3308058   4.4524174  68.6305666  48.0614138 146.5763855   1.0737554
  48.2059288 146.7568398   0.1448957  47.3874760 145.8967209   1.0836736
  53.9110565   2.8980618  24.4681588  53.0586958   2.8381043  24.0367357
  54.5209122   3.1183796  23.7640516  29.3554950  12.5922089 108.0317020
  29.4069505  12.6146202 108.9872551  30.2675819  12.6142865 107.7421474
  42.3073483 124.2574501  12.3306123  41.9699860 123.5776043  12.9139081
  41.8617916 125.0567245  12.6114503  62.8956223  12.8107052  82.2243023
  62.6166487  13.5936909  81.7496109  62.0874023  12.4523812  82.5912094
  12.6620853  79.0327311  42.4139158  12.0259309  79.7192812  42.2134439
  13.3259749  79.1140127  41.7291681  63.9430904  12.0247727 109.8781204
  64.5535088  12.3089104 109.1977692  64.3374395  11.2297802 110.2368927
  46.9542789 121.8910503  83.3859539  47.8809357 121.6613770  83.4551620
  46.5848684 121.6552067  84.2369175   8.8668323 120.2005577  93.1968498
   9.1956872 119.6638393  93.9179802   8.7610710 121.0728931  93.5764217
  75.4697657 104.7799110  10.9465448  76.3843727 104.6250343  11.1826459
  75.3343296 105.7128906  11.1121885  12.6891339 109.0424538  80.9682083
  12.4448478 109.4349384  81.8063641  13.6435318 109.1104031  80.9410191
  54.3158531   5.0263481  26.1757985  54.1330719   5.7362442  25.5602781
  54.2059851   4.2276841  25.6597654  43.7785912   7.2884255 101.2370491
  44.1939545   6.4870339 100.9184742  44.2084074   7.4645691 102.0739841
  71.4380693  82.0540619   4.0189115  71.8049860  81.2191105   3.7282792
  70.8483887  81.8200111   4.7356645  51.0438967 120.7067871  91.5406227
  50.7907534 120.7342911  90.6179142  50.6661367 121.5019608  91.9164276
  57.1436739  47.7698498  78.7942457  57.9027081  48.2581120  79.1131592
  56.5393400  48.4434681  78.4824038  55.1691294  98.4814072  79.3988371
  54.2946577  98.5231400  79.7858620  55.0112534  98.3505821  78.4638548
  55.2036476 100.7938099  26.7912713  54.2632246 100.6166077  26.7703763
  55.5479908 100.1832867  27.4431268  47.6072788 132.6035976  89.8847198
  48.5039759 132.6599598  89.5545769  47.5697994 133.2518101  90.5880260
  61.7913628 111.7474174  30.1203576  61.6922140 112.2223949  30.9454671
  61.8188143 112.4318790  29.4517843  50.6658888 130.8158207   0.3657953
  51.1678600 131.6289711   0.4210321  50.9069538 130.4426575  -0.4820689
  36.3585591 132.6598454   1.6250745  35.5840063 132.2513103   1.2385598
  36.7856789 133.1041527   0.8926812  60.5109215   1.0255795  72.0037794
  60.2308178   0.3323059  72.6013899  59.7116089   1.5177708  71.8164921
  65.7543945 141.3571453  19.9366418  66.4110327 140.9860706  20.5260125
  65.0252485 141.5946007  20.5095235  44.9522829   1.2406426  24.0484563
  45.5331612   0.9580975  24.7548429  45.0885439   0.5960827  23.3540479
  26.3844872   5.2583199 107.9842949  27.0369148   5.7728272 107.5090599
  25.7098007   5.8924466 108.2270050  74.0217686   9.7346096  89.9514389
  74.4696951   8.8929921  90.0366783  74.1830444  10.1772385  90.7846832
  47.7252531  18.1418591  93.2515621  47.0206547  17.5308972  93.4672642
  48.2348204  18.2143574  94.0586090  52.1597958 135.8194637  70.4680061
  52.6056480 136.6103745  70.1648521  52.1738148 135.8876038  71.4226723
  59.4721365 140.5827808  26.5931836  59.1729116 141.1380196  25.8731786
  60.4273033 140.6167507  26.5408460  41.1271381 132.7881432  78.1586313
  40.2242136 132.5228786  78.3335400  41.6510105 132.2747612  78.7736368
  33.7923908   3.4291535  10.1423303  32.8448939   3.2935410  10.1517621
  34.1330314   2.7827339  10.7606641  50.3115988 115.6357956  57.4093103
  51.1678839 115.7262802  57.8274345  50.5085802 115.5470085  56.4768171
   8.5918677 136.8724632  85.3386593   7.9073036 137.0538330  84.6946812
   9.1110015 136.1710548  84.9452782  66.1736584 122.2186279  67.7121305
  66.0943604 122.7508068  68.5037947  65.2729893 121.9802570  67.4925566
  63.0267239 124.6117878 106.3739681  63.5439777 125.0708294 105.7121849
  62.5876188 125.3091431 106.8609142  64.1788960  32.8985195  71.2816143
  63.2902002  33.1789379  71.5002871  64.1942883  32.8758602  70.3248072
  59.4450426 105.2975368  94.7331810  59.2841148 105.6373215  93.8529015
  60.2941418 104.8602486  94.6695995  40.8597755 126.3226700   4.0852968
  41.2496233 125.6386948   4.6297494  40.2062130 125.8646584   3.5567991
  41.5391445 140.0000954   4.4061509  41.4375067 139.0981483   4.7100965
  40.8764887 140.0985622   3.7224618  51.4533091 134.4843292  92.0603848
  51.7253494 135.0331688  92.7959156  52.2576761 134.3330669  91.5640545
   8.5925347 143.0821705 100.9074402   9.4298202 142.7970028 101.2733173
   7.9671013 142.4162197 101.1930466  26.6500759   2.4538880  20.0657988
  27.1916246   2.0261555  19.4024718  27.2694516   2.7205544  20.7451320
  34.9740458 110.3950214  94.8399830  35.8877397 110.3122234  95.1130104
  34.6996021 111.2477398  95.1773167  35.2914429   0.9359627  47.0879793
  36.1444592   0.9496289  47.5220394  34.9752045   1.8370800  47.1529007
  39.0703177 111.5242863  53.1347752  38.9145303 111.0789776  52.3019123
  38.5825610 111.0086441  53.7769842  32.8507233 145.1331615  50.6287336
  32.0934772 145.3937721  51.1530352  33.1131411 144.2869568  50.9910870
  26.3405156 141.8209553  63.2748222  26.3326836 141.0793495  63.8799572
  26.9593239 141.5653515  62.5907326  53.9431477 129.8152637  73.3087540
  54.3328619 128.9603806  73.1256771  54.5508623 130.4438972  72.9192257
  56.2873745  28.9348965 106.8275166  55.9161949  29.5805340 107.4288464
  56.3441133  29.3932705 105.9891319  64.7658587 124.2214584  98.2590580
  64.9273491 123.7108994  99.0524578  65.6327391 124.3427849  97.8717232
  67.3479176 120.7946968  62.0523787  66.9135475 120.4592896  61.2681198
  68.2558775 120.9329414  61.7826986  76.6361237 118.5119152  32.9788804
  76.6994476 119.2417526  33.5949636  77.0506859 117.7783871  33.4331012
  42.6079702   1.8537789  65.3386211  42.6470566   2.3912125  64.5475054
  42.9682446   2.4135094  66.0264683  54.0139484 111.2058830  60.5929804
  54.2278862 111.4096069  61.5034533  53.1376696 110.8227634  60.6328058
  40.7515144  19.1095333  76.6566372  40.4675770  18.2680111  77.0136547
  40.1155806  19.7400074  76.9947672 115.9619022  19.7686367 106.6203403
 116.3254131  19.1152363 106.0227203 116.5391893  20.5263882 106.5266228
  32.9645824 116.4961052  58.6426830  32.9731917 116.6310310  59.5902872
  33.7033105 117.0125484  58.3205032  39.5693541   2.9204445  74.4983816
  39.2303586   3.7450009  74.8468256  39.4669247   3.0010205  73.5500956
  51.1260366  13.4597092  59.0035725  51.0507393  12.8382759  58.2794333
  50.4775047  13.1631642  59.6420860  68.7893915 113.5041809  96.8428421
  67.9809618 113.9340019  96.5636635  69.0161324 112.9247952  96.1154270
  43.3443213 138.9807034 106.3093185  42.6589727 138.7248325 105.6920147
  42.8743744 139.4084072 107.0251751  69.9833488 130.7509995  49.0490818
  70.5303097 130.1569557  49.5630598  69.1042280 130.3766346  49.1058683
  61.2235880 126.0966396  77.2999382  61.2857151 126.3584042  76.3813257
  60.7790184 125.2492237  77.2779703  35.5509973 131.5198326  84.7022915
  36.4073324 131.8768311  84.4667721  34.9385238 132.2360134  84.5343971
  10.4137945 131.4143085  82.3824024   9.6463472 131.0774231  82.8447533
  10.7668757 130.6547260  81.9191551  82.0724201  14.1196804  46.6695547
  82.2476959  13.1940251  46.5002251  82.6959610  14.5870953  46.1137247
  40.1613569 102.6743984  66.6917324  40.3077078 103.6201000  66.7132187
  39.3494177 102.5688934  66.1958933  52.4640274 143.9935780 103.9653301
  52.6781130 144.7048569 104.5690632  52.3271132 143.2330322 104.5301723
  40.8051729   2.1318703  89.0321350  41.3407898   1.4215165  89.3853283
  41.3811636   2.8962307  89.0468407  74.9286842  26.7763119  94.4565487
  74.8355341  27.7052288  94.2451477  74.6690655  26.3211804  93.6555099
  65.2513742 122.5148869 100.2139187  65.8015347 122.7653599 100.9560871
  64.5897245 121.9351006 100.5911446  32.4346972   9.6499520  66.4063263
  31.4811683   9.5664482  66.4129591  32.7044201   9.3853932  67.2858095
  31.2525725 130.2155399 103.1679630  30.8336282 130.1716137 102.3084354
  32.1824360 130.0762081 102.9885864  21.5835023 131.7829609  68.7008286
  22.4081659 131.6069031  68.2478714  21.8146849 131.7783070  69.6296787
  42.4070549   4.2203503  89.5590973  41.8828154   4.6206742  90.2527428
  43.3105469   4.4444161  89.7821045  58.4165001 116.8047237  62.6497078
  57.5295019 116.9722652  62.9681301  58.2920742 116.4527321  61.7683172
  37.3255539  19.1396313  93.8406754  37.8325653  19.9044781  94.1130257
  37.5126910  18.4785252  94.5071220  19.2526877 100.7303619  42.3758698
  18.6052394 101.2590218  41.9094324  18.9828348  99.8258686  42.2168112
  46.6659403 121.7980194  68.2896709  47.5312233 122.2073078  68.2922935
  46.5452242 121.4873409  69.1869640 124.4129409 138.3805561  88.0654907
 124.5622540 137.4630451  87.8372002 124.1031479 138.3547592  88.9708042
  42.3279476   5.7084542   0.3356782  41.8140554   5.2450829   0.9970609
  42.4506092   5.0675946  -0.3646620  76.9410181 138.6963654  95.4616165
  76.8127680 137.8246117  95.8355427  77.3856640 139.1896343  96.1509705
  98.1944466  39.3056088  53.3240414  98.7473106  39.6141796  52.6061535
  98.1332016  40.0538617  53.9178514  70.7123709 129.2797279  85.7479763
  70.7742643 129.0145493  84.8303223  70.1888371 128.5929966  86.1609459
  59.3784714  12.7927952  80.3491020  59.8268127  12.7484398  81.1936474
  59.0741110  11.8989258  80.1922703  58.2412815 135.7254791   7.0414773
  58.4346771 135.6735802   6.1054555  57.6839352 134.9664974   7.2133294
  43.5647774  26.5992527   8.6304895  44.1365004  27.3536473   8.4882203
  42.8214741  26.9510441   9.1203634  62.9740524 128.9350986  68.2119513
  63.2890081 129.6545029  68.7592173  62.8878212 129.3182278  67.3390198
  90.1023674 145.1147270  77.0779610  89.2327118 144.7172737  77.0337391
  90.2136040 145.3455544  78.0002260  60.6984425  13.9085942  66.9375324
  60.2020597  13.5921269  66.1827564  61.3050652  13.1966286  67.1408463
  12.4245965 127.3069096  96.0206604  12.3380482 127.8724098  95.2532291
  11.6378438 126.7618847  96.0065174  32.7539206 144.0174580  92.2768307
  33.5137510 143.7012577  92.7656174  33.0617619 144.8141003  91.8445873
  63.1156921 145.7124710 104.8107815  63.0590343 146.4696884 104.2280006
  64.0370226 145.4547501 104.7797489   7.2561991 102.5635052  80.9705544
   7.6211667 102.1653366  81.7607975   7.0550901 101.8219566  80.3996849
  43.9502907 143.7979698  95.0098038  43.6010981 144.6758080  94.8558807
  43.4569931 143.4726143  95.7628250  44.8498297 135.9459496  71.3505363
  44.6118402 135.3324699  70.6553888  45.8070135 135.9432793  71.3549995
  30.1983500 136.6277122  94.8598099  30.0859737 137.2321224  95.5935001
  29.8971868 137.1196747  94.0959358  64.2195368   0.6509571  52.7444267
  63.8730574   0.8118992  53.6220837  65.0042009   1.1967354  52.6928902
  71.8372154 105.4537296  80.7645893  72.4021959 106.1764431  80.4912472
  72.1905613 105.1804733  81.6111851  19.8806584 116.5879345 100.1916981
  20.7354736 116.4595032  99.7805691  19.6694100 115.7370567 100.5759144
  45.9413052 130.4743385  46.0643244  45.7742405 131.0063171  45.2863073
  46.1015940 129.5945454  45.7230043  28.3490229 128.5723495  91.0931110
  28.1989145 128.0906487  90.2796841  28.3158422 129.4936371  90.8355141
  38.4020925   8.7631398  92.3344612  39.0043783   8.0978089  92.6673412
  38.2561970   9.3477612  93.0782127  24.3957973 138.8199902  24.3246309
  24.3312764 139.7715569  24.2434255  23.8619590 138.6082172  25.0904027
  41.9863605 126.8504429  92.7797604  41.7053032 126.0396576  93.2038498
  41.1966705 127.3904800  92.7482700  41.8230152   9.2931824  95.7464981
  41.1427641   9.9191552  95.9947872  41.9120026   8.7212544  96.5088749
  79.4327307 136.1927223 108.5614777  79.9292946 135.4095364 108.7987137
  80.0526619 136.7286873 108.0668545  68.3388662 123.4798241  62.5416756
  67.5888348 123.2128429  63.0730915  67.9509020 123.8916397  61.7695856
  10.6390321   2.7958184  77.6732445  10.4190171   3.5725193  78.1875944
   9.7957492   2.3788910  77.4963808  42.1459770   3.4109001  78.3126354
  41.8718243   3.2504731  77.4096727  42.5350857   2.5833397  78.5954237
  38.8817453 128.6638260  88.6778069  38.4799600 129.3546581  88.1509876
  39.5140219 128.2510662  88.0895138  14.8010945 138.2081604  27.9188871
  15.3433549 138.0653191  27.1431422  13.9023089 138.1848335  27.5904512
  59.7824860  96.0076237 105.7239914  60.5187035  96.0440922 105.1133537
  59.1082287  96.5532207 105.3190994  60.0028753 141.7904282  83.1469154
  59.4166660 142.2930813  82.5812912  60.8031464 142.3139763  83.1881142
  40.5730963 141.8084240  75.6407595  40.1905012 141.1738205  75.0348473
  39.8540521 142.0430946  76.2273836  50.3494501   5.6300240  97.3847580
  50.5094385   6.4664250  97.8218746  50.6082869   5.7814675  96.4757538
  46.2199450 120.2570724  88.7689972  46.4589882 120.8344269  89.4940948
  46.4049482 119.3757820  89.0935516  21.8597198  16.2108212  81.2891293
  21.5123773  16.4196568  80.4219723  22.1018457  15.2863865  81.2338924
  45.5788660   8.1344109  58.9980030  44.8610258   8.2101899  58.3693552
  46.2315607   7.5944310  58.5522985  61.8862009  22.2986584  85.1693153
  61.5384483  21.4830571  84.8086357  61.3606167  22.9853421  84.7588921
  58.9858913   7.0600396   7.2839013  58.4559631   7.6847248   6.7887536
  58.5321474   6.9725495   8.1221715  59.6530485 134.8093987  98.1704903
  58.9344215 134.3062973  98.5534954  60.3992653 134.6360970  98.7443829
  54.5678759 134.0694523  58.4868908  54.9805927 133.7382126  57.6892900
  54.1086483 133.3126354  58.8510036   3.2825199  24.0327244 105.8518791
   2.4625920  24.4917279 106.0342979   3.0486310  23.3761959 105.1957703
  42.6808786  19.4261151  72.9723120  42.5613832  19.8480015  72.1214485
  42.9782629  20.1298886  73.5489368  48.0155373  23.1315213  57.2794533
  47.4348927  23.0042439  56.5291977  48.8429308  22.7309399  57.0126486
  60.0061846 146.0021973  74.5355701  59.0940571 145.8536053  74.7849131
  60.4948711 145.3213787  74.9980736  61.8933916   1.9482594  99.0229893
  61.4986467   2.3612194  98.2549572  62.6160145   1.4286881  98.6707115
  41.3833427 132.4398708  99.7977734  42.3046589 132.5510788  99.5631599
  40.9936333 132.0058346  99.0388393  24.8537660   6.8835335  71.1882162
  25.4735708   6.8689137  70.4589319  24.7607088   7.8112297  71.4048958
  56.8791771   5.4044419  54.8300028  57.5668669   4.8499565  55.1985884
  56.3757372   5.6982308  55.5892611  46.5128374   9.6504479  86.1740971
  46.1725950  10.1510315  86.9156361  47.1722603  10.2224236  85.7813644
  72.2590160  11.4553433  88.4528923  72.7377796  10.6458741  88.6311626
  72.9235554  12.1424942  88.5023212  28.1412172 120.5402851  89.3903732
  27.6241112 120.6263351  88.5894871  28.7777758 121.2535191  89.3422604
  57.3331308 140.6227684  62.8153849  57.9143953 140.4731560  63.5610247
  57.4754667 139.8671055  62.2453403  37.8533721 111.5454006  87.9198074
  37.3889065 110.8258820  87.4922562  38.4619832 111.1145401  88.5199547
  22.6030159 123.0317211  57.4611187  22.3778462 122.3299789  56.8503094
  21.8750453 123.6497021  57.3948383  77.6558018 134.1353989  87.2594929
  77.5292063 133.5568428  86.5075111  78.4613514 133.8214493  87.6702881
  50.3050756 131.7441082  62.8172350  49.9397230 132.1217346  62.0171404
  50.8786249 132.4273300  63.1643343  66.5173197 135.4707623  25.8221189
  66.6782284 136.1876678  26.4356176  65.6969738 135.0788403  26.1215726
  42.6296329  15.6724911  40.6275129  42.8456068  16.1218815  39.8104239
  43.4663486  15.3281384  40.9398651  69.9033928  24.6912747  73.4239244
  70.4010153  25.5088406  73.4098625  68.9903593  24.9679165  73.5017729
  29.9419093 116.0472202  18.9671460  30.7021475 116.4768887  18.5751573
  30.3106308 115.4757595  19.6407262  32.7211905 134.1163254  74.3653154
  32.5955009 134.2917824  75.2978659  33.6237526 133.8043594  74.2998171
  41.0903215  18.3296948  80.0587082  41.5383101  18.6296635  80.8496284
  40.4100847  18.9854412  79.9054289  64.0957832  11.8709641  84.6357346
  63.7627697  12.6839905  85.0156212  63.8314772  11.9101887  83.7165833
  64.8909664 116.9505024  55.5496883  65.4681349 116.7134953  56.2755919
  65.2862072 116.5342522  54.7836924  29.9247551   4.8688488  68.5506821
  29.2173624   4.6681671  67.9378605  30.5842805   4.1954403  68.3840132
  26.2995148 125.7495785  54.4691181  27.2245789 125.6447029  54.2466545
  25.9035087 126.1178875  53.6793327  12.2763169  13.3228283  95.1913261
  12.8153026  13.7134152  95.8792019  12.3832488  12.3790722  95.3101349
  55.8051634 143.3768654  63.1114674  56.2464094 142.5688648  62.8494120
  56.4435577 143.8308048  63.6615753  14.4396305  27.6964741  94.7412682
  14.4623899  27.0104199  95.4083920  13.5136795  27.7776318  94.5126724
  30.1321507 133.8031006  73.1464195  29.6223783 134.5585537  73.4390879
  30.8681822 133.7598133  73.7568426  86.8378353 122.4722672  82.6621056
  87.0173550 123.3447838  82.3117828  86.0103607 122.5690079  83.1334400
  20.0330329  12.3450070  87.4541569  20.0722456  12.0475369  88.3631229
  19.1528451  12.7089386  87.3590088  30.3529572 129.8248768  51.8265963
  29.6352625 130.3640461  52.1589231  30.9433460 129.7252274  52.5734186
  77.4700308 117.9044914  90.3200912  76.5733051 117.6291561  90.5106258
  77.5478363 117.8257847  89.3693066  40.7406712 116.6413879  83.6858368
  40.9760809 117.0152378  84.5349789  40.4152584 115.7650948  83.8918591
  20.1644540   8.1745415  64.1619062  19.9402308   8.7298184  64.9086428
  20.6461191   7.4412995  64.5447636  53.0880833   6.1987954  65.8167744
  52.3808336   6.2834339  65.1773500  53.2762480   7.0978146  66.0861969
  75.6824160 136.9300938  76.5980291  75.8572531 137.8407478  76.8354464
  76.5047932 136.4739323  76.7764711  52.8613710  19.5472508  68.3010054
  52.0899391  19.7673588  67.7788162  52.5624847  19.6102887  69.2081547
  18.8345706  14.1514187  83.7609482  19.5409679  14.4780140  84.3182278
  18.2762516  13.6471920  84.3527794  59.1588497 144.9317837  85.1542664
  58.4895897 144.3392563  84.8118687  59.7387695 144.3679237  85.6661034
  13.0895758 106.9648743   1.1265699  13.3723903 106.0678101   0.9490243
  12.1397924 106.9011402   1.2269822  22.0958161   7.4690514  81.5533924
  21.2210917   7.1617489  81.3153744  22.0751595   8.4098034  81.3779068
  50.7510042 142.1780968  67.2360182  50.4601812 141.7429161  68.0374432
  50.5211401 143.0981350  67.3661232  22.3032904  97.0802975 103.5332775
  22.3027444  96.4272976 104.2331505  23.2287836  97.2804642 103.3931828
  10.0987375   4.6950798  66.8434334  10.8984828   4.2547970  67.1311712
   9.6032530   4.8422795  67.6490736  84.0846729  -0.1541633  75.9980822
  83.4549141   0.4810124  75.6572342  83.9037704  -0.1904506  76.9373322
  40.1647425 129.7865295  68.5909176  39.2530489 129.6016502  68.3653784
  40.2695274 129.4324970  69.4740438  23.3978510   0.5392437  86.4811516
  22.4697232   0.3824787  86.3072586  23.8338995  -0.2637882  86.1961460
  16.3897634 114.3581009 108.1970501  16.9264805 114.4152737 108.9875603
  16.2657940 113.4190369 108.0591202  68.2155371 141.3165188  56.9075584
  68.7840462 140.5820465  56.6760683  68.7558603 142.0929813  56.7613363
  38.8076639 125.9359932  59.7215891  38.8792944 125.4216862  60.5256987
  39.7035575 125.9852123  59.3881512  17.9085338 142.2147846  60.0038719
  18.8142884 142.2686195  59.6990061  17.4047160 142.6896477  59.3428850
  46.9976616 108.1002426  78.2889986  46.9878387 108.7625313  77.5979757
  47.8886080 108.1309795  78.6375713  61.7572880 133.6055470  70.5008984
  61.1535692 134.2285538  70.9053946  61.2284994 132.8216171  70.3522968
  54.6432495 139.1828060  97.4603748  54.3979931 138.8337326  96.6034985
  53.9027882 138.9676380  98.0275154  44.5200920 142.7827835  81.3982296
  45.2206278 143.4236717  81.2768078  43.7722969 143.2993507  81.6985512
  78.7932301 137.7699471  93.6401749  78.2871675 138.4365082  94.1047573
  79.3896151 138.2682514  93.0813885  50.3487635  25.6668072  96.7084599
  49.4005919  25.5571347  96.6365051  50.4759836  26.6131382  96.7756748
  54.1145897  21.8424206  30.6598759  53.4699678  22.4825840  30.3584146
  54.3585348  22.1423130  31.5355444  36.2082267 133.6029911  71.0648251
  35.6625390 133.4156704  70.3010416  36.4132452 134.5349789  70.9899330
  66.2583113 136.2375355   0.6658593  66.1365366 135.7629585  -0.1564463
  65.3784752 136.5261364   0.9083978  43.6658096  23.6693364   4.8554078
  43.1478262  24.3917637   5.2104226  44.2218542  23.3927327   5.5837957
  45.5982590 122.5044346  94.2924023  45.6240845 121.8365479  94.9775887
  45.9838820 123.2802200  94.6994591  82.8040981 142.4155807  78.2061338
  83.4626865 142.6441002  78.8620806  82.4861050 141.5540314  78.4760475
  17.1974075 100.8711338  71.5808678  17.2739935 101.3196373  70.7387209
  17.9967284 100.3487682  71.6476011  56.7025518   9.1992455  73.3098841
  55.9731627   9.2899781  73.9230680  57.4605274   9.5358258  73.7878180
  48.1319952 138.2901669 105.7348824  47.2523165 138.1215000 106.0724449
  47.9887533 138.6244392 104.8494530  16.4601970 107.8052425  79.2149878
  16.2559271 106.9183350  78.9184952  17.1635175 108.0958462  78.6343670
  74.8532248 108.6995029 103.3811665  73.9062405 108.8389015 103.3862019
  74.9569511 107.7662277 103.1955147  23.4228802 142.3566628  47.2007561
  23.3083773 142.3762226  46.2506294  22.6832461 141.8400288  47.5205517
  28.8212085   9.6285420  70.7708120  28.0097008  10.0026779  70.4277182
  29.1504025   9.0781575  70.0602245  51.7408037  28.0531864  84.1980267
  51.8204737  27.8100186  85.1203823  51.0827255  28.7482434  84.1895580
  38.1070256 142.8356266  82.4150181  38.5038090 142.0948315  82.8732872
  38.6500430 142.9538345  81.6356659  47.8101015 143.9257050  43.7482214
  48.7186241 143.8697147  43.4521103  47.6442337 143.0839634  44.1727066
  60.5704451 137.7076817  27.1940684  60.5672741 138.6444664  27.3907018
  59.8627710 137.5937176  26.5596843  26.2332702   6.8658238  65.7824850
  26.4597154   6.1607724  66.3890028  25.6352806   6.4593487  65.1552486
  89.6194267 144.9757767   8.4902135  89.7752857 144.6084213   7.6201669
  88.7268925 145.3191471   8.4488527  79.0205669 142.5148582  55.4723501
  78.8162041 142.7644825  56.3735485  79.9752569 142.5617790  55.4214525
  40.6275177 128.9594936  61.1971903  41.1995459 128.5685158  60.5367708
  40.9674740 128.6348152  62.0310068  24.1546750   5.8240300  64.3184280
  23.2863355   5.7039242  64.7028732  24.0988469   5.3982239  63.4629726
  51.2071848 129.2635250  72.7873802  50.7882166 130.0556850  72.4509430
  52.1256495 129.5080566  72.9007959  62.5761604 128.9414310  72.1334839
  61.9862652 128.4129524  72.6710367  63.1521559 128.3035946  71.7120123
  30.0389743 133.4125805  22.3277417  30.9405565 133.1729889  22.5421659
  29.7961068 134.0535259  22.9959050  52.6104736 144.9566078  77.7363491
  52.2691011 145.6139660  77.1300697  52.6924992 144.1628647  77.2076893
  38.4609842   5.8545189  87.0995426  37.5602698   5.5396729  87.0232582
  38.7795639   5.4730587  87.9176140  40.1735258 133.8345623 101.5968990
  39.4507623 133.7549686 100.9743977  40.8041096 133.1706619 101.3179302
  47.4071693 124.3628502 100.8341694  47.9572725 123.8769245 101.4485836
  47.4277878 125.2642727 101.1554813  17.8772700  21.7410450  88.0213451
  18.3573210  21.2212735  88.6660290  18.5114825  21.9010716  87.3224926
  57.6705742  12.6999932  83.3039474  57.3222017  12.7686291  84.1928577
  57.4197245  11.8224411  83.0154896  25.7094741 126.5916061  72.2978926
  26.6491818 126.7737484  72.2999477  25.3846908 126.9994640  73.1006336
  58.1470537 121.9163990  67.6669550  57.8998089 122.7626610  68.0397129
  58.2040739 122.0770359  66.7250538  54.3036795 120.7276154  90.3779030
  53.6645174 120.0535583  90.1469517  54.5510912 121.1200142  89.5406246
  86.5112686 141.3216305  86.1931515  86.8195152 140.4244041  86.0658836
  85.6307888 141.3279057  85.8177185  51.1278582   5.6577473  73.8082361
  50.3790045   5.9369450  74.3350172  50.7650232   5.0166588  73.1970167
  41.2687254  73.4724808 108.6258221  40.6701565  73.9055967 109.2343903
  41.1466551  72.5381136 108.7940216  29.9725914 129.0342236  71.0022545
  30.0910854 129.9379730  70.7099867  30.7008314 128.8796425  71.6039228
  30.1586699 134.3940449 104.1667271  29.8712206 133.4815407 104.1974449
  29.7809100 134.7370243 103.3568573  66.6803122 120.9553146  75.7167292
  67.1504498 120.1559448  75.9537840  65.8322954 120.8727264  76.1529350
  69.8348856 132.8656292  96.5583229  70.4815388 133.5669613  96.4795876
  70.3562689 132.0697975  96.6634369  71.5860987   4.4005280 106.2635708
  71.0090590   4.2480831 107.0119095  71.3604546   5.2806931 105.9625244
  54.4179869  -0.0904483  86.1892891  55.0494289   0.1927929  86.8505669
  53.5792446   0.2541237  86.4959049  14.0696394  40.0077801 107.4729824
  13.1444645  40.2519589 107.4985981  14.2684388  39.9199086 106.5407848
  68.3680439 100.2512741  94.3035984  68.2354069 100.7841110  93.5195541
  68.3541965  99.3487549  93.9849949  70.8068562 135.0620079  66.3100958
  71.1839342 135.5746174  65.5950642  71.4279079 135.1639175  67.0313025
  27.8284168 132.7663422  96.2369156  28.5375428 132.2975826  96.6769505
  28.1697702 132.9502773  95.3617668  75.0594044 141.8689537  93.0010700
  75.1779604 142.7944279  93.2148075  74.6679783 141.8731117  92.1275616
  41.4783716 146.6067791  68.2345390  41.8801928 145.7649517  68.4492350
  41.2089491 146.5173817  67.3203993  13.4552121 137.6513863  61.2870502
  12.6910961 137.0800209  61.2102461  13.3687198 138.0520248  62.1520615
  67.5789404  32.2784024  84.9232674  67.3586035  32.3680859  83.9960957
  68.1685638  33.0111294  85.1012993  62.1929741  13.1673222  73.2559204
  61.8379927  13.4723454  74.0908957  61.4350986  12.8187828  72.7864742
  59.8072481 117.4609566  86.5425777  60.3523684 117.6871777  85.7889938
  58.9144468 117.4496937  86.1976051  38.6364102 146.2750912  85.3056240
  38.0672765 146.9500923  85.6753349  39.0800452 145.8943653  86.0635662
  22.9567981 124.9351215  78.1474733  23.0583453 125.6356525  78.7918234
  22.0672703 124.6097183  78.2856321  49.1614723  24.7534733  89.3154335
  49.0605402  25.5380993  89.8543262  50.0070429  24.8679715  88.8816833
  58.0505991 138.6651134  61.1463118  58.0139923 137.7215004  61.3027859
  57.9365158 138.7556171  60.2002525  54.8913145  10.9129601  54.9040079
  55.1449823  10.0568943  55.2490234  55.3822279  10.9967881  54.0865660
  53.5910130 134.5835209  77.8298426  52.6389599 134.6823597  77.8376818
  53.9246368 135.4801273  77.7978945  63.5241985  20.6614666  76.9911337
  63.3276558  21.1120396  77.8124619  62.7596712  20.8255368  76.4390373
  49.1710329 135.1872063  69.8853827  49.8854303 134.5907211  69.6616364
  48.6825705 135.2927780  69.0689898  62.3799562 143.8593960   1.8794671
  62.9804134 144.5177555   2.2291128  61.5928364 143.9432430   2.4176542
  35.8011603 125.7201672  83.7507820  34.9002147 126.0018253  83.9095402
  36.2369061 125.8231735  84.5967960  71.3939047  20.7278042  60.8229351
  70.5096912  21.0850697  60.9051752  71.8776560  21.1154538  61.5522766
  34.2727804 137.6267815  90.4189587  33.8520718 137.2582531  91.1957645
  35.1312208 137.2044277  90.3883743  65.0231934 137.8624821  52.0860672
  64.6671247 137.8427029  52.9743528  64.6145773 138.6275768  51.6812229
  56.6502953 124.5941162  80.4823494  57.3843908 124.6791363  81.0907173
  57.0611858 124.4956207  79.6234560  33.6777520  12.3474388  97.4815559
  34.6162987  12.4281388  97.6514053  33.3189130  11.9798832  98.2892513
  55.9974241 141.2884331  59.5230246  56.7371178 140.6809711  59.5319700
  56.3389874 142.0876598  59.9240255  59.3980360 124.1991425  97.4151611
  59.7598028 124.3191814  96.5371227  58.7403297 124.8894405  97.4996567
  58.5598135 121.8967724 108.4243941  59.4534540 122.2255421 108.5221041
  58.0888462 122.2561455 109.1762420  13.3530414  21.1009388  94.3497086
  12.9639173  21.9124394  94.0237141  14.2895746  21.1983281  94.1775131
  29.4694757   3.1604843  37.8285170  29.6811986   3.1528359  36.8950582
  30.2264595   3.5750847  38.2424164  30.6859493 102.6059341  48.7059546
  31.5910387 102.3416424  48.5410452  30.6665373 103.5391617  48.4939671
  22.1106482 120.2182865  97.0476055  23.0512834 120.1425171  97.2079086
  21.7542315 119.3687153  97.3072815  54.9908876 105.2442932  65.6858444
  54.6684265 104.4212055  65.3187275  55.4790831 105.6508923  64.9699068
  61.1141253   1.3043194  57.4915695  61.0355806   0.3903656  57.2181511
  60.7506990   1.3215332  58.3769226  34.5285797 145.8893108  70.0960207
  34.8890972 146.6038895  70.6210327  33.8286233 145.5240250  70.6371832
  15.8585179   5.9366780  31.3426280  14.9014354   5.9448605  31.3300824
  16.0851038   5.1296406  31.8047690  55.7863951 131.9191837  72.3558140
  55.2630472 132.5697803  71.8877792  56.3711739 132.4359417  72.9100943
  49.3242741 127.5433254  50.5053854  48.8948631 128.0306721  49.8022985
  49.9256325 126.9511890  50.0537395  26.5080118 125.8599091  96.4654922
  27.2587514 126.4536095  96.4776802  26.1489177 125.9096336  97.3513794
  25.2945900  13.8208561  42.4244499  24.4323444  14.2043476  42.2640991
  25.3083396  13.0290871  41.8867350  44.5116425  16.8541699  67.4483252
  45.3682852  16.5294628  67.1709108  44.1824007  17.3384838  66.6911745
  43.6633921  15.7266598  72.2440815  44.5794725  15.4785900  72.1196365
  43.6625290  16.2434941  73.0497503  43.2634830 144.5463943  47.8203773
  42.9451180 143.9157009  47.1745443  43.1066656 144.1241741  48.6649895
  42.9766178 137.5275612  70.1880264  43.3410501 138.3896828  70.3884697
  43.5066605 136.9181442  70.7017374   5.6542468  17.7897244  27.1933722
   5.1723778  17.0655995  26.7937684   6.0511965  17.4096852  27.9771018
  50.1825094  18.0410748  79.9837446  50.5976772  18.3762532  80.7784271
  50.2440739  17.0892697  80.0645256  34.1381407 141.1389828  95.8177757
  34.0251064 140.3569794  95.2774811  33.7695718 140.8981800  96.6677189
  79.4880152 100.1542854  80.9820366  79.2864943  99.6671009  81.7809582
  79.4420433 101.0737419  81.2441635  23.1306648 126.3939190  52.5557804
  23.1872416 127.3179150  52.3123598  22.5917578 126.3871956  53.3468342
  32.5720024 124.1706848  10.2662539  31.8801761 124.6140385  10.7572174
  32.2224379 124.0909195   9.3787438   1.6401063  27.3216992  54.8687220
   1.8916838  28.1098919  55.3500748   1.1833373  26.7823773  55.5142736
  45.6715250 137.5161457  50.8148003  45.8383226 137.7530670  51.7270947
  45.7875156 136.5663528  50.7889462  32.4121308 140.5315685  55.8056355
  32.4219942 140.7517338  56.7371178  31.5058565 140.2793884  55.6287146
  81.3888931 136.4283371  77.6183987  81.2657070 135.8814335  76.8425417
  81.3853168 137.3246956  77.2826195  41.6087723 103.3540440  47.3430729
  41.1473465 102.5615597  47.6174402  40.9124184 103.9685917  47.1114397
  35.3960061  28.0955677  61.0868597  35.6855679  28.1773930  61.9955349
  35.2038741  28.9930134  60.8149767  46.9676924  19.4935971  67.3262262
  46.1727095  19.6641331  66.8211031  47.0069122  20.2097302  67.9601431
  58.8270044 131.1363697 100.4598045  58.1760168 131.7272377 100.0812244
  59.3632746 131.6978550 101.0196018  37.8700519 133.6729336  53.9369678
  37.8748250 132.9805279  54.5978689  37.1268153 133.4601784  53.3725500
  70.4011297 124.3480015  75.6014585  69.8186016 123.8806915  76.2002134
  70.0459528 125.2361679  75.5662107  44.4480610 118.4541321  98.2288647
  45.2389383 118.0376339  98.5713100  44.0500784 117.7880192  97.6683807
   5.5701214   5.0616818  73.6259365   4.9372905   5.6067067  74.0935946
   5.6817544   5.4961949  72.7803755   1.4908127  13.1742840  40.1406193
   1.6535786  14.1089802  40.0138855   0.5538218  13.1175595  40.3278685
  47.0938396 138.2620716  43.7140703  46.9913816 139.1381359  43.3422565
  47.1659327 137.6858616  42.9531384  17.8871417 139.7752571  34.9416304
  18.0555236 139.6620941  35.8770847  17.6551270 138.8996124  34.6323776
  38.4556460   1.9610577  56.2116051  39.0024328   1.6114025  56.9151640
  38.1648684   1.1881333  55.7275963  47.3855019 119.1850090  73.7690067
  47.9473686 118.5811615  73.2833147  46.5154219 118.7881470  73.7279177
  59.6120977 133.5853863  56.1546516  60.4537916 133.8337517  56.5368652
  59.2050505 134.4167423  55.9109592  18.6319029 139.0038586  89.3715858
  19.0919077 138.6428452  88.6137581  18.1550765 139.7581673  89.0253353
  17.5472236   6.1184578  13.1647912  18.1957424   6.7363243  12.8273145
  18.0368328   5.3070431  13.2994214  67.5353861 125.0084400  60.4447317
  67.3351717 125.9429264  60.3910112  67.7455616 124.7564411  59.5455360
  47.0213890 131.7847443  78.2264709  46.3157558 131.1613178  78.3986759
  47.7245617 131.5204620  78.8197136  28.6991787  18.6627179  41.7704725
  28.8510466  17.8385525  41.3079309  28.0470157  19.1190892  41.2388325
  57.5365782 135.8040714  76.8211365  57.9659319 136.4256191  77.4089861
  57.2413969 135.0967789  77.3945713   9.9184883 145.1558781  15.0109017
   9.3243808 144.6836853  14.4275463  10.0175107 144.5800972  15.7691216
  46.9407845  29.4385128  64.8829937  46.8243122  29.1757946  65.7960320
  47.8818941  29.5897847  64.7954845  54.1987610 122.9484844  82.7793789
  53.8150311 123.7162399  82.3556519  54.0992355 123.1172371  83.7163162
 116.7742932   6.9228440 100.4878235 117.3025031   6.8497639 101.2827396
 116.4474518   6.0362320 100.3350925  10.8574271 136.7972183  41.7037010
  10.0217068 136.3489914  41.8336582  11.4397967 136.1219788  41.3556671
  72.5868988  23.6362248  74.0452051  71.6619253  23.8064747  74.2231655
  72.6208687  23.4562474  73.1056929  48.1449890 135.8884907  52.9039669
  48.2587957 134.9466896  53.0316162  47.2025824 136.0301781  52.9935598
  58.1047916  24.7445088  90.0063229  57.5959587  25.2235203  90.6604481
  58.0326223  23.8275128  90.2711964  38.3360600 134.1997719  63.9503908
  37.5048208 134.6703625  64.0121984  38.3094358 133.7784004  63.0913401
  19.3988705 131.8262100  73.4625530  18.8574815 132.4454498  72.9729891
  19.1923380 130.9732628  73.0803680  17.4788713 128.4994602  36.9891763
  17.2706270 128.2984734  37.9015756  18.3804655 128.1980515  36.8772912
  43.3215761 113.2719135  45.6259584  43.5132694 112.4047279  45.9829998
  43.2356024 113.1291962  44.6833706  52.8334808   5.7685356  16.7142224
  53.5551977   5.4379158  16.1793935  52.9246664   6.7206650  16.6773474
  33.9244032  14.2815380  56.3351345  33.5508633  13.7322789  55.6459188
  34.2364120  13.6606770  56.9934654  55.9829283  28.9912587  74.5011330
  55.9912157  29.1838818  75.4387093  55.4031181  29.6538334  74.1255999
  45.9118748 104.2239666  47.3601913  45.1299477 104.4686317  47.8551197
  45.8884048 103.2674408  47.3327351  82.1594429 123.6734295  74.4006014
  81.7319965 123.9294147  75.2179098  82.8671074 124.3086338  74.2912483
  20.3767467   7.3340111  52.5096464  20.4094243   6.3792115  52.5689697
  20.1840925   7.5103073  51.5887594  24.0507102 138.4424973  69.4500065
  23.9497876 139.3868637  69.3307829  23.6722279 138.2680702  70.3117228
  30.3439713 135.2351284  85.8879662  29.4449711 135.0047970  86.1224365
  30.2787209 136.1202812  85.5295181  52.4099684 112.4926567  52.3872423
  53.1833601 112.3191929  51.8505764  52.0011187 111.6348839  52.5024986
  24.3296218 114.0524387  64.7850561  25.0335336 113.4986687  64.4473076
  24.4312739 114.8811531  64.3169403  24.5850992  93.9818954  62.8393841
  23.6475039  94.0440559  63.0218220  24.8928523  93.2740879  63.4055424
  60.0258684 130.3192234  80.9277916  59.8082733 129.8420429  80.1270485
  59.2055750 130.3472424  81.4203072  61.7815542 109.9922276  61.1680698
  62.2729826 110.8135891  61.1581755  61.0077143 110.1824856  61.6983604
  41.9957352 109.8519611   3.1450406  41.6661167 109.1321754   2.6069871
  41.3466358 110.5473423   3.0385248  80.0520992  17.0138150 108.9940262
  79.5832157  16.8299847 108.1800270  80.9771919  16.9405918 108.7593269
  41.8019962  22.1034603  47.7907181  41.1081076  22.7002125  47.5103092
  42.6040268  22.6220684  47.7273464  80.4200459 138.9981365  66.9075155
  80.6149483 139.3631649  66.0443830  81.2025356 138.4973526  67.1380472
  68.9000654  14.8088436  88.1929398  68.2959318  14.9541836  87.4648380
  69.4153500  14.0468769  87.9281521  49.3279409 127.2664547  63.4294271
  48.6330032 126.9965935  62.8290367  48.8882589 127.8281212  64.0677404
  70.1177597 138.1832314  49.0010786  70.6711054 137.4024200  48.9816236
  70.3309202 138.6071968  49.8323679  41.9407749 108.6307812  75.2360344
  41.2162447 109.0123463  75.7317066  41.6371155 108.6325550  74.3282795
  46.9642162 121.6499043  58.9521360  47.4365282 121.0588455  58.3657885
  46.0555744 121.6072941  58.6541605  18.5860026 140.0997925   1.0226480
  18.5121655 139.2294502   1.4141694  18.6136973 140.6970978   1.7701093
  16.2960613 138.7599564  58.4836435  17.2531950 138.7669945  58.4924936
  16.0456347 139.3715286  59.1761065  43.3306503   1.5827828  51.6832590
  43.2055235   0.6700306  51.9430017  43.0253220   1.6178398  50.7767391
  71.1754036  33.3709507  64.5198965  71.0335350  33.3304959  63.5741329
  71.4171553  32.4775868  64.7642422  29.8011971 115.1164341  83.9235210
  30.1851940 114.4832897  84.5300770  29.2953539 114.5837975  83.3098030
  70.7506084 134.5260620  61.0913277  70.1166344 134.0789986  61.6520786
  71.3701057 133.8419533  60.8374548  89.0629387 141.4491463  83.6375046
  88.9995384 141.8256950  82.7597618  89.0163231 142.2030258  84.2254829
  25.5510902 142.5207043  31.5034699  26.2635875 143.1597996  31.5151978
  25.0867748 142.6644897  32.3280716  31.3030982 144.9850464  74.4781590
  31.3811612 145.5361748  75.2568722  31.3528466 144.0895367  74.8125458
  55.3711271 139.4740486  55.9864616  56.2005377 139.8297024  56.3055563
  55.2718782 138.6434364  56.4517307  20.0319266 116.6348171  58.8641787
  20.4009771 115.9535408  58.3021355  19.9647248 117.4028969  58.2969284
  42.6051903  16.6096859  69.8895073  43.1820726  16.6164761  69.1257095
  43.1093216  16.1581593  70.5664158  26.3171411   2.4852829  80.6165600
  25.8590198   2.4312764  79.7778416  26.4281154   1.5740948  80.8879566
  45.7730007 130.4944801  66.9976711  45.2264166 131.1563969  67.4211693
  46.6687489 130.8080864  67.1222591  14.1414964 122.7373791  71.8911695
  14.9522483 122.2585583  71.7189884  13.4468365 122.1013451  71.7204809
  64.6579170 121.5043259  48.6224604  64.2956495 120.7118416  49.0186596
  64.9719620 122.0210361  49.3644953  33.3870578 133.6374187  58.9162397
  32.5816274 133.2869148  58.5359049  33.2664728 133.5432911  59.8611403
  49.8809910 140.1262951  58.8281584  50.4551458 139.4065285  58.5663939
  49.2668152 139.7301006  59.4462585  86.6358948 132.9584980  52.5139093
  87.5526714 133.0132198  52.2441673  86.4666748 133.7897491  52.9573250
  29.1872191 138.5066795  93.1238365  28.2830739 138.4331894  92.8182983
  29.2313385 139.3694115  93.5361195   7.2590297   6.4873200  44.3910694
   7.4226826   7.3426228  44.7884417   6.3298851   6.3224964  44.5515537
  50.4789114 103.4665012  55.2217340  51.1625051 104.1049767  55.4248857
  50.9298992 102.6222324  55.2291059  45.3266001 140.4157639  46.7799902
  44.6635532 139.7272205  46.7299366  45.5582809 140.4581833  47.7077579
  24.3873000   4.2969113  45.6468821  25.3294754   4.4651013  45.6310892
  24.2301178   3.8945179  46.5010548  61.9581127 116.1405659 105.1964188
  62.7165365 116.4819050 105.6702423  61.4193678 116.9116879 105.0193787
  33.9716649 138.5466003  60.8011055  33.0328989 138.5819530  60.6175232
  34.0547991 138.8896275  61.6908550  27.9688001 122.7027416  55.3204155
  28.5727715 122.0140553  55.0426245  27.9962707 123.3455849  54.6117306
  96.0602474   0.2167969  86.7382526  95.1889324  -0.1168747  86.9520473
  95.9178734   1.1390095  86.5249920  45.8702850   7.0858746  65.0893974
  46.2321472   7.9155331  65.4007721  45.1005363   6.9389801  65.6390667
  54.1934061  29.7831898  90.7373524  53.8696241  30.3722554  91.4188099
  54.9719620  29.3789082  91.1203098  50.3010035 135.2712727  58.9671898
  49.7182369 135.0803661  59.7021484  51.1628246 135.3845024  59.3680286
  23.6154556 134.7671604  66.4494562  24.2158127 134.9720955  65.7326555
  22.9116106 134.2666912  66.0367012  86.6975975 105.7329845  60.8409834
  87.4078560 105.8391857  60.2081442  87.1079063 105.3037548  61.5917397
  10.2588630 134.8555851  58.4068584   9.4707155 134.8526382  58.9500427
  10.9440315 135.1981449  58.9808178  65.7056046 127.3236942  68.8246965
  65.5402946 126.5409470  68.2991457  65.5997324 128.0508232  68.2112551
  21.7330670 144.6653080  38.3183980  21.9228554 144.0103722  37.6466346
  20.9438658 144.3413830  38.7525249  14.4394505 125.4869556  37.1984673
  14.7271967 125.3823662  38.1053829  14.8674190 124.7719669  36.7274356
  19.1853464 132.8630161  43.5950041  19.6929371 133.5603619  44.0100861
  18.7606144 132.4098778  44.3233538  17.3278356  28.0440502  40.8574724
  17.1086657  28.6725216  40.1695633  17.3738873  27.2012310  40.4060698
  14.0557051  14.5384960  76.3401794  14.8757899  14.2204075  76.7176867
  13.5477531  14.8424130  77.0924187  70.8099651  23.1816845  45.2653599
  70.2245903  23.7065869  44.7194433  71.6717672  23.2867604  44.8622608
  27.4259782 123.2070827  62.2324133  28.2317924 123.5664177  62.6035976
  27.7104521 122.7466774  61.4428997   6.2597686  12.2163468  78.6106110
   6.0937274  11.2828236  78.4795332   6.3357538  12.3151570  79.5596600
  35.7686758  22.3501568  14.9849212  35.0031662  22.6393299  14.4883227
  36.0611343  23.1330281  15.4516256  25.6939149  21.1350422  70.3543091
  26.2665749  21.1644345  71.1207485  26.1597347  20.5805378  69.7283983
  19.5736480   3.2575016  43.0062771  20.4149747   3.6351185  42.7497578
  19.1373003   3.9549332  43.4955788  42.7647305 132.0918846  72.3277950
  42.4482298 131.2312794  72.6024294  43.5978270 131.9127560  71.8917990
  30.4728103 111.9105530  78.9581394  31.0531330 111.8583775  79.7175694
  29.6751785 111.4594555  79.2347765  33.4795737 142.3515606  78.3073378
  33.5148048 141.8436241  79.1178942  33.7076211 143.2424641  78.5728693
  53.4700680 105.4601288  43.7471962  53.6626196 105.2979946  44.6707058
  53.2628345 106.3937283  43.7060642  21.9674873 135.8192253  50.6240463
  22.7648830 135.3217983  50.4424953  22.0469928 136.0718441  51.5438747
  35.4925632  32.4575024  80.6363010  35.3263211  31.9957714  79.8144770
  34.6342802  32.7855473  80.9045792  66.6461992 133.3457851  88.4135246
  67.1521616 134.1305447  88.6242294  67.2472191 132.6204777  88.5836124
  49.5080948  19.4419651  86.4716911  50.0219631  19.9545651  87.0957184
  49.0909576  20.0958233  85.9107018  27.7883267 137.9434681  61.5271854
  27.5666428 137.1005535  61.1314726  28.6731696 137.8212452  61.8711948
  30.5919433  25.0429516  54.0802002  30.9994340  24.2272740  53.7889004
  29.7863674  24.7657185  54.5165825  69.9955988 101.2720585  33.6645818
  69.9781418 101.0335445  34.5914245  70.4123449 100.5261326  33.2331228
  46.4984274  18.9229946  84.2522430  45.7203817  19.3428402  84.6191311
  46.8729925  19.5819264  83.6676598  47.2878647 128.6900234  33.1755447
  46.7750931 129.3419838  32.6977992  46.7902327 127.8778172  33.0811501
  50.6395531   7.4660187  67.9857683  51.2837601   8.1389122  67.7656698
  50.5218077   7.5476055  68.9321852  34.2913580 123.4041977  77.9493856
  33.9829230 123.1261635  77.0869493  34.6916366 122.6199627  78.3248806
  76.1329222  97.5912762  88.5472679  76.5602350  98.1005096  87.8585625
  76.3354874  96.6807270  88.3325672  43.3752871  91.7052650  71.0625696
  43.1680679  90.7868099  70.8901787  43.3180904  92.1285725  70.2059650
  36.9836497   6.8523293  40.0043249  36.5908051   7.6979904  40.2205896
  36.6839457   6.2646370  40.6978798  18.4178197 124.0602779  33.0310249
  17.8016973 123.5210514  32.5351810  18.0354738 124.9376392  33.0143619
  44.6073294   0.5116825  61.1412477  45.2119541   0.1277237  60.5062437
  44.8270512   0.0850563  61.9694614   3.4274641 102.2126484  73.1907272
   3.7714863 102.7302074  72.4627066   2.9870450 102.8512383  73.7514973
  86.8041611   6.8774777  41.1285353  86.5799809   6.2396698  40.4509020
  86.0137558   6.9457226  41.6641045  38.1649590 110.9204483  71.1906385
  37.2605085 111.2338161  71.1909866  38.6746716 111.6596317  71.5223646
   9.4401181   7.1678620  72.8706789   9.5694000   7.0380478  73.8101816
  10.0083780   7.9059677  72.6504421  25.5804038  15.9358006  60.8238840
  24.8553371  15.3151493  60.8966589  25.1646662  16.7966061  60.8728743
  58.7598991 111.8373203  60.1018143  58.1167841 112.2314930  59.5125246
  59.6064997 112.1201038  59.7560883  46.1240768   3.1809883  53.8334513
  46.7342710   3.5340386  53.1859541  46.6329002   2.5243454  54.3090010
  28.6665940 131.4742565  74.7920942  27.7320361 131.4319897  74.9946880
  28.7722206 132.3002243  74.3200302  21.1201048 125.6371117  46.4818668
  21.7609477 126.0903072  47.0297384  21.3710570 125.8600616  45.5854559
  61.2370539 132.7835655  81.2672901  60.3583002 132.4043179  81.2814522
  61.6005707 132.5142670  80.4237461  47.4908876  41.3305073  86.8034744
  47.5664997  40.3770428  86.8410492  47.5754309  41.6135388  87.7139473
  56.3855410   6.6607266  50.9230328  56.7638493   5.8578759  51.2815619
  56.9864845   6.9170456  50.2234650  62.4616814 119.4084454  34.8048878
  63.2430553 119.0491390  35.2251101  61.8148518 119.4626236  35.5083847
  53.5651398   1.6717606  58.7186670  52.6582336   1.4232903  58.5397530
  53.9981365   1.6279106  57.8661251  48.0222178  28.5865956  72.9924583
  48.3189440  27.7218228  73.2758904  47.1815872  28.7079411  73.4338760
  54.9465847   2.0274525  56.4012384  55.8884096   2.0431214  56.5714073
  54.8763466   1.9566231  55.4492474  95.0603867 143.9526653 104.6241570
  95.7759094 144.2382431 105.1922226  94.8639011 143.0623531 104.9156380
  27.8494287  21.1197071  31.9436932  27.2406697  21.8543606  32.0207500
  28.6690402  21.4480381  32.3133874  77.4858189 135.0450802  50.5514479
  78.2430649 134.5507622  50.2376604  77.2061729 134.5799637  51.3399267
  72.0204782 138.7750435  68.1360102  72.0233774 138.3558083  68.9965153
  72.8666878 138.5428238  67.7535963  82.5588512  10.3033619  10.3867757
  81.6968822  10.6999951  10.5129850  82.9191399  10.7517701   9.6216917
  20.6701946 123.8964462  40.0533295  21.3373542 124.2733479  40.6269789
  20.0665903 124.6190548  39.8809004  33.5355520   9.7406655  53.2199812
  33.1332064   8.8896637  53.0463505  33.0511522  10.3522377  52.6654005
  63.7490368 111.9768238  37.9952502  63.0714750 112.5127506  38.4074736
  63.3944893 111.7649937  37.1317339  51.6449594 141.0544205  69.6544838
  51.6263247 140.4487324  68.9135265  52.5362635 140.9866714  69.9968624
  50.8888674  12.4507885  56.4902925  50.0593710  12.9126530  56.6121244
  50.7754612  11.9664650  55.6724834  20.4656839  16.8078404  69.8499632
  20.9635997  17.3615246  70.4514122  20.2623415  17.3802357  69.1101885
  56.6930580  95.6194019  43.9173746  57.0604467  94.9177933  43.3797932
  56.1387396  95.1681042  44.5540094  50.6521368  31.8939762  90.2079391
  50.6592512  31.3656407  89.4097900  49.9844885  31.4859753  90.7593155
  27.6043415 131.7472267  60.4779387  27.3951554 131.0557938  61.1059427
  28.5590267 131.7291546  60.4109812  48.0008984   4.1549855   8.5406057
  47.8419733   3.9798241   7.6130811  47.3712969   4.8397332   8.7663499
  65.6483030  10.3569680  66.0112858  66.5519619  10.0483303  65.9451675
  65.7210732  11.2304383  66.3959694  53.3088970   4.1058617  67.5722456
  52.6608610   3.4231549  67.3984671  53.0163479   4.8524361  67.0494843
  81.6014290 118.6283970  74.9720383  81.7104149 119.3876171  75.5447054
  81.9047356 117.8873158  75.4964733  40.0763226  50.2615910   7.9052788
  39.7219801  50.3366642   7.0192564  39.5844126  49.5413952   8.2997316
  56.7755699 112.7029228  88.0130196  57.6825857 112.4102879  87.9240513
  56.7086840 113.0035114  88.9193249  46.3132238  17.9947262  53.9470720
  46.0934925  18.6953526  53.3330250  46.8889999  17.4130612  53.4507084
  50.9031153 123.7374878  89.0896130  51.5976667 124.3713856  89.2685318
  50.1161957 124.1318989  89.4656849  64.8326445 128.6513519  60.9876633
  64.5946980 129.3686104  61.5751696  63.9985752 128.3501625  60.6273317
  54.6042824 112.3610210  66.1208820  54.5327520 112.9526043  66.8699741
  55.4440260 111.9185352  66.2444639  35.3121710 121.6765785  48.7160969
  35.4705954 122.3484325  49.3792248  35.9023356 120.9614658  48.9539051
  54.3510818  25.9141140  69.0494919  54.7223663  26.6491680  68.5615396
  54.9034500  25.1681118  68.8158560  66.3346004  12.8073960  60.6549978
  66.6219282  13.7199955  60.6260252  67.0839262  12.3098545  60.3275776
   7.1381462 140.7074738  46.2807894   7.6101446 141.3447762  46.8167973
   7.3271716 139.8632431  46.6903925  59.0028524 142.3668098  55.3081226
  58.4501076 142.1363449  54.5614052  58.3870268 142.6534748  55.9825277
  23.4680128 142.9942703 102.6106930  23.1823444 142.0905209 102.4769974
  23.8590503 143.2480145 101.7746735  36.2361908 127.4676609  52.0910358
  35.4263043 127.3090744  52.5759745  36.0185361 128.1775188  51.4869118
  64.2292547 136.7028522  45.8776045  63.4382153 136.2470818  46.1652851
  64.3911028 137.3551655  46.5591669  76.2872458 129.6699238  66.6635561
  75.8309650 130.3164482  67.2021198  75.6782722 128.9336967  66.6057348
  64.2560339 110.9546185  56.0549545  64.7212648 111.5758228  56.6152096
  64.9407101 110.5597687  55.5150032  31.0362720 117.9534721  46.3915920
  30.8782172 117.0219803  46.5451479  31.5395451 117.9800415  45.5778074
  55.8803129 121.0508823  30.4555178  55.7072592 120.1768017  30.8051729
  55.7222891 120.9682560  29.5150757  65.1115751 131.1935997  80.1108074
  65.0284290 131.8416405  80.8103466  65.0624847 131.7052078  79.3032885
  37.0551109 130.8838940  89.6188450  36.6237330 131.4871979  90.2239704
  37.5140762 130.2637577  90.1854324  60.5122042 126.9458389  36.3901353
  61.3834333 126.6892052  36.6923451  60.4946041 127.8975964  36.4904737
  36.8965888 139.4748878  91.3564110  36.4747143 138.6614418  91.0797405
  36.2506175 139.8998260  91.9206715  58.6374092   0.8835774  45.7204247
  57.9620695   0.9890156  46.3905191  58.1514072   0.6884842  44.9191904
  57.0979166 117.8185558  43.2514715  56.3351536 118.3748341  43.4094858
  57.6078987 118.2923317  42.5944424  17.6178432  22.4670391  39.3627572
  16.9226336  21.8155651  39.2705226  18.3045566  22.0165234  39.8543811
 122.9785517 123.3794498  65.6792116 123.0978838 122.4816799  65.9890509
 122.5837893 123.2832336  64.8125315  61.9233179 122.0128059  62.2548294
  61.4388609 122.8193569  62.4309254  62.0419693 122.0071888  61.3050318
  10.2174425  14.0636616  50.8110476  10.1992118  14.7685032  50.1636887
   9.8693866  14.4620495  51.6087770  46.9114208  94.9403572  43.9773798
  47.7789402  95.3360748  44.0613985  46.4957905  95.4237938  43.2633877
  63.8511562 136.9840431  36.2602496  63.0691957 137.1254063  35.7265997
  63.9249277 137.7767086  36.7917323  42.8999186 117.2437096  35.1121283
  42.9701233 117.0192814  34.1842604  42.0609808 116.8726444  35.3854847
 116.9850416   2.3773556  61.4985991 117.0802385   2.3868637  62.4510098
 117.5391025   1.6522198  61.2097454  38.3223534  21.1557560 101.5003967
  37.9428482  21.4774685 100.6826496  38.4458518  21.9416981 102.0326424
  19.0642202  56.6987782  19.8641217  19.8661470  57.1557026  20.1178217
  18.6187124  57.3065930  19.2739475  48.4839106 116.2567139  65.7865381
  48.1622028 115.8940697  66.6119003  48.7063217 117.1642590  65.9942198
  52.8325415 135.7715988   5.0850717  52.2642803 135.8100128   4.3157617
  53.7194777 135.8376884   4.7312204  43.7740183 145.5047607  36.7212677
  43.5315943 146.1291790  37.4050474  43.0751657 144.8508167  36.7353940
  37.1104145 105.0318909  34.2187452  38.0222034 105.3113556  34.1364288
  37.0310116 104.2929173  33.6155510  35.5248094 119.2076683  21.2237239
  36.2601709 119.2744732  21.8328309  35.5327702 120.0375080  20.7467127
  68.5716534   2.1415215  39.6610117  68.1165266   2.9679947  39.8223734
  67.8705502   1.5071946  39.5116425  56.7016649 101.2748623  32.3133254
  55.8733559 101.6213799  32.6450753  56.9654036 100.6224632  32.9622078
  49.1680384 145.5530834  82.4862957  48.6696863 145.2762318  83.2552147
  49.9575233 145.9578896  82.8455734  25.3784871   4.9061947  55.0217676
  25.4680705   5.7236080  55.5117130  24.6558118   5.0683670  54.4154072
  20.1864219 137.3655796  28.2337737  20.9393454 137.8185749  27.8541303
  19.6287668 138.0675030  28.5692549  25.8906627 113.2944965  25.7880998
  25.4483175 113.7049866  26.5311027  25.2207828 113.2489681  25.1058793
  29.9198198 141.0408306  14.1482210  29.0458703 140.6507683  14.1654122
  29.7868752 141.9097710  13.7693977  82.4680996  15.5039387  76.6365194
  82.9571438  15.8980923  77.3588181  82.1994781  14.6472721  76.9684601
  47.5580120 126.3794231  12.2641349  47.1971703 127.1156788  12.7580452
  48.1187773 126.7860413  11.6035056  14.5014536  32.0455532  60.6091213
  13.8828993  32.4573117  61.2125063  15.0152898  32.7733975  60.2592134
  43.6620045  20.6766301  75.3056240  43.8633108  19.8483067  75.7410336
  43.3387375  21.2431126  76.0062170  53.1925106   0.3132134 107.0541179
  53.4515715   1.1217957 107.4960633  53.1151390  -0.3304500 107.7583539
  63.4737873   8.1827240  37.8953099  64.0633345   7.4290829  37.8688526
  64.0501976   8.9326935  38.0420303  74.5880318   3.8749771  46.5140629
  74.4350719   4.8106747  46.3825512  75.2439737   3.8350087  47.2100353
  35.4227424 130.1572227  79.8654604  35.8736205 130.4891968  80.6418228
  35.5726576 130.8259201  79.1971731  73.4837198 126.0987091  32.7315760
  72.5299358 126.1464024  32.6663780  73.7174129 126.7986202  33.3412838
  71.9788837 137.1787834  73.4697294  72.2911167 136.2774658  73.5495710
  72.7737808 137.6976013  73.3464432  68.3978462   6.9161492  46.0513639
  67.7959728   6.2683468  46.4178801  69.2416239   6.4656334  46.0151863
  65.7514620  31.0198002   6.9003367  65.2935982  31.1010914   7.7369869
  66.1260033  31.8872242   6.7469972  38.1523371 134.9778366  38.1858993
  38.2212567 135.9058666  38.4100223  37.9731822 134.9711704  37.2456384
  83.8450146 114.0961933  46.7783594  84.0411186 114.0677261  47.7148199
  82.9007721 114.2473030  46.7358685  48.5026073 137.5870800  46.0673380
  47.7260828 137.9419613  46.5001154  48.2925367 137.6195526  45.1340389
  38.8199019 142.6868343   8.1316632  38.2201934 142.4248695   7.4331230
  39.6920061 142.5721836   7.7541459  55.7992983 115.5574417  43.6203194
  56.3575077 116.3177013  43.4570789  54.9664783 115.9296513  43.9103270
  14.6810186 129.5466423  10.1992083  15.3370011 129.9148560   9.6073198
  14.9820411 128.6531258  10.3643036  54.2534924  23.7503224  81.4476299
  54.3770361  24.6470433  81.7588520  53.9281178  23.8500004  80.5529594
  80.6217957  25.0021916  52.0260239  79.9578285  24.6985035  52.6450205
  80.1451683  25.5754261  51.4256382  76.3304567 109.7787952  11.3990939
  76.0919619 110.0525570  10.5134249  76.7094374 110.5620480  11.7979968
  68.8723373  18.8492184  75.1109314  68.3454990  18.4964161  75.8280039
  68.2577038  19.3736439  74.5976686  14.4259739 114.7720051  72.6672268
  15.2984238 115.1256275  72.8404665  14.2826641 114.9340439  71.7347908
  24.4301844 134.3942547  49.9090815  24.3345046 133.7987995  50.6523895
  24.7744513 133.8448811  49.2048740  58.4002638 144.0411949  64.0527534
  58.0658770 144.4706345  64.8401499  59.0208626 143.3901501  64.3802166
  36.4952874   1.2554531  70.5621195  36.9759774   0.4323654  70.6498146
  36.2552452   1.4893322  71.4587307  51.0796642 128.4493351  13.5261321
  50.4094267 128.6082840  12.8614914  51.7156458 127.8796196  13.0934882
   7.3533750   1.4883118  23.0907893   8.0907762   0.8802777  23.1433678
   6.6515851   0.9791928  22.6851845  31.3166571  24.1798764  13.2726026
  32.2627115  24.3231564  13.2988274  30.9977627  24.5334034  14.1029954
   7.9820007 130.4569054  37.0253611   8.5705447 131.0650826  36.5781784
   7.1314669 130.5970192  36.6091967  53.1848145 123.0891418  75.2554274
  54.1142464 122.9621696  75.0649786  53.1334305 123.9730263  75.6191969
  51.8425512 142.3143291  56.6798496  52.0814419 141.7658710  57.4270868
  51.5851402 141.6926670  55.9990406  26.2778592 130.6302166  65.9040356
  27.1637917 130.6583977  66.2653732  26.1166739 129.7015572  65.7371807
  45.4411554 131.0425663  74.6786165  44.9942207 130.2820873  74.3069267
  44.7530651 131.5238571  75.1380873  63.3061457 122.9810715  52.0006418
  63.1681871 122.0371056  52.0789003  62.6264095 123.3689785  52.5517559
   1.4836118 109.4944763  53.4187508   1.0221019 110.3304482  53.4850073
   0.8215366 108.8797951  53.1024361  55.0386620 108.3042908  34.0819430
  54.1991997 108.5273457  34.4841623  55.6036282 109.0521145  34.2763782
  55.5920935 135.3059769  43.9986229  54.7359085 135.1771355  43.5904789
  55.5542183 134.7886467  44.8030901  44.6515465 132.3724461  28.1275892
  45.2152300 131.6148472  27.9709506  44.2879772 132.2240639  29.0005326
  11.6658592 145.0199795  69.1890669  11.3429081 144.1480827  69.4165039
  11.6338575 145.0453186  68.2327366  52.1178484  18.2096081  27.8101134
  52.6769829  18.3724385  27.0504522  52.5958347  17.5588971  28.3242393
  56.9634771 135.6311321  52.6641750  57.5883627 134.9363422  52.8715658
  56.1287117 135.1765823  52.5511026  50.3000975 121.0154438  47.3556471
  50.1987123 121.4839554  46.5271235  50.6899691 121.6582489  47.9481316
  61.2498188  19.9012165  44.7361040  61.5913391  19.1242581  44.2934322
  61.1997700  19.6489697  45.6581163  31.4994502  13.5747509  47.6105261
  30.9948254  14.3038349  47.2499466  31.3234234  13.6035710  48.5509586
   3.5859266  10.0615959  47.5368595   3.3912897  10.3492432  48.4288263
   2.9215765   9.3986969  47.3486328  55.9910631 129.9663067  33.4992075
  56.0836267 130.8173847  33.0710292  55.6298351 130.1702213  34.3618584
  49.1104269 128.0923653  46.3344526  49.4217777 127.1965981  46.2044954
  48.3191013 128.1509209  45.7990932  36.1829996 138.4808731  52.9978704
  36.3315535 137.7630138  52.3823595  35.9252429 138.0487156  53.8121414
 121.8018446 138.0034447   5.9788221 121.4293272 137.8359985   5.1131284
 121.9655514 137.1329117   6.3415879 123.5405906 108.3304214  55.8802366
 124.2225448 107.7392864  55.5612850 123.8659826 109.2061424  55.6717348
  39.9075031 125.6216526  29.3361187  39.0689278 126.0675907  29.4551444
  40.3775358 125.7725430  30.1561999  60.4600763 144.8845673  45.6184673
  59.9973440 144.0492344  45.5526590  60.5449772 145.0378513  46.5594912
  41.4441252  29.0373020  55.5305243  40.5281353  29.3151265  55.5337191
  41.5841103  28.6837368  54.6521044  69.4361258 124.9580765  30.0833154
  69.1737032 125.0620842  29.1686845  70.2020645 124.3850231  30.0490546
  32.0102668   6.7903214  50.6894636  32.9551029   6.7272644  50.5496788
  31.9177294   6.9621735  51.6265535  45.4832602   3.2937985  58.3094883
  44.9984646   2.4714356  58.2393551  45.3197193   3.5927086  59.2039919
  45.2042818 109.7700024  49.2007446  45.3891039 110.4679394  48.5722876
  45.6437349 109.0000725  48.8397360  24.8676515  20.0822239  53.0567932
  25.4255295  20.6279927  53.6109781  25.4259896  19.8424321  52.3172045
  49.3262720  78.0711508  84.9677753  48.4842253  77.7017021  84.7018719
  49.4416237  78.8352966  84.4029617  50.0710821 133.6341286  51.1544943
  50.5150127 133.6293030  52.0025110  49.2290497 133.2110691  51.3225365
  51.8203688  12.9743843  50.9661293  51.4194107  12.9125195  50.0991631
  52.2977495  12.1510678  51.0685396  20.1324725 130.3038502  29.6658993
  19.6002591 131.0795689  29.4891453  19.6772742 129.5931149  29.2143726
  81.9042587 129.3509388   3.4126052  82.4731255 130.0317860   3.7718877
  82.0708656 129.3722916   2.4702570  12.2956967 142.1414471  64.9647570
  11.9202995 142.3485947  64.1089535  12.8863835 141.4074135  64.7958708
  48.5019112 109.0333652  31.9599795  47.9978800 108.9243126  32.7663875
  47.8429890 109.2034817  31.2868404  49.1450548   4.0638428  18.6473620
  49.1213131   4.6117192  19.4319022  48.2295752   3.8344746  18.4876108
  72.1047449   3.4375363  61.5452528  71.1867476   3.6052780  61.7582560
  72.1349669   2.5044327  61.3340044  34.4838762  18.9185124  19.1549838
  33.7887073  18.8146954  18.5052180  34.3727684  18.1735592  19.7457016
  35.3550863  20.1720410  16.2990713  35.6229711  20.9070378  15.7474804
  34.4165254  20.0794392  16.1354899  20.7474685 141.6411877  60.5199432
  21.5921164 141.2165737  60.6699562  20.9476805 142.3733234  59.9367428
  64.1452980 139.2181015  38.5317850  64.5521641 138.3807468  38.7543297
  63.2456923 139.1391182  38.8491273  37.8123045   0.8991318  41.9228601
  37.3104739   0.1485043  41.6051245  37.2212768   1.3419133  42.5318432
  18.8069749   8.2449608  45.9690619  19.2944860   8.4036427  46.7773867
  18.5633206   7.3203736  46.0138988  53.1375456 108.4247780  38.4045434
  53.0522680 108.2084560  39.3330717  53.3310175 109.3621635  38.3937955
  50.0898981 125.3236771  77.0868206  50.3874493 124.5590401  77.5797987
  50.7910919 125.4902363  76.4568901  76.4869881   5.0075226  68.4274387
  76.7814589   5.3121548  69.2857599  76.5384674   5.7822972  67.8676987
  66.0448170 122.8252316  37.0647860  65.1174641 122.9291916  36.8516326
  66.3684940 122.1925259  36.4235783  33.7664175 127.6559925  81.9594955
  34.5179582 127.3352528  82.4580383  33.8331604 128.6093998  82.0124054
  19.0080321  18.9776974 101.7816067  18.8100755  18.3194905 101.1154079
  18.3161068  18.8730793 102.4347019  50.1085472 133.0380917   3.2862252
  49.3551874 132.7541065   3.8039437  50.8259630 133.0930710   3.9175090
  23.3661294 114.4239330  47.9137516  23.5789466 113.6227226  48.3922911
  23.1458020 115.0587177  48.5954666  63.2131863 142.8634262  56.7823505
  63.5833216 142.9827213  55.9077072  63.8342905 143.2982731  57.3666191
  59.4378853   7.0970803  22.0878363  60.1633358   7.5914078  22.4694109
  59.3866920   7.4065190  21.1834788  43.5091829 127.0435143  36.6319346
  44.1018486 126.3000774  36.7428255  42.7754927 126.8542385  37.2168303
  34.9226189  17.2860318  93.5352325  35.5616260  17.9807453  93.3762836
  34.9554133  16.7452984  92.7460766  72.5757170 136.3695908  39.9315071
  72.9106379 136.7072773  39.1008258  72.8603935 135.4559135  39.9508500
  36.5690088 124.8967171  33.3154154  36.8515754 125.1740742  34.1868854
  35.6184077 125.0085258  33.3249807 121.1891935 141.9601536  20.7180977
 120.7727442 141.9944763  19.8569226 121.2044976 142.8705978  21.0132074
  23.7963200 131.2429810  26.5801096  23.7948847 131.0412788  25.6444025
  24.7042966 131.1100483  26.8523884  59.1351271 116.6588974  67.5668287
  58.9788771 116.8610668  68.4892988  58.6097240 115.8761883  67.4008417
  26.4912152   4.2446595  32.6554132  26.7568350   5.0084954  32.1433234
  26.7774653   3.4950714  32.1334910  53.6941957 129.3671131  32.0533228
  54.5335197 129.4803619  32.4993467  53.3100414 128.5901451  32.4594951
  81.5944099   5.1495438  43.5140371  81.6576672   5.7095223  42.7403069
  82.4995899   4.9064141  43.7083817  51.6226578 105.3794765  39.3377066
  52.2017336 105.4822063  38.5824943  51.4089346 104.4465256  39.3504953
  59.7877979 106.7832088  37.4386692  59.9061203 106.8656540  36.4923954
  60.6746483 106.6758823  37.7824879  25.0770783 119.0761089  24.1799402
  25.9305787 119.4711113  24.3581176  24.5324898 119.8057270  23.8844466
  88.5698700   0.4292469  81.6866398  88.4820938   1.3646393  81.8698692
  88.2388401  -0.0013179  82.4748421   7.0864850 138.7400532  41.2449121
   6.8448812 139.1134071  40.3972912   6.9785845 137.7958870  41.1302614
  22.9268241 133.0193806  45.4383516  22.2269392 133.6659241  45.3468370
  23.3623767 133.0156231  44.5859957  50.4325581  22.8232746  26.3763690
  50.2319193  22.5352459  27.2668839  50.8375931  23.6832981  26.4883447
  15.0454092  99.2210293  92.7580929  15.3481352 100.0990200  92.5263023
  15.5241394  98.6390305  92.1679020  44.9968624  32.6575260  10.3961444
  44.2080164  32.9749661   9.9566203  45.3198862  33.4145718  10.8847833
  78.2131195 142.0278168  61.3795185  77.9223585 142.2161293  62.2718382
  77.6139688 141.3481617  61.0707903  39.5029640 113.0438423  60.1613235
  39.2319751 112.1282387  60.2280855  39.7387528 113.2896805  61.0558605
  20.7676435 131.1608124  18.6449409  20.8594418 130.8693123  17.7378392
  21.4432859 131.8305302  18.7508416  50.4960442  11.6986733  48.8238144
  50.6275320  11.5770417  47.8835201  50.0046062  10.9247380  49.0990257
  60.1063204  99.2906666  23.8129139  59.6067476 100.0988197  23.6965561
  59.6283340  98.8086796  24.4877839  32.9761958 128.8711452  39.6206307
  33.8036489 128.4617615  39.8735380  32.3483109 128.5668850  40.2759314
  52.4455500 143.6700344  50.5911684  52.4940157 143.6614323  51.5471029
  53.0615997 144.3530655  50.3262520  37.9208422 139.0418911  60.5362940
  37.8025627 139.8399925  61.0513401  38.8417530 139.0592194  60.2758026
  53.0308008 109.0713882  68.3766508  53.6708212 109.5434189  67.8439188
  52.9776430 108.2042503  67.9748106  59.1624069 102.3407173  28.3637333
  60.0626707 102.6513100  28.2673526  59.0734768 101.6549683  27.7018714
 122.1462015  98.9471340  45.3517246 121.8515689  99.5559311  46.0290670
 121.5793366  98.1826210  45.4538155  33.5439491 144.4852829  86.4503288
  32.9592633 145.0823402  86.9171238  33.4961295 144.7683811  85.5372047
  20.0322247 128.4169960  15.1761234  19.9699807 128.0721474  16.0668755
  20.9672880 128.5740376  15.0448823  53.2881260  12.7807598  45.3976583
  53.3524895  13.2892208  44.5892286  53.0582666  11.8979626  45.1077080
  33.5314941 120.5076599  17.2616267  33.5498428 121.0663795  18.0386233
  32.6700616 120.0910664  17.2864747  38.3307004 142.1187210  17.3447776
  39.1656137 141.6920757  17.5374484  38.1529665 142.6566792  18.1163025
  12.3278463 120.9720230   2.3241115  12.6999378 120.1060677   2.1571091
  12.2878766 121.3858700   1.4619252  80.1255989   0.2584629  40.5879354
  80.7392406  -0.0032062  39.9014950  80.1055336   1.2142353  40.5396461
  43.9504433 133.6812305  96.2631893  43.7902212 133.9500332  95.3585815
  44.7144842 133.1070232  96.2106800  11.0796034 127.6527691  49.7259188
  10.4886186 128.3169365  50.0806665  10.6524849 126.8200970  49.9270630
  43.8241673 124.9875641  67.1037436  43.5167265 124.6285057  67.9360819
  43.3191442 125.7925606  66.9890308  58.1794405 114.1782379  44.0250492
  58.0220413 113.5538578  44.7332907  57.3342085 114.6072292  43.8916969
  34.0642619 130.1048183  31.3555694  33.7802148 130.6183147  30.5993509
  34.3642807 129.2756939  30.9830427  28.4247303  43.9006787  16.0264349
  29.0905833  43.6865788  16.6799128  27.5934529  43.8047963  16.4912128
  67.3281765 135.7694149  32.4327159  66.7782640 136.2398148  33.0592537
  67.7236843 135.0634289  32.9439807  27.3377228  63.4152584  29.0571046
  26.4724779  63.0331211  28.9103079  27.1672797  64.3462925  29.1998243
  17.3808479 143.4766674  45.4626846  18.3046317 143.7165165  45.3896904
  16.9503653 144.2732811  45.7730436  63.7476587 121.2413120  68.1476164
  63.9261580 120.5021477  68.7290049  62.8136635 121.4163971  68.2626390
  24.3798375  17.5990086  43.7483406  23.6908937  17.2084980  44.2860126
  24.4276285  18.5082798  44.0435743 120.0934756   6.5657978  62.1836853
 120.4103050   7.4687748  62.1620321 119.2420495   6.6001873  61.7476559
  49.0911150 136.6298580   1.4572763  49.4915247 137.3416042   0.9579524
  48.4818840 136.2197781   0.8433473  30.5124784   2.9427414  62.6994276
  30.2387571   2.3627930  61.9888115  30.5783534   3.8063412  62.2918797
  26.6940641   0.8866196  58.7156868  26.2090015   0.0614243  58.7137747
  26.3014698   1.3935738  59.4263887  52.0626497 135.8609390  19.9221385
  52.9448366 135.7255554  19.5762324  52.1237183 135.6025887  20.8417869
  51.1206007   8.9378434  21.8748260  50.3720331   8.7803917  21.2994266
  51.8814993   8.6824112  21.3532686  49.2049265   2.8774243  49.6166754
  49.8086262   2.3694496  50.1586533  49.2294407   2.4463921  48.7623692
  37.2333598 125.9429932  21.1264777  36.2975526 125.9032822  21.3237619
  37.4226308 125.1100445  20.6945062  59.3239212  14.4283848  39.2146826
  59.6959257  13.8752346  38.5277462  58.5439634  14.8138981  38.8156056
  33.5155225 133.2228470  33.6476803  32.8574133 133.4114456  34.3166757
  34.1359949 132.6365185  34.0806508  -0.0305165  12.0969467  31.1005950
   0.6945982  11.6370278  31.5235853   0.3169653  12.9683190  30.9103608
  36.8774199 140.8683205  54.0740347  36.0676622 141.2916756  54.3591547
  36.5861320 140.1295471  53.5396290  64.3726826 112.8907108  11.2388885
  63.5666895 112.8501892  11.7536342  64.8921824 113.5750580  11.6608167
  47.6371336 121.2361336  28.1642962  47.3672533 121.4959335  29.0451503
  47.0070648 121.6642952  27.5847030  73.4795523  10.8197098  74.4374704
  73.3616304  11.5654927  73.8491488  73.4862852  11.2046795  75.3138161
  27.2839499  13.2104187   9.1134119  26.9027352  12.9837494   8.2651627
  27.8017950  13.9967327   8.9408410  43.4793234 135.0846195  37.8833127
  44.0746927 134.7583389  38.5580754  42.6238632 134.7313881  38.1275487
  30.5165839 135.5820274  20.6646371  31.3513970 135.4357433  20.2197576
  30.4671836 134.8833179  21.3170123  51.1847544 134.2241383  37.0834994
  50.5009127 133.7366867  36.6241693  51.5693331 134.7876263  36.4120793
  41.0315800 133.3872604  64.5820856  41.0988188 133.3574677  65.5364561
  40.1702404 133.7696743  64.4144917  46.4136028  10.2948456  36.1763120
  46.7423344  10.5542927  37.0370412  46.8067741  10.9230023  35.5704522
  35.7606173  16.1145382  28.0702567  34.8736048  16.2664967  27.7441502
  35.9906483  15.2451306  27.7424622  20.9663415 113.1387615  45.3421021
  20.0757861 113.3305359  45.0482225  21.1041951 113.7243462  46.0866213
  79.4595432   2.3886376  12.2904217  79.9866199   1.6542797  11.9755650
  79.6283150   3.0911618  11.6625547  45.3227711 131.7956161  42.9487133
  46.0055876 132.1722031  43.5038519  45.7798481 131.5384674  42.1479750
  41.3656807 141.2931824  72.1072674  41.8889904 140.4935932  72.1622801
  40.4601812 140.9848595  72.0720720  40.2147675  17.0904713  27.1554971
  40.3400564  17.3940831  26.2564087  40.4130077  16.1546307  27.1221018
  74.6902704   8.4845047  38.3974695  74.3732119   9.3834572  38.3103943
  75.6037378   8.5242157  38.1142116  46.8805504 131.8381214  56.2626934
  46.1940956 131.1965275  56.4453602  47.6115179 131.5721989  56.8205500
  56.5152073 103.6958981  40.5024862  56.3172054 104.4195557  41.0969114
  57.2943211 103.9832878  40.0264454  28.7748837   5.6706410  44.1408825
  27.9551673   5.6819992  44.6350145  29.4571495   5.6155758  44.8099947
  24.4201040 123.2972240  99.7813988  24.2203116 122.4613285 100.2028179
  24.9814701 123.7533760 100.4083157  13.3625436  13.1530552  45.5341196
  14.1348553  13.5476666  45.9391403  13.0086076  12.5729161  46.2082100
  27.9376864 126.9932938  81.5889931  27.4558806 127.2830868  80.8143234
  27.3159862 127.0950413  82.3096657  66.8816185 123.8561153  32.3923540
  65.9376335 123.7610912  32.5192261  67.0665407 123.3638287  31.5925455
  28.7370324 140.3410339  20.3782749  28.0818439 140.9867573  20.6428456
  29.0403628 140.6443691  19.5225811 105.9274644 143.1268692  43.7971497
 105.5312819 143.8027287  44.3471384 106.8010408 142.9988575  44.1668940
   3.9496261 139.6249962  60.8733988   3.9284298 138.7150478  60.5771589
   3.0317283 139.8478699  61.0284042  67.6029682 122.2666931  50.6600475
  68.1995392 122.3042965  51.4076567  68.0931473 122.6673031  49.9420881
  74.3396664 120.5429649  12.7204573  74.5922899 121.3285351  13.2055187
  73.4398079 120.3697395  12.9970121  83.8855362 129.2361736  34.5939231
  83.2998943 129.4347477  35.3245521  83.5553360 129.7691059  33.8706112
  38.5191417   5.8463459  80.9477425  39.3474674   5.6919175  80.4935837
  38.7054467   6.5696125  81.5464115  19.4901645 124.7235107  23.0428100
  20.3626084 125.0276375  23.2929778  19.4018161 123.8715839  23.4701657
  66.0758495 119.6510696  50.6540632  66.0273314 119.5013142  51.5982294
  66.5697861 120.4662323  50.5659246  45.4341698 128.8319206  39.9513459
  44.6831083 128.8562775  40.5442572  46.1929846 128.7512589  40.5292082
  57.9175854 106.7921829  52.7711773  57.3753405 106.7361546  51.9843769
  58.6807680 107.3024654  52.5002575  34.1259289  12.6040631  34.5028901
  33.4582162  11.9299202  34.3766952  34.3359184  12.5615197  35.4358029
  46.1622906  12.4578076  31.9774461  45.6388378  13.2023030  32.2739983
  45.5194664  11.7767792  31.7794299  35.4172206 134.7348022  85.2894783
  35.5528688 135.6721115  85.4283524  35.1437163 134.6652985  84.3748283
  48.1099510 119.8368263  65.8723354  47.9147100 119.7974777  66.8085861
  47.3738813 120.3178978  65.4941845  22.1634531 136.4890575  53.2558727
  22.7183270 137.2250843  53.5139704  21.4244747 136.5216351  53.8633919
 112.0317936 137.2758198  31.2822127 112.5403690 136.5429783  31.6293693
 111.1243057 137.0611668  31.4981270  33.7060976 131.3888550  25.1133251
  34.4679809 131.1730766  24.5755458  33.2068348 130.5734825  25.1594782
  37.5541186  99.8098755  19.0335870  36.7373371  99.7157097  19.5237255
  38.2406640  99.7446823  19.6973932  41.4581060 138.1498051  39.5051384
  41.7143345 137.2537708  39.7235680  42.2746849 138.5755062  39.2439747
  23.0384636   5.2687912  37.8453374  22.2384238   4.7487145  37.7699661
  23.6881328   4.6594410  38.1958294   7.6436067 111.7313290  45.4330635
   7.5627434 110.7790470  45.3796816   7.8524190 111.9028664  46.3513231
  35.2627850 127.4483681   9.6341336  34.7575688 126.8984127   9.0353602
  35.3603673 128.2801819   9.1706741  45.5807114 134.7609615   0.6528837
  45.7809401 134.7740078  -0.2830491  45.7202625 135.6632710   0.9402703
  51.4480877 138.2163334  26.5702057  51.3587332 137.2653198  26.5083361
  51.2026596 138.5369205  25.7023239   5.6234145 112.0884800  36.8831587
   5.5268997 112.5677299  37.7061057   5.9725481 112.7345943  36.2692547
  18.7433898  10.8909970  45.4688168  18.7945986   9.9377423  45.5388594
  19.4608212  11.1268311  44.8806763  28.8130593 125.1328468  88.1806573
  29.2160201 125.8314419  88.6962255  27.8882480 125.1567650  88.4263810
  29.6458840 105.7236004  50.9215164  30.0905323 105.2193928  51.6029119
  30.3163147 105.8667374  50.2534866  29.5763421 144.8063278  53.3318806
  29.4762230 145.5230618  53.9583731  29.6801949 145.2408981  52.4853611
  49.5543575 141.7706776  12.8183436  49.5845604 142.2988605  12.0206296
  50.4387808 141.8313313  13.1793833  46.4414787 132.1057510  25.1803446
  46.5291739 131.7749119  26.0742593  45.4985666 132.2146034  25.0566673
  37.5911784 133.1389427  33.6460543  38.5262799 133.1383705  33.4415650
  37.1999049 133.6998844  32.9763675  70.1160192 107.5627232  26.1747885
  70.6551218 107.2417927  25.4518747  70.6534529 107.4234581  26.9545317
  43.4763288  11.3185482  31.2035561  43.1652164  11.7181759  30.3913140
  43.1096363  11.8677502  31.8964815  19.5326483 129.8787308  39.5768738
  19.4648767 129.5490837  38.6807871  20.4706955 129.8648262  39.7668886
  56.1934710 125.6314850   0.3003486  55.2613497 125.4579163   0.1689943
  56.2819862 126.5756226   0.1699653  19.5557559 114.1640568  28.9603806
  19.7173321 114.8645020  28.3283114  19.4701552 114.6146488  29.8005414
  48.9730978  96.4172840  45.7830286  49.7219181  95.8301258  45.8867216
  48.4422636  96.2689495  46.5656185  14.1796660  14.8740368  50.7897282
  15.0597548  15.0808697  50.4752493  14.1411448  13.9176350  50.7819128
  61.9945812 146.4987278  42.1244860  62.6580906 146.9109058  41.5712261
  62.4358606 145.7371902  42.5007343  74.7814512  92.6450920  10.4974532
  73.9950466  93.0550194  10.8576655  75.4946136  93.2309532  10.7512271
   1.2581080  99.9994183  39.4136858   0.4777010  99.5003510  39.1725802
   1.9793811  99.5372391  38.9866185  62.9803514  15.8406239   7.5555438
  63.0551434  14.8869114   7.5879753  62.1815252  16.0012799   7.0532483
  34.4653106 122.4629211  30.7622719  33.8855124 122.6825714  30.0330114
  34.9699497 121.7121696  30.4493141  77.1163368 133.7423801 104.9811518
  76.8729544 134.6582985 105.1156991  77.3718596 133.4323502 105.8499541
  80.9815121 108.3380604 107.5014553  80.4458427 109.0146351 107.9156279
  81.3788891 108.7749481 106.7481666  89.8000336 130.9385490   3.0369335
  90.1719093 131.3636398   2.2641173  90.5347824 130.4645443   3.4264183
  39.5923400 113.8534737  26.9109392  39.5574713 113.2741261  26.1497712
  38.7796688 113.6759090  27.3845100  87.4232674 146.6830444  17.8641319
  87.4016094 146.0143280  17.1796048  87.6760674 146.2075996  18.6555123
  55.0650692 130.3840637 108.8427032  55.5930185 130.9886265 108.3211707
  54.6002626 130.9457779 109.4629166   4.2042077 130.2713966   0.8014219
   4.9804717 130.7905006   1.0116097   3.7587312 130.1560593   1.6407552
  52.6398659  29.3225842  19.4141293  52.5499058  29.8183041  20.2280140
  51.9374132  28.6733799  19.4502199  37.7662158 100.9867668  29.2361879
  38.5396481 101.1918259  28.7108445  38.0822110 100.9916496  30.1397133
  70.4431772  14.1723423  41.4962101  70.5340958  13.6957722  40.6710815
  69.9000216  13.6041050  42.0424032  51.2138891  15.6270771   9.4661587
  51.4847708  16.4469700   9.8792493  51.5453339  14.9441700  10.0492513
  39.9210072  36.4641171  28.1482792  39.9002504  35.7930928  27.4659777
  40.5564308  37.1067791  27.8329206  18.6426175 135.9718800  21.6350079
  19.0660048 135.7856750  22.4730420  19.3529403 136.2763214  21.0702157
  71.5226889 142.8583241  24.8016739  71.5421915 142.1728230  25.4694605
  72.3840952 143.2719231  24.8577762  62.6792431  88.0143642  37.1670151
  62.9111004  87.6885700  38.0366921  62.8066635  87.2629166  36.5879345
  52.2032881 133.0203056   5.0450212  53.1058931 132.7125359   5.1275605
  52.2712708 133.9743900   5.0815165  23.3423591 145.6729507  31.4279318
  23.0590987 145.0514030  30.7573509  22.5446534 146.1426258  31.6714454
  52.7353001  17.6507550  17.3209560  53.2119799  18.2677632  16.7657018
  52.0127058  17.3443585  16.7730403  27.8510189   0.9424382  96.3812348
  27.8375912   1.3810234  95.5305346  27.9414701   0.0131779  96.1702117
  25.9206176 136.4592457  44.1485119  26.7879391 136.6049862  43.7706947
  26.0939002 136.2038326  45.0545835  23.8122892 108.2232285  36.0206246
  23.0014944 107.7173328  35.9666276  24.0364957 108.4142780  35.1098752
  46.4038754 139.0809441  53.3191204  46.7054081 139.9893665  53.3101511
  46.4458084 138.8237476  54.2401648  63.3076334 107.5273895  11.4442599
  62.8541517 107.4822521  12.2860134  63.9235163 106.7949200  11.4644146
  21.5636706   7.1703511  19.5222914  20.7759142   6.7780667  19.1457570
  21.8856263   6.5145855  20.1407957  59.8183727  15.1459103  24.1997051
  60.3381872  15.4594403  23.4596229  59.1627932  15.8294087  24.3385744
  20.8431292 135.3027821  26.6958237  21.6092443 135.3439236  27.2681928
  20.1700711 135.8001518  27.1604180  30.3402710  20.9822827  45.1911783
  30.5155301  20.4807072  44.3949795  29.8366451  21.7391186  44.8914862
  68.9590502   2.7794247  51.3936901  68.8424110   2.5854283  50.4636431
  69.6987057   2.2339325  51.6612196  61.8731546 141.9587708  49.4976330
  62.2125721 142.0248699  50.3901911  61.8240309 142.8646564  49.1923666
  48.2621765 115.5944824 100.6760278  47.5472641 115.0141335 100.9374245
  48.4386730 116.1227417 101.4545044  42.8746319  29.9059849  21.7233133
  43.1572247  30.5293446  21.0541439  43.6471367  29.3654995  21.8886518
  49.2346001 125.0236130  30.8480477  49.4138050 124.2756367  31.4178205
  48.9826345 124.6325207  30.0115108  54.8796511   9.4679528  37.1099710
  54.7158098   8.5252838  37.0824409  54.2966747   9.8319321  36.4437199
  41.3261032   8.6707096  57.6932764  42.0097160   9.3281823  57.5643253
  41.7410421   7.8429776  57.4505663  73.8598680 134.3042469  20.6480241
  74.0630293 133.4379196  21.0007787  74.2495346 134.3042564  19.7737288
  36.2581062  94.9137115  15.4048252  36.7155242  95.7404613  15.5580449
  36.9177294  94.2404938  15.5719030  27.2033715  12.8373509  48.7175798
  27.9022765  12.2280770  48.9553833  26.7338681  12.3982506  48.0083609
  38.7598252 122.8298187   2.0172381  39.5071411 122.8749084   2.6136598
  39.1518617 122.7501011   1.1476497   8.1520814 122.2279549  42.9796362
   9.0741378 122.4590397  42.8671885   7.7001351 122.6982880  42.2790909
  54.3525696  21.9692211  11.3769245  53.4745312  21.5986805  11.4662969
  54.3477964  22.3921376  10.5182409  40.1918936 124.7260952  35.3386259
  40.8058262 124.3815231  35.9871483  40.7414198 125.2095795  34.7217774
  45.7221794 122.0786476  54.2835760  45.7222128 122.2628593  53.3442688
  46.0514879 122.8826237  54.6853352  21.6693044 123.1452370 102.0901992
  21.4427662 122.6225376 101.3209846  20.8502245 123.2177734 102.5801756
  36.7617226   4.7942715  46.2231731  37.0876145   5.6533509  45.9548187
  37.3876023   4.1734677  45.8502007  46.1536169 108.0059052  51.3770723
  46.8973684 107.4261570  51.2128735  45.9155512 108.3407974  50.5125475
  20.8340812 143.9201832  32.1978760  21.3818169 144.3107224  32.8788257
  20.4405665 144.6682549  31.7486882  54.1653728 125.4932594  27.9702616
  54.3624449 126.1166286  28.6694121  54.5639277 124.6730804  28.2612753
   8.5959172 125.3300953  99.7941818   8.0080825 124.8953629  99.1763695
   8.0116040 125.7676888 100.4133125  39.7687817 141.5415764  10.3983688
  39.2945099 142.0132065   9.7136295  39.0829921 141.1355591  10.9285307
  41.9774961 139.0648651  57.8125572  41.0727644 139.2903900  57.5961494
  42.4894810 139.3928337  57.0732737  45.1039934   8.8362294  24.5775414
  45.9917259   8.4785443  24.5624471  44.5538759   8.1257611  24.2476296
  36.2459898   4.7456055  18.2209337  36.6780567   5.5880051  18.3620465
  36.8596840   4.0999871  18.5713518  85.7393646   5.8201294  15.1566553
  85.9947968   6.6978627  15.4405117  85.9350967   5.8049565  14.2198026
  25.4877973 113.0623913   8.7536383  25.0215816 112.7588654   7.9746979
  25.2077866 112.4659538   9.4479656  67.0606375  43.9022618  30.3933215
  67.7653790  43.3544712  30.7390165  66.2577534  43.4412937  30.6364584
  37.5022268 113.6650372   3.7299696  37.7122259 112.7391052   3.8515520
  38.2668495 114.0272713   3.2823417  34.4709659 113.5886002  22.2554111
  34.8647165 112.7835560  21.9191241  35.1228142 113.9384842  22.8627896
  75.0034952  -0.0746269  41.7279339  74.5222330  -0.1361007  42.5530624
  75.4421902   0.7751160  41.7692709   6.0061896 137.8417206  25.4392123
   6.1130059 136.8994045  25.3093338   5.3165680 138.0916119  24.8242235
  35.3318787 133.6896515   8.2837778  35.7255483 134.1612339   7.5497043
  35.7233047 132.8169918   8.2453871  31.0367489 134.6877861  61.9485044
  30.6022358 135.5335045  62.0589352  31.9514990 134.9094296  61.7743301
  27.8188515 139.6860886  52.7005196  27.6443124 140.3966618  52.0833874
  27.5247622 138.8965988  52.2461557  52.9158068 145.0715923  24.8069048
  53.6628103 144.6126270  25.1910472  52.5254011 145.5486012  25.5392146
  70.1737213 107.5534916  33.9049530  69.2872810 107.4744415  33.5525250
  70.2000475 106.9284725  34.6294427  56.1154938  97.4971676  37.2435784
  55.3885984  97.9163933  37.7041316  55.7837963  97.3478508  36.3581896
  24.7570682 126.5146065  98.6974713  24.9351001 127.3796463  99.0665682
  23.8076711 126.4964294  98.5768565  56.1113882 143.8602924 109.2298650
  55.7388067 143.3757782 109.9665247  55.3850746 143.9550877 108.6136526
  23.2285666  -0.0146026  15.4267454  22.9437923   0.2332383  16.3063538
  22.4160624  -0.1083488  14.9294722  44.3911409 129.9469948 100.9004190
  45.1243210 129.4711113 100.5102613  43.9772415 129.3118954 101.4848628
  44.5290852 127.2275829  26.0110784  45.1108170 126.8938923  26.6940665
  43.9690733 126.4837456  25.7889748  13.2626843   8.6806660  52.0271969
  13.2555139   7.7827149  52.3586702  12.3503745   8.8589840  51.7988920
   5.7071793   1.1821061  11.6150832   6.2689817   0.4077893  11.6473091
   6.3039726   1.9027882  11.4133823  47.3659706 109.5855904 104.5517411
  46.4187145 109.5004463 104.4436636  47.7046394 108.7032890 104.3998583
  28.7239456  50.4831105  15.1105535  28.8854074  49.5416622  15.0484407
  29.1747546  50.8539944  14.3519723  43.0297565 116.0183144  14.9138200
  43.1056166 115.6843853  15.8076704  42.3559427 115.4712772  14.5101511
  35.4802680  11.4434986  32.2068954  34.8728585  11.6319256  32.9222870
  36.1180758  12.1564656  32.2401738 119.9471569 133.3683681  89.1494831
 120.6665039 132.7369213  89.1568335 119.7507572 133.5184669  90.0742146
  28.4357572 134.6759415  53.8307953  28.5133648 134.8229694  52.8881454
  29.3122411 134.8508644  54.1734457  10.0001192  19.5135479  27.3809052
  10.0864971  18.8953572  26.6552353   9.3611151  20.1563626  27.0731616
  36.0982633  13.9003353  41.8679571  35.6883097  14.4813137  42.5087690
  36.9453096  14.3063908  41.6839409  20.9360743 107.0560074  24.1011262
  21.3322663 106.1993980  24.2607355  21.6801310 107.6527691  24.0205455
  43.1409359 124.2616653  24.4869566  43.2172632 123.4245777  24.0290475
  43.5490847 124.8954487  23.8970661  51.5917158 126.5345669  98.4930273
  50.9969521 126.4541340  97.7473601  52.1933651 125.7958889  98.4002825
  18.9298606 113.6388302  24.5683765  19.1836476 113.0493259  25.2785254
  19.6854186 113.6451054  23.9807320  40.6848288 126.5889835 106.8032783
  40.9044027 127.3165417 106.2213262  40.6137562 125.8311176 106.2229186
  43.8705540  13.8684063  35.0440049  43.9574575  12.9351979  34.8495674
  43.9840364  14.3009739  34.1976976  64.7236013  22.4338703  42.3630285
  64.7095251  23.3816700  42.4960804  64.8042297  22.0694523  43.2444620
  71.1409998 139.2021942 106.8803241  70.3895378 139.2238140 107.4728341
  71.7989016 139.7505283 107.3077848  12.9127097 131.3938046   9.6038753
  13.4480405 130.6451511   9.8668754  13.5057390 132.1432018   9.6582788
  53.6858082 107.3968315  31.7682338  54.2354107 107.7365494  32.4744630
  52.8890085 107.9256439  31.8093181  81.4688206 108.9717197  32.4420404
  81.5312958 108.4226894  33.2236385  80.6319714 109.4269180  32.5353646
  25.5143142 123.9871979  23.4420204  25.0743365 124.5375824  24.0898824
  26.4474511 124.1247749  23.6049819  32.4902797 136.9987011   6.0238254
  32.1253014 137.1007252   6.9028103  33.3937120 137.3050404   6.1025763
  50.6648827 139.4738102  24.2232299  50.1160240 140.1408482  24.6355987
  50.0430155 138.8609219  23.8309574  20.4694605 131.4497757   9.2422664
  20.5239797 130.8025455   9.9453640  19.7026825 131.1865616   8.7333471
  16.7729557 136.0553551  44.3409586  16.6457760 136.9384003  44.6877766
  17.2287452 135.5867577  45.0401783  36.0704803 124.3904781  26.2431049
  35.8350825 125.0777340  26.8664002  37.0161319 124.2856979  26.3479638
  75.5385160   3.4647541  11.3666356  75.7653141   2.6729279  10.8789754
  74.7850466   3.2103806  11.8993711  57.2277737 134.8918915  31.1445022
  57.2129583 135.7571030  30.7353234  56.9081116 134.2995739  30.4639101
  37.3895383  32.8435688  42.0944786  36.8725109  32.7251606  41.2976742
  38.1306458  32.2468548  41.9899940  30.9522820 146.6220760  15.1249027
  31.1370683 145.8739948  14.5570540  31.8150282 146.9669247  15.3550911
 103.3667273 131.7377472  29.1218281 103.9200110 132.3650169  29.5872760
 102.5248284 132.1836567  29.0291023  22.5875950 123.5497093  11.1368501
  23.1673336 123.8831139  11.8216670  23.1737781 123.3303642  10.4126215
  56.5086508 124.2210484 107.4941481  56.8377256 124.6754074 108.2697117
  56.1732674 124.9192715 106.9317975  40.2046585 120.6545353  43.7564516
  40.7237196 121.2469196  44.3004036  39.7838569 121.2260246  43.1141472
  28.3518577 124.0553951  37.3933935  29.2385197 123.8908577  37.0724750
  28.4494066 124.1217232  38.3432961  34.4852185   6.1190205  10.6515718
  34.6526289   5.1825028  10.7571220  33.5309792   6.1906510  10.6286001
  45.2821589  13.5242443   7.5305092  44.9944305  14.1478138   8.1973070
  44.5339680  13.4439926   6.9388968  28.2346177 135.4877949  28.3766508
  28.4186363 134.7333145  28.9362335  27.9069614 136.1572170  28.9772725
  66.7456722  26.3364201  89.5243549  65.9478378  25.9628468  89.1499901
  66.9484949  25.7704907  90.2692223  36.2674904  70.4347897  52.6541662
  35.8113718  71.0252476  52.0545483  37.1483922  70.3553438  52.2881985
  41.3347054 142.4391365  63.5078049  41.3595295 143.2628441  63.0208635
  42.2419596 142.1339798  63.5086918  51.2877512   5.5670147  45.2618361
  51.4187622   4.7291451  44.8179483  50.4106998   5.8439808  44.9966764
  52.0536137 133.1916332  48.9091349  52.9847479 133.2865143  49.1096735
  51.6073704 133.4505653  49.7153902  27.3879457 127.9334641  38.7059784
  28.1953454 128.4365749  38.6000776  26.7742729 128.5474968  39.1092277
  44.5940018 111.3099861  40.0843811  45.2456903 110.6914520  40.4144430
  43.7529421 110.9299183  40.3381729  29.9987125 129.2826748  40.7178640
  29.3020225 129.7968197  40.3098011  29.5424175 128.7011242  41.3259935
  35.8654976 145.6118393  39.3241382  36.8024659 145.4897881  39.1710782
  35.7669449 145.5427933  40.2737427  79.5745659  30.9047299  40.2229404
  78.7334490  30.7309513  40.6454992  80.0090122  30.0522786  40.1945877
  53.3958483 140.9649181  58.7764978  53.2269144 140.0615692  59.0441847
  54.3159771 141.1116123  58.9957523  47.1722126 110.2955055  26.3323236
  46.9087839 110.6889439  25.5004311  47.5683165 109.4593430  26.0870290
   6.4595711 118.1685162  51.9026423   6.7694396 118.9247417  52.4009705
   6.8504286 118.2765579  51.0355854  38.7498236 128.3134365  15.1474357
  39.4258332 128.9286613  15.4315650  38.4808397 128.6339378  14.2865312
  39.6144629 145.8777428   6.8516493  40.0153685 146.5801430   6.3396597
  40.2551126 145.1670074   6.8260193  35.7575345 111.2256718  21.4463162
  36.2204409 111.0459709  20.6279898  35.1662803 110.4808712  21.5555668
  25.8358765   1.2631016 108.1671142  24.9898100   0.8324509 108.0448566
  25.6398964   2.0261460 108.7107907  13.3520925 137.8264523 102.4264487
  12.8051782 138.2602310 101.7715039  13.1515872 136.8957329 102.3275002
  39.6188664  85.7561302  54.0802908  40.1923752  86.1376572  53.4156418
  40.1995039  85.2156544  54.6159887  73.7720442 134.7299194  26.3820434
  73.8988686 133.9079762  26.8559217  73.8457537 134.4879723  25.4588628
  96.9028950 133.2327557  16.2851787  97.1843719 133.9445782  15.7104564
  96.9931602 132.4436474  15.7509494  37.9142618 108.5515594  31.6623545
  37.9131031 109.3738079  31.1723137  38.7076998 108.1012344  31.3727093
  22.6880860 135.7516575  15.3411865  22.6174664 136.2814999  14.5471406
  23.6233854 135.5648327  15.4220641  54.0140390 104.4511795  34.3510842
  54.1294670 104.6102619  33.4142804  54.2132378 103.5215855  34.4625020
  45.4121113   6.2883644  98.1569382  44.9786997   5.5862789  98.6421832
  44.9999571   6.2723427  97.2931644  19.2464530   5.0895195  32.2271252
  18.4968495   4.5159607  32.3863769  19.1068780   5.4258614  31.3419008
  26.4889336 125.4138470  41.5858603  26.3875413 125.4323864  40.6342268
  26.3116264 124.5049000  41.8279600  86.5029144 116.7584515  23.4718323
  86.6176987 116.8310356  22.5243163  87.2844791 116.2950993  23.7729836
  35.9692812   8.2502251   9.5958924  35.4443693   7.6406555  10.1146579
  35.6166649   8.1753331   8.7091649  29.4881392 139.6247768  54.7139454
  29.1085219 140.0183678  55.4995775  28.8122129 139.7275639  54.0440273
  57.6628256  12.2928505  26.3053298  57.6991034  12.0671635  25.3758240
  58.5425138  12.6103573  26.5092230  74.6088552 136.7988873  59.3423557
  74.1258812 137.6089001  59.1784811  75.3292084 137.0613194  59.9154663
  13.4038699 129.8877335   0.2505285  12.6795471 130.4455376   0.5341483
  13.2166851 129.0345764   0.6420849  67.0581388   9.5798664 107.4779113
  67.6879454  10.2034455 107.8394831  66.5206480  10.1009446 106.8814125
  37.8125978  16.8914585  11.5202618  38.7551212  16.9885807  11.3844335
  37.6328826  15.9759121  11.3064325  31.2699223 127.5093937   4.6826905
  31.7239094 127.8929520   5.4330301  31.4194393 126.5678024   4.7680071
  32.9544687  15.3886967   5.7191473  32.3923874  15.4596882   6.4906752
  32.7207851  14.5463162   5.3292537  44.0805769 133.9912033  75.1278456
  45.0172424 134.0114117  74.9316868  43.7833309 134.8872089  74.9695595
  45.0254202 139.2363548  10.9286880  45.7238817 139.8627758  10.7389903
  44.2200851 139.6969891  10.6931210  48.3960295 134.2333221  92.1949764
  48.2868719 135.1779556  92.0854839  49.3258524 134.1209793  92.3925694
  55.9275579 114.3685055  41.1763525  55.9535408 114.8528862  42.0015335
  55.2244806 113.7299728  41.2954807  65.9011555 122.9996395   2.3133093
  66.0404825 122.7639008   1.3961133  64.9495792 123.0420399   2.4078171
  56.0150194 108.4162521  11.0152590  56.2530422 109.2399120  11.4408755
  56.8527937 108.0166149  10.7814693  56.1363983  50.4758816  74.2677840
  56.7691469  50.3576641  74.9762210  56.4290953  49.8751240  73.5824879
  74.6841335 141.6755009  33.6102462  73.8769341 141.6494370  33.0964518
  74.3899536 141.8028927  34.5121670  54.2054272 121.7769146  57.4705315
  54.8735619 121.3993931  58.0426359  53.3812141 121.4097977  57.7901077
   5.2568436  16.6085034  14.3829858   6.1114597  16.1822110  14.4472647
   4.6917847  16.1013966  14.9658966  19.7368109 113.9415073  79.9058771
  19.5272076 114.3431759  79.0626955  19.9747193 113.0400181  79.6891880
  47.5947046   8.5712414  83.0365761  48.2713795   8.5686283  82.3595723
  47.9479647   8.0144959  83.7304553  31.6020465  17.8639202  10.8992910
  30.9090185  17.7880841  10.2434003  31.2004757  18.3545475  11.6164136
  54.1500711 126.6312695  22.6645541  54.6058130 127.3320198  22.1982098
  54.3817568 126.7650414  23.5836053  37.8599858 101.9962597  33.8916397
  37.1633911 102.0726204  34.5436788  38.6529851 101.8425655  34.4052196
  71.1007690 104.6312332  30.4323792  71.0234785 105.5773640  30.5552673
  70.6549692 104.2539978  31.1907887  46.1064720 140.4356480  29.6017909
  46.8530893 140.5557156  29.0149546  46.3173723 139.6454430  30.0991130
 120.5453367  -0.0180454  75.5822849 121.3390548  -0.3390903  75.1542902
 120.3722165   0.8254319  75.1641941  37.9190898   5.7083016  27.6525664
  38.3690000   5.1940708  26.9822049  38.6193156   6.1831551  28.1002593
  26.7782593 109.4131279  52.7795315  27.4980664 108.7824821  52.7597475
  27.0562553 110.0740719  53.4136534  16.9635272  95.6060791   3.2297558
  16.2460566  94.9791622   3.1378770  16.5296197  96.4490318   3.3615583
  62.7823782 128.9198780  14.7296298  62.6863766 128.3488750  13.9674175
  63.7284756 129.0064335  14.8464131  32.5021219 116.2417984 103.8106080
  31.5609169 116.1775208 103.6486342  32.8662944 116.5587616 102.9840847
  31.5138626   1.5350132   9.7743559  30.7375479   2.0885067   9.8592854
  31.5458703   1.0400849  10.5930412  24.2861462 107.8473663  33.3113790
  23.9014745 106.9920254  33.1199121  23.6620879 108.4769154  32.9501915
  39.4738126 129.9705124  46.1915493  40.2839851 129.4848061  46.0368299
  39.1873121 130.2423763  45.3196287  36.4501333 120.0923824  25.6483269
  36.6279459 119.1585827  25.5358958  37.3155284 120.5012608  25.6600904
  37.1453905  26.3178044  10.8452904  36.5229607  26.7436009  11.4347839
  37.9905605  26.4043980  11.2862217  59.2786217 103.6634445  47.6518250
  59.4674063 104.4065857  47.0788288  58.5549927 103.2074451  47.2221136
  52.7095604 137.0653152  22.6006198  53.4849834 136.8154621  22.0980978
  52.7431393 138.0213642  22.6333117 122.1506996  20.7430630  47.9709053
 121.4204527  20.2853566  47.5543928 121.8684537  21.6567593  48.0121136
  86.3628101 122.7248192  22.8981853  85.6349850 123.0369949  22.3605561
  86.8955898 123.5042381  23.0559206   5.6489706 145.2787018  19.2006540
   4.7827896 145.2526665  18.7941027   6.1157274 144.5359325  18.8176739
  18.2217872 143.7870598   7.2067642  17.5027156 144.4029140   7.3477870
  18.9493263 144.1483116   7.7131373  68.6518526 131.4548206  79.9032720
  68.5776854 131.1045742  80.7909950  67.8603077 131.9801426  79.7861465
  39.7051334 117.3704815   2.3172314  40.0099087 117.4756813   1.4159673
  38.7723351 117.1728992   2.2331059  40.6469345 136.5662766 101.6362604
  39.8047805 137.0132828 101.7211183  40.4290915 135.6351185 101.6776445
  38.6261249 126.8745899 102.3852816  39.4999003 126.8951893 101.9949909
  38.0292106 126.9375134 101.6396519  53.9913034 124.9554920  39.7234392
  54.1805935 125.8551025  39.9901009  54.5116329 124.8262119  38.9304829
  58.5948610 142.3775387   9.2661166  59.1666460 142.9509354   8.7557185
  58.1903601 142.9563141   9.9123621  61.7327738 116.0045242  31.9666409
  60.8368063 116.2047195  31.6957188  62.2538328 116.7323017  31.6274261
  55.4447937 120.2566242  22.3847532  55.3939819 119.5137405  22.9862261
  56.3829136 120.4095459  22.2717190  25.6370950 119.3786240  13.7600005
  26.4805675 119.0430927  14.0636384  25.6267333 120.2927113  14.0438592
  75.4892302  10.0822335  85.6392583  75.6933641  10.9999829  85.4595288
  74.5406771  10.0684052  85.7668837  97.1399593 121.5621376   1.3734815
  97.4086189 120.8139324   1.9066139  96.8659782 121.1770630   0.5410872
  68.8760471 119.6703053  95.7066628  67.9498577 119.5522308  95.4958101
  69.0849209 118.9379597  96.2865611  38.9100981 117.9654980  15.5409396
  39.0484238 117.9991531  16.4874935  38.6029363 117.0741844  15.3753102
  34.6521497 128.8958073  22.0341277  34.7972608 127.9523563  22.1054554
  34.0654802 128.9918518  21.2839103  30.2164912 118.2563782  87.9915889
  30.7579541 117.7400494  88.5886248  29.5694923 118.6768532  88.5580023
  14.1174090 119.5964622  11.5557945  14.2595577 120.1196289  12.3446655
  13.4271967 118.9793777  11.7987895  68.0927134 142.9432106 109.2141005
  68.7894392 143.5564518 108.9801374  67.4294138 143.0637074 108.5345819
  68.7072897 144.2421627  91.9852623  68.9652109 143.4264278  91.5559837
  69.2159700 144.9190044  91.5387686  53.6339474 112.5307751  11.8255687
  52.8210735 112.0723057  12.0383561  53.6250305 113.3067322  12.3859632
  65.0367641 101.2671947  98.9705511  65.7807875 101.7944241  99.2615839
  64.7242594 100.8346939  99.7652289  52.7808046   0.2207451  42.4435282
  53.4022808   0.9467392  42.3893452  53.1914425  -0.4839534  41.9425249
  37.0986223 145.0576687  99.5202705  36.1758780 144.8388767  99.3902584
  37.1870947 145.1699829 100.4667326 124.6257844 144.6031189  95.6242391
 124.3999556 145.4738140  95.2969536 123.8559437 144.3270969  96.1216243
  53.7351036 107.3200607   3.2481334  53.5168839 106.6266632   2.6253963
  54.6692514 107.4786663   3.1123337  32.9270458 137.8059673  21.2509537
  33.5564685 137.1032143  21.0891008  32.4619365 137.9069042  20.4204607
  15.0048435  25.1680546  82.9797634  14.9837482  26.0637646  83.3166846
  15.1639974  24.6253567  83.7520178 103.1617708  11.2411099   4.7970819
 103.7424178  10.4801731   4.7894105 103.7127013  11.9596653   5.1075345
  88.8792229 113.8897133  18.8884425  88.7627602 113.5831547  17.9891706
  89.6965504 113.4829998  19.1761768  38.9743209 110.8894444   3.6360282
  39.3691516 111.2575436   4.4264963  38.4514403 110.1519680   3.9505979
  13.5619307   0.8581524  11.3342464  13.2154715   1.0384541  10.4603529
  12.8232419   0.4802399  11.8114769  30.4198313 127.5088692 104.2932048
  30.5650234 127.3385525 105.2238726  29.5129395 127.8110695 104.2436513
  65.7683086 142.0618439  34.5152855  65.4425335 142.7231979  35.1257944
  66.6883898 141.9483948  34.7536278  82.8843403 140.5228233 107.8073620
  83.5016727 141.2384415 107.9591025  83.4381199 139.7581100 107.6499850
  52.8653717 139.9602890  21.5392661  52.6741457 140.2118397  22.4428082
  52.1057940 140.2617168  21.0408545  21.4669895  93.7366009  31.6997695
  20.6608319  93.3590412  31.3479352  21.3940382  94.6727562  31.5139341
 119.3298269 135.5764866  87.9808243 119.4198442 134.7373486  88.4324464
 120.1302246 135.6563091  87.4619564  62.3321009 132.8978539  22.3242998
  61.4876890 132.7507687  21.8981981  62.7838612 133.5187340  21.7527556
   9.3770224 116.9896126  67.9849728   9.2540658 117.6176548  68.6967810
   9.3421596 117.5199795  67.1889075 121.0255409 112.0990181  19.7609842
 120.3746161 112.6820850  19.3704021 120.6890646 111.2185383  19.5943081
  86.9396305   7.9599171   5.5314958  85.9977913   7.9337864   5.7002586
  87.3379517   7.6645832   6.3502485  73.3749294 131.7405510  10.6750131
  73.6869574 132.4270153  10.0854111  72.4214602 131.8224812  10.6546605
  67.8454781 141.6635799   2.2886670  68.0100060 141.8744469   1.3695928
  67.8732347 142.5088310   2.7370134  60.6658506 122.3613644  94.6221133
  59.8585939 122.0324993  95.0176104  60.4988813 123.2924843  94.4758900
  30.3510833  95.9934711  17.0616567  30.7852578  96.8122292  17.3011637
  30.1541662  96.0904312  16.1299610  62.2501469   8.5897045   5.2514982
  62.0053959   8.3821755   6.1533070  61.4173937   8.7541180   4.8090994
  47.4285698 133.2590389  19.7422874  48.3429766 132.9823399  19.6828628
  47.1341801 132.9321575  20.5924129 108.4821088 134.0791035   1.2265198
 107.5712389 134.2227554   0.9697842 108.8729746 133.6261654   0.4793241
  37.1957636 141.3112831 108.6476941  37.2820330 140.5060673 109.1579994
  38.0910993 141.6395950 108.5651172  34.9591684 139.6015549  99.0397569
  34.6772170 140.1136684  99.7976931  34.7541952 138.6960697  99.2728349
  61.4104605 105.0538349  83.4316333  61.2061119 105.9721184  83.2549223
  61.8555927 104.7509289  82.6402172  39.3911147 106.1815643  68.0730256
  40.2422905 105.7437134  68.0690774  39.3753767 106.6671467  68.8977727
  21.7072964 134.2163277  31.1455512  21.8201113 134.1379261  30.1982617
  22.2105742 133.4871578  31.5078521  57.2854662  14.1878682 106.1129474
  56.9831610  14.6609860 106.8881848  57.5945091  13.3472519 106.4507505
  44.3942881 130.6641293  21.5753341  45.2257490 130.2019024  21.6814303
  43.9419079 130.1867390  20.8798599  13.2570243 131.9630909  98.8646206
  13.7852979 132.4013901  99.5317420  12.3839092 131.9024372  99.2522057
  38.8306999  10.4869538  65.3502520  37.9929352  10.1157074  65.0735530
  38.8827515  10.2899628  66.2855157  38.7089372 130.1711655  30.0617838
  38.4750080 130.9546185  29.5640755  39.5869398 129.9454880  29.7545123
  46.6818237  92.2527504 107.4063323  46.5836096  91.8616867 106.5382012
  47.4978638  91.8838310 107.7442808  31.3838196   1.7466622  24.1308880
  32.1100378   1.1254578  24.1851211  31.6773486   2.4037724  23.4997916
  30.9577560 114.9717140  33.2534313  31.3206792 114.5378017  32.4812651
  30.2679348 115.5381966  32.9077864  56.3114071  16.0336476 107.7669539
  56.5197563  16.1746197 108.6905086  55.8354330  16.8219738 107.5057717
  41.6994095 125.6652546  15.7336593  41.9392109 126.3898659  15.1560283
  40.7535124 125.5717754  15.6206083  34.3525004 135.4283619  98.1891485
  35.0556302 134.9030972  98.5711571  34.0104318 135.9400558  98.9222141
  56.9907141 126.0381985  24.1778660  56.4484358 126.3445854  24.9047041
  57.8687239 125.9592056  24.5508075  60.8893681 128.5315800 101.8212511
  60.5817747 127.6742363 102.1155068  61.7923307 128.5826206 102.1347489
  52.4530363 134.1436386  22.2662520  52.5615692 134.9529839  22.7656746
  53.3129597 133.9854145  21.8767381  53.1616592 109.6466255   1.7850231
  53.3542776 108.8256264   2.2378851  53.6267662 109.5752048   0.9514724
  20.6373453  -0.1057071  91.6754552  19.8863840   0.4878311  91.6744872
  21.1375213   0.1396065  90.8970710  51.8901300  82.3476219   9.8654741
  52.4296665  81.6038895   9.5971704  51.1355877  82.3207569   9.2771041
  66.1441755 100.7036018 103.8856795  66.4696360 100.8228111 104.7779229
  66.0475874  99.7560501 103.7905588  47.8527689  14.5437603  96.1783882
  47.9457521  14.5212536  97.1307954  48.4842205  15.2035122  95.8916219
   3.4616971  92.9637241 100.1106354   3.4453729  92.0870018 100.4944637
   4.3881735  93.2041359 100.1018699  60.2422094 107.4190617  30.8856773
  60.3111553 107.2904205  29.9396706  59.8880672 106.5928364  31.2145662
  60.5941916 111.7983627   8.1541318  60.2574778 112.4822521   7.5752097
  61.4325094 111.5474701   7.7661806  71.0264015 121.2700462  28.7809014
  71.6549540 121.2512779  28.0592370  71.0114431 120.3709316  29.1089344
   7.3593104 126.2546158  21.8886185   7.6159513 127.0006943  21.3466454
   6.4032459 126.2941456  21.9133162  47.8842545 109.4889259  10.8535349
  48.5087681 110.1958752  10.6909311  47.3036957 109.8335648  11.5320694
  18.8050723 116.3287830  86.1318096  19.6289086 116.0146809  85.7591590
  18.2704628 115.5408001  86.2293109  56.7214441   6.6803246  22.6620483
  57.6607895   6.8346100  22.5617599  56.5724468   6.7157250  23.6069179
  22.6610708   1.7692833 101.7546930  22.4936843   0.9984379 102.2969147
  22.5540471   1.4577561 100.8559557  52.0968485  30.3759365  32.7877355
  52.7828741  30.9468823  32.4418807  52.5693226  29.6275883  33.1524205
  31.3098288 110.8834457  89.3408736  31.7409515 110.0294781  89.3741735
  31.9232440 111.4430141  88.8646039  87.2415066 136.7675209   8.3393317
  87.4586868 136.0575581   7.7351624  86.8834877 136.3256931   9.1092944
  17.9782546  98.8244057 105.6387761  18.1829405  98.1537724 104.9871730
  17.8385448  99.6210384 105.1268309  15.4637039 115.6656170  20.9248853
  14.9266243 115.6678009  21.7172050  16.1779594 116.2728786  21.1180139
  51.1741924 131.2956905 103.7959500  50.7394314 132.1095181 103.5411944
  52.0796967 131.5523338 103.9704027  36.4230824 120.6683636 107.2822367
  35.5255842 120.4315853 107.5160398  36.5848875 121.4867496 107.7515847
  59.9822330 138.6872101  17.7863491  59.3276882 139.3683338  17.6318133
  60.8060980 139.1645718  17.8843391  27.2207952  20.8454876  34.9005413
  27.6045346  21.0772496  34.0548110  26.2827420  20.9992771  34.7881389
  36.2886429   3.5947304  30.1377106  36.2116957   3.8247376  31.0636735
  37.2209001   3.6917286  29.9434948  29.9853659 138.0879974 107.7061098
  30.7332134 138.6835194 107.7542660  30.3545189 137.2654343 107.3846325
  68.3751488 125.8480072  23.9522290  68.8783836 125.3636551  23.2977152
  67.5031042 125.9354019  23.5673499  76.8296766 134.2110443  78.9264568
  76.2903070 133.7571144  78.2789501  77.5963163 134.5060730  78.4350856
  15.1652563 140.9663486  -0.0717074  14.9351752 141.7780781   0.3803932
  14.9988055 140.2780437   0.5723093  43.4169531   3.8855629   3.4260857
  44.2930841   4.1493397   3.1449327  43.5678625   3.1568413   4.0281016
  59.7890043 109.8365879  97.6241597  59.9523640 110.4517651  96.9092425
  60.3537750 109.0884972  97.4301740  31.7009258 126.2646675  35.4834700
  32.5514674 125.8260345  35.5037594  31.8085742 127.0226574  36.0580111
  44.3641520   3.2647209  29.9566102  43.6635017   3.8444405  30.2553463
  44.0417433   2.3831158  30.1438427  52.1388245 114.5451832  29.0429997
  52.9565239 114.9931717  29.2595840  52.3239374 114.0936565  28.2195401
  11.9604480 142.4352646   2.4385527  11.6902423 142.8645802   3.2502872
  12.5337172 141.7235851   2.7233407  29.5607662 119.2786407  28.6260557
  30.1183653 119.1677189  27.8559828  29.5049405 118.4033394  29.0094185
  85.1717949   0.8460980  15.3612232  84.2943859   1.1752587  15.1662028
  85.6135941   1.5801506  15.7880843  35.7072735  98.5264969   7.6057416
  35.4962921  99.0346336   8.3890116  36.4964533  98.9408398   7.2568178
  67.3735952  16.0022335  85.4172906  66.7407084  15.5868893  84.8314842
  67.0886469  16.9145375  85.4696616  74.1496134 146.2164688  37.3811626
  73.6071062 145.5371284  36.9806433  73.7396765 146.3806152  38.2304215
  52.5368738  88.2861519  36.7529058  51.9936752  88.9602852  36.3446116
  51.9120407  87.6316071  37.0649838  41.3808537 116.0775948  29.9287176
  41.9360781 116.7872238  29.6056199  40.5933666 116.1238098  29.3865418
  68.1874084 142.8683758  88.8308605  68.4847641 142.0567322  89.2420133
  67.2341347 142.8436184  88.9138206  25.1518607 132.8078747  16.7149639
  25.3704286 133.7293434  16.5758491  24.5370579 132.5987434  16.0117495
  54.4454956  88.5204124  54.3987846  54.1816902  88.6398792  53.4864426
  54.2345381  89.3535709  54.8201704  14.0124345 109.4381332  10.0561607
  14.6135390 108.8503551   9.5985425  13.7284672 108.9406967  10.8230710
  24.0476274 130.8457279   1.7377859  24.8825932 130.6937599   1.2951058
  23.4260273 130.2825928   1.2765664  29.9355960 139.3542767  90.1893207
  30.1640034 138.9306450  89.3619188  29.8307014 138.6311817  90.8076771
  68.1316376 121.5318012  30.2149677  67.4617815 121.1479855  29.6490955
  68.5802794 122.1677303  29.6577001  11.0369372 137.2210693   0.4342702
  11.7642641 137.8056145   0.6476568  10.2701950 137.6402950   0.8248924
  80.8254910 106.7505646  21.2200999  80.6537437 107.6800156  21.0688996
  81.2731743 106.7241955  22.0657444  74.0263700  15.1343899  99.8513576
  73.4824562  15.0119953  99.0732785  74.0025473  14.2870312 100.2959427
  21.9700313 131.3969135   4.2170364  21.8430686 131.1566544   5.1348537
  22.8316259 131.0444736   3.9941731  57.8269863   5.8258419  59.5222330
  57.7972555   6.0219555  60.4586554  58.5316801   5.1840477  59.4341898
  27.2654557 139.8496914  34.7703958  26.9294977 139.6883583  33.8887286
  26.6744041 140.5083752  35.1351166  50.7846642 120.6788826  36.5332937
  50.1691484 120.4034805  37.2126532  50.4112816 120.3394032  35.7199192
  58.7893438 117.3011875  20.6475067  59.0356302 116.7609119  21.3982892
  59.4475889 117.1008682  19.9820602  96.1599202 144.7352219  50.9042549
  95.7275266 144.6781921  51.7563200  97.0755500 144.5232105  51.0856533
  72.5052214 102.1039963  23.7238693  73.1696987 101.6244221  24.2185521
  72.9740953 102.4469662  22.9631066  43.8428736 135.4556465 108.0168334
  43.8089609 134.5381260 108.2874685  43.9091492 135.4215813 107.0625382
  29.7616935 145.3062534  10.7603920  30.6785679 145.4372406  11.0020757
  29.3119502 146.0807514  11.0981929  22.8578830  11.2161618  34.7830057
  23.1783152  11.6154080  35.5918097  21.9164944  11.1139946  34.9229407
  44.7053576  10.4461270  21.0707402  44.7187519  10.2144699  20.1420927
  44.5630026  11.3926392  21.0794449  61.4281273 141.2017441   1.7365764
  61.1125278 141.0290813   2.6236027  61.9880629 141.9727516   1.8274190
  10.4721177 123.6759377  86.2962445  10.0544345 122.9118538  86.6936740
   9.8848420 123.9260006  85.5829366  29.8666763 141.1392879  18.0151141
  30.0097299 140.4790783  17.3369694  30.3058124 141.9224453  17.6833653
  47.2039127 126.0602951  92.2760149  46.3299751 126.3909531  92.0683488
  47.1166754 125.6872940  93.1532248  54.4139433 132.1662426  10.6783295
  54.0204096 132.8632259  11.2032866  53.6885357 131.5717125  10.4871678
  45.8976316  71.5905428  27.3700571  46.8253279  71.3892269  27.4928570
  45.7781124  71.5993214  26.4203882  39.6584868 116.8601894 105.9603223
  39.4691944 117.0107460 105.0341835  39.5430374 117.7171803 106.3707768
   0.4237415 108.2467842  19.6411455   0.6693682 107.5731564  20.2752829
  -0.0846981 108.8794136  20.1485848 121.3130415 145.9108353  14.6377361
 120.8426008 145.9510708  13.8050914 120.7977018 145.3093147  15.1751721
  58.9591503  21.4577084 109.2476992  59.5902252  21.4664250 108.5280468
  58.4216738  20.6824284 109.0855508  64.6177435 145.4239941  20.2278161
  65.3273344 144.7815895  20.2336168  64.3228054 145.4468632  19.3174756
  92.5477982 107.4343109   3.3114281  92.1539402 106.5625954   3.2767439
  92.4258614 107.7874756   2.4301553  47.3769474 143.8291454 105.4437455
  46.9567633 143.3147907 104.7544619  46.7234325 143.8733673 106.1417373
  36.6844821 121.1945534  19.3175459  37.1429825 121.9105339  19.7573006
  37.0958877 121.1406994  18.4549463  33.1963325 121.2846375  47.0052719
  32.5473332 121.0831165  47.6793766  34.0189433 121.3793278  47.4854565
  62.8727627   9.8659687   9.8125404  62.9632092   9.2032318   9.1278255
  62.0007896   9.7156697  10.1776576  16.6081846 131.1855221   8.9982373
  16.9800270 131.9530582   9.4328231  17.2148085 130.9986019   8.2817906
  42.5068235 146.4015198  89.6937689  42.0769167 145.7814407  90.2827665
  43.1588030 146.8391609  90.2411433  26.9707465 103.3392429   6.5355939
  27.6883197 103.3026314   7.1680331  27.3231220 103.8438606   5.8024967
  42.8009129   4.6994763  96.8742760  43.3815145   5.1242905  96.2428733
  41.9484472   4.6785717  96.4394256  94.6202850 133.5661697 100.6416216
  95.3429508 133.4471321 101.2579157  94.4770145 134.5123482 100.6203868
  38.2168221 139.5729351   3.9423519  37.6464033 139.2934322   4.6584058
  38.2704306 138.8098240   3.3670139  77.5145578 130.5255604   1.4404103
  76.7824984 131.1110115   1.2465827  77.6204014 130.0030994   0.6453862
  70.4874039 140.2096272   7.2228563  71.3061333 139.8815346   7.5947160
  70.0195789 140.5859280   7.9683530  19.5643771   8.6206417 108.7563802
  19.8771727   8.3508663 107.8928899  19.3227470   9.5403557 108.6470200
  43.3055782   6.7835503  87.7522358  42.4463606   6.8661099  87.3385199
  43.1540823   7.0180683  88.6678132  31.6518784 139.0672207  19.1386676
  31.2235546 139.7646999  19.6349454  31.4374137 139.2567444  18.2252562
  55.5955410 119.7249699   0.0243650  56.3565779 119.7896862  -0.5525815
  55.9669399 119.6550083   0.9037949  43.9187908  10.0437622  99.2886647
  43.9100266  10.0662117 100.2455606  43.5730076   9.1793709  99.0661927
  53.4509277 114.3592834  85.7351359  52.7276850 114.7410393  86.2325486
  53.0776215 113.5746288  85.3336581  69.6294928 108.2147121   4.0318829
  69.9542570 107.3670197   3.7282762  69.9113464 108.2660389   4.9452055
  44.8671484 119.3216610  28.9061952  44.7175503 119.7939110  29.7252417
  45.5726671 118.7074661  29.1092801  34.5845342 126.1072159  21.5712428
  33.9199901 125.8374882  20.9373164  34.4849420 125.4930305  22.2986269
  30.7517052 140.6311893  93.8456091  31.3743639 140.0222206  94.2427071
  30.9406352 140.5895519  92.9081639  59.2686319 117.4518871  32.6104593
  59.8441839 117.6638699  33.3453298  58.9687014 118.3018398  32.2882080
  51.2575769 143.5713959  27.0678782  51.6583300 143.4700489  27.9312205
  51.5266657 144.4436646  26.7798209  61.1333132 102.6503658  87.8261694
  61.0739231 101.8796825  87.2615918  61.4537573 103.3448029  87.2505792
  61.7256927 119.4884109  92.5149878  61.3100624 118.6353874  92.3891600
  61.2939262 120.0610638  91.8810495  56.6043282 125.8451748  19.7989452
  56.1940718 126.5518761  19.3004513  55.9155560 125.1871395  19.8928297
  20.5217123 131.0082912   1.6360791  19.8557317 130.3233814   1.6961257
  21.0951519 130.8511925   2.3862258  58.5157156 144.1199970   6.1690736
  58.2496595 145.0008774   5.9054506  58.9238644 144.2396450   7.0265901
  95.3872108 110.1958179  32.2673893  95.0358105 110.0515842  31.3887835
  95.4522514 109.3191814  32.6462221  66.0655737 118.3495808  30.6236458
  67.0224190 118.3521938  30.6494999  65.8462238 117.7186489  29.9380445
  57.1223736 122.9748154   0.5621259  56.5340233 122.7701092   1.2888780
  57.1004868 123.9296055   0.4978895  46.1541939 134.0084076  94.0377399
  46.9419289 134.1462040  93.5117015  45.4939222 133.7176704  93.4086593
  58.8986254 145.0273514  39.5625925  59.5584393 144.3442822  39.6821570
  58.5309505 144.8560619  38.6955833  55.0095177   7.8209286  17.5299799
  55.8144331   8.3006649  17.7253985  55.1884651   6.9256573  17.8175497
  24.0641212 128.7410545  33.3975482  24.0976810 127.7975368  33.5552406
  23.3783388 128.8495255  32.7386308  89.2386436 135.5165768  10.4030824
  89.5380974 136.1086750   9.7131741  90.0391388 135.2539825  10.8574843
  65.2092934 135.5848408  12.3402083  64.6276808 135.4157352  13.0813980
  65.8270168 136.2399101  12.6650786  52.7512264 118.5701752  36.8091893
  52.5230646 118.1007862  36.0067868  52.1714354 119.3317795  36.8142486
  57.2970200 143.8253403  11.2230992  56.6596794 143.7010384  10.5198348
  57.7605820 144.6288204  10.9869730  84.6234989 136.8624115   5.4910576
  83.7953663 136.8282413   5.9698701  85.2473450 136.4101124   6.0589278
  52.0600176  14.8473721  94.2382201  51.9308853  14.2191677  93.5276433
  51.5770626  14.4763165  94.9766680  46.0707712 125.7675743   9.2543507
  45.2012634 126.0146236   8.9394659  45.9123325 125.0252533   9.8375195
  58.4932995 135.9721184 102.4867668  58.3758068 136.9014072 102.6838573
  59.2999220 135.7308197 102.9421344  56.7321920 139.8960972 106.1711957
  57.4991369 140.1405430 106.6891485  56.6082382 140.6278801 105.5667492
  48.4679794 107.1282387 108.3121518  48.9449406 106.9441795 109.1213857
  47.9108906 107.8762913 108.5273377  39.8860574 142.4486542  96.2385722
  39.1181159 142.6916599  96.7557224  39.7878122 142.9357719  95.4204675
   2.2791661 114.6556282  18.5573351   2.1809445 115.4174995  17.9862559
   2.5803742 113.9575863  17.9757380  11.7759657   2.4587708   4.5891637
  12.1255088   3.1402760   4.0150586  12.4686861   1.7992955   4.6274102
  57.4270439 105.9841824  15.1749337  58.1210232 105.3368473  15.0501299
  56.7895555 105.7872486  14.4885969  51.8323565 132.4592018  26.7505169
  52.4668550 131.8314457  27.0963001  52.2993708 132.9083538  26.0459638
   2.3784585 129.4614315  12.0349658   3.3032712 129.3846798  11.8003118
   2.3258537 129.1042614  12.9214740  32.5571561 125.3719807   0.7697622
  32.3185897 124.6401691   1.3387815  32.6802540 126.1096573   1.3671819
  79.9345970 115.5653381  14.2129651  79.9080992 115.2015591  15.0979463
  79.2784452 115.0644684  13.7283746  64.5374298 119.7265911  85.9423065
  64.7127771 119.5421028  86.8650436  63.7936115 120.3289127  85.9556198
  72.3259544 113.6812305 100.6196690  72.7248240 113.0023384 100.0753880
  72.2588825 114.4420719 100.0427341  17.8189003 144.6966648 107.5163174
  17.3575950 143.9233780 107.8410625  18.0871642 144.4602203 106.6284180
  19.1220510 128.7204838 100.9027100  19.0281999 129.2099476 101.7199326
  18.8638461 129.3408108 100.2209854  22.6766968 107.0536137  92.2077751
  23.3972120 107.6831722  92.2349548  23.0147433 106.3250446  91.6870594
  61.6773939 115.5848026 109.2065239  61.1357737 115.0935555 108.5888290
  61.2152290 115.5111313 110.0415134  25.5778384 115.0206089  85.3311539
  26.1265159 115.0511837  86.1149025  25.6385708 115.9015751  84.9617577
  51.8291187  78.5466146 102.0400333  51.5319300  79.4103098 101.7537785
  51.7002583  78.5511827 102.9885101  82.7249908  22.1039181 104.4679928
  83.1124210  22.6245480 105.1716137  83.2250023  21.2877064 104.4707775
  53.7719011  82.9458141 106.2647152  54.1842365  82.7379990 105.4262543
  52.9601622  83.3943367 106.0277843  75.8067369 129.4578648 105.2210999
  76.4783287 129.7574234 105.8338451  75.1038551 130.1025486 105.3021526
  49.3497038 119.6626759  16.1635534  49.0514612 120.5161285  16.4780370
  48.5586548 119.2415333  15.8272306  41.0615206 124.2079353   6.0231344
  40.4243279 124.3453312   6.7240945  41.7808056 123.7356949   6.4424840
  51.4718962  87.1985149  63.3665562  51.1015081  87.9059315  63.8943863
  51.5732431  86.4702415  63.9793968  27.4556828 117.6446438  99.5232964
  26.9599771 117.0426083 100.0783348  28.1411982 117.1018982  99.1337776
  46.8853378 139.6223354  39.9062005  47.7610254 139.2418098  39.9740259
  46.6562510 139.8579025  40.8052293  49.5242596 136.6355801  92.1389198
  49.7774506 137.3654366  92.7040958  50.3433514 136.1716461  91.9654465
  20.8620977  70.1529932  12.9076520  20.0921011  70.6402922  12.6145974
  21.4027047  70.0646830  12.1226827  48.9947605 126.7506504 100.2090454
  48.4514856 126.8203831  99.4240475  49.8769426 126.5862274  99.8759556
  84.6915913 104.1898918  86.1005783  84.1452503 103.6334801  85.5454636
  84.1548157 104.3558502  86.8755341  29.0290666 130.3123951  87.5479984
  29.6047616 131.0657597  87.4166584  29.2448306 129.7179317  86.8294716
  81.9658279 144.6689415  81.5751553  81.3278389 145.2131176  82.0367622
  81.4367008 144.1100502  81.0060406  59.3594742  13.3198052   4.8767797
  60.1913548  13.0395966   5.2584783  59.6046209  13.9728146   4.2212526
  64.8522615 113.0715752  19.0214483  65.3710032 113.8714695  19.1069547
  65.4350471 112.3747635  19.3231908  51.2233543 139.5093441  97.3951149
  51.6320515 140.3715611  97.3191166  51.3907051 139.2438316  98.2993984
  99.5057297 112.9909134   7.6026288  99.1101360 112.1809101   7.9245416
 100.4338455 112.7801418   7.5006334  62.9922485 126.5944099  65.1819801
  63.2552767 125.6756496  65.2360106  63.2944822 126.9788551  66.0048342
  60.9196568 118.2890987  47.5467587  60.1137304 117.8454304  47.2824097
  60.6807947 118.7662315  48.3414412  53.9074183 133.9909554 102.0506096
  54.6259546 133.9964962 102.6829910  53.1288576 134.1892338 102.5709629
  43.9304543 122.7015877  19.2108480  43.6224318 123.0615902  18.3791295
  43.8346910 121.7543411  19.1119520  77.3547268   3.9017277  98.7486076
  77.3265314   3.8172036  99.7016525  78.2755613   4.0720349  98.5503960
  26.1451316 131.1042595  13.2715741  25.5459142 130.3950310  13.5042802
  25.7147980 131.5521145  12.5432340  23.3255124  72.1587849  97.2157097
  23.0441451  71.2558699  97.3634052  23.0590677  72.3485851  96.3161469
  41.6691637 125.4387760 104.3310452  42.2974968 124.9823284 104.8905849
  41.7797661 125.0369644 103.4693336  33.6310744 142.0220089  12.5580922
  34.0704942 142.4668503  11.8333474  34.3423748 141.6326904  13.0667249
  67.9707956 101.3197899  91.9056320  67.2200203 101.7452240  91.4914322
  68.6646891 101.3650036  91.2478352  27.8401875  92.0132828 100.2883911
  27.9933429  92.4171925  99.4342041  26.8878746  91.9400692 100.3514194
  59.5815182 117.3271275  82.0433140  59.1915035 116.4888382  82.2910786
  58.8752508 117.9630089  82.1576595  61.7919159 117.3469162  80.3243160
  62.1264458 118.1552029  80.7129097  60.9761810 117.1747971  80.7946110
  56.4288568 141.3109779 103.7816429  56.0295057 142.1799469 103.8220215
  57.1806765 141.4197159 103.1992626  39.6793723 106.9631863  93.1599045
  40.0572920 107.8425312  93.1721401  40.2835798 106.4502621  92.6231766
  60.0402832  70.5327034  95.1064014  60.2183485  70.0452375  94.3021011
  60.1755857  71.4492655  94.8658943  63.2328701 119.8133945  17.5248662
  62.2822046 119.9246693  17.5153486  63.4480762 119.5160198  16.6408483
  66.3901281  21.2482052 104.4858837  66.6865110  20.3919773 104.7945404
  65.5606270  21.3929348 104.9410915  18.2179832 131.8516731  93.6069107
  18.9397943 131.2287521  93.5220814  17.6433718 131.4639854  94.2670250
  65.0805092 122.8554821  10.2133790  65.3503990 123.7718868  10.1534406
  64.8858213 122.7233315  11.1411992  40.2253008 114.3169498  33.5943452
  40.0648260 113.5309219  33.0721895  40.0685215 114.0407753  34.4973222
  48.0537796 108.0883121  95.1315689  47.8111362 109.0084362  95.0279999
  48.6587334 107.9174328  94.4097233  43.6000586 131.6139507  16.0046521
  43.0145836 132.1736240  16.5147630  44.3978596 131.5594006  16.5307370
  48.8214874 137.5693607  73.1243324  49.0699863 138.3395386  72.6131487
  48.3924007 136.9913769  72.4934196  17.0760477 111.4138794 102.4300385
  16.8185306 110.5667305 102.0663738  18.0007172 111.5025806 102.1990681
  45.1671696  74.8030329  83.4028625  45.2666283  74.5105886  82.4968719
  44.2318821  74.7091198  83.5835457  10.3627491 126.6596699  77.9246569
  10.0383985 126.4971638  78.8104439  10.8353019 127.4894333  77.9910994
  23.8462234 112.4201298 105.6736469  24.3678141 113.2176971 105.7633686
  23.2430172 112.4435997 106.4165020  65.6188202 117.3382664  24.1148607
  66.1178589 116.6648579  24.5771543  64.7031164 117.1095562  24.2742673
  42.5566053 114.7904396  90.7987595  42.4210262 115.1790619  91.6629505
  42.8801775 113.9082050  90.9809780  51.5606689 114.4112110  94.9969482
  52.3163223 114.4903660  95.5791378  51.8385601 114.8349285  94.1848660
  31.0971045 114.4868279  66.1504936  30.7948899 115.3876400  66.2663460
  30.7121515 114.2101192  65.3189421  64.8088551 107.7502251   3.2682935
  64.4635487 106.9766998   2.8226034  65.1172638 107.4222279   4.1130010
  27.2804618  95.4875374   6.3144914  27.2631335  95.9185314   5.4599897
  26.9257784  94.6139431   6.1493532  36.1420441 113.2314777  75.2572012
  35.3389120 112.9093075  74.8480415  36.5119195 112.4648857  75.6951141
  11.7527986 111.8155193  61.2125206  10.9319866 112.1773815  61.5465117
  12.2245562 111.5299320  61.9949007  41.3312197 109.0939808  66.9324589
  41.1559820 108.2495689  66.5171432  42.1529388 108.9623356  67.4054098
  56.7102385 128.3316994 108.9248276  56.2842703 129.1881847 108.9597702
  56.4205122 127.9538059 108.0944729  64.5422840   1.0149079  15.9781686
  64.0516758   0.6133728  16.6953126  64.0563107   0.7720833  15.1900617
  41.6425085 110.7506657  80.2783871  41.4813805 111.6699505  80.4909897
  41.8215704 110.7501221  79.3380880  49.3960762  95.9959984  93.7446404
  48.5210896  95.8036804  93.4075165  49.4704056  95.4626846  94.5360184
  25.1392865  85.2191257  94.2956543  24.9948931  85.3331375  95.2350044
  26.0662150  85.4218864  94.1694641  37.1600366 118.5463047   5.9164945
  36.8394351 117.9384804   6.5828267  37.8791976 118.0786228   5.4918519
  66.4455700  95.9708786  91.1003113  66.5145540  95.2690506  91.7475414
  66.0657930  96.7051792  91.5828228  71.0670948  73.1522369  10.1337568
  70.1627302  73.3852863  10.3436223  71.3728285  73.8627148   9.5698587
  30.2691317  30.2864247  71.5118027  29.9984121  31.1841183  71.7044258
  30.2732873  30.2374058  70.5558681  54.7302437 138.1769753  94.9706078
  55.5760336 137.7506542  95.1088619  54.8141718 138.6049271  94.1185284
   7.1417075 118.9163208 100.9409332   7.3212546 118.5766602 100.0642204
   7.9805475 119.2694092 101.2374306  38.2755375 109.7959423  90.4008102
  38.9803910 109.2988014  90.8158588  37.4928665 109.2623711  90.5385113
  34.6390414 113.3683300  59.9456596  34.3599963 112.5640678  60.3833008
  34.2813468 114.0720654  60.4869938  34.0645814   2.6972561 106.9493008
  33.2055187   3.1103688 106.8622303  34.3318844   2.8876858 107.8484821
  53.2768202 119.0484238 100.0045300  52.6217794 118.3557606 100.0903893
  54.0921307 118.6453724 100.3029442 120.0408936   4.8357373  64.5951843
 119.8315525   5.4751282  65.2760506 120.2544975   5.3652172  63.8269091
  37.9494405 139.4174671  28.6986486  38.6106658 139.5195389  28.0141012
  37.1548414 139.1650867  28.2283822  51.6734886 115.6314754  78.2377338
  51.5457869 116.3709927  78.8319063  52.3167992 115.0774002  78.6797523
  21.8215489 118.7303352 101.1983109  22.2300482 119.5709229 100.9914780
  21.1997509 118.5843563 100.4853630 121.7352194 136.4326572  95.3056717
 121.0526014 135.7674789  95.2173901 121.2573201 137.2466373  95.4646683
 121.9054521 119.5112801   0.3681604 122.1446258 119.4883442   1.2947122
 121.5032966 118.6584282   0.2034227  54.8562431 127.2616100  29.8478166
  54.7796392 127.3388958  30.7988111  55.3389883 128.0442619  29.5820276
  93.6835480 119.5547199 106.2092400  94.5178604 119.3453312 106.6291332
  93.2848358 118.7030125 106.0307598  13.8339853 143.3956051   0.5864374
  13.3585382 143.9634228  -0.0200041  13.1606889 143.0604458   1.1785356
  60.7706022 105.8379650  60.1274300  61.0184860 105.8209038  61.0518217
  60.3517723 106.6902733  60.0074625  41.5864038 127.9537010  11.1104432
  41.5892792 127.9685211  10.1533643  42.5098372 127.8806686  11.3516275
  42.1657372 130.9070492   0.2148858  42.6572180 130.5237961   0.9413759
  42.8356838 131.2870026  -0.3534754  39.0832925   3.1525688  23.1042043
  38.6168408   2.5950890  22.4814168  39.6936607   3.6554890  22.5649873
  49.5982456   0.1878243  25.1500646  50.2410889   0.6455784  24.6083585
  49.2005301   0.8762818  25.6830636  45.1411867 123.4317303  21.7354432
  44.8171329 122.8676224  22.4375860  44.5359993 123.2817745  21.0091535
  45.1798820  89.8082161  17.0298330  45.4823589  89.7593117  17.9366628
  45.9658909  89.6518517  16.5064088  60.1172400 122.7481556  16.2379686
  60.1718426 121.9699192  15.6833497  60.2521181 122.4189281  17.1265928
  19.4302070   7.7303200  60.7231283  20.1404595   8.2461911  61.1047697
  19.5150888   7.8670864  59.7795582  86.8058109 124.3166351  11.0899106
  85.8643627 124.2919827  10.9187356  86.9615269 125.1910400  11.4468519
  41.8619537   5.0179272  72.1012354  42.3666096   4.2047386  72.0840788
  41.9837236   5.3567105  72.9881573 120.3020266 123.1082630   3.7439767
 119.6554775 123.5509491   4.2937414 120.0345109 123.3124924   2.8478948
  46.2609243  71.4986706  78.3008814  46.6254759  71.5928984  79.1809130
  46.4842176  70.6041288  78.0436563  22.0886135 102.1072102   5.1521245
  22.4286222 102.3052311   6.0247079  22.3819280 101.2128448   4.9780504
  48.9271641 103.0633450  14.7488920  49.8099279 103.3327103  14.4951383
  48.4591389 103.8851547  14.8965780  65.6532717   2.3023968  44.7088376
  65.5909538   3.1952172  44.3693868  64.7452736   2.0059567  44.7712270
  59.8819494   8.0590229  73.9609814  60.6819916   8.3843689  73.5482883
  59.5439386   8.8080864  74.4517708  40.2677155 133.2208252  59.8555613
  39.7283506 132.5046349  59.5203114  39.7016120 133.6752129  60.4794979
  63.6086178 118.4854507  31.7903558  64.3785048 118.4783936  31.2216226
  63.9656496 118.4403706  32.6773301  36.0049129 130.7816315  23.6187688
  36.3931561 131.3730240  22.9739896  35.5425072 130.1269817  23.0954686
  85.1097679  98.8465786  77.6259756  85.2700615  99.5877743  78.2100677
  85.0588703  98.0889797  78.2087994  89.0190220 143.0850410  71.8660641
  89.2484951 143.8810253  71.3864994  88.9379025 142.4127960  71.1895037
  27.2915792 112.3784733  91.2158966  26.4541626 112.8416348  91.1948586
  27.7360106 112.6505566  90.4129791  59.9165058  95.9232140  91.9391346
  60.4852724  95.9362316  91.1693573  59.3551779  95.1588345  91.8093014
  47.8426027  99.3550110  47.9051542  48.3348322  98.5369587  47.9739761
  47.8836870  99.7338486  48.7832355  46.2599373 104.9486446  94.0475273
  46.7172098 104.9948692  93.2078934  46.9436836 105.0957489  94.7010422
  88.5823345   4.2019730  12.3466436  89.1119003   3.7193756  12.9813806
  87.6868534   4.1285496  12.6767293  90.4402637  96.6591740  99.3976402
  90.7181454  97.5378990  99.1390514  91.2122726  96.1118412  99.2539024
  62.5532866 109.6657467 104.7232819  62.2639847 109.3871975 103.8543987
  61.9363737 110.3541279 104.9718571 117.6624114 126.3176537  99.0488434
 117.5611497 127.0105648  98.3962631 117.0836408 126.5773010  99.7656631
  49.9567890 126.9408607 102.5788498  49.6463013 127.8152847 102.8138065
  49.7517395 126.8560600 101.6477203  21.7382479 128.7688160  25.6588975
  21.1721849 129.0607834  26.3734285  21.1336040 128.5340214  24.9549714
  15.9384096  91.2282944  81.9678116  16.7134523  90.6676197  82.0022678
  15.2008057  90.6183720  81.9808197  31.8625402 141.1270046 100.4506874
  31.5434647 140.7156563 101.2539291  32.7972221 141.2628174 100.6060982
  44.6780109 136.0731316  92.2887611  44.2986584 135.2210712  92.5039768
  44.8759556 136.0179329  91.3538837  63.7205219 122.3806381  46.2541246
  64.0786934 121.9162464  47.0106220  62.7947426 122.1377945  46.2403154
  28.0905080  94.8708153 106.3610458  27.9983449  95.2718067 107.2253036
  27.6027155  95.4496574 105.7751846  30.3267288 115.4858780   2.0705358
  29.6071768 115.9285069   1.6204778  31.0516572 115.5113602   1.4459935
  24.2451811 123.9877415 105.4949379  24.7590566 123.3510685 105.9917450
  24.8932338 124.4707775 104.9821663  42.6386404 104.5271683 102.3491192
  42.2915983 104.8627186 101.5225601  42.2005367 105.0482845 103.0219746
  77.7561712 132.1598244 107.7467251  78.4539127 131.6511345 107.3336601
  77.3675537 131.5602589 108.3836842  34.8421597 138.5639191  15.1433126
  35.6361151 138.1725883  15.5076352  34.6237826 138.0093861  14.3942872
  31.0180759 142.7242661  32.2078554  30.3025484 142.5437737  32.8175012
  30.7856798 142.2398949  31.4156381  53.3294630 139.1639137   8.2796518
  53.6632824 139.0551567   7.3891679  52.9297876 138.3200550   8.4903470
  67.1549940 107.7483654  86.1699486  67.1956062 107.3715019  85.2909946
  67.3354149 108.6793709  86.0399437 108.4987146 138.8704872  97.6404762
 107.5924808 138.6987686  97.8963757 108.7800140 139.5806694  98.2173252
  10.6422937  90.4173565  45.7474843  10.2068686  91.2370110  45.9815828
   9.9314511  89.8389816  45.4710428  43.3546543 119.3714237 100.9953785
  43.4908342 118.9222240 100.1611710  42.9569864 120.2081871 100.7547092
  72.4990892 115.2814960  98.3723450  72.0905209 115.3055859  97.5070572
  72.1409655 116.0435295  98.8276196  35.5749440 123.5330391   7.9551355
  35.5973339 124.4898129   7.9729883  34.7381568 123.3207226   7.5416890
  59.1504478 124.5996857  14.6741334  59.4382620 123.9721107  15.3371183
  58.4393167 124.1532993  14.2145101  69.4396067 127.9250336  72.4617958
  68.6098957 127.4583530  72.3617172  69.6465778 128.2372189  71.5809250
  40.8520651 119.6919823  97.1796227  41.2516308 118.8325119  97.0458889
  41.5895700 120.2722073  97.3684597  65.4421806 114.1183472 109.6190548
  64.5053101 114.2925072 109.7094822  65.4872847 113.3086109 109.1105938
  48.4055281 106.6033173   4.6564332  47.7143669 107.1254730   5.0637094
  49.2030811 107.1153164   4.7905675   1.5237311 111.3362789  78.7073851
   1.3106599 111.8666077  79.4752264   2.2097911 110.7413578  79.0100765
  47.0239687 109.0511703  63.7587452  47.4096155 108.9668941  62.8867340
  47.1001530 108.1764412  64.1398907  42.4294567 122.3061466  42.2302476
  42.2669601 122.9352570  41.5273706  42.5855875 122.8469944  43.0044118
 107.9962248 107.3325253   0.9895173 108.2019753 106.4235306   1.2077562
 107.2498984 107.2726250   0.3931562  34.3031192 146.2337017  91.4821243
  33.6734200 146.9259834  91.2809658  34.4319487 145.7780075  90.6502819
  14.3447804 133.3744526  94.2360306  13.4359133 133.0991554  94.3560505
  14.6708763 132.8211880  93.5262394 122.9853750 127.1232128  86.9812584
 122.6961055 126.2107754  86.9784832 122.8811196 127.4102879  86.0740948
  34.3860817 139.2319489  17.9681054  33.4755158 139.2370796  18.2631913
  34.3282557 139.2359352  17.0126573  38.3698440 115.4150772  90.9649658
  37.5564408 115.0021172  91.2549114  38.7226105 115.8285999  91.7528629
  37.9878473 114.6475983 105.7269859  38.6523342 114.0886593 105.3241539
  38.4884501 115.3220272 106.1860943  42.5120687 140.8279514  89.2653084
  42.6573753 141.1778927  90.1443195  42.6860905 139.8904324  89.3489647
  47.0568085 145.4410839  65.7431889  46.1071634 145.3859425  65.6365728
  47.3440552 144.5301628  65.8060694  51.9566822 131.3034058  13.0499402
  51.8542576 131.8210411  12.2513238  51.2546015 130.6542397  13.0062906
  78.6304188 118.7208748  56.8178320  79.3955135 118.4448338  57.3224735
  78.7806797 119.6500778  56.6439819  95.4060364 141.5960884  92.7132988
  94.4950581 141.4063072  92.9376602  95.9083366 140.9069252  93.1480122
  85.2134323 145.9294987 109.3478489  84.3964767 145.5846882 109.7083092
  85.3442383 145.4372692 108.5373974 116.4737701 118.4668827  53.4165382
 117.0566368 117.8175259  53.0230427 116.7337322 119.2962646  53.0155563
  83.7943554 118.9833736 107.0418549  83.1914902 118.8424492 106.3118362
  83.2256222 119.1534138 107.7927589  87.1527767 136.3917542  44.9629823
  87.7611732 137.1205330  45.0853006  87.2282600 136.1699104  44.0349141
  20.7204604  74.7793007  86.5576553  21.1057711  75.1794672  85.7781506
  21.4324307  74.2667437  86.9405651  41.3059855 122.3554039  87.1735573
  42.1792459 122.2951221  87.5608826  41.3379765 121.7683983  86.4181614
  25.6524324 110.5912304  60.8780614  25.4864168 110.1366615  60.0522176
  26.4331865 110.1659966  61.2327901  40.3761721  96.5078354  11.3939515
  39.7176695  95.8381748  11.2091390  40.3389645  97.0951366  10.6390230
  68.0741405 132.9077625  10.1714937  67.1942854 132.6618767  10.4571954
  68.0877876 132.7045727   9.2362062  16.7035770  92.5615597  87.0281601
  16.2651742  92.8446960  86.2257385  17.6197219  92.8075695  86.9001389
  66.1952114 101.5827370 106.4852428  65.5970716 102.1086502 107.0161629
  66.8124199 101.2120247 107.1160030  70.5479050 103.1268311  60.7111025
  70.2109241 103.4765434  59.8862553  69.8464108 103.2852459  61.3427973
  52.3243427  96.7436314  75.0954294  52.3639774  96.7265987  76.0516548
  51.8327808  95.9561634  74.8620176  67.6730251 121.3401127  47.6363707
  68.2236624 121.9867420  47.1948957  66.7853451 121.6903210  47.5614548
  55.0748110 127.8735542  54.9654722  54.4468641 127.3529720  55.4663897
  55.5477667 127.2326565  54.4346285  35.9572673 128.9155006  83.5630417
  36.2519026 129.7137356  84.0014935  36.7511153 128.5494518  83.1731129
   7.9566205  87.0075893 101.3607693   8.5500598  86.3689137 101.7559338
   7.1800017  86.4996815 101.1259937  19.5626330   8.9595585  89.0832233
  19.4620705   8.2341366  89.6995735  20.4407907   8.8451844  88.7199211
  32.4517989 111.9456291  32.9034845  31.6047573 111.7898273  33.3211938
  32.4416137 112.8766060  32.6812211  28.1936312 122.9886436  21.4739171
  28.1017375 122.5378704  20.6345216  27.3364043 123.3858681  21.6275636
  21.9197750  70.0071192  96.7359066  22.5247717  69.3650818  96.3644218
  21.8177629  70.6656551  96.0487652  77.4209452  99.2893124 107.7272415
  77.8261995 100.0788498 107.3685932  77.0309925  99.5744705 108.5535908
  86.9650841 127.6503277  50.2861786  86.6642189 127.4119949  49.4093037
  86.3914871 127.1623898  50.8770609  33.5064411 132.4375725  87.6701260
  34.3538141 132.8825283  87.6842499  33.0840969 132.7520084  86.8707561
  61.1243868 125.1916504  27.8217641  61.4266920 125.1934433  28.7299768
  60.6507683 126.0178661  27.7253572  65.4540300  77.7090406 102.2774124
  65.6698513  78.5175371 101.8126774  66.2319660  77.1603537 102.1774483
  48.9953136 130.7846165  86.9160748  49.7646236 130.8738327  87.4785995
  49.0495062 129.8914814  86.5760612  53.0155468 117.5526237  17.9148713
  52.7578878 118.2099056  18.5612527  52.3062658 117.5578594  17.2721235
  47.8691769 138.7526703  96.7166042  46.9713402 138.9642620  96.9722366
  47.8279495 138.6417770  95.7667446  28.1372428  98.8695049  98.0579948
  28.3358431  98.4810448  97.2060013  27.2910142  98.4939384  98.3010578
  18.8167012 144.4951916  12.3336927  18.2476568 144.0886593  11.6801206
  18.5282612 144.1230583  13.1670801  21.7803001  95.0696278  95.2406883
  22.2223473  95.7730865  95.7160568  21.2577510  95.5203533  94.5773506
  45.2254629  93.2294083  16.4130727  44.8854685  92.4148846  16.7834512
  46.1237955  93.0197334  16.1576024  41.1381674 137.1429157  12.0359746
  41.7801476 136.6142178  12.5098649  41.6641665 137.7082825  11.4703695
  30.2671051 135.6314754   5.4464666  31.0869741 136.0416985   5.7217161
  29.9752402 136.1561394   4.7009603  40.8782196  85.8089542 101.6346455
  40.9578991  85.7846832 100.6810760  40.2552176  85.1120853 101.8407440
  16.5782714  99.5181561  31.7264882  15.9876716  99.3467617  30.9929696
  16.6737258  98.6702633  32.1603051  33.8566971  90.3847408  83.5093498
  33.7106538  90.4323673  82.5645638  33.2440829  89.7148418  83.8129330
  50.1219511 101.2063026  67.1901655  49.7681999 101.5273857  68.0196190
  50.6064701 100.4153633  67.4265862  31.5384293 102.2807503  97.1424484
  31.1075926 101.4265060  97.1720314  32.4567413 102.0926857  97.3362732
  35.0235176 127.4418736  89.3048191  34.4350100 126.7764759  88.9482403
  35.4126740 127.0290756  90.0757885  16.6549373  97.7373219  84.6476650
  15.9692657  97.4206352  85.2357101  16.1941338  98.2949066  84.0207767
  85.9917164 126.9695377  85.8811092  85.5261612 127.4453545  86.5689278
  85.8196831 127.4712467  85.0842857  14.3281054 145.5471802  81.9880486
  14.9149334 145.0922489  81.3839722  14.6888185 145.3643990  82.8556347
  41.7662382  98.8613796   0.7605687  42.0822859  98.3999252   1.5373555
  42.5274420  99.3484974   0.4450933  45.4022503 111.7732048  82.8740406
  45.2864933 112.5189495  82.2852325  45.2425385 111.0064793  82.3237228
  52.4981737 114.6556568  13.3445207  52.8255653 115.5481529  13.2327691
  52.7352095 114.4242764  14.2425767  47.3200798 128.6224365  70.5144310
  47.1914101 129.5683002  70.4435873  48.1831694 128.4686756  70.1301527
  15.5521786 134.6569920 107.2533894  15.1997483 135.5401230 107.3634148
  15.6017053 134.5352745 106.3052559  58.5259485   2.6035672  69.9336910
  58.6542559   3.1011944  69.1261435  58.4241438   3.2707005  70.6125164
  79.5570183 124.0244865  65.2485037  79.5035601 123.6643887  66.1337709
  80.4874611 123.9809799  65.0280190  21.9552541  88.3715153   4.6375791
  22.6221037  87.7223969   4.4135610  21.2748337  87.8704929   5.0872938
  49.7171831 122.9660130  96.0650349  49.6843863 123.4076118  96.9136524
  50.4390669 123.3908176  95.6017208  29.7883368  87.7066040 102.6367378
  29.1819644  88.3379936 102.2495747  30.5116391  87.6550102 102.0119095
  31.6123128 129.4329739  81.0001469  32.2763824 129.9639034  81.4398766
  31.3359571 128.7988472  81.6617680  39.3234611 117.5022507  61.3075161
  39.3854260 116.8954563  60.5698204  40.2042246 117.8674412  61.3918877
  61.9748211 114.3486214  81.7342854  62.4342966 114.8682880  81.0746956
  61.2504625 113.9430809  81.2577534   9.4930899 115.4701710  72.4182224
   8.8111144 114.8976803  72.7694988   9.0206212 116.2418556  72.1059608
  58.2607889 145.3653240  92.0832157  57.7424860 145.8698273  92.7101612
  59.1508770 145.7034969  92.1812534  44.0252495 121.3960743  75.3036690
  43.2301807 120.8895111  75.1378918  43.7247229 122.1584320  75.7983685
  57.1129131 106.4725113  40.6075954  56.6879129 106.3058376  41.4489174
  56.8813801 107.3771763  40.3973532  56.5559721 115.2810478 101.1217785
  57.1027088 116.0667419 101.1210918  55.9550571 115.4080486 101.8559456
  25.8282709 103.5286522  -0.1774844  25.7650828 104.0728951   0.6073991
  25.8457279 102.6309586   0.1542989  87.2414017  94.2070961   0.3218786
  86.6347599  94.3115616   1.0548917  86.6801357  94.1928864  -0.4533728
  47.5788975 105.4624271  89.0712833  48.5043192 105.2530670  88.9448261
  47.5205278 106.4025021  88.9007473  28.5416508 125.5812263  57.5715685
  27.8395104 124.9490547  57.4179792  28.5204816 125.7380390  58.5156012
  54.7470093 100.9176922 103.9509392  55.5643415 101.3622761 103.7261391
  54.0604925 101.5279198 103.6815834  56.3733101 102.1569633 102.0031548
  56.7011929 101.7724419 101.1902142  57.1202087 102.6386833 102.3585606
  45.9425068 142.0899105   6.8331567  46.7171192 141.5597534   6.6457025
  46.1918926 142.6187897   7.5909940  55.5969143  97.4810600  96.7785072
  54.7498703  97.2209740  97.1405888  55.8085108  98.2992268  97.2280216
  41.2793636 123.8082218  69.0379906  40.5684090 124.0484715  68.4438086
  41.4486265 122.8854179  68.8481808  63.6161280 127.7222347 102.7971649
  64.4947910 127.3727608 102.6486683  63.5129261 127.7144432 103.7487507
  61.9373131 134.7408009  99.6258450  62.6761818 134.9027538  99.0392685
  62.1097183 135.2951431 100.3869057  51.5158415   5.4267292  84.6761322
  52.3057747   5.9397869  84.8464489  51.8414402   4.5792942  84.3727016
  76.4073277   3.6710053  71.5236425  77.0064831   3.7159615  70.7785082
  76.3432932   4.5741253  71.8343067  66.5157032  92.2940636  95.5398273
  66.4886379  91.4653873  95.0615120  67.2296524  92.1848202  96.1679840
  42.7056980  10.1893597  52.9403877  43.0031443   9.4177895  53.4224987
  42.4090528  10.7960205  53.6187696  56.2155199   4.6666508 104.2969894
  55.5541182   5.3474026 104.4209194  56.5772963   4.8395996 103.4278297
  50.7973146 124.0771389  82.9045677  51.0379934 125.0001717  82.8250217
  50.5720091 123.9671230  83.8283443  35.5886626  18.8037472  84.9428654
  36.0096097  19.4874935  85.4639530  35.0857782  19.2810231  84.2829037
  63.4075737  21.4736348  73.7104177  64.1042900  21.9794827  74.1286707
  62.6002359  21.8127423  74.0969849  63.0269575  95.6960869  93.2142735
  62.1030188  95.6404591  92.9703999  63.4002447  94.8616219  92.9304409
  34.5577669 141.6496658  70.5917311  34.3784165 142.2997761  69.9124575
  34.5806885 142.1534157  71.4053249  47.8313684 112.9043198  84.4529343
  47.5137758 112.8937054  83.5500145  47.7620268 111.9944286  84.7419262
  77.6502371 129.4303513  97.3953056  78.2722807 129.0245533  96.7914581
  78.0853987 129.3947983  98.2471371 113.6543769 110.2099419  82.8178501
 113.8357098 111.0710239  83.1945419 113.8955695 109.5913029  83.5072994
  72.6618528 133.2400227  80.4587269  72.9492569 133.9929295  80.9752274
  72.2641325 133.6235428  79.6770906  46.5683317 130.1376915  61.8880510
  46.3824177 130.4776764  62.7633095  47.3803854 130.5734253  61.6293430
  66.6325855 105.2400303  59.8469496  66.3595390 105.3234863  58.9333200
  66.3024044 106.0331726  60.2690125  10.6468320 118.4877586  56.9883490
  10.1730502 118.5441685  57.8181553  10.3282869 119.2333126  56.4795113
  59.5911884 114.2178440  37.5219671  60.2452040 113.7684536  38.0572740
  59.4939137 113.6638641  36.7474595  38.9329290 110.2291298  12.5902788
  39.8065948 110.5798435  12.7633039  38.7819791 110.4092503  11.6623823
  16.6632724 105.5024052  88.6814499  16.7454600 105.3140068  87.7465820
  16.3470304 104.6838665  89.0638351  59.4127798   0.6157475  86.6274834
  60.3629398   0.6228142  86.7431259  59.2176533  -0.2629776  86.3018894
  81.2543392 125.6150818  59.4782209  80.9522438 125.8435249  60.3573036
  80.6014347 124.9945927  59.1542912  32.5621104 136.5657520  73.0424786
  32.6151371 135.7116604  73.4713602  33.4586430 136.9004440  73.0635929
  31.7371345 124.4818592  92.3398781  32.1832108 125.2557278  92.6839447
  30.9287643 124.8220539  91.9564247  75.1040268 102.6389599  77.9781008
  75.7538366 102.4220562  78.6466360  74.3152666 102.8596878  78.4734488
  28.2239103 115.4111195 103.0216694  28.1629300 115.0640106 103.9116287
  27.3201680 115.4221916 102.7064514  41.9440460 100.0312233  73.9994574
  41.4394379  99.4953251  73.3875561  42.3454189  99.3996143  74.5962858
  27.5454140 141.9750881  93.3293819  26.7765737 141.4354992  93.5136604
  28.0481935 141.9617081  94.1437912  60.5224133 115.0817776  57.5294447
  59.8377705 115.6185341  57.1302032  60.3891420 114.2092323  57.1591425
  59.4882345 113.8003063  68.5682774  59.7325897 113.1043243  69.1783094
  60.3220892 114.1816235  68.2934856  47.1312380 115.6222534  97.0783710
  47.3000622 115.6047249  96.1363316  47.8004217 115.0490379  97.4523258
  46.4668226 121.7687416  86.4991283  46.4238167 121.0252094  87.1004105
  46.8327618 122.4805164  87.0241928  72.1948481 112.9139233  76.9810534
  72.9133749 113.1364822  76.3890886  72.6271391 112.6367760  77.7888584
  46.5556574 102.3324490  61.4203119  46.3485765 102.3378086  62.3548269
  46.7475796 103.2468510  61.2122679  37.9410768  93.0289841  65.3744984
  38.6741114  92.7890968  64.8076296  37.1699238  92.9575729  64.8119545
  69.0629816 135.1602268 104.9987793  69.7745275 135.6727505 105.3825092
  69.4083405 134.8639679 104.1566372  83.5263824 140.9250546  85.7409286
  82.6095963 141.2001991  85.7459259  83.4968472 139.9976921  85.5056477
  59.0077496 116.6012573  95.9990597  59.4973755 115.8479595  95.6688404
  59.6111822 117.0325947  96.6040802  78.7906837  92.8879547  88.6406136
  78.7280512  93.5531902  87.9552174  79.5054531  92.3181057  88.3567047
  51.9590092 115.3971672  92.0547009  51.7190504 116.3024139  92.2526264
  52.6100922 115.4691029  91.3567352   9.1566145  99.2606068  57.6086998
   8.2708913  98.9373112  57.4437714   9.0881634 100.2097893  57.5057364
   7.0917642   3.2416134  45.8153772   6.4089346   3.8858872  46.0021353
   7.2823393   3.3575802  44.8845339  57.5538445 113.0472851  16.2370244
  57.7324200 113.4170532  17.1016637  57.2166204 112.1696854  16.4168302
  43.1959248 123.0532837  64.6282578  44.0640545 123.2553864  64.2793465
  43.0708742 123.6824989  65.3386688  43.5047436  78.2016087  48.1120110
  42.9039574  77.5397968  47.7695274  43.1568527  78.4158897  48.9776230
  40.0481892 140.1298714  80.2189732  40.9924412 140.0058842  80.1227856
  39.9119496 141.0640430  80.0609016  55.7586956 110.6731796  69.5452404
  55.1919603 111.3746262  69.8662090  56.6390848 110.9338570  69.8157978
  54.8161554 113.4070969  94.5804119  55.5998516 113.9436436  94.4613647
  54.8361921 113.1554031  95.5037117  61.3863945 118.1822491  84.4700718
  60.9823275 118.9260960  84.0232563  61.2675810 117.4477577  83.8678741
  61.9749308  95.9358978  74.4208097  62.3218107  95.1251698  74.0484810
  62.6090717  96.6065216  74.1671133  54.1552830 118.4190369  74.3359327
  53.3607817 117.9935169  74.0135479  54.8475742 118.1065083  73.7534475
  46.5103865 115.4106617  70.4079294  45.6294632 115.0363827  70.3968096
  46.3843441 116.3109493  70.7076359  38.5937333 120.3540707  64.5786905
  37.7686262 120.0459194  64.9534941  38.3453441 120.7433319  63.7402344
  50.3761339 125.4017258  59.8769999  49.6934414 126.0579777  60.0166702
  50.4202890 124.9222469  60.7042694  51.3303852 125.0983620  66.0672522
  51.5997553 125.8323956  65.5151033  51.5468836 124.3202114  65.5536032
  40.4576111  12.8280526 106.4497662  41.1561918  13.4636860 106.2942696
  40.9115934  11.9899731 106.5378666  33.5285878 103.8209820 102.9439449
  32.7931571 103.6589813 103.5348225  33.3920622 103.2112312 102.2188377
  65.5308056  96.8819809  65.1938677  65.0695419  97.2390842  64.4349527
  65.8404064  96.0238743  64.9040079  37.7837443  97.7649117  87.9629135
  38.2059956  96.9066238  87.9271412  38.4312773  98.3332062  88.3800125
  24.5343161 115.2916718  77.2439623  23.7405825 114.8468590  77.5412178
  24.3872786 116.2128448  77.4585342  17.3497725 112.0493412  68.0889893
  17.9308009 112.5045681  67.4795580  17.5184441 111.1202908  67.9320145
  34.1279912 124.2505646 101.4342022  33.4089756 123.9563560 101.9933891
  34.2524767 123.5367489 100.8087349  43.4293699  90.2391529  55.6916618
  42.5556707  89.9348640  55.4461145  43.2717180  90.9055710  56.3604403
  43.9486742 128.8104820  74.2521191  44.5122576 128.3567905  74.8788357
  43.1487370 128.2854748  74.2256021  13.5487366   2.0229798 105.2605724
  13.0311668   1.3477116 104.8219776  12.9877043   2.3298912 105.9728050
  40.8999538   1.5643006  84.6123695  41.5385914   1.5476494  85.3251743
  40.0702000   1.3310509  85.0287056  33.1966519 124.5617771  73.4108162
  32.7329659 125.1640987  72.8290606  33.3435369 125.0667286  74.2106199
  59.1685677 146.1018753  96.9022465  59.5461512 145.9666252  97.7713680
  59.8420620 146.5821552  96.4206123  55.9124470 116.4176369  65.8670235
  55.9394932 116.7042923  66.7798948  56.4918900 115.6563091  65.8377838
  18.9425790 107.9798317   6.5695134  18.7114692 107.5647640   7.4005071
  19.8755670 108.1773186   6.6517488  67.2248840 114.0661812  68.8848639
  66.6037178 114.1122627  68.1580544  67.4657536 114.9773407  69.0522146
  55.4501915 116.6997910  81.4954185  56.3271713 117.0421600  81.3224506
  55.2471352 116.9981956  82.3819637  61.5989828 138.7852478  97.3941994
  61.6020298 138.4310150  96.5049553  60.9157515 138.2906151  97.8467083
  23.6215067   6.6467648  50.2881336  23.9503121   5.8257466  50.6542444
  22.8287554   6.3968544  49.8134518  83.9247322 102.2491837 100.0691032
  84.7277355 102.0147419  99.6038628  83.2295799 102.1304893  99.4218826
  89.3011189 102.3580170  77.8525305  90.1488400 101.9379997  77.7070141
  89.4761753 103.2932854  77.7482939  21.5630341 119.4061756  21.8132345
  20.8666992 119.0628433  22.3731176  22.1687937 119.8331928  22.4189988
 118.0930377 102.2556686 100.3894615 118.9424474 102.4583626  99.9974728
 117.9458965 102.9606438 101.0200119  32.5356436  16.6917591  80.3870296
  32.9360819  16.3969403  79.5691299  33.2725763  16.9875508  80.9215069
  35.0450802 117.9178238  79.0463638  35.9002233 118.2053852  79.3661594
  35.1677036 117.8040123  78.1039000  47.4478149   4.1818505  40.2987146
  47.2787857   4.1798859  41.2408686  47.7463818   3.2928257  40.1070833
  22.0068979 137.5289154  89.5597172  22.3859525 138.3743668  89.3193817
  21.5505195 137.6967335  90.3842068  47.7766895 104.8782063  61.4751339
  47.2653532 105.5633926  61.0446930  48.4123564 104.6029854  60.8145142
  88.6078739 139.4984341  79.8569775  88.9239693 140.3514481  80.1547909
  87.8617668 139.7029495  79.2933035  64.5256758 130.4555035  73.3541346
  63.8860989 129.9024391  72.9054737  65.0685596 130.8124542  72.6512146
  45.2200222  96.9598484 101.9864559  45.8731604  97.4249363 102.5092697
  44.3827963  97.3336220 102.2613811   1.5620746 113.4503174  80.7898808
   1.6272311 113.6875725  81.7149162   2.4630427 113.4882069  80.4688644
  41.1237574  15.5638485  67.3270702  40.3954744  16.0597210  66.9529581
  41.9052124  15.9532147  66.9346857  59.2271185 132.1844387  62.7025080
  59.4610214 131.9246101  63.5935831  59.9229956 132.7861309  62.4380064
  43.4187412   3.1172161  53.9871025  44.3362856   3.3288746  54.1589928
  43.4235096   2.7210026  53.1157684  48.6212015 118.1666565  71.5592957
  47.7042150 118.0026150  71.3391590  48.9508438 118.6960316  70.8331203
  58.0953360 136.3574409  66.5325880  58.6299658 135.9872913  65.8301687
  57.9280376 137.2586346  66.2567425  12.6931024 132.1959019  91.5256882
  13.3065665 132.9301739  91.4984512  11.8611860 132.5678539  91.2327671
  75.8326960 122.2776794 104.8662281  76.5888071 122.7498627 104.5175457
  75.2557468 122.1588802 104.1117382  48.9828348  98.4934998  96.7066765
  49.3116188  97.6700687  97.0673561  48.0630159  98.5200882  96.9702148
  53.0394840 139.5956039  48.7046289  52.3780394 138.9125347  48.5944414
  53.5797262 139.2905235  49.4335270  33.2358932   2.9118710   6.6105501
  32.5479746   2.5678711   7.1803418  33.4376192   3.7746792   6.9726220
  48.7509203  88.2314205 105.5663586  49.3673897  88.1778336 106.2966537
  47.9276276  87.8978348 105.9229279   8.3470613 126.7418671  65.7562828
   7.8700817 126.9639492  66.5559053   8.5973573 125.8254242  65.8734035
  54.2241573 144.0194416  58.0314445  53.6809683 143.3060074  58.3663893
  54.5703220 144.4453907  58.8156414  41.7363548 129.7992897  96.0143661
  42.4407530 129.1969585  95.7751083  41.1388874 129.7781563  95.2668285
  28.4182835 131.7861748  53.1510162  28.4905100 132.7366352  53.2384872
  27.7825379 131.5317249  53.8198280  28.3418608  25.5916577  98.7079525
  28.8702655  24.8417073  98.9810562  28.9815521  26.2447911  98.4243298
  44.6070242 128.7760353  71.6313648  44.3892813 128.4978485  72.5209856
  45.5433130 128.5960293  71.5465355  51.7173433  95.6931400   9.5505277
  51.8796587  94.7709656   9.7492448  52.1634960  96.1709404  10.2497331
  33.0030823 142.8447914  37.7699113  32.2965765 142.7672958  37.1287584
  32.9933429 142.0104980  38.2390499  60.9480381 135.4925060 103.6837101
  61.0245800 136.4291668 103.8654613  61.5702581 135.3346729 102.9736614
  18.2582605 119.9847031  96.4779282  17.3873997 120.3649044  96.3626957
  18.4549963 119.5767498  95.6346607  26.4497471 125.3880882  14.1648427
  26.7401910 126.0240555  14.8186151  27.2577238 125.0823975  13.7525884
  57.5471735 121.7235756  59.3505335  57.2486305 122.6273346  59.2489624
  58.1104040 121.7429066  60.1242399  54.7548485 142.6543045 106.1287975
  55.6273937 142.5563908 106.5099907  54.7335863 143.5557365 105.8075619
  32.8520894 130.1150894  94.5812702  32.9861546 130.0047493  93.6399460
  32.7325940 131.0576820  94.6973133  65.3095961  87.8108692  42.7866030
  65.6333447  88.1312656  43.6284876  65.4765797  86.8686008  42.8086662
  78.8021898 100.0377941  88.4278774  77.9871655  99.8981762  88.9100361
  79.1215658  99.1558933  88.2368851  62.1789503 119.4049644 105.6908798
  62.6099586 120.0822163 105.1695347  62.3797083 119.6367073 106.5976429
  63.8372469 116.0779285  77.2998428  64.2715311 115.6817341  76.5444279
  64.0600538 117.0071602  77.2440672  49.2167759  93.0520916  92.4340057
  49.3398476  92.5693989  91.6166401  50.0209093  93.5614491  92.5347710
  33.2048917 140.9127712 104.6822834  32.5288677 141.1950588 104.0662193
  34.0182304 141.2696934 104.3254757  58.9428568 134.8429966   4.6051732
  58.6729383 133.9923573   4.2590753  58.8469553 135.4436493   3.8660756
  33.8217330 137.3829460  67.8151894  34.5601296 137.7209759  68.3218813
  33.0494809 137.7606392  68.2361460  67.0805597 129.3417549  87.4640846
  67.9162979 129.0102005  87.7924919  67.3221684 130.0434208  86.8595028
  56.9680786 120.8566189  84.6994591  57.1603870 120.6246185  85.6079960
  57.0353746 121.8111706  84.6766186  32.5808072 118.4325790  94.7450733
  32.8840256 118.3552837  93.8404655  32.0018363 119.1948032  94.7393131
  73.2540941 104.2486858  90.8245564  72.2989225 104.2150497  90.7721710
  73.5498428 103.5235977  90.2741051  18.6981094 126.3286972 103.8633728
  17.8023326 126.0264397 103.7135124  18.6068475 127.2616386 104.0570354
  52.2950697   0.4952793  75.8265448  51.4744854   0.9404641  75.6151581
  52.9611301   0.9735279  75.3327084  34.9474096 128.9935112  64.3148184
  34.4006824 129.2986774  65.0388288  35.8287454 128.9432335  64.6848869
  58.0095530 111.9150066  50.6462097  57.8612423 111.2484360  51.3169622
  58.8520145 111.6800880  50.2572298  83.6281395 136.4677429  50.9118319
  82.9415798 137.1323204  50.8551455  83.1611252 135.6347466  50.8466816
  28.6151290  12.1064549  88.0577946  27.7272677  12.4641018  88.0625343
  28.8619351  12.0658570  88.9817333  57.7761173 119.3504620  71.7384386
  57.9851437 118.4815311  72.0812225  58.2329750 119.9549389  72.3233461
   8.1592035 135.5785847  90.5945969   7.5939029 136.3296986  90.7748604
   8.2325655 135.5575657  89.6404457  67.9811001 106.7318726  55.4310560
  68.5098553 106.8093967  56.2251854  67.1398926 106.3915730  55.7356834
  72.3382854 130.5806923  26.7897224  72.6999807 131.1054897  26.0755849
  72.5590611 131.0700512  27.5821924  41.4786243 116.9078255  80.5870914
  40.8455133 117.2349548  79.9480391  40.9438038 116.6073704  81.3218880
  60.4483175   6.0240345  29.9462485  60.8002710   6.6713791  30.5572391
  59.5075703   6.1996918  29.9268198  54.5944595   2.3593598  94.7990990
  54.6498823   1.4277344  94.5864391  55.4733992   2.6970558  94.6268654
  31.5457749 131.8577766  54.9386883  31.6539478 132.6804733  54.4615078
  31.5392804 132.1147537  55.8607244  51.5477467 120.0160408  67.0934772
  51.4407825 119.1840744  66.6323709  51.8355417 120.6293774  66.4172888
  57.5212955 114.3647861  49.2379379  57.7984285 113.4835243  49.4885492
  56.5818453 114.3814659  49.4206619  84.0420246  95.7641125  70.0843239
  84.4601440  95.9439087  69.2422581  83.9719963  94.8100758  70.1181126
  57.7452517 145.9403896 101.3092518  58.2189417 146.6568756 100.8867741
  56.8214464 146.1516094 101.1743355  11.0404873 139.5777607  78.2349873
  10.9105277 140.0508690  77.4130917  10.8211648 140.2145386  78.9151621
  55.1758623  83.3552361   7.7377263  55.0871515  84.2864323   7.9408208
  55.5534029  82.9722977   8.5295907  23.7608910 119.0429783  86.3681030
  24.4409156 119.4682980  85.8456993  24.2027164 118.7950230  87.1802235
  64.0269756 140.7196617 103.5234928  64.4745398 141.2408638 104.1900158
  64.7341442 140.3147411 103.0213165  37.8563476 132.1740723  95.7483959
  37.5081038 132.6832199  95.0164604  37.2407436 132.3317719  96.4642143
  32.4791980 132.3360825  97.3509884  32.5859880 132.6840973  96.4657116
  32.2296190 133.0950165  97.8781986  60.3404617 105.0582504  67.9986477
  61.2510538 105.2328205  68.2365179  59.9327755 104.7624302  68.8125992
  68.6833811 106.2800694  87.9047012  69.5024681 106.7502499  87.7489376
  68.0146980 106.8161392  87.4784088  51.7493153 121.2028027   3.8928739
  52.3974085 121.1351776   4.5940439  51.2698364 120.3751564   3.9292661
  54.1005898  15.5260449  65.1233721  54.2532444  15.6357937  64.1848183
  53.4715605  14.8068791  65.1812363  51.6064739 116.6757488   9.8566762
  51.4063787 115.8745861  10.3407613  50.7520103 117.0119667   9.5863382
  53.0823851  92.5633907  63.6048269  53.4840679  91.6946411  63.5924292
  52.7291203  92.6513195  64.4900990  67.1437883 116.3004684  74.3859386
  66.8154097 115.4855537  74.7658253  67.6209497 116.0246849  73.6033154
  42.7150440  18.5165959  88.6903477  43.1299114  19.3641644  88.8508034
  42.4499416  18.5498791  87.7711868  62.0671320 103.7056255  90.7051086
  61.7105484 103.1662273  91.4108944  62.1338081 103.1100082  89.9587727
  46.6467667 121.6500473  76.6424465  45.8337069 121.3974380  76.2050152
  47.3045254 121.0504341  76.2902451  27.6050997 114.2891502  19.7652761
  27.8666639 115.1692390  19.4946233  27.4705434 114.3592930  20.7103769
  51.6348553  11.3596611  -0.2035865  52.3071718  11.6064339   0.4314843
  51.2412930  10.5665760   0.1602212  85.9456635 118.0770302  48.0838680
  86.7498875 118.0560112  47.5651979  85.3634453 117.4544716  47.6483440
  75.2420950 130.1508999  72.9217577  75.6244230 130.2637196  72.0515108
  75.9526396 129.7875309  73.4502602  49.4453239 122.5103092 109.9830627
  49.5023584 122.5460243 109.0282249  49.1110086 123.3710003 110.2353954
  63.5137892 121.0183620   1.1468927  63.2089090 120.8961010   2.0459691
  63.1684875 121.8736744   0.8911077  19.3760967  90.8434582   1.9468633
  19.1165984  91.1091805   2.8290693  18.6908340  90.2359104   1.6684190
  49.1445732 118.8228321  86.4254761  48.6576462 119.6206856  86.6317654
  49.2215729 118.8291550  85.4714012  74.9928427 117.3953629  61.1171007
  74.3717718 116.6822433  61.2652874  74.8456526 117.6561165  60.2079391
  37.7551937 107.8002644   0.7676355  38.1890774 107.7874756   1.6207544
  37.3198748 106.9499016   0.7075445  41.6764259 139.0338039 103.2941151
  41.4028263 138.6736965 102.4504948  42.5062180 139.4735909 103.1090355
  53.4214401  11.1876183 102.3511505  53.9291906  10.3788643 102.2852802
  52.5140238  10.8946019 102.4346066   7.2448748 122.0976162  90.6209469
   7.6401174 122.3933983  91.4410210   7.8951156 121.5067291  90.2411175
  44.1742802 108.6452103  79.4061899  44.3648577 108.9732361  80.2849960
  44.9847031 108.2178211  79.1290903  54.7493792 131.4053440  85.5551338
  54.2086315 132.0216274  85.0611591  54.9699545 131.8726826  86.3608456
  33.5011673  22.4757176 101.0876656  33.5241890  21.8209057 100.3898716
  33.9538002  23.2344036 100.7192039  50.6460381  91.9989300  45.9414959
  50.1789570  91.4586544  45.3041792  50.0080538  92.1529007  46.6382742
  88.5794449 134.2150593  75.9078598  88.9311123 134.5283890  76.7411566
  87.6819229 133.9513206  76.1106730  66.7339945 116.2281990 102.9409885
  67.3088837 115.5083275 103.2008171  67.1663618 117.0132732 103.2770824
  27.1915460 124.8909569  79.8675919  27.9671240 124.6477699  79.3620539
  27.0772982 125.8257294  79.6961498  25.3429127 142.0862865  98.8268375
  25.7806468 142.5913906  99.5120335  25.9881139 141.4299202  98.5639095
  26.7854548 120.2444649  51.7329359  26.3785434 120.2100468  50.8672142
  26.2077498 120.8087063  52.2468567 115.8442969  81.3031292  66.2552786
 115.0334263  80.8635712  65.9993267 116.5238494  80.6392384  66.1382484
  17.1367204   0.2060395  80.5131054  17.5989008   0.5243569  81.2885380
  16.2099385   0.3240185  80.7214165  62.5491858 134.7361946  68.1568909
  62.3130083 134.2163467  68.9251375  61.7887497 135.2971554  68.0042744
  24.8891664  10.7273751  84.8341274  25.5074286  11.4239865  84.6134186
  25.2057719   9.9641686  84.3509007  18.2645953  16.4666348 104.7967052
  19.1162229  16.9032269 104.8156738  17.8111434  16.7922764 105.5742550
  43.1614780 114.6318817  82.9939842  43.5586166 115.3284836  83.5167217
  43.8611841 114.3437481  82.4077892  54.3600082 112.2661781  63.0462456
  53.4855318 112.6161098  63.2167292  54.6571255 111.9397259  63.8955927
  18.4759462 108.6377430  11.4723436  18.4615350 108.3065128  12.3702947
  18.4863687 109.5900440  11.5684739  62.5476217  28.3596211  42.7210665
  63.1723642  28.9925366  43.0751085  62.2690821  27.8476124  43.4803391
  16.8772078 114.7776604  99.4425201  16.5550852 113.9006329  99.2344570
  17.0691419 114.7462273 100.3797531 110.8718545 141.4390278  40.5579996
 110.9292430 141.0537910  41.4323759 110.6729264 140.6999207  39.9832153
  25.7918525  99.2189693  90.3744602  26.4379668  98.6781025  89.9203396
  26.2379026 100.0532341  90.5203056  25.5283237 123.1366158  81.3292885
  26.1056066 123.8564682  81.0747623  25.8141279 122.3985767  80.7909203
   3.2117078 119.3292141  77.7252293   2.3247488 119.2612171  77.3718023
   3.7122339 118.6698627  77.2446489  29.1764688 145.3939056  37.3761654
  29.0561366 145.9973526  36.6429520  28.6698008 145.7806301  38.0902815
  12.5374556 144.8435783  20.8704424  12.1360433 144.3717575  20.1407218
  12.5374603 144.2141438  21.5915871  38.9647555 110.4304123  65.1517105
  39.1680431 111.1970615  64.6158504  39.5589089 109.7510052  64.8329258
  44.8746204 129.1359138   7.0250646  45.1343250 128.6874485   6.2202874
  45.6487608 129.6378136   7.2800676  39.4774795 121.2001896  33.4918284
  40.1467419 120.5485630  33.2827663  39.5914721 121.8816376  32.8293610
  24.0063572 100.7770920  72.9581785  23.9928389  99.9353790  73.4137774
  23.1695414 101.1842060  73.1822920  67.7030182 125.8202267  47.1533060
  67.0925570 125.2096558  46.7400599  67.5433016 125.7202244  48.0917740
  13.4531510 116.9915390  34.6476483  14.2380095 116.5639400  34.3050194
  13.5844171 117.0090103  35.5956435  34.9098015   4.0733414  54.0697765
  35.3240013   3.9602356  54.9252748  35.3782248   3.4680348  53.4949636
  44.8845911 140.6206703  83.2355499  44.7101116 141.2091923  82.5010872
  44.0216351 140.4409504  83.6086941  19.7630918 100.5626488  33.3136344
  20.6217480 100.1425457  33.3631897  19.3929923 100.4552841  34.1898370
 119.3859196 109.2122459 106.6146278 118.9696146 108.6566734 107.2736073
 120.3237495 109.1236687 106.7845154  20.0419092 124.2011833  57.3320532
  19.5000815 124.9809170  57.4532127  19.7084296 123.5755062  57.9751253
  50.6451559  67.9996395  59.0923214  50.0463676  67.3252869  58.7714911
  51.5076399  67.5851822  59.0683460  47.8250027 117.7199745  62.1396399
  47.6042509 118.6327457  61.9543028  47.0998383 117.2179127  61.7677498
  22.2800899 136.5089321  68.3085918  22.8925157 137.1338844  68.6966515
  22.7062678 136.2270546  67.4991798  51.5635872  20.1966458  25.4219961
  51.6245127  20.8901577  26.0789299  52.4171972  20.2012997  24.9889183
  44.1654921 133.9859200  78.7131119  44.8977089 134.4488525  78.3059454
  43.6277485 133.6938572  77.9770660  81.4149189 113.0673599  55.7643318
  81.7162895 113.1108093  56.6718149  80.5532265 112.6539993  55.8176470
  55.5779171 124.9368477  53.0772161  55.5890465 123.9898300  53.2160330
  56.4836025 125.2107811  53.2218933  34.9641228 140.2951336  83.6532593
  35.0304365 141.2495041  83.6212921  34.4125342 140.1187706  84.4154167
  81.9835663 117.6065063  45.4035616  81.6711998 117.5875664  44.4989634
  81.3535309 117.0710087  45.8857727  27.5155377  99.5649624  93.9872646
  26.5832758  99.3491459  94.0105247  27.9555416  98.7541008  94.2424679
  32.5497365 121.4519691  81.6260719  32.4594378 121.4525986  82.5790024
  31.6497588 121.4610386  81.3002014  67.1581030 101.8045235  24.5945740
  66.5337658 102.5050259  24.7835970  68.0059099 102.1614361  24.8592901
  64.4832802 128.3947468  80.2010918  65.3372288 127.9655552  80.1482010
  64.6882153 129.3246746  80.2983475  54.4848013 113.9693260  68.5216475
  55.1500082 114.6063805  68.7822104  54.4484711 113.3494377  69.2501116
  70.1890516 126.1936474  46.5085793  70.3584719 127.1229362  46.6633368
  69.3185711 126.0441971  46.8775797  33.3602166 102.1950245  86.0490990
  32.6298785 101.7443180  86.4730167  33.9750171 102.3761368  86.7600441
  62.6948643 119.1170597  77.3200321  62.5680876 119.0287495  76.3753796
  61.9146442 118.7177277  77.7047634  23.1852484 134.5155239  40.9213686
  23.8457298 134.2201138  40.2946854  22.8747559 135.3488159  40.5671644
  35.9155464 117.7394199  91.3253880  35.4051781 118.5414791  91.2137794
  36.0682464 117.4266624  90.4337025  34.1061091 130.1885986  89.7685909
  34.1137052 130.7186222  88.9715672  34.5944929 129.3989658  89.5357800
  19.3350816  97.6410294  62.4618149  18.4170067  97.4024200  62.3336172
  19.5207286  98.2647038  61.7598248  25.7930017   7.7461701  86.4974213
  26.5045333   8.2669430  86.8699074  25.8813572   7.8618985  85.5513573
  58.3799505 145.6058788  61.7917299  58.3844423 145.0295067  62.5559378
  57.4647617 145.8694649  61.6959095  17.3734748   5.7152253  98.3188438
  17.0406210   5.7746773  99.2143345  16.9074261   6.4033203  97.8439140
   5.5226761 130.2405739  52.2884369   6.1586559 130.3125954  51.5766954
   6.0435206 130.3370285  53.0857134  28.2466626 111.2390804  70.5636263
  28.2887030 110.2957726  70.4067039  27.8539705 111.3200283  71.4328051
  51.9285583 122.4196434  80.1711845  51.2528849 122.6570606  79.5361042
  52.5262690 123.1672764  80.1757622  17.8332317 119.1951370  76.6029119
  17.4661827 118.3519554  76.3373041  18.7523496 119.0070915  76.7928886
  44.7107220  95.7982254  61.2166166  44.8088980  94.8731136  60.9912968
  45.6017351  96.1469936  61.1903524  54.1714907 102.7801037  62.3151064
  53.9021969 103.2291508  61.5138149  53.3981276 102.8107738  62.8783131
   3.4393913  58.3253956  65.6651545   3.5880315  57.6959229  66.3707733
   3.2312188  59.1444063  66.1147261  70.0223351 129.9840736  90.2155495
  69.2056608 130.1728249  90.6777763  70.0602818 130.6394768  89.5189667
  45.0050592 121.7766190  72.8756428  44.1982698 121.4113235  72.5124884
  44.8886442 121.7185783  73.8239622  51.2520599 117.6708603  15.9604859
  51.5470171 117.8172112  15.0617015  50.5482721 118.3069611  16.0881722
  42.4454498 106.6991806  34.8925495  42.6985312 107.3664665  34.2546558
  42.6614666 105.8685493  34.4687438  54.3062496 114.0918446  48.9886332
  53.3506012 114.1317177  48.9515924  54.5977449 114.6849060  48.2961512
  39.6025181 123.9815521  45.9828711  39.8043728 123.2373714  46.5500355
  38.9021540 123.6648846  45.4123974  42.9126167 102.0471478  66.5071440
  42.8722620 102.0038891  65.5517721  42.0340586 102.3196983  66.7718840
  46.5551424 125.3037262  53.1444788  47.1012545 125.1486015  52.3738098
  46.9656324 124.7859859  53.8370609  45.8223295  94.2394257  72.2176504
  45.7853556  95.1798058  72.3924208  45.4807901  94.1475105  71.3281918
  53.8789272 115.9805202  62.1420813  53.6054087 116.8956375  62.0790815
  53.1141090 115.4816341  61.8550253  18.4729242 105.7269382  93.2192421
  18.5494184 106.1866474  92.3831558  19.3662763 105.7032490  93.5621548
  26.2515759  90.2825737  34.9714255  26.6085458  89.9592018  34.1442418
  25.4079032  90.6674194  34.7340512 123.7373981  90.2514362  55.9552574
 124.0100064  89.9515343  55.0880909 123.1659499  90.9993839  55.7813215
  50.5423546 122.4190521  59.5916843  50.3013420 123.3380318  59.7083426
  50.0817585 121.9596481  60.2938461  42.7329779 113.1176376  87.7411175
  42.6224184 113.0501080  86.7927265  43.3736086 113.8191414  87.8582191
  58.1195688 124.9442387  37.1264863  57.2544384 124.5724773  37.2984672
  58.2094336 125.6486893  37.7682829  36.7586517 112.0946026  31.2976384
  36.4667010 111.4996719  31.9883347  36.8265033 111.5423775  30.5187416
  53.6384201   1.8916684  73.9522505  53.3986473   2.1078186  73.0511284
  54.2806721   2.5583535  74.1956949  65.0922251  83.4726334  53.5372257
  65.7107353  84.0277195  54.0121555  65.2449751  83.6784744  52.6149845
  44.8535395 109.0353107  85.0215149  44.9240732 109.4151688  85.8972740
  44.0449762 108.5236263  85.0467968  57.8703690 119.3124008  82.5193119
  57.7770615 119.9981976  83.1805229  57.2034883 119.5187950  81.8644047
  79.9570847  98.8347816  65.8648729  80.4022884  98.9935112  66.6972351
  80.6272697  98.4414101  65.3059912   6.4443243  10.6920986  93.7158489
   6.0367543  11.2999516  94.3327999   6.5304571   9.8747235  94.2064571
  61.0633278 116.0376549  77.8714752  61.9194698 115.8765221  77.4748802
  61.2264633 116.7171383  78.5256290  42.2946644  83.4916019  79.5894194
  41.5074539  83.2004929  79.1292143  41.9760847  84.1267586  80.2307606
  36.5403485 131.6334534  56.9449425  36.5812469 131.3844299  57.8682804
  37.4360394 131.5209675  56.6266394  60.9875965  85.8405972  92.1824932
  60.7595205  85.0454807  92.6641750  61.2186384  86.4741707  92.8617859
  40.1180077 112.6014519  69.8130894  39.7392631 112.5290298  68.9370012
  40.0602865 113.5336399  70.0226688  13.0177534 124.9662113  61.7732382
  13.4095120 125.8359623  61.6939163  13.7508500 124.3928051  61.9968557
  62.5688410  80.1093769  59.9153328  63.1209612  80.8377647  60.1996613
  62.6682377  80.0908375  58.9634895  58.8973522  95.3862762  34.5859003
  58.3545971  94.7043228  34.1901946  59.6019411  95.5284786  33.9537835
  20.7430887 118.1448650  73.8205576  21.2451959 118.5753536  74.5125103
  20.5250764 117.2857285  74.1819239  58.7982321 115.6940174  91.2641525
  59.2338562 115.5128574  90.4313087  59.2436934 115.1288795  91.8953609
  53.9488316  95.2825356  79.4101810  53.9862299  95.6107807  80.3085613
  54.7231245  94.7260952  79.3260574  79.7728682 134.3885803  58.8022709
  79.3160582 134.9342918  59.4423962  80.1221657 135.0100899  58.1635523
  62.4436140 103.9524651  85.8187675  62.3384142 104.8775101  85.5963898
  61.9905853 103.4844875  85.1173496 115.1578552 127.6219654  38.8492060
 115.3863323 128.4622955  38.4518695 114.2044587 127.6469040  38.9307237
  54.1895819  99.4003677  76.4021158  54.3698502  98.4974766  76.6638756
  53.2625675  99.4000626  76.1636209  22.5539494 110.6382751  70.9303951
  22.2649026 111.2307072  70.2363396  21.7428088 110.3036499  71.3128948
   9.9799061 127.1254730  47.1025562   9.3989807 126.4020634  47.3379898
  10.2994084 127.4587059  47.9410696  35.0920439 112.0444393  85.8137035
  35.7545209 111.3688755  85.9584904  35.2135134 112.3073864  84.9013710
 103.7444210 107.7600002  30.0921345 104.6397495 107.5234509  30.3343463
 103.3182335 106.9237518  29.9043036  53.9201546 136.9546890  59.3002701
  53.8938522 136.0158634  59.1154432  54.0466070 137.0088577  60.2475309
  51.1189556   1.0428028  51.1181068  51.1326599   0.3279095  50.4817295
  51.9203854   1.5356617  50.9419584  58.1995249   7.6476078  53.9561033
  58.0910444   7.7764778  53.0138445  57.8124094   6.7889386  54.1265488
  39.4967961   3.0650597  65.5389547  38.6009002   3.3332329  65.7431173
  39.6340013   3.3550816  64.6371269  21.8602610 127.5379181 100.2261162
  21.0063171 127.9661465 100.2863121  22.4506402 128.2236958  99.9140358
  32.9273224  22.6005345  47.7654076  32.9671383  23.5536557  47.8442430
  32.7760625  22.2924023  48.6589479  45.9738350 138.4044838  85.2406216
  45.3354359 137.9102516  84.7264004  46.3689899 139.0102768  84.6136475
  42.3131371 141.4127636  68.8946056  42.0381689 140.6958389  68.3230734
  41.8223143 141.2749481  69.7047472  68.0241203 136.6921043  47.7771378
  68.8742447 136.9783592  48.1111765  67.9533672 137.1054363  46.9166803
  34.0600944 111.3760948  78.8633823  34.6835923 112.0249939  79.1895819
  33.6383176 111.0321999  79.6508360  59.7607422  99.5898056  73.2776976
  59.9216509  99.4765186  72.3409462  59.6038628  98.7032413  73.6027098
  43.2673693 114.3398380  65.5349874  42.9382658 114.2091370  64.6456909
  44.0562439 113.7995911  65.5802488  62.2202539 110.5509472  82.5919151
  62.1349907 110.5362988  83.5451889  61.3209248 110.6227207  82.2720814
  53.6620283 133.0241013  70.5677176  52.9696131 133.5521126  70.1702261
  53.7871408 133.4074879  71.4358187  41.0191679   7.0965939  64.4843817
  41.5382004   7.7585202  64.9412060  40.2294731   7.5609475  64.2069197
  36.4699507  21.4324551  56.1838818  37.2809434  21.5584927  55.6912994
  36.7130184  21.6046124  57.0935535  51.9993639 126.9995213  64.1019058
  51.0438967 127.0551014  64.0867949  52.2905302 127.9062843  64.1980839
  26.0144711 118.9584446  35.2315354  25.6911206 118.7524033  36.1085916
  26.8567562 119.3877411  35.3815174  58.6952639 104.9202824  39.1080832
  59.2557716 105.4842377  38.5751510  58.1754398 105.5277538  39.6343875
  57.1972322 143.2610798  57.3211336  57.4799442 143.0817032  58.2178688
  56.3347101 143.6646557  57.4181223  65.8122540 111.5960312  58.5113049
  65.0557184 111.6091824  59.0975714  66.5680647 111.5474987  59.0966511
  52.4259520 120.1472664  44.5906305  51.5997744 120.2445793  44.1171455
  52.1735239 119.7891903  45.4416895  58.7571764  78.0836105  63.0348349
  58.4240103  77.4657726  63.6856079  58.1810570  77.9692554  62.2790289
  31.5108228 131.1800098  41.7110109  31.0616732 130.4868698  41.2272120
  32.1911812 131.4878559  41.1121988  78.2893991  24.9000531  32.0348024
  77.7617979  25.5631237  31.5895963  78.6277342  24.3494206  31.3287139
  43.1828547 120.1803684  65.1779032  43.2379293 121.1259556  65.3159523
  44.0484571 119.9352264  64.8509932  39.5354700 111.2230873  57.1724749
  40.2936745 111.2315178  57.7566719  38.8794470 110.7051277  57.6389313
 106.7179012 120.7054234  32.6277542 107.5212288 121.2255859  32.6097608
 106.0161018 121.3441658  32.5023746  21.3187480 117.0594311  66.3694668
  22.1755624 117.3955727  66.6323471  20.8162642 117.8401852  66.1367464
  40.3969479 127.2557354  33.5710430  39.7641802 127.4566746  34.2605782
  39.8962569 126.7591190  32.9238081  52.5763655 120.0697041  86.7240143
  52.6370144 119.7948742  85.8091259  52.6780128 119.2601395  87.2245312
  53.5903406 131.1398888  75.4774666  53.7798977 130.5907917  74.7166824
  53.9837313 131.9864559  75.2658176  62.2787619 130.0176144  22.9784656
  62.2564077 130.6605530  23.6872482  62.7572298 130.4544449  22.2738528
  18.1988204 123.0846596  13.2848811  17.9549503 122.1973133  13.0214858
  18.6234915 123.4558773  12.5115204  67.5203800 126.2563801  64.2701817
  67.6734304 126.8759441  64.9835873  66.6839647 126.5281010  63.8922834
  72.4109888 130.8172798  73.5341835  73.2418346 131.0875893  73.1432152
  71.7448187 131.2747860  73.0212069  68.9554501 140.1195717  64.4790316
  68.9339542 140.3452969  63.5490799  69.6867657 139.5073223  64.5600414
  58.8085175  94.3006516  29.7564864  58.6568356  94.4995213  28.8325405
  59.7611952  94.2579174  29.8390198  24.8711753 132.0576477  90.6625462
  25.6238246 131.6560650  90.2283955  25.2298951 132.4299622  91.4681053
  18.5109460 133.2280064  55.4110813  17.9786944 132.4965000  55.7238770
  18.4546614 133.8807678  56.1089087  44.4670200 139.5485878  66.5920210
  44.6266365 140.4308605  66.9272184  44.4944191 139.6454239  65.6401253
  33.1609178  96.1194992  48.7002039  32.4002671  95.8914757  48.1657410
  33.4358478  95.2903748  49.0916109  27.3566866 119.1300201  75.7164955
  26.4973760 118.8264179  75.4238510  27.8857565 119.1561794  74.9192286
  41.4990854 120.5928135  58.0583477  41.0598707 120.3890896  57.2326231
  42.4143791 120.7314587  57.8149319  32.5596142 145.0903606  59.4370985
  31.6686058 144.8680687  59.7071457  33.0032825 145.3312874  60.2503300
  11.8214929  88.3372879  63.1697750  12.7563167  88.2576275  63.3594847
  11.4314258  87.5519753  63.5536480  68.3869028 145.5271530 106.2943459
  68.9643192 145.8157825 105.5875778  68.9744759 145.1270962 106.9353962
  62.3516703  94.9945641  80.2641296  63.2845545  94.8587322  80.4299927
  61.9547462  94.1360664  80.4113102  33.3450913  14.0567761 102.5931168
  33.1471205  14.7214489 103.2528400  33.9116597  14.5043545 101.9646931
  75.7376480  95.1531887  78.5001945  76.1452436  94.4256020  78.0303907
  76.0296631  95.0472641  79.4055891  30.4810071 101.7071724  79.0052462
  29.8571396 101.0073757  79.1983891  30.9475350 101.4039040  78.2263899
  32.5827217 103.6393166  70.6769991  33.1221604 103.3637810  71.4181566
  32.4110079 102.8318596  70.1924753  14.6707201  74.0922642  90.9994698
  14.7195983  73.5445404  91.7829514  14.3118429  74.9234200  91.3102913
  28.8075519 143.0153656  65.6266880  29.5907998 143.1617451  65.0962830
  28.2849264 142.3967075  65.1164341  19.0379918 118.6405754  64.9684477
  18.4863734 119.1619396  64.3852425  18.4750211 117.9190636  65.2490282
  20.4725504  13.0531197  93.5191631  20.3328872  13.3707695  92.6270771
  21.2716508  12.5290184  93.4644413  40.9010124 119.2854500  82.5043869
  40.0351286 119.6694469  82.3664856  40.7378960 118.5170460  83.0513573
   9.1161859 133.4812450   5.7108632   8.3143795 134.0033531   5.6836168
   9.6131784 133.8436317   6.4442769  52.6023722  52.3906040  77.2492695
  52.6137877  51.7013216  77.9133463  53.4437084  52.8355265  77.3513889
  51.3330269  99.8348713  48.7893248  50.9026957  99.4507980  49.5532227
  51.2312555  99.1772747  48.1012487  89.4921398 139.9485397  55.0066519
  89.6499825 140.8813953  55.1518774  90.1095295 139.7057343  54.3166494
  52.8049278 125.4522800  61.9053936  52.4601793 126.0410500  62.5767517
  52.5444698 124.5784187  62.1965313  35.4374671  96.1686325  35.9269357
  35.4860854  96.2530804  34.9747086  35.6693745  95.2559471  36.0985994
  52.1686459 112.3599625   8.6037523  52.9896641 112.6764679   8.9805627
  52.0391846 112.8997803   7.8239691  58.6351109 116.0109615  55.1919222
  57.9571676 115.3506660  55.3355551  58.3396626 116.4935780  54.4199038
  29.7478533 136.4912605  82.8472137  29.1148305 135.8210754  83.1048107
  29.2557478 137.0770454  82.2719574  53.2110310 139.2728806  24.5437694
  53.2562971 139.8240185  25.3250718  52.3292398 139.4164467  24.2001581
  49.0686560 128.4108543  66.4272118  49.3764496 127.9601955  67.2135925
  48.8885021 129.3047047  66.7184401  60.9150219 139.7665882  61.9545269
  61.6232443 140.4100704  61.9305849  60.3247356 140.0337601  61.2499619
  62.9572201 119.0643120  74.1141701  62.7254248 119.1459942  73.1890583
  63.8581657 118.7410545  74.1077042  15.3194165  97.6437664  59.8393679
  15.0935578  98.0659199  60.6682253  16.2554038  97.8128052  59.7317266
  69.7766876 133.8300610  57.7895880  70.2678442 134.2949867  57.1122122
  69.7579813 132.9209805  57.4905062  43.6646748 126.2639523  96.8517303
  43.6988401 126.7520428  96.0290337  43.3433008 125.3973293  96.6028976
  68.9259529 127.2639656  27.4725032  69.4296980 126.4508247  27.5081801
  69.5536327 127.9216194  27.1729350  61.3138390 114.9815464   7.4211848
  61.9116783 114.5143318   8.0047333  61.6751146 114.8413467   6.5459383
  35.8521485 119.3622971  36.5336037  35.7108498 119.5182037  35.5998182
  36.6381812 118.8172054  36.5691662  18.4539986 116.5464687  67.6473093
  18.8328576 115.7139683  67.9295158  17.6438129 116.3016033  67.2002411
  68.4990168 143.6259937  49.4627857  67.9092789 143.0559731  49.9562645
  67.9287338 144.3032169  49.0989399  43.4351301 124.0727043  47.0451021
  44.3529081 124.1587734  47.3029900  43.2276201 123.1515408  47.2020388
  47.8715086 144.6346855  84.5549297  47.5053406 145.4394245  84.9217319
  47.2470093 143.9528084  84.8024750  20.6028700  13.0100613  38.0663347
  20.8652449  13.1180935  37.1521592  20.1727128  13.8350849  38.2911587
  66.8559027 123.2750034  27.8973532  66.7586136 122.4621677  28.3933949
  65.9584665 123.5680676  27.7393866  46.7407751 106.2877274  34.9233317
  47.1127558 106.9806957  34.3777537  45.9336185 106.6653252  35.2728319
  54.8688555 115.7847404  78.9283133  54.6377707 116.5682888  78.4294319
  54.8635244 116.0719395  79.8413992 115.7859171 119.0154839  90.5309105
 115.1204909 118.6621284  91.1213112 116.6171909 118.7220001  90.9038544
  53.7085152 115.5265808  56.1381197  53.7680006 116.4776039  56.0472727
  53.3021975 115.3927231  56.9944000  20.1934004 109.1040421  53.7511492
  19.8570406 108.2159710  53.6310291  20.6701946 109.2909908  52.9424763
  40.9071255 122.2288513  77.8696728  41.4104223 121.4276505  78.0145884
  41.4959002 122.9336548  78.1395245  58.0174351 111.8942547  70.5433035
  57.9960918 112.7571583  70.9570408  58.9492178 111.6918468  70.4593992
  62.8392506  71.0383511  31.2998843  63.6948442  70.7299757  31.5983772
  62.9560041  71.9793940  31.1693597  74.2484903  99.0795135  64.8955631
  74.9304819  99.1589069  64.2286158  73.8095093  98.2536030  64.6921110
  28.5459280 143.4144497  60.0894403  28.1292439 144.2759323  60.1107073
  27.8171325 142.7949333  60.1254082  34.3284035  91.9564056  69.8381329
  33.4484863  91.7690849  70.1650715  34.7491789  92.4420166  70.5476141
  39.2928600 124.8633480  62.1830368  40.1416588 125.3025723  62.2364426
  39.1504836 124.5097542  63.0610657  16.9032907 140.6385899  79.0161705
  16.5122867 141.3714886  78.5405540  16.2929308 140.4652405  79.7328615
  54.1189861 125.3825188  48.0465364  54.5352221 125.7796574  48.8115597
  54.8063278 125.3677940  47.3805237  46.0433865 143.9651203  58.5922670
  45.4338312 144.4395542  58.0269527  46.8773460 144.4217968  58.4818506
  19.9063945 137.4153328  82.9711914  19.7220671 138.3515263  83.0473423
  19.5561242 137.0359230  83.7771606  54.1115379 134.4131184  72.8011894
  54.4761467 134.1716194  73.6526394  53.5344362 135.1533318  72.9890060
  35.9250474 116.3163662  49.8592234  35.0792027 115.8747005  49.9347496
  36.2331891 116.3996315  50.7616329  42.4931145  97.3834705  60.5152798
  43.1434727  96.6855526  60.5938673  41.6537189  96.9456863  60.6566572
  58.6563110  51.3616323   1.0489312  57.7854013  51.5871000   0.7219545
  59.1739511  52.1562862   0.9192983  67.5971460  14.9491101   1.7246000
  66.7053747  15.2706318   1.8572561  67.9337454  15.4703694   0.9957544
  19.4684267 131.0465908  63.2792950  19.1906333 131.9296551  63.5227299
  19.0279698 130.4750347  63.9082241  15.5439258 105.8728123  51.7624760
  15.8921564 106.7611694  51.8385935  15.1954126 105.8276367  50.8721256
  33.4584451   4.5622712  90.7173061  33.7348700   4.9837284  91.5310574
  33.1786704   5.2854424  90.1560688  39.7489500  97.4469471  83.8927746
  39.3904567  97.5267124  84.7767162  39.5814681  98.2983398  83.4886551
  70.5655098 114.4114017  45.3515959  70.4087067 113.6030769  45.8397102
  70.6487560 114.1289043  44.4408274  79.4637489 103.6057091  86.6597366
  79.6101809 103.4471703  87.5922871  80.1975536 104.1593266  86.3927841
  11.4583254 135.2290344  51.9251919  11.9572794 135.6699562  51.2375450
  10.8020699 135.8717060  52.1945047  48.4656334 105.2921486  95.7126045
  48.4029770 106.2464809  95.7519627  49.3937206 105.1193714  95.5543900
  62.9737282 142.5451660  70.2980614  62.4324799 142.6394367  71.0819006
  62.6969051 141.7130089  69.9145079  46.7265511 112.1808815  47.9116583
  47.1489859 111.4844608  47.4088764  47.3037863 112.9370022  47.8053141
  32.2542381  10.7846337  30.9275198  32.7777863  11.5649300  30.7451487
  32.6819110  10.0876026  30.4300475  43.4108782 122.9062176  59.7914124
  43.6356211 122.0426273  59.4451141  42.9282665 122.7228832  60.5974531
  55.6054068  98.8560677  43.7140656  55.4853964  97.9381847  43.4704828
  55.8760738  99.2857647  42.9026937  27.0023203 114.1132450  78.6765575
  26.3711691 114.6362877  78.1822777  26.4894414 113.7268448  79.3864012
  35.7378197 125.7485199  60.1205969  35.4803419 126.6110420  59.7950172
  35.9595084 125.2516270  59.3330812  45.5152798  12.1196919  68.3913040
  45.9146118  12.9334240  68.6988688  46.1896944  11.4546757  68.5297155
  45.5720091 138.5468483  89.5755577  46.0105133 137.7799606  89.2070007
  44.6581316 138.2780933  89.6695232  36.2084675 112.3989964  52.8745747
  35.9335136 111.7370892  52.2401333  36.8720245 111.9597912  53.4065771
  39.6820283 104.0646648  42.5841665  40.3763628 104.6179867  42.2264385
  38.8921547 104.6018600  42.5228453  28.5833645 130.8466816  81.9219494
  28.0656981 130.9281158  81.1209297  28.0712342 130.2610302  82.4795914
  52.6650572 126.5513611  84.6286297  53.2942820 126.2580109  83.9696503
  52.3451853 125.7437038  85.0306320  56.9773960 129.7492695   9.7316495
  57.6242208 130.4358768   9.5690957  56.5046453 130.0449181  10.5096761
  39.1835189 117.6827335  31.8133879  40.0452900 117.2678471  31.8515134
  38.5721493 116.9878864  32.0575929  48.8208151  97.3889923  59.2426729
  48.7355328  98.3414936  59.2839193  48.0607605  97.1021748  58.7364340
  35.6571126  97.5573349  90.1523781  36.1725497  96.8804169  89.7138214
  35.5437064  98.2388783  89.4899082  81.1207008 121.6884899  66.1847639
  80.5467796 122.2775269  66.6745377  80.9873581 120.8318996  66.5906048
  50.3215170 135.9263611  56.3795614  51.0245323 135.4263878  55.9647942
  50.4065323 135.7303905  57.3126221  59.9309587 125.1183510  34.4402742
  60.2056599 125.7465839  35.1081824  59.4581175 124.4430351  34.9266887
  38.8490558 135.3178024  60.9264803  38.1975031 135.8964348  61.3225937
  39.2961311 135.8662987  60.2818775  59.0674305 132.1847916  35.0637555
  59.2739916 132.8464603  35.7238817  59.7931576 132.2325993  34.4414496
  13.7323689 117.7775955  37.0616913  13.2131743 118.3491135  37.6274157
  14.5032573 118.2988071  36.8373895  33.7803006 114.5297718  50.9058094
  33.7032509 114.3876457  51.8492603  33.4514618 115.4183578  50.7698059
  44.8542452  96.5978336  35.1562929  44.3762541  97.0770550  35.8331275
  45.7440138  96.5205574  35.5006456  28.9050460 121.3645458  64.7390223
  29.1372967 121.8027592  63.9203262  29.3956280 120.5428791  64.7184229
  34.4710016 100.0274658  30.4714370  34.6247816 100.7111740  31.1234546
  34.4788003 100.4897022  29.6332788  55.2768230  98.1316566  10.5395770
  54.6715021  98.4291553  11.2187743  55.7908916  97.4433327  10.9616840
  20.5512333 122.0588303   6.2016845  21.1188245 122.8000736   5.9904253
  20.6483579 121.4633656   5.4585660  28.3186507 129.8611164  45.2417183
  28.1948352 130.1876354  44.3504906  28.9539599 130.4620934  45.6308746
  83.8649178 104.0632439  26.0101104  83.2445621 104.6184826  25.5377841
  84.7219086 104.3152618  25.6661820  67.8047752   1.4150410  72.5406790
  68.2539368   1.4626007  71.6967440  67.9499102   0.5171566  72.8389692
  79.2217588  65.0493193  73.3264971  80.1537037  64.9652672  73.1248760
  79.1899395  65.6623554  74.0609407  53.9086151 137.2206306  78.0237675
  53.9004755 137.6059341  78.8999557  54.4132948 137.8386593  77.4950218
  26.5300989 101.5312958  57.3037910  27.3559880 101.8089104  56.9074774
  26.1415386 100.9404755  56.6586637  66.8107605 114.7968674  59.2565107
  67.1243572 115.3524971  58.5429573  65.8581638 114.8864841  59.2289352
  69.5859385 123.3035564  34.7473288  68.7963009 123.7076855  34.3876314
  69.5044470 123.4195995  35.6939673  69.8212957 136.9825935  61.3196659
  70.1841640 136.1619663  60.9862852  68.9069986 136.7780209  61.5157223
  52.8501415 126.1980629  59.2317867  53.3249331 125.9415722  60.0223637
  51.9522095 125.9044075  59.3857861  55.2213669 119.0449810  28.0751371
  54.9200392 119.7399044  27.4898934  56.1738968 119.1386127  28.0876231
  31.4331150   5.9253197  75.8256388  30.6407404   6.4222031  76.0292912
  31.2617707   5.5435257  74.9647617  70.3205156 102.2453403  56.7691231
  70.1478672 102.7135944  55.9523249  69.5416594 102.4006176  57.3034477
  74.2055082 135.9688663  56.6589212  74.4849968 135.0580883  56.5661335
  74.5149994 136.2271118  57.5271130  65.9294939 100.9875298  71.5950727
  65.8947945 100.2382755  71.0003901  65.2328730 101.5684509  71.2893248
  40.0243092 132.0748043  23.5334444  39.7607589 132.3519325  22.6559639
  39.2128325 131.7764759  23.9442229  34.6446347 133.0373192  73.1287813
  35.2242208 133.0079842  72.3675632  34.5882535 132.1279144  73.4220743
  62.9177427  86.2621784  39.4092417  63.8012362  85.8938503  39.4109631
  62.6753521  86.3075256  40.3341341  62.5560617 104.3038464  46.5879393
  62.8467464 103.4309483  46.8521261  63.3537769 104.7427464  46.2925673
  43.8679218  94.9569893  55.5649376  43.3460951  94.1918945  55.8069420
  43.8171244  95.5326462  56.3280010  72.1440887 123.8121986  54.5543146
  72.5773716 122.9739666  54.3935156  72.4168921 124.3669128  53.8234949
  20.0698566 120.0842476  60.5219746  20.0902605 119.4620228  61.2490559
  20.9139657 119.9701214  60.0852966  25.3233933 140.2410316  54.4143391
  25.4833055 141.1835384  54.4627333  26.0293198 139.9064159  53.8612270
  76.3885307 138.3131504  63.3710670  77.2434235 138.7352848  63.4559250
  75.7776594 138.9244461  63.7826300  21.8000650 121.0078526  88.2819462
  21.2443757 120.2527142  88.0890751  21.9598746 120.9532261  89.2241287
  25.8400297 119.8387241  92.3912048  26.1889815 120.7256317  92.3025990
  25.8948803 119.6522808  93.3284664  18.2945025 123.4987354  26.9230723
  17.3879075 123.7441254  26.7384076  18.7848139 124.3170929  26.8449068
  44.0775347  97.9257488  48.2185030  44.1192484  97.3725319  47.4384737
  44.4410324  97.3820686  48.9174414  27.6451731 145.7812500  61.4272213
  26.9850445 145.6217957  62.1017838  28.4414458 145.9896374  61.9158459
  48.6047459 134.8281384  28.6088014  48.3608007 134.1889286  29.2782331
  48.1976175 135.6448174  28.8977790  46.2160921 133.6495495  62.3128128
  45.7818127 134.4995785  62.3841047  45.5141401 133.0404186  62.0837831
  33.5837436 118.6393070  50.3717661  33.0756402 118.2173252  51.0645819
  34.4024444 118.8947487  50.7968664  46.9937134  81.6328907  72.9875803
  47.5641346  80.9286213  73.2955647  46.1155462  81.2522125  72.9991579
  38.4474230   9.2303257  73.8060665  38.8981462   8.4591847  73.4619427
  38.6056137   9.1990452  74.7495842  72.1200514 114.2782688   2.9884151
  72.1578503 113.3835793   2.6502943  71.2177849 114.5561028   2.8304318
  54.8312521   1.9678479  30.6075954  55.6701422   1.7717438  31.0247731
  54.9360037   2.8553181  30.2645755  75.7327223 130.7900333  25.6106281
  76.1911011 131.4775944  25.1275301  75.5107450 131.1940193  26.4495301
  44.7393227 137.7952576  45.3260422  43.8710594 138.1166553  45.0830173
  45.3440189 138.4461403  44.9697828  46.3985586 114.3881416  38.7043238
  45.8070183 115.1406670  38.7000585  46.0332251 113.7926102  38.0500293
  57.1979189 127.6541042  42.3151112  57.5579357 126.9204330  42.8134680
  57.5275612 128.4329033  42.7634764  38.4055328 143.9975357  61.0782862
  38.5191369 143.3447838  60.3874636  37.4667239 144.1842556  61.0793352
  65.5358028  87.6826382  53.0458546  64.9842978  88.3671665  53.4246540
  64.9194431  87.0054722  52.7669668  74.2840528 112.6137161  75.2519655
  75.1145697 113.0691242  75.1138687  74.1835976 112.0589256  74.4784307
  48.7422323  90.6043339 109.4176254  49.1928530  91.4279175 109.6044008
  48.7266397  90.1441765 110.2568195 117.7858556  97.7825069  61.2651110
 118.0983389  98.6691189  61.4454222 117.9917354  97.2898006  62.0595264
  47.1969891 114.7616291  63.9659166  47.4758053 115.2869797  64.7159147
  47.8895855 114.1095352  63.8595343 122.0682261 127.1009254   9.9233973
 121.4538336 126.4171410   9.6565759 122.2664303 127.5735760   9.1149729
  16.1818349 127.8328609  56.8632889  15.3390980 128.2608223  56.7120457
  16.7643321 128.5411549  57.1376133  52.4947691 138.5891151  91.0364056
  52.4879122 138.6206532  91.9930553  51.7512321 139.1315937  90.7735443
  49.4742918 130.9832382  82.4846649  48.7641191 130.3872299  82.7227020
  49.1618204 131.8473339  82.7528477   7.8048605 111.5574646  31.0699558
   8.6276686 111.4775085  31.5524769   7.4423838 112.3972511  31.3520741
  58.5342646 139.7553635  45.4047680  58.8215065 140.5682182  45.8206892
  57.5909615 139.7249699  45.5644321  52.5386763  83.0385971  63.2401037
  53.1336308  83.4219742  63.8845301  52.4977636  83.6864853  62.5366831
  39.5662856 116.7823601  26.7039847  39.5324922 115.8269310  26.6565895
  39.2933702 116.9876099  27.5981975  46.1177254  16.2360936  61.6880608
  45.7043648  16.6928654  60.9554482  45.4369640  15.6508999  62.0202398
  72.4463463 126.2172031  41.7067194  72.7928400 125.3249741  41.7167425
  71.8964386 126.2693787  42.4884558   0.6462936  83.8471317  86.3900471
   0.8270606  84.2401123  85.5361652   0.5304471  84.5938015  86.9776630
  97.3569298  95.6617069  93.8420010  97.4291515  96.2040615  93.0565929
  96.7471313  94.9656773  93.5971928  70.3107834   0.0650387  43.8805437
  71.2655258   0.0023060  43.9081669  70.0946712   0.0204354  42.9491282
  51.3036728 129.0461922  39.0739346  50.8771229 128.9873695  38.2190514
  52.0971775 128.5187340  38.9824820  38.2639170 112.8998566  48.9862108
  37.4071431 113.3108330  49.1014051  38.8063526 113.5832024  48.5924625
  41.7635632  41.7462683  41.9345284  41.8993664  41.4978027  42.8488874
  42.0420933  42.6610136  41.8909931  34.4263387 116.4044285   5.8444488
  35.2210808 115.8772659   5.7624817  33.8956594 115.9387779   6.4908075
   6.9735813  70.7925940  47.8789520   7.2767538  70.8993292  46.9773293
   7.7711833  70.6281042  48.3819485  29.7045898 113.8208294  37.2421980
  30.3851223 114.4939518  37.2457480  30.0532055 113.1248474  37.7992487
  31.4036489 117.0192909  63.2542515  32.1817994 117.2734070  63.7503767
  30.6909513 117.5168800  63.6551237  34.6313787 111.3729382   5.3583395
  33.9723253 111.1202049   6.0048735  35.2829528 111.8632698   5.8596033
   3.1524828 118.0591965   8.7098753   3.5903105 117.2131538   8.8034552
   3.5168332 118.5965252   9.4132614  27.1291375  85.8771992  63.8737392
  27.4503708  84.9857903  63.7380171  27.4521422  86.1186123  64.7418547
  47.4893141 118.0125332  68.5409403  48.2131672 118.5299015  68.8939333
  46.7525816 118.2042694  69.1211939  48.3190632 134.3496704  33.3678317
  49.1622734 134.7677326  33.1933236  48.3496380 133.5321617  32.8708792
  45.7813263  95.1930523  39.6253967  45.7585812  95.7641888  40.3931999
  46.3334322  94.4573879  39.8903823  15.3970408 143.9752483  32.8638959
  14.5073867 144.3284321  32.8609586  15.4905510 143.5545635  32.0091963
  47.2082806 110.6300926  95.3805923  47.7750397 111.1934662  94.8536873
  47.3993587 110.8771610  96.2854004  57.7184677 112.6372242  64.1364574
  57.0239019 112.7512074  63.4877539  58.5276937 112.6478767  63.6253119
  52.6403189 101.6758156  50.2544260  52.1721220 100.9889793  49.7797775
  52.1768332 102.4820995  50.0279045  20.1947665 121.5609264  27.0250154
  20.9203839 121.9615650  27.5037622  19.6503758 122.2997570  26.7529678
  64.6227551 133.5535336  32.0006585  65.1298571 134.0274239  32.6598310
  64.7555447 134.0505028  31.1934280  31.5509772 103.9146900  56.3798046
  31.6696453 104.7518635  55.9311581  32.0283747 104.0145493  57.2034216
  54.6407032  11.5435486  75.7337332  54.8664141  12.0372277  74.9453402
  54.5542860  10.6388455  75.4332781 103.4562964 118.0306911  44.7913551
 104.3752140 118.2837868  44.7032356 103.2329888 118.2505417  45.6958055
  33.6186337 124.0464020  55.1937962  32.9932213 124.3586254  54.5398808
  33.8876152 124.8355961  55.6639528  37.1876001 127.8099060  23.3656549
  36.8901587 127.2433281  24.0775180  36.7010760 127.5068092  22.5990677
  26.0908794 107.0900726  11.2886071  26.8959498 106.5837193  11.1804283
  25.9054255 107.0475578  12.2267067  53.9578056 105.6470203  19.6734881
  54.4770861 105.3372955  18.9314318  53.1516218 105.9800434  19.2792845
  75.3312063  35.3873997  39.6790266  75.2148533  36.3277035  39.8151612
  74.4554615  35.0185566  39.7941399  33.5872245   8.6815720  29.5188904
  34.0262032   7.8370362  29.6203279  34.3009114   9.3142014  29.4372702
  46.1435318 100.7218742  33.3548474  47.0288086 100.4847908  33.6310863
  46.2106228 100.8346367  32.4066830  55.5621099 132.3638344  32.0416331
  54.9508572 133.0775070  31.8592501  56.0405016 132.2427273  31.2214446
  18.3600521 114.8674393  40.9443855  18.7147558 115.6378174  41.3881731
  17.4412191 114.8392105  41.2111807  63.7462568 139.9448586  50.8530855
  63.6866570 140.8377838  51.1927176  62.8366852 139.6570587  50.7751036
  44.4196606  89.8391056  41.6534662  43.5926199  90.1626301  42.0106363
  44.5603275  89.0018940  42.0956421  68.8968372 138.7222004  45.6407261
  68.5358620 139.5639801  45.9188223  69.7580099 138.6817360  46.0566330
  34.1562152 113.1720543  25.8286428  33.4990144 113.7954330  25.5192471
  33.9548230 112.3606205  25.3625417  57.1472216 123.0105209  13.6304462
  56.3939381 123.4153843  14.0604317  57.2801018 122.1890736  14.1035128
  63.3641291  99.3040752  57.4463415  62.6055813  99.8844147  57.3827600
  63.6860943  99.4276810  58.3392525  54.9382830  14.9628048  94.1818412
  55.4412603  14.7973042  94.9792465  54.0521383  15.1493244  94.4919940
  28.5022211 111.9841099  51.4190865  28.2132864 111.6865158  52.2817516
  27.7458024 112.4478912  51.0599661  17.3300004 126.7511559  43.7648964
  17.4771500 126.8573380  44.7047377  18.1609499 127.0035648  43.3623457
  49.2524290  96.6742039  12.7162743  48.3699751  97.0331192  12.8094900
  49.1675568  96.0025024  12.0396364  49.6817255 132.1326637  42.5407839
  50.6134748 131.9883919  42.7058983  49.2485094 131.8427086  43.3435822
  35.2760649 104.0980339  32.2029448  34.8943567 104.5425797  32.9598498
  35.6912732 104.7976208  31.6985559  55.1967096 143.5569382  68.1876040
  55.9282637 143.0770588  68.5759020  54.8735762 142.9812527  67.4944973
  28.6483598 117.0888329  37.5391722  29.4118333 117.6120853  37.2951484
  27.9071927 117.6866627  37.4417162  29.7601151 109.8217010  29.4582772
  30.1082850 110.2362633  28.6688852  28.8106918 109.9133205  29.3780684
  33.1005454 134.5448875  19.5429218  32.8046203 134.4074440  18.6430502
  33.2876801 133.6651707  19.8705161  65.4203796 100.8781147  40.9727097
  65.8414984 100.0189400  40.9993935  64.5018339 100.7010269  41.1755562
  16.6589427   4.6177941  64.1175032  17.4922884   5.0083428  63.8543701
  16.7152739   4.5528775  65.0708389  32.2172165 104.4991875  43.0366373
  31.9822049 104.9126053  43.8673496  31.4238286 104.5621967  42.5048494
  47.8831816 142.5809479  40.7916164  47.2415495 142.0482349  41.2614632
  48.4185028 141.9463539  40.3152180  78.8595724 135.5222034  36.2371778
  78.8981533 136.4631557  36.4085102  77.9278755 135.3080273  36.2851524
  57.8211117 117.9125500  78.3984995  57.4624777 118.7787819  78.5914803
  57.4674225 117.6935101  77.5364304  43.6400461   5.6540470  40.4442358
  44.2160511   5.7938462  41.1958408  43.9121056   6.3151722  39.8077369
  54.1101313 136.3191986  25.2474689  53.3212709 135.9412861  25.6361961
  53.7910128 136.8193150  24.4962835  48.1806469 100.2148151  55.7014608
  49.1131639 100.3572655  55.5391312  47.7413464 100.6455135  54.9681520
  49.6580458 117.8164101   0.9453081  49.9631882 118.4068584   0.2564715
  48.9110374 118.2698822   1.3359171  38.5962987   8.8762360  58.2992029
  38.1708336   8.9978772  57.4504328  39.5254183   8.7805920  58.0898619
  43.2962465 120.9320259  11.4001334  42.8990698 121.7472649  11.7065215
  42.7411556 120.6542110  10.6714857   6.1767173 125.1180458  60.1811695
   6.0704517 125.6771851  59.4115543   5.5077863 124.4409752  60.0795126
  15.0879002 106.4657879  91.0938931  15.8986413 106.4765167  90.5851555
  15.3477466 106.1294174  91.9515419  52.3984337 134.3649292  34.5126247
  52.7597523 133.6050034  34.0563560  51.7216778 134.6985054  33.9235878
  33.7191057 126.2388134  50.2622843  33.5974216 126.9688797  50.8692741
  34.1765928 125.5735493  50.7764482  42.9381084 132.3725796  30.5042624
  42.1034288 132.7147293  30.1841450  42.7298260 131.4954758  30.8260441
  86.0255909  99.2410183  70.8862734  85.3768826  99.3655968  70.1935339
  85.5648708  98.7387180  71.5583277  63.0823517  93.9418316  73.3320808
  62.9700041  93.0332184  73.0527306  64.0230894  94.0308857  73.4847736
  45.2945280 121.9509125   8.2969514  45.6662941 121.9971657   9.1777936
  45.9146452 122.4327183   7.7496473  83.6969948 121.7713642  44.1609955
  83.3958435 121.7837334  45.0695038  83.2587433 122.5182629  43.7531996
  22.5553393 122.6042271  28.3597207  22.8032112 122.9116154  29.2316747
  23.3800554 122.5677204  27.8752208  57.5051451  79.1385937  55.2271366
  57.8436375  79.2788410  54.3428373  57.3734045  80.0202465  55.5757952
  37.9964232 122.2097111  87.0359039  38.2677579 121.6364288  86.3189888
  38.7090015 122.1510220  87.6723099  59.2765713 109.9538517  36.4242744
  59.6149731 109.1770649  35.9789491  59.1365385 109.6700859  37.3276567
  46.3516092 121.0493660  40.8115911  47.0240307 120.9026718  41.4768362
  45.5310106 121.0809326  41.3033772  39.1391206 137.9189396  38.1849861
  39.8909664 137.8978157  38.7770271  38.6850953 138.7328243  38.4033561
   5.7385588  84.7270679  61.8196440   5.9098560  85.2023220  61.0066080
   4.8353088  84.4222832  61.7331648  48.7443829 137.8220272  49.1496897
  48.4943390 137.0105362  48.7078714  49.1930437 138.3330536  48.4760618
  53.1819153 114.5140839  45.0444937  52.3594856 114.2587376  44.6265841
  53.1670046 115.4711437  45.0376511  12.8907573 134.3233871  62.6263762
  13.1987631 133.7502098  61.9243622  13.5828042 134.2865849  63.2866383
  50.8809853  76.7748070  53.3994579  50.5691814  76.6673088  54.2980385
  50.4169703  77.5468683  53.0756712  49.1247511 121.3512516   6.3525826
  49.7290754 121.9132805   5.8676505  48.2827091 121.8033886   6.3000125
  15.7343471 124.2928886 108.2883295  16.1502695 124.5870209 107.4779417
  15.4421985 125.0989914 108.7138639  21.2596297  81.8828964  98.2582112
  20.8865285  82.6024532  97.7490278  21.5768528  82.2967815  99.0608963
  76.0729885 140.0207329  48.7554073  76.0745096 139.0642262  48.7916660
  76.5629673 140.2906418  49.5321321  46.7895985 118.0719852  14.7318387
  46.0272646 118.5297775  14.3775678  46.4290524 117.4853230  15.3967202
  72.4105215 116.5680313  29.9697828  73.0283833 116.3995934  29.2583728
  72.9588747 116.6414642  30.7509041  71.6688395 135.6659603  19.8003685
  72.4539661 135.2429867  20.1480794  71.9937420 136.2426376  19.1089082
  31.3715553 141.5063572  88.3480072  30.5569577 141.5953255  88.8427258
  31.4443636 142.3249435  87.8572559  59.1191912 109.2791843  32.6763654
  58.5930252 109.8889828  32.1591330  59.7671700 108.9390182  32.0594025
  57.3199940 135.9982967  37.3297167  57.4504757 136.7005253  37.9669571
  56.4264727 135.6938648  37.4883795  77.3326159 114.1224289  61.5470219
  76.6179037 113.7496090  62.0631838  77.8519440 113.3656502  61.2753296
  60.0673676   2.1275978  41.8945789  60.2167702   2.3276882  42.8186274
  60.2733040   1.1962109  41.8148613  61.1433649 125.0058746  12.6518929
  60.5574369 125.1248455  13.3993995  61.0656929 125.8201313  12.1547186
  66.0077143 129.1806316  56.9727230  65.1339769 129.4532585  56.6925812
  66.3672066 129.9484348  57.4171066  18.8518286 118.6652279  53.9147139
  19.0640807 118.6528111  52.9814243  19.6934044 118.8014412  54.3499422
  23.3943915 103.2450008  88.1064987  22.5986791 102.8228951  88.4303856
  23.8344026 102.5661182  87.5949001  50.9428787 131.7833519  94.0868092
  51.8290138 132.0693207  93.8649464  50.5574799 131.5260887  93.2492542
  60.2947474 123.4830379  40.4947996  60.2101946 123.3770657  41.4423513
  59.9087572 124.3401527  40.3142691  32.3214698 112.4492359  16.4065945
  31.8807864 112.4498940  17.2563183  33.2524037 112.5144100  16.6195381
  27.1457195 118.4374714  32.8854585  27.0689535 118.7589836  33.7837720
  26.6773176 119.0848827  32.3585033  50.8610773 126.7489624  82.3017120
  50.3990793 127.0429897  81.5166473  51.6187716 127.3303795  82.3656082
  31.5611887 133.7695694  50.6067419  32.4824190 134.0249538  50.5583525
  31.4801574 133.0463696  49.9849319  19.9598849 114.1870117  48.5992146
  20.5853033 114.7973633  48.9897966  19.9014926 113.4683514  49.2287827
  40.4374599  93.7791729  46.4348793  41.2249660  93.7882710  46.9789219
  40.5489349  94.5205212  45.8397245  36.8277121 115.1211071  52.2816086
  36.5323472 114.2114162  52.3198271  37.7535701 115.0825882  52.5214720
  84.2086029 128.9872932  45.0096798  83.7732506 129.0390587  45.8605719
  84.4098282 129.8964405  44.7878838  23.6992526 101.7003441  36.3959122
  24.5729613 101.3093567  36.3959026  23.8458467 102.6142883  36.6397047
  47.6378584 120.7066631  45.6007671  46.8197584 120.6660748  46.0960436
  48.2809114 120.2771282  46.1648750  50.1121855  93.0869102  34.8361516
  49.8862553  93.3325577  35.7332826  50.6106901  93.8325882  34.5019627
  61.8365383 140.2605724  69.3179703  60.9151459 140.5072689  69.2378950
  62.2342348 140.5500793  68.4968424  10.9253013 119.8599815  59.7284412
  10.3490233 120.5426502  59.3847895  10.4708469 119.5309162  60.5039549
  29.4289994 144.4729042  16.6126359  30.0654769 144.2852306  17.3024976
  29.7806668 145.2425766  16.1652386  71.0155582  24.9939518  35.3353643
  70.3995132  25.0214367  34.6032691  71.6286612  24.2954426  35.1063800
  44.0872812 132.2822094  61.8322897  43.4031153 132.0046997  62.4415016
  43.6117554 132.6815987  61.1038685  72.0179224 112.7870274  27.2990370
  71.9962263 112.7417278  26.3431549  71.1206627 113.0079174  27.5487733
  69.6477032   0.5053406  46.3989639  69.5042562  -0.3597088  46.7828178
  69.6654558   0.3484898  45.4548693  69.9887562  95.7373047  68.1657410
  69.5730591  96.1495209  67.4084377  70.8433723  96.1634064  68.2312965
  12.0201433   2.0537167  34.3327570  12.1105623   2.6071720  35.1084828
  11.3488913   1.4144688  34.5715356  33.5990453 122.1821880  60.7562828
  33.7532687 122.4038219  61.6746092  34.4667959 122.2131252  60.3534365
  73.6936808  15.1734143  26.5901995  73.1841421  15.2197628  27.3991847
  73.1788874  15.6700116  25.9541106  48.9714813 129.0330887   5.2050209
  49.6625090 129.6562481   4.9805412  49.4035387 128.1791687   5.1858270
  51.1878967  26.2313633  48.6137962  50.8939648  26.4923458  49.4865608
  50.4951859  25.6555538  48.2900095  28.8306999 129.2975712  32.4040961
  27.9217672 129.4075203  32.6833582  29.2917490 129.0164375  33.1944299
  57.9972267 129.8734379  21.0132313  57.9392815 128.9181614  21.0313845
  57.9737091 130.1323605  21.9344449  52.3649740  85.8240891  32.4880981
  51.9928598  85.5453396  31.6513991  52.0653105  86.7269135  32.5945902
  65.9593201 123.3618641  52.7598143  66.3643980 123.1538963  51.9178534
  65.0188828 123.2860565  52.5983810  32.8433466 139.7727776  38.4705544
  33.6357665 139.2380619  38.5193062  32.1839881 139.1900539  38.0938411
   5.6222117 119.7307491  22.4862885   5.0791943 119.0102196  22.1665978
   5.3646475 120.4808426  21.9503284  96.2836075 107.5251484  34.4301534
  95.7088184 106.9281006  33.9512205  96.8289757 107.9267120  33.7537241
  70.6562185 105.3739643  44.9856806  71.2016773 106.1050892  45.2757788
  71.2798882 104.7217274  44.6665192  61.5541649 129.9635124  34.3183661
  61.9581556 130.7561302  33.9651179  60.7575130 129.8493576  33.8001490
  50.3026724 115.3846073  42.7755070  50.2838802 114.4288445  42.7266121
  50.5395031 115.6650448  41.8914795  36.7641830 103.4145927  96.3126850
  37.6362610 103.0862331  96.5315247  36.4397597 102.8077316  95.6473255
  45.3385162 131.3685131  11.7971420  45.6146908 130.4839420  11.5573871
  45.8661079 131.5839672  12.5662065  61.3361406 101.4748001  46.9755888
  61.6434288 101.3652039  47.8754759  60.5275488 101.9803143  47.0585012
  55.5440998   1.1421376  36.3839579  55.5767679   0.4818230  37.0761585
  54.8312902   0.8555489  35.8129954  35.2777290  40.2643376 104.9509495
  34.3917489  39.9209004 104.8355540  35.3054571  41.0458355 104.3989160
  13.7331772  80.7429600  50.2854729  14.4010603  81.1694431  50.8223820
  13.7937880  81.1799145  49.4359875  28.6150718 115.4459858  39.6878362
  28.1567550 114.7009373  39.2991567  28.7372923 116.0573959  38.9615607
  21.4583993 136.5017891  42.7490139  22.2858453 136.8775845  42.4484396
  20.7924199 136.9242859  42.2066069  54.1442728 143.5550594  71.1822701
  54.1471291 144.2252064  71.8657351  54.3371391 144.0340900  70.3763199
  40.5421543  93.5888386  67.0082235  41.0581303  93.6513805  66.2044239
  39.7458458  93.1267452  66.7463207  45.3132439 135.1870251   4.9390504
  46.1280060 135.5275059   4.5696399  44.7369957 135.0727081   4.1833389
  28.2232499 120.1767540   8.5099328  27.7166629 119.4608974   8.1263262
  27.6137328 120.6069946   9.1096079  39.0549755 112.5175190  43.3453274
  38.8606048 111.9796181  42.5777912  39.8722148 112.9640770  43.1241131
  51.1035490 125.6630707  38.2394123  50.9244919 125.9195518  37.3347664
  52.0578861 125.6074905  38.2881927  54.9600983 102.7668571   3.9926723
  54.8021078 103.0013847   3.0781963  55.7212782 103.2891178   4.2458090
  43.9677572 114.9902344  28.9336395  44.0268230 115.0844288  29.8843622
  44.7652531 114.5205307  28.6894846 121.4334563  66.7171955  41.4828348
 122.0852486  66.1337519  41.0942507 121.2736273  67.3794270  40.8104229
  46.9362116 138.7624073  31.5029454  47.3507214 139.0426254  32.3189688
  46.2841320 138.1166363  31.7749834  56.0663891 115.2974415  14.5977342
  56.9163609 114.8587608  14.5610631  55.4753256 114.6436119  14.9710751
  40.4869127  74.8927164 106.4975198  40.9171963  74.4527006 107.2306468
  40.4382753  75.8106995 106.7643138  27.2247696  92.0377064   3.4022009
  26.9315529  92.1099567   2.4938856  26.9642377  92.8662109   3.8046086
  74.1522217  93.1221199  26.1248779  74.6819353  93.3521843  26.8882275
  73.2502651  93.1408119  26.4448047  51.1471224  91.3327503 106.6182073
  50.7674026  91.8797207 105.9305521  50.6047058  90.5440903 106.6238194
  77.5728846 111.6763878  18.4920871  77.3478031 111.5967751  19.4190359
  76.8286562 112.1361542  18.1035352  53.4971189 117.0393372  51.3180351
  53.8322067 116.4776325  52.0169115  53.3125305 117.8737831  51.7491579
  57.1753311  90.6564999  98.2110771  56.9617748  89.7437382  98.4047159
  58.1181049  90.7195663  98.3641466  23.9279318 113.2381821  23.7663579
  24.2997050 113.1813717  22.8861380  23.0647349 112.8319168  23.6884594
  46.0712624 116.2361813  26.6430259  46.8482256 116.7494488  26.8646502
  45.7930899 115.8516598  27.4742866  42.1480656 115.9750366  44.5606995
  42.2206402 116.7770386  44.0432549  43.0389547 115.6260109  44.5877552
  26.1362553 116.7203617  15.7433736  25.9688687 116.5315819  16.6667235
  26.7310023 117.4702549  15.7562149   6.4365113 109.8713493  33.9456058
   6.1788356 110.7593346  33.6979914   7.0327091 109.9922562  34.6846342
  78.2895374   1.3004284  61.4552307  77.8358889   0.7248192  62.0709419
  78.8327885   0.7110005  60.9320927  25.1978087 120.1217461  32.2385144
  25.4895473 120.9946060  32.5016475  24.8105693 119.7496510  33.0308676
  56.3383532 119.3566322 103.1189313  56.3275099 118.6416340 103.7552442
  57.2221756 119.3372345 102.7519026  68.8516045 113.4789848  35.5713010
  69.1585493 114.0271187  34.8491025  69.2972374 113.8281345  36.3431430
  19.6398890 113.0426407   9.6036935  20.4418564 113.3499432   9.1810298
  19.4120789 112.2417545   9.1315633  30.8226800  18.6339550  30.7765818
  31.3552070  18.6314183  29.9811959  31.4544010  18.7429028  31.4874220
  22.6716661 136.2999725  33.3019114  22.2159672 135.7640457  32.6527953
  22.5368500 135.8393192  34.1300750  84.1836548 109.7320843  26.8007016
  83.9740467 108.7985229  26.7731833  85.1007843 109.7637177  27.0729446
  49.0294647 130.2010918  34.8597074  48.5510159 129.7918129  34.1387343
  48.4437370 130.1200104  35.6124234  44.0955305  97.6530457  28.6197758
  43.9651442  96.7834091  28.9978695  43.2317257  97.9038525  28.2924008
  53.3920622 124.0402603  30.9407759  54.3177080 124.2206383  31.1046958
  53.3937311 123.4333706  30.2005625  50.8287430  90.2474689  21.8537760
  51.6643429  89.8529148  21.6041040  50.9818792  90.5974770  22.7314305
  37.0906806  77.8656340  36.0011411  37.4410343  77.7201128  35.1223326
  37.8642392  78.0058908  36.5471864  13.8141584  92.8219604  14.1745746
  13.9253426  93.7713242  14.1237974  12.8671432  92.6943684  14.2303932
  27.5747561 104.5769978  49.4450712  28.1241751 105.1609612  48.9222383
  27.9577923 104.6088886  50.3217077  48.0739594 107.1389008  41.7313623
  47.8970194 106.1985683  41.7049932  48.6908770 107.2867203  41.0145664
  59.9443293 137.2375488  30.5455184  60.3927040 138.0628777  30.7299805
  60.6495047 136.6199875  30.3516698  28.9120483  87.3613930  41.1991215
  29.3015027  87.8068066  41.9515610  29.6603274  87.0936680  40.6656122
  41.8460894 143.5948753 106.9429942  42.5960398 143.3728695 106.3911637
  41.1468124 143.0149651 106.6414254  38.0413222  91.6136837  44.5649815
  37.3199677  91.6311359  43.9360380  38.2543635  90.6852818  44.6594000
  59.0825796 111.4383030  26.3880920  58.6382675 112.2353554  26.6771030
  58.8949060 111.3858604  25.4509354  12.5249720 141.0734653  27.9226828
  12.6328874 140.5413055  28.7109709  13.3863008 141.4653111  27.7784634
  46.2370157 137.4393559  94.0451976  45.8673382 136.8457890  93.3915540
  45.7798529 137.2171402  94.8562821  56.3250160 116.7423820 104.4018342
  56.7230463 115.9314537 104.7183987  55.3903198 116.6351128 104.5780810
  36.7613602 123.3776855  53.3057022  37.3318148 124.0296268  52.8985310
  37.1184611 123.2636261  54.1864395  59.7504854 119.5025730  15.5547929
  60.2964258 119.6659088  14.7856998  58.8657045 119.4024181  15.2035546
  60.6770420 110.6967545  94.9508580  61.4869642 110.7875633  94.4488486
  60.5022621 109.7556496  94.9553212  21.7007637  40.1963787  19.9167776
  22.2189546  40.8860188  20.3316212  22.0198870  40.1667195  19.0148282
  69.3232870 114.4710541  24.2361283  69.9829960 115.0513363  24.6159792
  69.4521475 113.6355686  24.6851206  36.5156984 129.6793556  26.3712811
  36.2229228 130.3072643  25.7107878  37.4358606 129.5212746  26.1602235
  71.9757318 100.3649426  16.7162156  72.6354456  99.7127342  16.4803398
  72.0488834 101.0359192  16.0374868  71.9695377 109.4176769  33.9980340
  71.4839506 109.9581146  34.6212173  71.4113522 108.6526680  33.8586426
  52.3248863 124.6207809  11.2833786  51.3964367 124.6758270  11.5096271
  52.5195789 123.6836815  11.2970257  31.3199663 126.8138409  15.4044783
  30.4965973 127.1609592  15.0612569  31.9493270 127.5244522  15.2813327
  67.2562790 137.6175880  27.8329873  67.5398064 138.5315228  27.8091598
  66.4274788 137.6363277  28.3114910  43.4056139 109.5984554   8.0037224
  43.8357973 109.0529537   7.3452425  43.9967632 109.5765305   8.7562472
  65.8371782 119.7204971  39.9491954  66.5507793 119.0872192  39.8719764
  65.1334000 119.3548203  39.4132781  62.4395370 119.4608688  25.1649618
  62.9362822 120.2783489  25.1304603  61.6004467 119.7067356  25.5544591
  17.9657447   9.6201401  52.9631519  17.9723370   8.9123040  53.6074781
  17.7542138  10.4038220  53.4704256  15.4590249 101.0398769   2.3393813
  16.2626147 100.5923271   2.6042861  15.1557326 101.4781666   3.1344569
  76.7195320 103.9652634  43.5887194  77.5092745 103.8633442  43.0575371
  75.9985971 103.8796234  42.9648972  51.3491058 134.7293377  28.8286185
  50.4246521 134.9113846  28.9973617  51.3430309 133.9372158  28.2912731
  46.7172146 117.0766258  21.0972929  46.8910456 116.6455555  21.9340682
  46.0639000 116.5206814  20.6726336  67.8133154  90.9743214   4.1234389
  67.5890923  91.7610455   4.6204615  68.1061602  91.3032913   3.2735822
  54.6019363 102.6593971   0.9416524  54.2659616 101.8361187   1.2960199
  54.7531605 102.4769592   0.0142460  11.2426949  97.5794315  27.6088881
  11.7995751  98.2702541  27.2498894  10.3808892  97.9870033  27.6949596
  38.4288979 102.0777512  16.9989252  38.4118533 102.9961491  17.2681773
  38.3259344 101.5871429  17.8143585  24.5627594 111.2552643  17.4222183
  25.4041529 111.3214970  16.9706595  24.7911716 111.0159492  18.3204293
   0.3247031 123.1375885  16.6769981   0.7123965 123.9782333  16.4335954
   1.0509300 122.5159168  16.6285515  18.2877803 106.3228703  19.2556918
  17.9574013 105.8178616  18.5126936  19.0516448 105.8318138  19.5583618
  45.7000828 101.5262413  44.8047447  44.9155045 102.0737171  44.7741032
  45.9750891 101.5528870  45.7212019  29.3621683  77.0008326  50.1356316
  29.3471432  77.9315662  49.9126053  28.4715700  76.8107891  50.4305029
  71.2134600 103.9331532  27.3813653  70.7547426 104.2120552  28.1738448
  72.1415281 103.9960003  27.6071525  26.3731909  91.6007137   0.9040049
  25.4197121  91.6601849   0.8442392  26.5934014  90.7991982   0.4293430
  33.2929611 112.9365063   3.4704998  33.8581681 112.6077366   4.1695580
  32.4792409 113.1769466   3.9135361  78.4829617 106.1530972  34.6080422
  78.0138540 105.8023357  35.3650999  77.7984858 106.5324593  34.0568495
  82.6951408 114.4897556  39.0282869  82.3315239 115.3646851  39.1643643
  82.0235443 113.8963318  39.3645048  47.7450991 124.2238522  26.5928364
  48.3168650 124.9482441  26.3387370  48.2742882 123.7009525  27.1951365
  44.7692680  81.3284969  50.0765133  44.4776058  82.1940517  49.7902155
  44.2090321  80.7168293  49.5987749  70.4071331 120.3211594 102.9588696
  70.8967304 120.9766483 103.4557208  70.0791454 119.7137547 103.6219808
  28.8962793 129.7624874   4.5526505  28.6994767 130.6075287   4.9568850
  29.8504233 129.6956444   4.5897582  73.4414959 123.1390667   8.0288190
  73.8707161 122.4572468   7.5119799  72.5058937 122.9677105   7.9214638
  67.9595327 109.5876598  40.1456118  67.0113277 109.7093582  40.1938248
  68.1779099 109.7675514  39.2311788  23.5098314 124.3880272  25.5749631
  24.0630817 123.6596298  25.8570719  23.4114003 124.9309444  26.3571286
  58.6501551  92.9245472  43.9439297  59.1892385  92.8770065  43.1543922
  59.1595745  92.4628448  44.6099281  31.7369628 101.7862892  29.7949696
  31.8329954 102.0426846  30.7121778  30.9009790 101.3212013  29.7625542
  81.2029457 116.7581081  39.5916653  81.0449886 117.6818943  39.7863436
  80.4095459 116.3118839  39.8876977  57.6830530 101.6613770  37.1806169
  56.7367554 101.8003941  37.1427989  57.8628159 101.4872074  38.1045127
  61.1061716   3.0341225  49.0969563  61.6082382   2.2832184  48.7802553
  61.7498732   3.5787373  49.5500278  62.7539444  95.0639725  19.4789004
  63.1436491  95.3919220  20.2893400  61.9364166  94.6506023  19.7564018
  39.7521067 110.0857830  17.7108812  39.3529296 110.5650806  16.9848180
  39.8806095 109.2001057  17.3713326  58.7228775   8.3533459  98.2068452
  58.8419008   8.1716328  99.1390713  59.1777134   9.1834908  98.0646619
 121.6033924 110.1018620  16.7070889 121.5002767 109.4335461  16.0296297
 120.9008811 110.7286072  16.5341485  20.6175470 102.8412533  40.1132536
  19.9836278 103.4688091  40.4604578  21.4684463 103.2545567  40.2594852
  41.6684246 111.4280891  15.1231265  41.4618731 110.5222893  14.8927093
  42.4693727 111.6223812  14.6363366  42.3883963 101.1894703  40.3149796
  42.4677610 100.2356625  40.3284359  42.4253225 101.4459038  41.2364531
  46.5980864 106.2120342  10.3547490  46.1795330 106.0361958   9.5120579
  47.2481441 106.8879414  10.1628959  50.4056406 143.8579273  49.0703154
  51.2054205 143.7588024  49.5867968  49.7074938 143.9294529  49.7212458
  59.5853949 113.8884068  10.3198326  60.0274420 113.3979321   9.6268237
  58.8564110 113.3267403  10.5831742  32.6372266 133.6567211  43.1318140
  32.1413255 134.4085312  43.4560061  31.9705963 133.0029869  42.9209423
  32.8594637  19.1483860   8.4948534  32.7745509  18.7308674   9.3520057
  33.7897038  19.3624859   8.4238207  54.1946316 118.1847286  54.7981596
  53.5830116 118.6044788  54.1932058  55.0050163 118.6856365  54.7053719
  38.2177448  81.9276619  17.4026680  38.8583088  82.2560310  18.0336034
  37.3703814  82.0757484  17.8225231  52.1134377 100.3766346  93.2282456
  52.3384380 100.6784821  94.1082987  52.8793955 100.5945683  92.6971611
  52.2912264  95.7808495 101.0735049  52.2574949  95.3166771 101.9099542
  52.4826717  96.6882229 101.3106605  22.4693251  97.6232433  41.4731503
  22.2731280  98.2057858  40.7394075  23.3744192  97.8290462  41.7069864
  54.1377163 142.0724678  55.1274157  53.6700773 142.0910740  55.9624004
  54.5804119 141.2238312  55.1196861  48.1876469 133.4747028  85.7437309
  47.7489376 133.3369160  84.9042209  48.1871223 132.6121140  86.1586674
  32.7760124 122.5132084  38.6905646  33.5995460 122.1554184  38.3588839
  32.3202014 121.7588043  39.0638351  46.9682980 112.8424835  15.9361362
  46.5604210 113.3526707  15.2364397  47.9001904 112.8383160  15.7175231
  68.1747532 109.7741699  26.4387369  67.3201227 109.3813610  26.2611604
  68.8031912 109.0794754  26.2420130  53.8361311 136.6299057  34.6951437
  53.3717632 135.8026314  34.8224330  54.7141361 136.3711262  34.4151974
  65.8012819  83.9571857  25.8156753  65.7904387  84.4592190  26.6305876
  65.8316278  83.0430508  26.0979033  48.1353235 112.0774460  28.0781651
  48.8269424 111.7439175  28.6497045  47.9114580 111.3362217  27.5153971
   7.0837390  84.6567822   8.0314493   7.1795094  83.7102318   7.9261106
   6.8833750  84.9766159   7.1517920  49.8561764 119.4401646  34.0511107
  50.3661156 118.6933708  34.3649530  50.2526188 119.6640110  33.2091165
  27.4364233 116.9201660   3.7172174  26.7812061 116.2919044   3.4135485
  28.0304456 116.4027500   4.2609569  46.6918182 121.9592953  37.7386951
  47.2131824 121.3040733  38.2024765  47.3382378 122.5508499  37.3534155
  49.5627451 104.3423748  35.8437347  49.4962931 104.4266796  36.7948961
  50.1318932 105.0648212  35.5784392  31.0717583 124.1251183   5.4463023
  30.5829430 123.6888695   6.1441433  30.4795814 124.1113949   4.6943924
  50.9502888 113.6548424  19.3730366  50.0139713 113.8532543  19.3862963
  50.9954834 112.7284527  19.1364110  78.4468317  92.1330261  26.9102979
  78.1485891  91.2320805  26.7855072  78.2473087  92.3266792  27.8262258
  66.2576199 102.5115776  55.8516216  65.3887653 102.8112221  55.5841494
  66.7282486 102.3768806  55.0290680  75.6372023  86.3039207 101.6014399
  75.2800846  85.6335545 101.0189357  74.8676634  86.7607689 101.9410464
  23.6621380  16.4756375   1.3013436  23.2243609  16.2995129   0.4685371
  24.5358038  16.0987072   1.1970827   7.9668874 124.0780067  49.3031645
   7.0666134 123.8705826  49.5535898   7.9499465 124.1016960  48.3464050
  55.7157755 122.1574974  27.6734638  56.5479040 122.6266670  27.6129293
  55.2322531 122.4256134  26.8920851  50.2837801 143.7385368  17.2489929
  50.9458733 144.4289207  17.2136354  49.7001171 144.0026283  17.9602063
  60.1699543 141.4206314  11.3034475  60.6691456 142.2276115  11.4292037
  59.6498919 141.5809441  10.5160069  26.5775323 134.2610836 101.0379800
  26.2776494 133.7232590 100.3051432  26.7624974 133.6329174 101.7361381
  58.0972099   1.3071614  14.1772044  57.9426670   1.9767647  14.8435271
  59.0335512   1.1185437  14.2398465  56.6078281 137.9143047  49.3646240
  56.1538982 137.6964569  48.5505486  57.1581078 137.1517849  49.5434666
  41.0862017 106.0681534  21.3723755  40.3931999 106.1757851  20.7209182
  40.8507967 105.2683258  21.8425775  56.5342951 138.8731575  38.3129406
  56.6190577 139.2421341  39.1920900  57.1396208 139.3868446  37.7782083
  78.9442492 116.2971115  46.0331583  78.8915443 117.2520065  45.9927320
  78.0380392 116.0119629  46.1502504  35.2502537 129.3234253  12.8496003
  35.4468298 128.3937550  12.9649448  36.0742354 129.7687531  13.0470073
  36.5178585 108.4163952  41.3680410  35.6406879 108.5783100  41.7152977
  36.3947415 108.3664989  40.4201078  59.8793316 118.7345123  10.9784651
  60.3392792 119.2993450  10.3574634  59.7237349 117.9233837  10.4946351
  39.9775505   0.6862336  51.0517263  40.5979490   0.0561219  50.6852531
  39.6218562   0.2496891  51.8257666  47.4101353 119.8249054  54.5088482
  47.1655130 120.7208824  54.7404003  46.7519426 119.5548153  53.8684845
  67.5785637 109.7769260  34.5904684  67.4973392 109.0597630  33.9617276
  66.9184780 110.4129791  34.3148732  67.2200346 111.0146236   8.6778820
  67.8253651 111.7468262   8.5609090  67.7809238 110.2390099   8.6853856
  41.0300207 100.8097458  56.6340399  40.8252335 100.3290844  55.8320045
  40.9479284 101.7312813  56.3885689 110.5496025 141.2664413 107.7054454
 111.3563061 140.7679462 107.5752051 110.1347160 140.8566475 108.4645040
  76.9672346 120.8455086  42.7941751  76.9177103 120.4782772  43.6767387
  76.0711527 121.1188698  42.5978661  68.5806847 113.6998844 103.4542420
  68.6455393 112.9317665 104.0217211  68.8752460 113.3903980 102.5976857
  40.1354265  17.7549343  45.5944920  40.0643826  17.8515225  44.6448326
  40.2199459  16.8116742  45.7336426  60.9442949 112.1775913  16.2530398
  61.8202353 112.4911213  16.4781094  60.4396534 112.9741859  16.0887074
  35.0890851  86.5661240  39.7491431  35.2865076  87.4984169  39.6592689
  35.4081774  86.1742687  38.9362073  44.4104815 107.0057201   5.5942184
  44.2829990 106.2114525   5.0754583  44.5217848 107.7004051   4.9451759
  53.0195999 126.0258579 106.3795393  53.0753469 125.5088615 105.5758938
  53.0641699 125.3792191 107.0838901  50.4953480 113.0899429  37.3781133
  49.5488214 112.9549408  37.3323703  50.8557558 112.4790764  36.7353201
  32.9089952  91.1540127  28.3171749  33.0821419  91.4812851  27.4344850
  33.7745881  90.9491348  28.6707354  54.1606331 106.0017490  46.4850760
  53.3950758 105.6806850  46.9615936  54.9017763 105.5537605  46.8928099
  69.6705914 114.8638248  11.7558229  69.2354727 115.4531574  12.3719263
  69.1184473 114.0820503  11.7415643  15.5669463 132.0800591  14.7716224
  15.6514513 132.3582745  15.6835926  15.8413064 131.1630249  14.7745633
  25.4329658 127.6247692   6.7383051  24.7947478 127.1507740   7.2714484
  25.4203415 127.1750927   5.8933973  64.3693924 117.3046112  36.2226796
  64.4458818 117.4493408  37.1657777  65.2729034 117.3025513  35.9066248
  38.2495379  10.5801850  68.2966805  38.2964063   9.6246891  68.3291388
  39.1227698  10.8718567  68.5586500  73.0723715  98.4688663  13.5324216
  73.5370874  98.4148312  14.3674970  72.1462679  98.4816265  13.7740815
  60.0765514  87.3248291  98.1111106  60.5293798  87.1548557  98.9371201
  60.5442572  88.0679893  97.7300783  55.7926130 138.8209534  25.7507944
  55.2710104 139.0165329  26.5291953  55.2923727 138.1471634  25.2903533
  70.1099682 129.3537045  26.3387156  70.9677362 129.6842003  26.6056156
  70.0540161 129.5589256  25.4054499  61.4117765 124.7084236  32.2220945
  62.0040226 123.9863396  32.4320459  60.8870029 124.8257542  33.0139756
  69.3207598   2.7853279 102.6923331  69.5297384   3.7088662 102.5521871
  68.7163925   2.5662213 101.9831320  19.4285333   0.3206234 105.2163451
  20.2855611  -0.0771351 105.0629886  18.8424253  -0.1319999 104.6098461
  87.4989796 141.8621635  28.0352998  88.1109905 141.5326786  28.6934137
  87.0094109 142.5498867  28.4865141  38.2745171 115.8171463  18.5208285
  38.0452633 116.7446423  18.4623623  37.5463438 115.4201031  18.9986861
  67.4681807  89.6776009  35.1882720  67.3885632  90.2845669  34.4524145
  68.0263042  88.9733315  34.8585272  28.8883758 140.1535511  84.3938160
  28.9114523 141.0033798  83.9539528  28.3147645 140.2896786  85.1479244
  46.0414505   9.3216782  56.2618685  45.1089334   9.4935208  56.3926840
  46.4835596  10.0274926  56.7336655  78.0472040 122.1062851  30.6777048
  77.9444218 122.3969650  31.5838909  78.4600925 121.2455463  30.7476377
  41.5176153 132.1401405  50.0230885  42.4572468 132.1057034  49.8438120
  41.1683559 131.3430500  49.6244574  53.0892467 138.6785603  40.8466625
  53.4141874 137.7790260  40.8850288  52.5504732 138.7050819  40.0559330
  31.9421101  96.9096565   1.3051155  32.0785308  97.4564743   0.5314150
  32.3139381  97.4177551   2.0260957  15.8767331  97.4710846   9.9032414
  15.0182950  97.0536995   9.8318088  16.4568937  96.9164085   9.3817323
  71.5243864 116.0155010   5.3621340  72.1499395 115.5225658   4.8311606
  71.2299204 116.7237473   4.7894913  49.8206282 100.2256107  27.1018672
  50.2760553 101.0350704  27.3333669  48.9376926 100.3384781  27.4538827
  86.4035225 110.9483719   7.9748702  86.6593933 111.0030842   7.0541251
  87.1641827 110.5661678   8.4125358  99.2547417 135.0814533  57.0005512
  98.3787918 134.9123478  56.6536522  99.6885109 135.5922985  56.3171005
  67.3095512 102.9674721  19.7273588  66.6907167 102.9673004  18.9971030
  66.9097567 103.5423756  20.3799582  38.8561082  94.8180485   1.2113539
  38.8105440  93.8661289   1.1219002  39.5341134  95.0847721   0.5905494
  51.7339373   5.3048783  40.8802271  51.2538004   4.6148758  41.3380432
  51.1742496   6.0775833  40.9570599  45.7345963 132.5760555  47.9081583
  45.6487894 131.9080162  47.2280073  45.0049639 133.1748676  47.7491331
  10.6781745 119.9982071  37.1728635  11.1127019 119.7717857  36.3505793
  10.6925201 120.9550190  37.1957898  60.2236795   0.1173382  47.7793264
  61.0495710   0.5958920  47.7077436  59.7274780   0.3785973  47.0035934
  35.2090311 129.2769337  46.7498064  34.6607471 129.9481106  46.3434267
  35.0472522 128.4890175  46.2309122  45.5445957 100.2045822  10.3619528
  45.4314089  99.4372940   9.8009825  44.9273109 100.0688648  11.0808194
  40.4408073   5.2856236  37.1962190  40.5967045   6.2287789  37.2449827
  40.0605774   5.0614720  38.0455804  55.4518270 132.7049351  23.1192231
  55.0772572 132.5854206  22.2464991  56.2406349 133.2267761  22.9719043
  50.8249092  93.1931210  52.9565191  50.9999323  92.4920845  53.5843182
  50.7925034  92.7519131  52.1076870  75.8745861 108.7630558  23.6658168
  75.8556700 108.2109833  24.4475460  76.1761713 109.6149158  23.9814329
  59.8229361 125.7412720   9.1619575  59.6556711 126.2919331   9.9268234
  60.7653236 125.5755043   9.1876471  17.4291635 133.3541203  18.8707542
  17.1661043 133.6647320  19.7370958  17.5438428 132.4100494  18.9794338
  44.4135189 127.9765511  11.5568757  44.5087957 127.0852661  11.8926752
  45.2783203 128.1954861  11.2098646  60.5161905 136.8513298  53.3105564
  61.1549330 136.3986874  52.7597809  60.1057959 137.4891853  52.7266502
  54.6920204   1.2884980  14.6703875  55.2026033   0.5954247  14.2518425
  54.1542578   1.6489201  13.9653039  61.7175770 102.6196671  27.5082469
  61.7246056 102.9552746  26.6118383  61.8904924 101.6828823  27.4146295
  77.5576353 137.6908875  19.2123234  77.4210262 138.0732441  18.3455050
  78.3192158 138.1541061  19.5611107  19.8934507 108.4371948  61.1720610
  20.1208353 109.3126011  61.4853954  18.9536130 108.4823322  60.9962797
  25.3030324 121.6558266  15.2668405  25.1546264 121.0680008  16.0075617
  26.2399030 121.8494415  15.2986860  42.8547192 101.1950397  14.3728220
  42.8643179 102.0628548  13.9690375  41.9630527 101.0959816  14.7065091
  66.4647388 105.2473450  21.2767696  65.9598875 105.9479141  20.8637834
  66.4034653 105.4288006  22.2146153  35.2490950 101.5232372  58.7988997
  35.9894133 101.4339638  58.1987381  35.4631281 100.9448624  59.5309496
  30.5067563 104.1744995  38.5730338  30.4574728 104.1121197  39.5269275
  29.7603011 103.6631584  38.2606840  34.8602176  95.7741737  13.0305922
  34.1827464  95.1053143  12.9311049  35.1829529  95.6571388  13.9241123
  33.3128953 112.9702663  47.0410776  32.7356505 112.8812599  46.2827253
  32.7200818 113.1254292  47.7764177  25.1369238  91.8119431 100.8766189
  24.7240400  91.2817097 101.5582433  24.4895720  92.4871159 100.6733628
  28.0877542  15.5068951  61.9435549  28.4080124  15.0456028  61.1683941
  27.1796775  15.7254200  61.7340946  52.5483942   5.2735501  28.4864140
  52.1764421   4.3929653  28.5359263  52.9575729   5.3124600  27.6219535
  19.4642413  99.0871525  21.9678807  18.8864136  99.8495674  21.9351792
  19.8698223  99.0566635  21.1013913  32.9944801  34.6454983  52.8798914
  33.3816457  33.9819699  52.3088694  33.6903858  34.8635083  53.4999132
  22.7877307   1.0081559  28.5619998  23.2041717   1.3087921  27.7542710
  23.4906220   1.0174542  29.2116833  56.9401550 128.1959248  66.4685869
  57.5286913 128.9023590  66.2024879  56.6621256 128.4359741  67.3525000
  63.8980246 108.7708664  28.8473344  64.7726107 108.3821583  28.8626838
  63.4628677 108.3522511  28.1046152  53.0452633  93.9970016   7.1030283
  53.7664318  94.5061398   7.4730682  53.4607124  93.2033062   6.7658579
  65.7631969 120.1482487  10.0064671  65.4549217 120.0612640   9.1044503
  65.4813528 121.0234547  10.2725625  51.7904091 131.9502354  19.3145537
  51.0376024 131.5001869  19.6979249  51.4131260 132.7031136  18.8595045
  42.7844954  89.4400597   3.4469432  42.1528864  90.1457596   3.3080986
  42.4790049  88.7305546   2.8816807  34.5984125  89.1048527  88.3889803
  34.3819070  88.8040638  87.5064357  34.4137573  90.0439548  88.3739861
  30.3707480 110.0394821  93.0270847  29.8388290 109.4266987  93.5348173
  31.2116075 109.5948601  92.9198464  34.0744328  10.8605461  18.6737013
  33.6577082  10.9219532  17.8141654  34.9005008  11.3336735  18.5737312
  38.0060935 132.2892952  28.3254457  38.2842040 133.1414032  27.9895854
  37.0691442 132.2503853  28.1334925  31.7484069  96.7805862  90.4742476
  32.1235657  95.9965706  90.8752640  31.8472576  96.6387558  89.5327886
  34.4141841 113.3214474 102.9986402  34.2022181 114.1695023 103.3886489
  34.0786862 113.3786869 102.1039911  19.6108472 120.3565884   1.5744892
  19.3866777 121.1772060   2.0133206  19.5163155 120.5501366   0.6418389
  61.3645887 106.4344501  90.3920194  60.8339310 106.2661457  89.6133646
  61.6311502 105.5656338  90.6925818  72.3472071  89.0365219  71.5522655
  71.7452097  88.5698318  72.1319421  72.6638842  88.3666229  70.9463056
  19.3234360 100.5397701   7.2708476  20.1087141 100.0535011   7.0196342
  18.7677550  99.8908520   7.7025384  32.6916957   8.4628945 105.2128484
  33.4201932   8.5696011 105.8245134  31.9985819   9.0204983 105.5662619
  26.2073565 137.9691696 108.6941473  26.0593343 137.0435047 108.8877464
  26.9579339 138.2103539 109.2370045   6.3550204 107.8578663   6.9894922
   6.3683790 107.8040314   7.9450834   5.6144422 108.4313393   6.7922413
  24.2401838   3.5873680 105.9806030  23.5842299   2.9353123 105.7340720
  24.8209548   3.6416703 105.2216631  49.1329384  86.2086391  97.7475318
  49.0519476  87.1387577  97.9586133  48.2550716  85.9492016  97.4677595
  31.8334079 115.3751469  88.1613382  32.3962522 115.6077480  87.4228676
  32.4080253 115.4244709  88.9252838  52.9350662 129.1674042  17.7478004
  52.5379372 128.4593964  17.2405958  52.8963089 129.9281788  17.1681905
  22.3653007 145.1830673  20.2066207  23.2039022 145.0406456  20.6455922
  22.5477958 145.8605671  19.5555305  49.8218775 121.1826801  13.5663068
  50.0050354 120.6008434  14.3039691  50.3559732 121.9588757  13.7351334
  60.5593729  14.0935116  15.9145510  60.9305954  14.5796757  15.1782942
  59.6142197  14.2217045  15.8340418  38.2844734 138.3941174 101.9350692
  38.3594799 138.5783195 102.8713789  38.3065009 139.2558384 101.5189233
  42.8596687 103.2155228  95.4910585  41.9125271 103.1065464  95.4057404
  43.0195284 103.1912899  96.4345034  85.8753490   3.3452874  15.9849095
  85.8656597   4.2999535  15.9159839  85.5802345   3.1666069  16.8777752
  62.8748226 104.0307045  64.0488299  62.3972225 103.8144588  64.8496875
  62.9410601 103.2000637  63.5777768  36.2403154 130.9920406  93.4001502
  36.3622427 130.4734612  94.1954061  35.6366134 130.4747295  92.8670808
  48.2143784   3.7147503  29.4844675  49.1129351   3.3930855  29.5576453
  47.7474213   3.2862645  30.2018070  65.7171202 119.2023373  12.4213815
  66.6348076 118.9929485  12.5952733  65.7171631 119.5601177  11.5335608
  58.9134550 123.8500595  19.2441833  59.7107220 124.1799545  18.8297403
  58.3213711 124.6020603  19.2569625  93.8668156 110.4126930  13.1466532
  94.4326115 109.7658920  13.5682631  94.2556858 110.5436039  12.2818553
  45.4584074 101.5057087 106.6263276  45.8520174 102.0029926 107.3432710
  44.5181131 101.6614628 106.7147511  88.5008049  98.5280418  80.7368978
  88.6543655  99.4492245  80.5270013  88.6077499  98.4777737  81.6867765
  54.3058634  98.7531471  24.6930957  54.6942329  99.6044636  24.4914603
  53.4641552  98.7598801  24.2373490  30.2528119  98.6198330  13.0903876
  30.1794243  99.3187714  13.7402487  29.5665359  98.8134766  12.4518287
  82.1002769 110.4314899  25.0781322  82.5558949 110.8057117  24.3240809
  82.7952766 110.2439785  25.7090473  44.6931553 100.9470844  24.7101736
  44.3293715 101.7215061  24.2810297  44.4017124 100.2138519  24.1682744
  82.1992683 124.3708038 107.4091812  81.4574337 124.8556995 107.0475444
  81.8762302 124.0240002 108.2408091 124.4685158 118.9440536 105.3160309
 123.7158470 118.3709335 105.1702114 124.8139215 119.1134644 104.4395461
  42.0522165  88.9676094  18.9265585  42.9718161  88.8097668  19.1402292
  42.0769835  89.6314526  18.2374001  30.7121944 121.4772987  55.4689169
  31.5665007 121.3191986  55.8706617  30.6893730 120.8880615  54.7149181
  36.8992281  97.4272919  15.3154826  37.7620578  97.8071404  15.1497388
  36.2839055  98.0590820  14.9433935  69.3598890 135.2188301  25.9580040
  68.4532928 135.2691364  25.6550479  69.8113060 134.7156429  25.2803230
  43.3588076 127.4061775   5.1241302  42.5382519 127.6620960   4.7029173
  43.8944435 127.0560932   4.4122526  16.4021766 109.9714279   7.6342326
  15.5169547 110.2092361   7.3584431  16.3205099 109.0723515   7.9523933
  66.4380026 134.3839264  94.9779042  65.5556965 134.3462563  94.6086415
  66.9955540 134.6338367  94.2410775  64.6856546  22.7576046   5.7839900
  63.8750124  22.3349552   6.0676384  65.1096296  22.1094113   5.2215719
  42.7115679  93.4266567 107.0846643  42.9553890  94.1578960 106.5171509
  43.3101654  93.4910679 107.8288176  36.9101357 131.3121414 108.3239735
  36.1778426 131.3845634 107.7118192  37.2980976 130.4581070 108.1333513
  39.9325085 104.9747181 106.7235481  39.2539120 105.0710392 107.3917245
  39.6819687 104.1879082 106.2394106  80.4653835 137.5533772 100.8808383
  80.0423527 137.5059223 101.7381772  79.7627306 137.3718643 100.2566841
  41.4509773 102.5588131   1.7605843  42.3702574 102.4609756   2.0087448
  40.9684753 102.0827579   2.4364442  13.1662154 116.0378742  18.4833133
  13.9133108 116.3485813  17.9719031  12.8736901 116.8073463  18.9717603
  48.4398890 102.1608067  89.0025934  48.6106157 101.3212395  89.4294723
  49.0019369 102.1542263  88.2278069  38.5789895  90.0107956  21.6315866
  38.7607646  90.9083652  21.3530827  39.4432998  89.6142387  21.7408490
  40.1855183 100.4559708  15.5671191  39.5764661 101.1611843  15.7861161
  39.7709846  99.6654892  15.9128642  56.9856691   7.9998665  38.7046313
  56.4144611   8.3996659  38.0488038  56.4438581   7.3260956  39.1153693
  73.4642029  91.1390114   4.9707794  73.7083006  90.2174282   4.8851752
  72.7882671  91.2705040   4.3059051  32.4685836  80.5909157 104.1805478
  31.9564366  81.3132000 104.5442017  32.8086662  80.9312630 103.3530589
   7.7664840  89.5331287  17.3314750   8.6818993  89.7525406  17.1579576
   7.7580726  89.2452240  18.2443118  54.7214127 102.4887466  14.5985448
  55.0393009 103.1672573  14.0028954  55.0833368 102.7298641  15.4512501
  79.4336176 123.8690948  45.0879669  78.6027193 124.1361809  45.4810429
  79.2111206 123.6503124  44.1830587  34.3625236 107.4971104  99.4934829
  34.6555686 107.9322243  98.6928388  35.1138067 106.9721127  99.7694930
  78.8944912 104.9323845  21.9936633  78.3716774 105.0223255  21.1969113
  79.7005415 105.4136372  21.8068147  35.8964038  96.2934971  27.6643133
  35.8587027  97.0295620  28.2750607  35.4005265  96.5898895  26.9011068
  10.4361010 115.3299809  30.2042127   9.6597439 115.5803585  29.7033978
  11.1661649 115.4735565  29.6020269  89.8039150 118.8425255  33.1503916
  90.6219673 119.0722656  32.7096605  89.2969131 119.6544170  33.1527138
  22.6405478  86.0987759   0.2329489  23.2283950  86.5703106   0.8231347
  21.9117594  86.7022324   0.0882483  40.6249952  94.2936039   7.0607126
  41.1128187  93.7636471   6.4303082  39.8000121  94.4931793   6.6182148
  44.8761272 114.5648766 103.6753710  43.9329433 114.6353054 103.8225695
  45.1819849 113.9716816 104.3615236  78.0463219 112.1629047  85.0130852
  78.0800629 111.6069412  85.7915434  77.7764177 113.0201435  85.3425106
  55.3290129 145.4232121  98.3583316  56.0800982 144.8322010  98.3052083
  55.6781292 146.2776089  98.1046470  63.5679293  98.2838058  36.3532734
  63.2102346  98.8998032  36.9926763  63.0889034  98.4713554  35.5460596
  58.8798571 119.0979958   6.1448568  58.5560989 118.2320404   6.3928884
  58.7220287 119.1517830   5.2022910  79.4253635 113.7156582  31.5974116
  78.7466192 113.8646221  32.2557044  78.9449167 113.6231995  30.7746983
  28.2433915  81.6181183  96.9381579  28.5094237  80.7196045  97.1334275
  28.1238604  81.6315174  95.9885451  20.4490113 113.1335640   1.0107672
  19.9726570 113.1039715   1.8404904  19.9547958 112.5549603   0.4300781
  50.8699751 123.2551384  14.6462047  50.9091663 123.3800888  15.5944049
  50.1574612 123.8259888  14.3586504  55.1709223 119.5262814  17.1628606
  54.8170376 118.8100815  17.6901603  54.4007444 120.0212860  16.8835175
  53.4427357 144.3352699 108.1492884  53.6713409 144.1464901 109.0594179
  52.6086283 143.8857174 108.0136506  59.7903776 105.3997135  17.8729618
  59.0789795 105.7820797  18.3867180  60.4863024 106.0562897  17.9017055
  27.4702597 128.1726170  88.5605391  26.8436813 128.0490112  87.8475507
  27.9910016 128.9299583  88.2931646  17.1177316  84.4010639  25.0997019
  16.8562424  84.8640347  25.8956337  17.3520052  85.0959110  24.4844508
  52.5732946 126.2494278  32.4689245  51.6911745 126.5080166  32.7358150
  52.4502611 125.4204369  32.0064783  23.4156775 119.0226364  12.1918082
  24.0129185 118.9065266  12.9307616  23.4390068 118.1840229  11.7309344
  33.0206299 126.3874340  84.6808466  32.8540325 126.9601536  85.4294976
  32.5168705 126.7756939  83.9655026  30.9459352 141.8126106 106.3601451
  31.4997244 142.5300980 106.6679665  31.4307070 141.0200596 106.5905651
   8.0144256  81.8881035   7.9956084   7.4174982  81.2695408   8.4166574
   8.5243922  81.3527870   7.3876584  52.5364256   3.5928707  21.9782043
  52.4428558   3.3970433  21.0459328  52.8019762   4.5121174  22.0043778
  85.7415771  98.5937595  21.2998796  85.4400635  99.4522285  21.0026407
  86.5256405  98.7808132  21.8161011  47.2227430 139.9073315   1.3542023
  46.8933201 140.7305908   1.7146929  47.8028822 140.1733685   0.6408303
  66.4753485   0.8475857 107.3277588  66.9373322   1.6114312 106.9822901
  67.0372057   0.1059609 107.1029582  32.3313951  81.2528610 108.4440000
  32.3672581  80.4014874 108.8800090  33.0051756  81.2032700 107.7659198
  50.7711411 102.5672913  27.7872849  51.6376638 102.5382614  28.1929040
  50.1635313 102.6277542  28.5244322  34.2376065 106.3882256  40.0791454
  33.3237362 106.3847351  39.7944355  34.3215203 105.6061363  40.6246138
  46.8268871 123.2141209   6.5518874  46.5463066 123.4680271   5.6726623
  47.1962452 124.0141201   6.9257975  19.7824621 121.9938087   8.8547689
  20.1651955 121.9508934   7.9784673  18.8564384 122.1824551   8.7027031
  80.8154583 127.1919918   4.5774934  81.1246586 128.0478764   4.2807001
  81.2552929 127.0562649   5.4167521  41.1605072 105.0823784   1.1003530
  40.4170418 105.0531101   0.4981616  41.2625408 104.1786957   1.3990000
  54.0026331 131.1063576 104.3422558  53.7891006 130.5329323 105.0783458
  54.3059301 130.5121231 103.6558690  45.9317732 142.1108723 108.9296231
  44.9912834 141.9329357 108.9366642  46.3366890 141.2538528 108.7962275
  44.5090914  84.5407772 106.6926300  43.9014912  85.2799797 106.7177203
  45.1986456  84.7763538 107.3133134  79.0690422 139.6568871  34.0521574
  79.2669010 138.7311077  34.1936088  78.1658697 139.7574425  34.3528295
  54.2025232 111.9052792 107.6765842  53.2513428 111.9949436 107.7353314
  54.3953657 112.0049381 106.7443230  45.7485342 109.7280216   1.5462554
  45.1674938 109.6977329   2.3063259  45.8287191 110.6599617   1.3430521
  19.9167764  91.3424206 105.0211873  20.2595854  91.6095638 104.1683414
  20.6931758  91.2515163 105.5736115  42.2750425 112.3997879   7.5008261
  42.8904963 113.1328678   7.4950290  42.8140497 111.6329956   7.3065352
 110.4572100 133.2786274  40.6635571 110.1009268 133.4295654  41.5390635
 109.9574489 132.5350761  40.3265095  52.3031998 111.7561245  20.8414435
  51.7577696 111.6715336  21.6234827  51.9669151 112.5348854  20.3979731
  41.5058327  93.4835434   1.0762590  41.6736937  94.1242886   0.3852474
  42.3365879  93.4156227   1.5468611  58.9748526 108.6143970  89.7263154
  59.5546150 107.8939056  89.9732908  58.2794142 108.1983662  89.2168864
  24.1028762  87.1812916  92.6683088  24.4829130  86.3838005  93.0368241
  23.2879019  86.8910885  92.2586318  15.3580558 104.1061401 104.0244898
  15.5748534 103.6281395 104.8249509  14.9375367 104.9093151 104.3315985
  57.6512814 139.7912788   1.2523192  56.8434715 140.1294899   1.6386957
  58.2089233 140.5624771   1.1497718  29.0136027 126.0088062   4.1058710
  29.5673156 126.7761993   3.9618593  28.6248302 126.1524868   4.9686822
  71.7914200 139.2786121  34.6673512  71.4696980 138.4492207  34.3140435
  71.9945812 139.8054695  33.8944483  18.4312129 143.8094330  15.2006972
  18.6128712 142.9008579  14.9604249  18.9764547 143.9669323  15.9714997
  63.0062866 123.6157036   1.0962892  63.5449505 124.3023205   0.7030675
  62.5808525 124.0417194   1.8404293  56.9642687 106.4440060  26.4527464
  56.7638350 106.7750168  27.3282409  56.1386347 106.5175724  25.9740520
  69.5640326 112.0118427  25.5248666  68.9505577 111.4095688  25.9457564
  70.0903463 111.4552784  24.9508810  48.2017040 113.6772633   9.2046487
  47.6503181 114.4360828   9.3954098  48.8677073 114.0102863   8.6031741
  32.0127559 123.4560871 108.4699393  31.9142318 123.8330841 109.3442381
  32.9579830 123.3551025 108.3577771  47.7693510 127.6505947   1.9208977
  48.1235027 128.5394192   1.9491079  47.1876812 127.6485443   1.1607102
  56.6568804  11.3154583  28.9654779  56.5236235  12.2144108  28.6648726
  57.3532820  10.9757214  28.4034801  32.5426602 127.9416847   6.9664460
  32.0311785 128.1135845   7.7570593  33.4256840 128.2413197   7.1825826
  36.0379887  99.0169048  36.3007379  36.8887162  99.0482616  35.8631158
  35.7508540  98.1092072  36.2014008  16.5304255 133.5436058  21.5510011
  17.1100223 133.6230087  22.3086262  15.9388208 134.2926884  21.6224813
  75.6643820 118.6766434   4.9603775  75.7251692 119.4821072   4.4468054
  74.7917747 118.7079239   5.3525591  45.9177399 124.3518353  29.9774265
  45.9011936 125.3000164  30.1074862  45.2572107 124.1909504  29.3035936
  62.7066135 113.5551167 105.8282217  62.3447943 114.4308853 105.6927254
  63.6395121 113.6489391 105.6355333  57.2574234 109.8647308   6.1332417
  56.7276239 109.2811966   6.6764075  57.2041655 110.7139969   6.5715897
  70.1739931  95.6495667   5.1473886  70.4022074  94.9618149   4.5219657
  70.5718613  95.3663063   5.9706151  32.1329403  85.7311821  52.8432322
  32.8353071  86.3811493  52.8644657  32.5554180  84.9322128  52.5279570
  47.9065371 126.0268879  21.7681241  47.2837925 126.1951351  21.0609365
  47.3597383 125.7934093  22.5182748  45.9944105 116.1117172  83.0697712
  46.1944485 115.3533173  82.5210961  45.6091213 116.7481232  82.4674686
  58.3173609 101.2380409  23.6399603  59.0118504 101.7342758  23.2067537
  57.5277519 101.4445114  23.1398439  16.0845840 112.4033833  43.5520124
  15.5734253 111.6014957  43.4428310  15.5281591 113.0932140  43.1903982
  62.1748734  89.3317032  15.9973431  62.9938602  89.7884274  16.1894310
  62.2925043  88.9918900  15.1102555  81.8947983  97.9257774  15.3211260
  82.6822376  98.4533119  15.1874566  81.1709976  98.5274601  15.1469684
  55.3640223  96.4266872  27.1155262  54.5509243  96.7630863  26.7387795
  55.0810051  95.8914089  27.8568864  49.9270821  99.2866516   6.8458426
  50.4158974  99.9753475   6.3953000  50.5108023  98.5282230   6.8286753
  63.4292364 134.4991016  14.6678996  64.2929268 134.0870571  14.6900702
  62.8212500 133.7928486  14.8865271  11.3047791 141.9178200 102.1724429
  11.9336033 142.3684883 102.7360984  11.2003303 141.0545158 102.5724842
   2.7414268 125.6779575  23.4441352   2.0320131 125.3522301  22.8901815
   2.6458496 126.6300774  23.4205437  73.2273149 108.1100464  37.4787879
  72.8120661 108.0535412  36.6182017  73.4501410 109.0357685  37.5768876
  37.2366095   2.6085835   9.5555520  37.3922563   3.5512047   9.4966435
  36.7610598   2.3937397   8.7531006  33.7581611 100.1486301 103.8858237
  33.2043242 100.5854034 104.5329144  33.6354327  99.2148495 104.0567669
  64.1709757 116.9794273 103.2196673  65.1235628 116.9760799 103.3134564
  63.8418341 116.9858265 104.1184756  12.1281266 107.0661354  89.0317591
  11.2867749 107.5225258  89.0402540  11.9071150 106.1603928  88.8149365
  68.2641268  99.6669388 101.7821034  68.8191843  99.7824287 101.0108670
  67.7417946 100.4679966 101.8233933  46.2123966  15.8258038  30.8126807
  46.2678385  16.6905384  30.4059958  45.8676672  15.2584629  30.1230955
  24.5073414 109.1563988  92.6843318  23.7433386 109.7258759  92.5936540
  25.0766516 109.6158791  93.3015796  31.9805527 127.6871014  96.9112238
  32.6432371 128.3757877  96.8583986  31.4263964 127.9439640  97.6482185
  14.6536624 135.8360195  33.8445067  14.9162328 135.5609894  34.7229409
  15.0170231 135.1662445  33.2652044  98.4144211 113.1187057  16.3983357
  98.7717533 112.7020073  15.6141758  98.6560059 112.5301743  17.1135294
  25.4760766 129.7794342  40.6097841  25.2634907 130.2465343  41.4177847
  24.8023939 130.0563335  39.9887276  33.2385540  93.7765980  50.5878258
  32.5516844  94.2925644  51.0099936  34.0557265  94.1748428  50.8875990
   7.6220751  74.7642565  29.0539145   7.9047620  73.9049339  28.7410522
   8.1258142  74.9048853  29.8556018  66.2918663 133.1126022   0.8003952
  66.0623693 133.6877251   0.0704650  66.9804955 132.5464344   0.4518754
  13.2605696  93.7864304  91.2155541  13.3723426  94.2318630  90.3757175
  14.1520071  93.6625481  91.5414735  39.5992994 112.5381660  90.0350674
  39.0837359 111.8688488  90.4849955  39.8207140 113.1700039  90.7191631
  34.3267322  99.0327263  87.6556739  33.8811040  99.7957325  88.0237421
  35.2342558  99.1219139  87.9466709  74.5011902 141.3076019 100.6071957
  74.5738840 140.3905106 100.3428312  73.8380003 141.3060570 101.2974229
  36.3486767  90.6309891  95.4568251  35.4580641  90.9314823  95.2758678
  36.8231964  91.4242172  95.7055458  61.2743187 122.5146389 108.9327620
  61.9533968 122.0279789 108.4655880  61.7543221 123.0447197 109.5690362
  46.4094687 136.7670345   9.5312881  46.0960388 137.0467854  10.3913677
  46.1995602 135.8339787   9.4917172  40.2846098 124.2360306  99.1216549
  40.1240206 123.5847282  98.4388288  39.4145560 124.5635414  99.3496343
  62.1951723 116.5326691  52.2591639  62.8995514 115.9970474  51.8942165
  61.8495560 116.0121250  52.9842949 110.4921860 118.7969494   0.7319731
 110.3465480 118.9605522  -0.1998289 111.3592047 118.3932877   0.7716267
  42.7964401 118.9888477  89.0937313  42.8949308 118.0368233  89.0799936
  43.0573606 119.2693138  88.2165250  45.4304171 101.6959381   5.6995869
  45.8855247 102.4694729   6.0324001  46.1062384 101.0192871   5.6592667
  36.5541244 138.3084679  19.5946324  36.1132789 138.5689068  18.7858939
  35.9875226 137.6343918  19.9698925  47.3714876 130.2114201  36.7971063
  47.5848007 130.3118515  37.7248144  46.4634514 129.9086475  36.7915463
   7.8171939 138.2293510  95.7146379   8.0273312 137.8531456  94.8599204
   8.6683011 138.3785343  96.1264559  50.0599813 103.2819843 101.5826979
  50.3530025 104.1916180 101.5285023  49.5222235 103.1565952 100.8008238
  83.6043167 138.1819630   9.1295946  84.5203781 138.1359863   9.4033664
  83.1100368 138.2001400   9.9491036  47.9214287 123.8133907  40.2551603
  47.2389221 123.1510448  40.3633642  47.5147390 124.6272087  40.5527163
 120.5511627  99.2329121 108.5843551 120.6924284  99.1331387 109.5258011
 119.7013206  99.6677876 108.5144434  51.8778753  92.8227806  17.0968342
  52.2840118  93.6559486  17.3358238  51.0202456  92.8438950  17.5214005
  18.5647964 131.0661888  15.3911114  18.5819387 132.0214272  15.4499745
  19.4870400 130.8099174  15.3866565  25.0576401   2.9465180  69.2707070
  24.4805455   2.2113495  69.0640315  24.7644544   3.2466488  70.1310548
  68.2616949  92.3307037  15.7001972  68.3837509  91.4098263  15.9310842
  68.8470745  92.4706364  14.9558973  71.9476461 105.7331467  14.9259400
  72.0044231 105.7857227  15.8800066  71.0853434 106.0924244  14.7171640
  32.3483109  94.8576736  97.9040464  33.1379771  95.0005817  98.4258100
  32.0441318  95.7381439  97.6838514  18.7526166 115.0628471  -0.2183752
  18.9932811 115.9287167   0.1111475  19.2218637 114.4515610   0.3494055
  25.0427103  84.4783401 104.2511889  25.5360913  84.4561005 105.0711360
  24.4978952  83.6917782 104.2780771  12.7055848 117.7405548  94.2469009
  12.6420152 117.6855278  93.2934006  13.4148359 117.1394825  94.4747432
  58.6471748  78.8633251  89.1987094  59.5523500  79.1692972  89.2558511
  58.4977007  78.4020948  90.0240334  47.4780703 119.3798542  19.9832249
  48.3000422 119.6507359  20.3921461  47.2772455 118.5350132  20.3858995
  41.9428921  97.0482445   3.0740264  41.7801380  96.1388302   2.8236067
  41.8575287  97.0530987   4.0274000  39.0242362 104.9015999 109.3612805
  38.5185146 104.1826534 108.9823313  38.4615278 105.2524662 110.0515587
  41.1225033 108.8639641  14.5828259  41.3163900 108.2990646  13.8348067
  40.8163071 108.2640743  15.2629793  83.2472992 117.9790783  95.5148228
  83.8441277 117.3119450  95.8538982  83.1995964 117.8025150  94.5752581
  32.2113061 120.1235580  34.4026303  31.5750813 119.4869804  34.0767097
  31.6889286 120.8969784  34.6151733 107.2800810  89.9135399   0.2423673
 107.8001065  89.7777748  -0.5497013 107.9225404  89.9238110   0.9518542
  30.3331590 133.3212662 100.0343963  31.2157559 133.4903717 100.3640267
  30.3272390 133.7053871  99.1576704  35.2545738 111.1550713  16.9626951
  35.5108476 112.0679951  16.8317866  35.8416748 110.8375168  17.6487708
  20.4296923 135.7411861  11.2749362  20.9458899 135.2010632  10.6765699
  20.9751201 135.8198547  12.0575929  62.3876143 122.2124672  55.6871700
  62.1116877 121.5129757  56.2794590  63.2541037 121.9415569  55.3838062
  56.8504190  60.3151989 102.5844669  55.9451914  60.0174570 102.4942684
  56.8821526  61.1370707 102.0948219   5.0018775 122.0896721   0.7474462
   5.3927815 122.5932121   0.0334016   5.6067401 121.3607788   0.8856431
  48.0953455  97.0779800  86.4948463  48.0341530  96.5753365  87.3071480
  48.9631796  97.4805355  86.5270805  51.4761877 109.5229244   8.3656446
  51.7439747 110.4146767   8.5876695  51.6546202 109.4456100   7.4284021
  32.4131989 116.2183762  99.3959141  32.5195718 117.0644665  98.9611244
  32.1304941 116.4390087 100.2834034  48.5689402  95.8561325 106.8978596
  49.5047569  95.8294296 106.6984653  48.3768368  94.9919128 107.2617912
  24.9956679 110.2361012 102.6524353  25.4789829 111.0099983 102.9417706
  25.6548667 109.5432281 102.6121902  81.5217113  89.3012142 102.9969120
  82.3868275  88.9070225 103.1083107  81.0574913  89.0931702 103.8077450
  33.0889463 103.5266495  90.1857567  33.1514001 104.4000816  89.7991848
  32.5682831 103.6525059  90.9790421 124.0695424  86.2906647  54.5563364
 124.1000441  85.4594612  55.0300598 124.7698944  86.8141556  54.9458170
  34.4223452  92.1642780  10.4660646  33.5533953  91.9686604  10.8166257
  34.2616820  92.7995968   9.7683564  64.8523426  94.4772720  95.3695965
  65.3430033  93.6663532  95.5033493  65.4275370  95.1637363  95.7074642
  30.6206274  87.7654266  89.6182442  29.8870969  88.3269501  89.8689556
  31.3686037  88.3599472  89.5606804  27.6410460  94.0350246 109.7344112
  27.3543072  94.0331364 108.8211727  27.0468879  93.4262562 110.1732731
  17.3013639  64.5258284  60.9428310  16.9792688  65.1384068  61.6040659
  16.6892779  64.6178722  60.2126884  62.2409582  99.9037838   6.6064397
  62.6044226 100.7782555   6.7457811  62.0582533  99.5771599   7.4874440
  84.2152596  89.5718479 104.4225883  84.1814041  88.6220837 104.3083668
  84.6124554  89.8962784 103.6143684  53.7234020  85.8847809  19.1105882
  54.4133186  85.2230740  19.0617124  53.0886698  85.6186008  18.4453908
   8.9118618  86.0798836  97.2437668   8.3442664  85.6665134  97.8942966
   9.4973141  86.6373062  97.7563667  56.3023567  94.8713207 100.7497501
  55.8468962  95.0298023 101.5765953  55.6698132  95.1211262 100.0761700
  51.4542198 109.4412327 100.5275631  50.8094406 109.2687321  99.8414612
  51.4076519 110.3869724 100.6677055  50.3497934 122.3577213  56.5455198
  51.1322021 121.9218159  56.2078094  49.9891424 121.7420387  57.1835566
  70.1813984  84.0807343  98.9615250  70.6060553  84.8264313  98.5374451
  69.7555971  83.6087799  98.2458591 119.6723718  96.1657810 100.5077362
 120.2887190  96.5129471  99.8628902 120.2268038  95.7686234 101.1793804
  32.6435137  69.4676208  12.0488492  32.4163461  69.8658276  12.8891317
  32.3045468  70.0787640  11.3947622   9.9536753  71.6661549  84.4394779
   9.7962034  71.7475605  85.3801155  10.7920361  72.1059036  84.2980385
  56.9367743 103.6363029  62.4015951  56.7497444 104.4663620  61.9631243
  56.0747910 103.2751751  62.6084948  50.2180338  95.1821136  89.3255138
  49.9137115  94.2745876  89.3218613  49.4431686  95.6936359  89.5582390
  54.5061159 101.2719917  82.0550823  54.6170521 100.4276848  82.4921894
  55.3577662 101.4484787  81.6553497  38.9831543 126.3145828   1.6759054
  38.9510536 127.2699547   1.6261522  38.1095052 126.0312176   1.4063302
  45.5283213 112.4788284  98.8506317  46.3733149 112.4745274  98.4009647
  45.4152346 111.5789127  99.1565800  44.1056204  90.6674385  64.7264624
  44.3024254  89.7620869  64.4859886  44.9338388  91.0119820  65.0605011
  52.2587633 100.3834915  10.2410737  51.4889288  99.8265648  10.1252595
  52.7112818 100.0121498  10.9984056  22.9933214 111.5197086 109.6780205
  22.3118424 110.9144592 109.9703979  23.0464458 111.3818359 108.7322903
  17.0658290 107.1814060 104.4147110  17.6773787 107.4481964 105.1010513
  16.7028534 108.0033016 104.0846157  23.0403161  62.0057631  84.6894073
  22.4555802  61.3343954  85.0409508  23.2537627  61.6997719  83.8079071
  77.4368906 128.2909870  92.6259899  76.7304993 127.8662109  93.1126308
  78.2357645 127.8785133  92.9544640  47.4969816  71.3855839  92.1112537
  48.1529951  70.7691813  91.7857838  46.7310858  71.2349367  91.5572262
  29.8647475 111.1347675  97.4167824  29.0128756 110.8930111  97.0533276
  30.3291583 111.5441799  96.6867638  16.2992227 101.7758942  92.5713348
  17.1624410 101.3783169  92.4572372  16.3420141 102.1994019  93.4286880
  59.2006874 125.4378223 108.8870049  58.7642193 125.6353569 108.0583286
  60.0978231 125.2154636 108.6381435  50.4680157  90.7380104  71.0840607
  50.5850744  91.5932178  70.6703615  49.5374584  90.7045746  71.3058233
  13.4361863  77.7151203  79.7191763  12.9408681  77.9072428  78.9229488
  13.2779467  76.7850924  79.8811436  34.8114848  99.3118668  92.6605415
  33.9712548  98.8548088  92.6972580  34.7836113  99.7985268  91.8367577
  44.7595644  83.3122540  98.7220573  45.4584932  82.7218246  98.4407902
  43.9982510  82.7438641  98.8385201  13.0979335   5.8649330 108.3029175
  13.0896854   6.8184834 108.3859634  12.8119004   5.5474263 109.1594315
  35.8876467 141.8017197  33.0549756  35.7609129 141.1906052  33.7807313
  35.0858045 142.3242378  33.0390397  48.3916950 124.5652676  90.2383709
  47.5334597 124.6755886  89.8291111  48.2805634 124.9098015  91.1244678
 106.7013127 113.6040783  12.5236074 106.5220422 113.4886551  11.5904561
 105.8472890 113.7995434  12.9091874  85.2040768 104.1750717  67.8050709
  86.1208916 104.2540741  68.0685806  85.2410030 103.8912678  66.8916559
  43.1211948 107.7910233  99.9849701  43.7433529 108.4854984  99.7685051
  43.1705475 107.1860027  99.2448711  55.9104347 105.3462791  42.5986147
  54.9679661 105.2137089  42.7006197  56.2779284 105.1205444  43.4531450
  75.9606600  99.1583920  62.6944733  76.5447569  98.4132195  62.8351307
  76.5434742  99.9170780  62.6636982  38.2622027  90.9210205  98.5592365
  38.6227083  90.8075047  97.6798153  38.0889821  91.8599224  98.6277294
   7.2745252  55.0796032  12.6668874   7.9883838  55.6430244  12.3682252
   6.9757217  55.4832315  13.4817640  37.1100926 135.9160233  11.7610112
  37.0329165 136.1885166  12.6753560  37.0249343 136.7278671  11.2611333
  28.2862473   7.4100285   7.8571454  27.7237725   8.0456906   7.4146692
  27.6783252   6.7747765   8.2354585  59.8706007  90.6118107  98.6064625
  60.7496691  90.2335548  98.6263943  59.6226501  90.6902027  99.5276546
  47.9757357 112.5167847 100.5195999  47.2267580 113.1115818 100.5582142
  47.9428625 112.0362473 101.3467789  16.1584949  55.7846403  85.0473213
  17.0809984  55.6237555  84.8489952  16.1452889  55.9784794  85.9846020
  19.0764725 110.5452442 105.6472778  19.6534109 110.5576992 104.8835945
  18.7443638 111.4407063 105.7111835  40.7927513  70.0105000   9.7811834
  40.1027393  69.6872044  10.3604833  40.8162975  69.3798304   9.0615026
  22.1601224 101.7174625  23.3515683  21.5084791 102.2451496  23.8132421
  22.0281458 100.8294678  23.6836664  58.1953812  91.3793659  67.9047251
  57.3772526  91.4441109  67.4120712  58.0257368  91.8599510  68.7149620
  15.1594841  86.2756062   6.2772123  14.3930125  86.8360424   6.1560861
  14.8453271  85.5548763   6.8231908  12.4002779  60.2884579  11.7852632
  12.9330087  59.5100355  11.9480077  11.6472745  59.9643373  11.2911359
  58.1701136  67.6369762  54.0860176  57.7153111  68.2659054  53.5258102
  57.9744720  67.9251337  54.9776030  17.1846378 113.3435822  77.9246855
  17.7099407 112.6768970  78.3672094  16.6817224 113.7569809  78.6264086
  36.2844443 124.2059708  86.7417908  36.7438769 123.3967781  86.5173435
  36.8808222 124.6635246  87.3344135  15.3487170  72.7855015  85.4900265
  15.7254040  73.3868790  86.1324310  15.5243421  73.1977844  84.6442127
  28.6945176  78.8339758  96.7967224  29.1299391  78.2593107  96.1671257
  27.8184390  78.4611416  96.8952847  35.2718258 100.3447342  69.5190573
  35.5115509 101.2664032  69.4226360  36.0483885  99.9337387  69.8988819
  49.0716171 121.4441586  73.0192471  48.5696316 120.6991768  73.3497810
  49.9303722 121.0788155  72.8064156  62.6510715  57.0623112  22.1607438
  63.3223486  56.8488216  22.8088609  61.8418789  56.7064714  22.5279180
  34.9288034 102.3172855  98.2314205  35.6069541 102.4865055  97.5774288
  34.4397163 103.1382084  98.2872391   6.4569736 101.5541935  98.0456734
   5.8642334 101.3756561  97.3155880   6.7152876 102.4681377  97.9264736
  22.8702021  73.2327318 105.7134724  22.9673910  72.3536682 105.3473759
  23.7318373  73.6347675 105.6030941  54.4344807 126.2122917 101.9666481
  54.2173672 125.3100586 101.7319870  54.1329098 126.7326546 101.2219906
  19.8237205 138.6771488  86.8778515  19.7002232 139.1173935  86.0369205
  20.7730508 138.6514568  86.9976139  79.5551014 115.7177925  96.8707752
  79.9703646 116.5321732  97.1546459  79.4479895 115.8205128  95.9251499
  65.0227833 104.6965790  88.0006027  64.9585247 104.6947098  87.0455647
  65.1529074 103.7773609  88.2336998  38.2682920  88.7853909  37.6028100
  37.4653244  88.9782906  38.0868188  38.8356876  88.3546257  38.2421342
  70.6127214  76.8282366  88.1638336  71.2382936  76.2890577  88.6477470
  69.8577499  76.9015026  88.7476826  30.1927233 112.0319366  94.7972870
  30.4979658 111.3606167  94.1870403  29.3405938 112.2991562  94.4527721
  28.5126305  52.8825712  70.8190298  28.6345506  52.0264149  70.4087067
  29.3245173  53.0340672  71.3028908  25.4917955 124.1011810  20.8292047
  25.1415849 124.2142773  21.7128316  24.8388982 123.5646534  20.3796617
  19.2886126  81.6784954 109.3713188  19.8380351  82.4510860 109.5034409
  19.6477938  81.0238934 109.9702549  32.3978519  98.2615948  83.8497925
  32.9365993  97.7368259  83.2576847  32.7100468  99.1580200  83.7265682
  64.9996424 122.9340553  79.9979353  65.2760887 122.0628643  80.2822590
  64.8103380 123.4024811  80.8109474  66.3944578 128.0015755  98.3591557
  66.0608864 128.4044456  97.5574970  65.6672192 127.4680519  98.6796284
  26.0247397  89.2646503  81.9387722  25.2895188  89.2067623  81.3285828
  26.7123175  88.7340546  81.5363693  82.6088333  99.9287510  25.6798211
  82.7403355 100.5948639  26.3545266  82.7685165  99.0984821  26.1285917
  34.7835612  62.7644110  86.2692165  34.6397686  62.4165249  85.3891373
  34.0143943  63.3077717  86.4406013  54.6286011  86.1433411 107.4791431
  54.2586279  86.5271950 106.6841602  54.6930027  86.8762589 108.0914497
  35.9025812  85.3541660 108.6204815  35.1014590  84.8905945 108.8644981
  35.5999923  86.2060165 108.3058167  51.9535637 106.7760181  86.9514561
  51.6153288 107.5825119  86.5623569  52.8933191 106.9314671  87.0459557
  50.0208855  72.2084427  79.6048832  50.8052301  72.6028204  79.9863243
  50.3549862  71.6011667  78.9447165  48.4093237 130.2503109   2.2009603
  48.4392214 130.5078602   3.1223718  49.2162704 130.6042194   1.8270437
  51.9335699  90.9539795 102.6594162  51.9619560  90.7387352 101.7271614
  52.6190376  90.4127693 103.0511665  58.5022354 117.5747871  25.0408117
  57.9525852 117.1784878  25.7168714  58.4075689 116.9951534  24.2849675
  10.3022647  95.5776215   5.7918683  10.9198332  94.8539925   5.8976880
  10.8546436  96.3570118   5.7313958  31.3380051  92.5604916  25.0267545
  30.7951283  93.3469296  24.9716417  30.8578110  91.9787979  25.6160585
  60.6405115  83.9745712   5.9240667  61.3339758  84.3261814   6.4823667
  60.5617952  83.0579758   6.1884443  18.2765841  96.2625694  90.9221077
  17.6319659  95.9501553  90.2872086  18.3408129  97.2029305  90.7552528
  47.4453878 120.0274372  98.5842419  47.1676397 119.1284275  98.7599564
  48.3839607 119.9583244  98.4095001   7.0291841 100.1237965  94.4656086
   6.2880766 100.4446030  94.9794865   6.9154185  99.1735363  94.4486427
  10.9517336 104.4237232  74.1933155  10.2928972 104.7206020  74.8210382
  11.6913867 104.1480827  74.7347641  56.8273878 117.3647594  53.1082487
  56.5711689 116.7298698  52.4392986  57.7767658 117.4422073  53.0138397
  58.5043573  72.4933100 107.6641941  59.3219042  72.8540230 108.0073261
  58.1991863  71.8980789 108.3488846  18.7891626 115.3999615  77.7277708
  18.2860541 116.1773491  77.9702425  18.1705236 114.6755409  77.8211832
  56.1723280  93.2542324  10.6896058  56.0813904  92.6544762  11.4300481
  56.9875431  92.9879856  10.2644388  31.2299418  90.1100636   9.1256181
  30.5159903  90.2456474   8.5026208  31.4478779  89.1817760   9.0418283
  27.1795774 121.3809872 109.9289608  26.6572738 121.8333912 109.2665768
  28.0822086 121.6351986 109.7369576  60.0093794  76.9446754  72.0957994
  60.6872416  77.3182678  72.6589775  59.1854811  77.2225332  72.4960709
  45.5887938 104.5998573  72.2004223  44.6851254 104.9084091  72.2668505
  46.0375595 105.2794456  71.6974354  58.0358982 135.0199509  27.5330678
  57.9684305 135.7734489  26.9466249  57.3255062 135.1422310  28.1628457
  22.8258538  81.6170311   3.8059465  22.3637319  80.9640789   3.2802812
  23.1589413  82.2469521   3.1668130 116.8001599  95.4049015  66.8448639
 116.5403468  96.2017250  66.3824940 115.9794909  94.9343777  66.9909811
  83.9342499 104.3142605   6.1431924  83.9715576 103.4161091   6.4720861
  83.2812500 104.2863083   5.4438821  31.4276361 102.6569271 104.4257164
  30.8238339 102.2214127 105.0273609  30.9189796 102.7817154 103.6245155
  67.3759317 119.9765778 102.0003605  68.1145573 120.5678749 102.1454048
  67.5797462 119.5367146 101.1750031   1.8814155 129.1382504 106.6825199
   2.2938749 129.9375153 107.0100594   1.7772076 129.2901230 105.7432079
  52.6484108  96.4570808 103.8256931  53.2260227  96.1251068 104.5129967
  53.2086229  97.0232296 103.2947731  26.0807443 132.7119350  79.6586180
  25.5961299 132.8799343  78.8504362  26.4688253 133.5570812  79.8852634
  51.1021185  71.7046785  91.5222073  50.8748293  72.1947527  92.3123932
  51.2512016  72.3773670  90.8577538  12.9940867 119.3155766  39.2959809
  13.2063949 120.0153160  39.9136591  12.3144031 119.6892834  38.7350845
  40.7269669  86.7294407  66.9249392  41.5584612  86.8773842  67.3754549
  40.9750557  86.5425777  66.0195303  59.4177675  78.7323809  69.0894651
  59.4759750  77.8669262  69.4942188  58.9543629  78.5808706  68.2657337
  65.0132513  95.1574135  88.8841820  65.6273746  95.3457355  89.5938396
  64.3274498  94.6305275  89.2944145  39.8796320 114.9234390  78.9838505
  40.5235720 114.5256233  79.5697832  39.0329599 114.6885872  79.3636131
  15.7097805 119.7161865  88.8528824  14.8771930 120.1873875  88.8845730
  16.1397052 120.0424671  88.0623531  46.4193964 117.0848846 103.7621021
  45.8463764 117.7484226 104.1462898  45.8499861 116.3281250 103.6230946
  71.1576128 103.1131268 109.4552708  71.8526173 103.2782078 108.8181305
  71.5682364 103.2742786 110.3047752  75.2400398 122.5493145   9.9662916
  74.4309235 122.7919960   9.5161096  75.5906248 121.8213844   9.4530336
  74.3460369  99.4576550  95.9533787  74.4742584  98.5162354  95.8370781
  75.2171087  99.8349953  95.8305836  45.0397015 106.1167240  77.5522518
  45.7457399 106.6883850  77.8538227  44.7216940 106.5314865  76.7503262
  34.6062946 113.5688591  12.3841802  34.1913724 113.0426121  13.0676595
  35.5451155 113.4698009  12.5424138  59.5860529  62.1659708   7.9190294
  59.8060513  61.6994143   7.1127073  60.3510714  62.7136517   8.0951921
  27.9996061 115.3365040  74.9465418  27.2257733 115.8640671  74.7488308
  28.4485555 115.8202648  75.6398296  27.9319644 112.8542519  76.1659384
  27.6215148 112.8566837  77.0713902  28.0154324 113.7803745  75.9388638
  27.8003192  77.4427557  92.7569103  28.5406709  77.2845173  93.3426380
  27.7921391  78.3917618  92.6322174  44.0193510  92.5704384 101.8656635
  44.5139790  91.7524815 101.8153477  43.6647940  92.5816345 102.7547073
  48.9060545 102.2932625  29.7368184  48.8015747 101.3439465  29.8010675
  48.0206823 102.6397133  29.8477975  83.6728096 117.5781059  14.8764745
  83.9278793 116.7373657  15.2563707  82.7679825 117.4480152  14.5925943
 124.5025155  53.5540724  70.0230551 124.6656740  54.3257332  69.4806957
 123.7929205  53.8185072  70.6085300  15.7259703 108.0932331  96.8338394
  16.5268517 108.0521011  96.3112259  15.0300455 108.2440758  96.1941814
  71.9544029  92.5643444  86.9091606  71.5767193  92.4581909  86.0360527
  71.7317057  93.4611130  87.1590424  18.8090718 115.7085037  96.3410378
  18.2152319 114.9601936  96.2809658  18.2734382 116.4102364  96.7110443
  38.3348966  95.3384209 101.8928909  38.3813357  94.8001289 102.6830196
  37.6122999  95.9441280 102.0578480  42.7771187  59.2675972  11.3888494
  43.3265924  59.8947477  10.9187547  41.8813038  59.5566845  11.2151281
  50.9340477 125.8809948  35.4366533  51.1147976 125.0061131  35.0929204
  50.2998543 126.2528515  34.8236600 117.9092932 101.9309807  89.9853325
 117.4588472 102.5903130  89.4574928 117.2764719 101.6935444  90.6631088
  24.4177794 125.8383465   8.8430730  24.0263677 125.0086212   8.5699407
  25.3450537 125.6361961   8.9676992  24.7284961  91.1217976  48.8934088
  24.1717839  91.8829250  49.0577078  24.2976546  90.4049587  49.3589640
  62.3617744 124.9611664   9.0364209  62.6096725 124.3232346   8.3672277
  63.1857681 125.3801537   9.2848340  39.8009944  86.1371803  13.4603444
  39.6839786  85.3524971  12.9247991  38.9152789  86.3732910  13.7360135
  58.9959574 141.2147045 102.3532963  59.8847437 141.5068340 102.5556564
  58.8733625 141.4414787 101.4314556  61.1819410 106.0132122  10.1513425
  61.8491459 106.6966438  10.2145044  61.5659523 105.2612019  10.6021539
  79.1929483  93.6079693   7.6340333  79.0401077  93.7761593   6.7042009
  80.1107597  93.3403492   7.6813165  51.4283562  93.2820702  69.6976471
  52.3469687  93.0856133  69.5138407  51.4063692  94.2310619  69.8207664
  24.7012258  81.3651562   5.7727948  24.5727491  80.4350471   5.9588758
  24.0356469  81.5723419   5.1168195 124.2791005  88.6784840   3.8563291
 123.4594636  89.0031910   4.2291490 124.7686236  88.3448505   4.6081868
  42.9271650 134.1673470  17.5208989  43.2606220 133.6664391  18.2652894
  43.6171293 134.8032856  17.3317758  48.6303997  76.6957045   2.9483167
  48.1585312  76.0106325   2.4747602  48.0514526  76.9270754   3.6746255
  49.4756746 112.5503349  94.5224094  50.1597023 113.2141781  94.6098709
  49.8605251 111.7588425  94.8987961  26.5727210 135.6731510  13.0126325
  26.1283278 135.4335213  12.1994058  27.1222782 136.4197350  12.7742330
  65.6195736 108.6639595  53.5102025  65.0002432 109.2712593  53.1054250
  66.1493921 109.2123795  54.0887777  31.0615754  79.8214960 101.4383507
  30.6961727  79.6172810 100.5775356  31.9800568  79.5590734 101.3770580
  21.4903808 112.4332905  56.2930536  20.5410194 112.3112679  56.2855625
  21.7254281 112.5400066  55.3713179  32.5500202 106.7105865   1.9410459
  32.1503353 107.1647263   2.6828328  32.6079082 107.3762512   1.2556402
  47.4522972  97.2575283   4.8023740  46.5061760  97.1123123   4.8033468
  47.7559328  96.8525791   3.9899389  53.0703688 104.6595669  85.2763939
  52.5815821 105.0956249  85.9743786  53.3975029 105.3744698  84.7303867
  64.1540384  69.3715143 108.5153198  64.8567057  69.2430830 109.1524982
  64.3190718  70.2401352 108.1485939  58.9805126  99.8277473  10.4276220
  58.8802147 100.6258488  10.9464685  58.1505919  99.7410965   9.9586240
  53.6797237  96.1588287  90.3446770  54.2955256  96.2183666  91.0750675
  52.9450130  96.7144299  90.6049347  57.0614719  85.7660103  20.6786100
  57.3965025  86.1620235  19.8741475  56.4431858  85.0998974  20.3781930
  46.3595581 110.4607868  13.2389394  47.0492649 111.1123657  13.3653585
  46.5801239 109.7570705  13.8491575  31.1941218 104.6545601  87.6086044
  30.4346585 104.5023441  88.1709862  31.9001698 104.8782730  88.2149696
  38.6210775  77.1790171  95.0205994  38.3433580  78.0928278  94.9569225
  39.2797565  77.0804071  94.3331051  65.4029512  72.8217745   3.5156003
  64.9363089  73.4450245   2.9587880  65.9245777  72.2998095   2.9059259
  61.2853622  98.8111973   9.4215051  61.0195255  98.0004883   8.9875642
  60.4619026  99.2292023   9.6733514  18.5137379  81.1692619  36.8444864
  17.6539123  81.4662266  37.1423856  18.3231473  80.4528618  36.2389413
 120.4588062 125.5092144   1.3488714 121.3342548 125.2317619   1.6187612
 120.2442825 126.2321281   1.9384519  69.9169350  99.3783760  25.4806176
  69.7494411  98.5351944  25.0596372  69.7379065 100.0261402  24.7990171
  58.6333895 122.2716618  49.1667405  59.4524002 121.8016911  49.3234960
  58.2474470 121.8338585  48.4080545  42.6592112 100.3104973  97.0858765
  42.6217985 101.2039852  97.4272251  42.3441124  99.7653008  97.8067875
  46.4614487  87.2627544 106.4277744  46.1523533  87.4848270 107.3060608
  45.6617737  87.1214390 105.9210396  31.6356063 120.3763008  87.0918465
  31.5632486 119.4524860  87.3317623  32.3172688 120.7209015  87.6687431
  36.3637495 117.2476578 106.4615631  36.5635657 117.2449875 107.3976707
  37.2156930 117.3399830 106.0350704  70.0850964  82.4576855  24.1349260
  69.8724174  82.0267963  24.9627725  70.5590200  81.7937279  23.6341516
  51.1498833 110.6243896  69.5268583  50.4850054 110.6102753  68.8384056
  51.8177509 110.0074768  69.2275143  50.4808617 121.1052036  88.6319542
  50.8162212 122.0017242  88.6292362  50.9935188 120.6556797  87.9601383
  23.6290336 104.7618771  21.1635057  23.4959793 105.4478073  20.5092660
  23.0875921 105.0305557  21.9057313  32.5749040  70.8332682  63.8318110
  33.0957961  71.6199398  63.6703920  33.1222415  70.1145172  63.5155153
  56.9737101  98.3848381  18.1366578  57.3626089  97.6997948  17.5928632
  56.2389660  98.7135792  17.6186601  39.4334292 100.2944088  84.5331860
  38.7753606 100.1287079  85.2082539  39.0359235 100.9575367  83.9688492
  17.2915924  90.4636288  84.8888302  17.5362790  89.9301624  84.1326714
  17.7452087  91.2953377  84.7520447  46.9987106 104.4078445 101.6344070
  46.9746447 104.0356159 102.5159359  47.7876616 104.9497795 101.6247082
  16.6749930  71.0488987  37.6642171  16.8083560  70.5518293  36.8571416
  15.9626436  71.6540480  37.4578611  65.2394867  65.7717037 109.2464828
  65.3806019  66.3793707 108.5204983  64.3071079  65.8514881 109.4478226
  49.1398811 115.0927448  85.5566692  48.2933140 115.5389500  85.5780602
  48.9933872 114.3276596  85.0004196  20.1693106 130.9387779  84.1612530
  20.0705242 131.8698883  84.3599987  21.1114025 130.7799435  84.2201233
  56.5706301 133.9120388  18.4596864  57.3546171 133.9221478  17.9106084
  56.5950966 133.0606747  18.8964979  51.5541410 118.6312771  31.5324855
  52.0104933 118.5744476  30.6929970  52.2320700 118.8904285  32.1565700
  51.6343880 117.4607372  65.8281374  52.1762180 117.0277023  65.1684952
  52.0880938 117.2980881  66.6551352  50.1239920  89.3010426  61.3146496
  50.7826948  89.9565125  61.5442181  50.6314421  88.5416031  61.0283184
  54.5164633  95.6688690  45.4171324  54.2263460  96.5711975  45.5508471
  53.8195801  95.2676773  44.8978758  54.0007353  91.2427998  73.9836645
  53.6141586  91.2549973  74.8592424  54.8954725  90.9317398  74.1211939
  60.3562355  84.6331024  65.2900934  60.3623867  85.1904106  66.0683060
  59.4480467  84.6530533  64.9883890  16.9676459 133.4089947  86.2326241
  17.2919047 134.3015099  86.3530731  16.6758883 133.3810902  85.3213978
  41.0019112 129.5003796  71.3259983  40.3631544 130.1490307  71.6217709
  41.2534809 129.0317726  72.1218348  37.4768209 127.2120476  62.5693369
  37.9177713 126.8201542  61.8155384  37.2871017 126.4726734  63.1468916
  45.2633667 102.6977730  67.6393938  44.9634552 103.1364155  68.4355593
  44.4606829 102.5077057  67.1537876  50.7292747 103.8657570 104.1617584
  51.0257769 104.7020340 103.8026524  50.3749228 103.3936787 103.4082317
  57.5247622  85.9474945  46.9995070  57.2499943  86.0691833  46.0907030
  57.7568007  85.0206566  47.0575094  77.9334927 109.1235256  58.8492298
  78.1052876 109.5622540  58.0160189  78.7813330 108.7635517  59.1096497
  40.6676149  96.3905239  93.1509686  41.3806581  96.9893742  93.3727551
  40.1307487  96.8782520  92.5263691  32.5985980  81.2087917  84.3273544
  32.7812171  81.4122772  83.4100342  31.8240762  80.6470776  84.2984867
  62.9529762  90.7295609  12.2579614  63.7996483  91.1744499  12.2960035
  62.3151779  91.4094639  12.4751512   4.8827940 102.7350807 101.2835121
   4.1190049 102.2834206 101.6424847   5.5159652 102.7424526 102.0013428
  65.3130770  91.1251450  84.8481274  64.4235992  91.0869122  84.4965649
  65.3929663  92.0110321  85.2017593  14.9045384 129.3214035   3.9904920
  15.2595246 130.0068378   3.4244577  14.4792545 129.7966385   4.7042981
  34.7755790  73.9167786  42.4732590  34.0921140  74.1979790  43.0815601
  35.5393839  73.7580776  43.0279160  42.5170565  95.5889416  19.1443006
  42.8432560  95.4451370  18.2559625  43.2198954  95.2722931  19.7117273
  34.5937395  85.0767326  69.5523453  34.4630527  85.9396935  69.1593361
  35.5127907  84.8718739  69.3802643  22.4603558 125.2081299  98.9073086
  23.0575633 124.5858383  99.3224239  22.0618367 125.6813335  99.6377182
  64.2078972 110.2938938  65.2497530  64.7802877 111.0332870  65.4544640
  63.7409544 110.1190853  66.0668421  54.9202681  79.3910503   6.1281720
  55.0547552  78.8131857   5.3770295  55.7652855  79.8232508   6.2521783
  56.3665104  98.6272717  48.9165354  57.0736647  98.4496403  49.5367050
  56.7971230  99.0616894  48.1802750   6.1769640 126.7042923  75.6124401
   6.1388856 127.6261616  75.3576040   5.9268540 126.7006779  76.5363789
  21.0409546 117.2090530  97.5732613  20.3105092 116.6959381  97.9188061
  21.3561392 116.7029190  96.8244553  24.4285440  96.0032082  56.4915276
  25.0591016  95.2855873  56.4310789  23.7013125  95.6410408  56.9976902
  56.8499184 140.4613495  76.1101198  56.7312384 141.4051056  76.2171936
  57.5421906 140.2350140  76.7312241  41.3263798 102.3063183  83.6040974
  41.3105392 102.4059486  82.6522350  41.1477327 101.3774395  83.7507057
  55.2604246 102.6010609  70.4223633  54.7307348 101.9726276  70.9130096
  54.8369980 102.6537991  69.5655298  35.1392007  91.0315418 102.0332432
  35.1348019  90.0865269 101.8810844  34.8588657  91.1289120 102.9432869
  91.1405373 104.8459339  90.8963490  90.4033279 105.2745724  90.4615879
  91.2797737 105.3583336  91.6927624  34.3278933  88.8397980  97.0142174
  34.2153883  88.1910324  96.3194752  35.0125694  89.4237804  96.6880035
  66.5530872  90.9879589  70.5816174  65.6044292  90.9568787  70.4578733
  66.6832733  91.6365814  71.2734032  55.4804754 116.2302494  98.8315868
  55.4738474 115.6725311  99.6094990  55.8767605 117.0496941  99.1277409
  21.1249352  78.6732912 103.3981323  21.9372463  79.1794825 103.3855438
  21.3987088  77.7869034 103.6339092  38.6417770 108.7734413  98.8906574
  38.3323050 108.1095123  98.2744980  39.4496775 109.1055012  98.4991646
  33.5766578  85.4138470  83.4220505  32.8957772  85.6638813  82.7974606
  33.0962920  85.1446247  84.2049980  28.3836150  85.5869484  91.1388302
  28.4845877  84.9252033  90.4546261  27.7497864  86.2079048  90.7797909
  64.3607712 125.8219051  76.2877131  64.8725319 126.4518070  76.7952156
  63.8955402 125.3056145  76.9459200  60.3461361 110.8203697   2.0989267
  60.3463745 110.2175426   1.3553945  60.8342838 110.3594017   2.7811662
  85.3709412  76.0166216  67.4832773  85.2267838  76.4841461  66.6605568
  85.8791637  76.6256762  68.0189943  25.6382012 115.4618073  81.0410404
  26.3761878 114.8903847  81.2533760  24.8991418 114.8649216  80.9237289
  38.1727743 133.6428452  99.4681454  37.9266214 134.5673180  99.4995594
  38.3645725 133.4772873  98.5450935  60.8749485 100.0279140  94.6194649
  61.0818291  99.4174194  93.9118481  61.0903645  99.5489025  95.4197025
  69.8451614 124.8814106  80.5741024  69.0085268 124.6864223  80.1519012
  70.4481602 124.2248631  80.2254295  45.0013685 129.6051693   1.7023412
  45.1294231 130.5471230   1.5903035  45.2899742 129.4290638   2.5978414
  61.3058805 126.9058704  92.4126148  61.5375662 126.0943604  92.8642845
  60.6946611 126.6330338  91.7283630  39.1209507 101.4322567  89.3369102
  39.1067982 102.2935963  88.9196205  38.6703682 101.5628910  90.1712608
  38.9354396 108.4639931  53.7877512  39.8429632 108.3137798  54.0524626
  38.8517237 108.0083370  52.9501343  81.7298412 101.0136700  83.0169392
  82.4613762 101.5486813  82.7089500  81.5472794 100.4169559  82.2911072
  55.5920124  83.0984116 104.1995907  56.3279152  82.9156590 103.6154079
  55.8196545  83.9280415 104.6192741  51.9973946  93.9873695  92.9568672
  52.7844334  93.8780594  93.4905815  51.9917488  94.9162579  92.7258682
  27.0500040 131.7511845  88.9098835  27.7371764 131.2848091  88.4339428
  27.4023056 132.6320553  89.0370846  26.9831395  84.0761375  97.5028515
  27.4126601  83.2582092  97.2523880  27.2793865  84.7115612  96.8511581
  31.9454527 117.3645020  67.2189617  31.8921733 118.2614517  66.8889952
  32.5483966 117.4175167  67.9605007  46.9830608 114.8061466 107.0930004
  46.2110806 114.2828083 107.3083973  46.6287136 115.6413937 106.7879868
  25.6626701  92.3476791  14.4587556  25.8826733  92.9981899  15.1255933
  25.7829714  92.8067207  13.6274663  11.6577137  68.1094027 101.8770885
  12.1682215  68.8470411 101.5431595  11.7161572  68.1891584 102.8291702
  36.5580344 121.0495186   2.6076547  37.2623515 121.6255760   2.9048482
  35.9337759 121.0404587   3.3332197  76.3312387   0.2534752   5.6342450
  76.8148279  -0.4410000   6.0815469  76.4744282   1.0309296   6.1739675
  41.1075592 100.0550461 101.5781403  41.8925762 100.5295086 101.8517590
  40.9260988  99.4549370 102.3014545 110.6499178  50.9637260 105.4920959
 109.8242969  50.5055332 105.6490803 110.3903980  51.8629360 105.2913380
  86.9464779  92.4363041  96.1944199  86.5740204  91.7534256  96.7522621
  87.8917885  92.2924805  96.2385559  41.8493176  74.8042917  74.5398474
  42.7167702  75.2087736  74.5521545  41.9806147  73.9695978  74.0900946
  61.6205645 106.1274910  98.8445187  61.2001514 105.7596779  98.0672169
  62.1206427 105.3994656  99.2134857  37.2720528 101.2715435 105.2976227
  36.5874743 101.9340420 105.3907871  38.0780602 101.7746735 105.1816463
  46.7785215 111.0406113  90.4476738  46.0211372 110.4615211  90.5328846
  46.6533709 111.7005444  91.1296177  28.4766507  99.4134235 103.6312389
  29.4001484  99.1620159 103.6444855  28.0397940  98.6964130 103.1715870
  31.4907742 106.5762901  73.3696365  30.5727005 106.5273476  73.6360550
  31.5020275 107.2266388  72.6673841  59.5373344 135.2036476  71.1483812
  59.3737650 134.8675251  72.0295715  59.2369747 136.1119938  71.1789370
  35.4868484 112.2318935  37.8475809  36.3591194 112.1125698  38.2232594
  35.3337669 111.4351177  37.3396897  40.5680084 113.3919239  76.7104292
  39.9988961 113.7602425  76.0346460  40.3109932 113.8453770  77.5132704
  28.9284229  90.7982540  46.4606762  29.5135498  90.8669853  45.7062626
  29.2596555  91.4479733  47.0806646  81.3998318  89.9943638  84.1184998
  81.9583893  89.4665051  83.5478687  81.2323284  90.7927608  83.6177540
  41.2145901 109.1074848  97.9560471  41.4231825 109.8136425  97.3444366
  41.6565752 109.3555546  98.7680531  70.4077864 108.7403965  73.4435511
  69.6653223 108.5194397  74.0058279  70.0104761 109.1258812  72.6626635
  51.7601204 102.8161144  90.0604820  52.4962664 102.4173927  90.5245304
  51.3694096 102.0951366  89.5667553  40.5104208  77.0117521  93.2207680
  40.3523922  76.2150002  92.7143669  41.1896038  77.4758673  92.7313328
  22.1688867 113.0990982 103.2714272  21.7513704 112.2729492 103.5151386
  22.6677656 113.3534908 104.0477276  38.6025262  83.8946629 101.9086075
  38.1753421  83.2362652 101.3606548  38.0639982  84.6790981 101.8042946
  48.3381987 106.4716625  66.3288498  47.7599955 107.1565056  65.9928417
  47.9617214 105.6564140  65.9973860  63.5152483  70.9297609  98.9038277
  62.7405262  70.5673790  98.4740353  63.4764433  70.5865955  99.7965527
  52.1084547  46.6965771  95.7809353  52.0519543  46.3825893  94.8784637
  52.6281500  46.0322857  96.2335491  22.6601624 125.3528786  85.0340652
  22.5930333 124.5854378  85.6021881  23.5757089 125.3649616  84.7550297
  50.8042574  70.2340889  77.8953838  51.0045862  69.4842052  78.4555387
  49.9514389  70.0266552  77.5134039   5.8438444 121.7684937  99.4792652
   5.2135575 121.4194965 100.1094723   6.2097597 120.9938049  99.0524292
  47.4903917  92.8688145  10.5205289  47.4164581  92.7130985  11.4620820
  47.8481388  93.7539673  10.4515210  21.3120079 114.4995975  66.9490814
  21.1811280 115.4015827  66.6566372  22.2108221 114.4824314  67.2778225
  50.5753946  76.6869926  56.1019468  51.2125683  76.0381079  56.4005852
  50.8900261  77.5156069  56.4633846  27.0848370 110.8647060  96.7619610
  27.2153735 110.1164246  97.3444271  26.4552379 110.5545902  96.1110592
  72.5444078 119.0649319  77.6354933  72.7829838 118.4049702  78.2864714
  71.7286730 119.4422531  77.9647923  61.8551064  72.0907068 101.4529800
  61.2537193  72.3308325 100.7480621  61.7482901  71.1441326 101.5468884
  58.6464405 102.0165539  89.3337822  58.5933971 101.1266518  89.6823502
  59.4931984 102.0493412  88.8886261  49.1917849 110.4602814  67.4576330
  48.4414148 109.9037647  67.6661015  49.6539211 109.9893570  66.7641687
  19.8091769  82.6256943 103.1500530  20.4389048  82.8427887 102.4626350
  20.1334333  83.0839634 103.9253426  18.3828807  87.0414352  11.1857740
  19.2202902  87.1266556  11.6415349  18.5090721  87.5133801  10.3626291
  45.5120611  90.2389908  82.4401760  44.5983696  89.9618244  82.5078678
  45.7680655  90.4419518  83.3399010  22.9345489  96.2051582  51.7694092
  21.9840622  96.3101864  51.7272425  23.1307459  96.1738014  52.7057648
  39.0987468 117.4622917  43.4021854  38.4203267 116.9774628  43.8721991
  39.2617011 118.2335472  43.9451885  46.0515642 128.2196617 102.6526165
  45.6481791 127.3571491 102.5547600  45.4329967 128.7137127 103.1906891
   7.4100953  85.6092072  66.0926342   7.8336310  86.4610100  66.1988831
   7.3673582  85.2507305  66.9791412  29.4893312 131.8979168  93.7420654
  29.1057277 132.7729702  93.7999821  29.3433309 131.6320038  92.8342056
  27.2858667 109.0732288  86.8772030  28.0201006 109.6848679  86.8221855
  26.7200065 109.4388390  87.5571728  12.3455453 105.9158802  67.4847269
  13.2882357 106.0797596  67.4580812  11.9618094 106.6451073  66.9976807
  31.6293907 116.6870403  76.8370295  31.7019057 116.7380238  77.7901173
  31.1102629 115.8986950  76.6781473  50.7374191  95.8081436  84.9580574
  51.1658907  96.1303043  85.7510567  50.2822399  96.5723515  84.6044350
  58.4973145  87.6441288  67.0032692  59.0388441  88.3132267  66.5846014
  59.0937710  86.9097424  67.1486855  29.8264122 100.2148438  92.3118210
  29.0279531 100.2281761  92.8395653  30.3048730 100.9987926  92.5814915
  66.1874390 113.3729553  35.3387070  67.1424389 113.3107567  35.3202653
  65.8915663 112.6967907  34.7292018  49.4769335 125.9801197   0.5588666
  49.0674734 126.6908169   1.0523073  49.8313618 126.4043045  -0.2225932
  88.8142109 112.9078007  79.9259090  88.8245678 113.0744457  80.8684349
  89.6146107 112.4090481  79.7620630  39.8839521  87.6008129 103.3444214
  40.2816057  86.9301701 102.7891350  39.9867654  88.4135628 102.8493309
  51.7669773  88.2233238  56.8171358  51.1770773  88.3871078  56.0813189
  52.1494532  89.0787601  57.0124960  34.5701838 104.9584293  67.4181366
  35.2961183 105.4504967  67.8017044  33.8988900 105.6182957  67.2444010
  49.6958113 109.5459080  28.5814810  50.6500578 109.5831490  28.5162139
  49.4128799 109.1747952  27.7457428  48.0246162  62.0966959  77.0261717
  48.9306307  62.0666456  76.7188120  47.7656460  61.1780405  77.0985317
  52.9315996 103.3278847 105.9722328  52.6254082 104.2249012 106.1058140
  52.2030258 102.8889942 105.5331612  50.9842443 111.3027287  82.1065426
  51.1974239 111.6085815  81.2249374  50.2521896 110.6991005  81.9801712
  25.1319027 124.7492504  83.7049961  24.3972969 124.6125698  83.1067467
  25.6989455 123.9908600  83.5651970  38.9079714  91.0088253  85.0427055
  38.3608103  91.6969109  84.6640301  38.5283756  90.8493423  85.9068203
  47.9979038   3.2656937   1.6400949  47.2840977   3.4133320   2.2605077
  48.1982946   2.3333817   1.7229883  49.6340418 106.9473839  69.1677141
  49.5026731 106.6654205  68.2624674  49.7831249 106.1354446  69.6522331
  26.4877367 109.0320969  94.7842121  26.2113023 108.1225204  94.8959541
  27.4438095 108.9909363  94.7626591  44.3144751  96.7900181  53.4036636
  44.4672012  96.3851452  54.2574692  44.5873451  97.7003479  53.5180044
  69.0308475  77.7866173  12.9717294  69.4291162  77.9585648  12.1184770
  69.7350216  77.3981428  13.4908239  49.5075846 107.7730560  85.5035496
  48.8518000 108.1100082  84.8931122  50.2480698 108.3730888  85.4148388
  49.9798870  94.8922443  76.2146616  50.1247787  94.6027470  75.3138685
  50.4426718  94.2481804  76.7506027  44.7900724  66.6886568  80.7548237
  44.3772888  67.4071169  81.2340450  45.3868151  66.2899399  81.3881874
  44.5527840  78.2504368  68.6754990  44.8092461  79.0623474  68.2381725
  43.7703133  77.9621077  68.2055616  61.7999697 104.6542072  71.7925596
  61.9522810 103.7639236  71.4756536  61.9657183 105.2109051  71.0317373
  68.2779694  88.8285732  31.7064500  67.3303890  88.9482021  31.7697930
  68.6290455  89.7178173  31.6594577  68.8424969  99.0671349   6.0564748
  69.5905066  98.4707260   6.0245839  69.2232323  99.9359226   5.9281198
   4.9410543  95.0454426  94.6471786   4.0098503  95.0662136  94.4265938
   5.3834248  94.9217129  93.8074017  37.5928426 124.8507023  99.1041851
  37.3508477 125.7704067  98.9954567  37.0461178 124.5430470  99.8271465
  64.6529055  57.0712709 104.9877930  64.9274683  56.4530087 105.6649971
  64.1507483  56.5411663 104.3688774  38.6519837  80.2443504  82.3927689
  38.0597568  79.4925547  82.4100208  39.2491674  80.0622177  81.6672134
  29.8411393 130.7150650 100.7617569  28.9030075 130.8022404 100.5928135
  30.2316356 131.4845276 100.3474331  56.9836521  99.1927814 109.3141365
  56.7420244  98.3281231 109.6461201  57.3353577  99.6523762 110.0765705
  59.1495657  94.5498085  81.0344315  58.5250950  94.3491077  81.7315578
  59.4590521  93.6944103  80.7365322  10.1646507  73.8876057  90.6239414
   9.5187110  73.2698584  90.2813435  10.0702882  74.6636963  90.0716591
  19.2238462  86.5063763  67.5289726  19.0173841  87.2055912  66.9087267
  18.6027551  85.8089256  67.3191071  71.1039686 101.4178562  10.9755269
  72.0439291 101.5307522  11.1168138  71.0412216 100.9556389  10.1396791
   4.9285376  69.6251249  29.1780686   5.6107992  69.8969412  28.5641742
   5.0031257  68.6714411  29.2121506 104.5774502  82.1427250  60.3491259
 103.8822622  82.4501801  60.9308577 105.0574572  82.9354858  60.1096582
  29.5037508  81.0537243 103.1669426  28.7729287  81.4532375 102.6952267
  29.9931383  80.5805492 102.4940014  73.8494253  97.8675938  86.0457039
  73.6199808  97.5974560  85.1565361  74.7015095  98.2939720  85.9541321
  36.6903758 111.5988636 104.4334698  37.0913768 110.8271217 104.0336704
  36.0080314 111.8614388 103.8156605  28.4640074 100.8212090  99.7765923
  28.5479355 100.1071739  99.1446590  27.9481959 101.4857864  99.3199635
  21.6745782  68.7236547 104.5096016  20.8462882  68.5672569 104.0560532
  21.4188695  68.9522934 105.4032230  14.4675457 110.6147575  92.3532867
  14.1996920 109.8012161  91.9259357  14.5530295 111.2444496  91.6374588
  40.8906078  65.7408714  74.7503757  41.8341446  65.8941364  74.8001194
  40.7820559  65.1568842  73.9997721  60.5124044  84.6563053  75.6500530
  60.7946682  85.3111553  76.2885952  61.2891436  84.1173077  75.5004215
  29.9721217 104.8105907  98.3092690  30.6436682 104.2276764  97.9550552
  30.4644847 105.5128479  98.7342834   1.8804772 109.7399139 106.4761448
   1.4191753 109.6754456 105.6399250   2.3092380 108.8903427 106.5792751
  47.4701166  11.3484841  91.0184765  46.6975069  11.3639527  90.4536152
  47.1827602  11.7690354  91.8289089  41.7764759 118.4746075  93.0004215
  41.7358541 117.5336742  93.1713867  40.9716320 118.6654758  92.5187302
  29.9495387 119.5002556 100.5876732  30.6355572 120.1178455 100.3343105
  29.4214058 119.9780560 101.2272167  58.6660480  85.7590008  57.8671265
  58.1518316  84.9861145  58.1004810  59.3437481  85.4269600  57.2783041
  51.2677670  97.3751259  60.3282595  51.0237694  97.8290176  61.1349058
  50.4525328  97.3173332  59.8299742  42.0972586 108.0662251  84.4760132
  42.2828865 107.1901226  84.1380501  41.6806698 108.5218239  83.7444973
  52.6681185 131.4749336  78.0791759  52.3444843 132.3664093  78.2086563
  53.0903625 131.4957809  77.2203970  64.2365980  91.3191605   4.1225759
  64.8104095  91.7523289   4.7545091  64.2854738  90.3910542   4.3516008
  61.3035202  75.8357143  61.7049503  61.1657476  75.3570986  62.5223732
  60.4308176  75.9047985  61.3178396  42.2093105  73.9641953  39.7811556
  42.0640326  73.1918240  39.2347431  41.3703060  74.4248724  39.7726250
  14.1223133 102.8426647  40.5269289  14.4239378 103.0581474  39.6444201
  13.6425388 102.0210361  40.4221153  63.1030464  92.4634552 103.0560970
  63.7612152  91.7759991 102.9538536  62.4873638  92.3142147 102.3385334
  22.2451878  89.9685287  92.0861149  22.6612115  90.2982330  92.8826332
  22.9449296  89.9681473  91.4329720  46.1631536  87.9898262  58.6554718
  47.0034504  88.4479904  58.6703825  45.9029102  87.9967117  57.7343512
  34.1240096 115.3759193  85.7103539  34.9828720 114.9573803  85.7687664
  34.2307901 116.0489845  85.0381851  27.6264167  81.2412930  35.7975030
  27.4075103  81.9411182  35.1822329  27.4047232  81.5998840  36.6568613
  30.0071788 121.3923550  80.7152176  30.4902363 121.1376762  79.9290705
  29.1191196 121.0676670  80.5663490  83.3169842 102.9118824  69.0386534
  84.0104866 103.4485912  68.6549473  83.7144184 102.5310516  69.8217583
  48.9773321  77.9672623  80.2010155  48.9258957  77.4065161  80.9750652
  48.7262630  77.3965645  79.4747210  41.3330746  72.2046757  76.5810776
  41.3020706  71.5330315  75.8997822  40.6824207  72.8519154  76.3091183
  29.2827797 116.5550327  15.6678430  28.5121012 115.9995842  15.5505220
  29.7616386 116.1505604  16.3912622  34.3794060 109.6087551 101.4875603
  33.6830926 109.1264534 101.0417271  34.9233699 109.9534130 100.7793617
  60.2525520 110.4434204  84.7871208  60.8330488 109.9774456  85.3888893
  59.3879175 110.3828239  85.1932907  74.7395420 127.4259758  65.9993219
  75.1917696 126.8277645  65.4044580  73.9559317 126.9475746  66.2700987
   7.6112390  72.4759340  59.0323162   7.5260228  71.9890881  58.2125950
   6.8847001  72.1648264  59.5723009  34.9504590  74.5086288   0.1638929
  34.5572448  73.6686087  -0.0727137  35.8018446  74.2782640   0.5357877
  44.3520308 129.5629120  54.3442202  45.1794863 129.1001892  54.4762802
  43.7609529 128.8996887  53.9878654  44.2491531  82.5647736 102.1135426
  44.4527102  81.7763901 102.6167679  43.8931370  82.2366047 101.2878323
  52.3263073   1.2259751  -0.0401839  51.5730715   0.6951409  -0.2991828
  52.7128410   0.7505780   0.6952134  56.2975359   6.3858395 109.8714828
  56.3762474   7.0944004 109.2327595  55.4183388   6.4883595 110.2358055
  24.7370839 100.3928089 106.0108185  23.9491129 100.0563240 105.5840683
  24.5356274 101.3098717 106.1969376  40.8031607 129.8723793 101.4498901
  39.8503733 129.9502373 101.4012432  41.1284161 130.5127430 100.8171368
  48.8380909 122.1775150   8.9954416  48.7923479 123.0973721   8.7346784
  48.9096403 121.6978931   8.1701700  12.1218693 118.7984753  97.0387650
  13.0552471 119.0058708  97.0837498  12.0935285 117.8743362  96.7909718
   0.8997826 121.9946766  97.2419930   1.6050327 121.9570255  96.5958977
   1.2675270 122.4971771  97.9689693  37.4274683  72.9680586 108.2946110
  37.1820164  73.8902569 108.2202148  37.4672842  72.8060818 109.2371655
  29.4966316  94.2063713  13.3118764  29.5921993  94.5816517  12.4365178
  30.0913548  94.7196579  13.8587610  57.4828911 126.1409187  98.2540894
  56.6403913 126.5945625  98.2791328  57.8250790 126.2218952  99.1443634
  25.6407714  85.1498604  85.5457211  26.2907028  85.6109715  85.0154400
  26.0549688  85.0552750  86.4034653  34.8207927  90.0676537  62.3657894
  34.8816919  89.8150158  63.2870388  35.6940675  90.3939819  62.1486902
  20.6741071 118.4296417  77.2628355  20.7522607 117.6308441  76.7412567
  21.2430048 119.0604210  76.8215895 122.1672530 108.7637806  93.2933712
 121.5274439 108.1489182  92.9344463 122.2875344 109.4149590  92.6021862
  44.3706656  86.3196468  93.4398842  45.1915073  86.4582825  93.9123631
  44.0610075  87.2016239  93.2338333  24.9730945  98.4469223  93.8701057
  24.2274189  98.8371468  93.4141254  24.5786071  97.8781700  94.5312691
 116.7130542  92.4308681  94.5538425 116.2472463  91.6025257  94.6683025
 116.0959948  93.0966091  94.8575878  21.0211229 113.6230373  95.1661301
  20.2802300 113.0977726  94.8637962  21.7217851 112.9873657  95.3118038
  34.5084357  91.8075371  88.2044888  33.9821053  92.4807739  88.6357212
  34.4978857  92.0515823  87.2789860  11.0161602  96.2553120  75.7589197
  10.8435583  95.9954262  74.8539877  11.9709063  96.2726116  75.8251905
  77.4038267  63.4708595 108.5117912  77.2834873  63.3246899 109.4500828
  76.5718174  63.8424110 108.2186317  83.4413433  79.3621826  72.6933479
  83.2963371  79.9685907  73.4196234  82.5620079  79.0984058  72.4223566
  21.7374158  90.1910305  59.8340559  21.5504980  91.0427475  60.2288485
  22.5666118  89.9209213  60.2286577  73.1084681  96.8205070  63.6441374
  73.6647511  96.3067818  63.0585861  72.2153521  96.6122341  63.3699179
  35.5401278 102.1917915  90.5195999  34.7360420 102.7110195  90.5103779
  35.9843946 102.4525833  91.3263512  79.8806763 121.6375065  57.3533869
  79.5982027 122.2448921  56.6696310  80.6510639 122.0536709  57.7401018
   1.0674756  76.0426378  54.9552536   1.2907137  76.8626642  55.3956556
   0.3949319  75.6480074  55.5103970  64.6511316 134.7080612  91.9337845
  65.5443478 134.7100067  92.2778702  64.5222664 133.8176346  91.6070461
  46.4397764 128.3384514  57.2352839  45.9214878 129.1204929  57.4250984
  46.7285395 128.4563160  56.3303232   9.2984200  77.2900152  96.7025948
   8.9385760  76.5321064  97.1633720   9.4050318  77.9552650  97.3825264
  58.4596729  94.1282940  76.0962915  58.0051947  93.8691711  75.2947044
  58.4928226  93.3289909  76.6218901  32.6598692 120.1177883  62.6760864
  32.4766231 121.0503864  62.5624514  33.5643578 120.0876808  62.9878998
  46.0847569 106.3019753  64.2761087  45.8373260 105.3773689  64.2865705
  45.2786589 106.7681599  64.4977140  17.2672784 118.5312653  84.5720005
  17.3153532 117.7613163  85.1386452  17.6292276 118.2365990  83.7363052
  63.3610392  79.5054245  83.0376053  64.2540312  79.4469309  82.6979256
  63.1904984  80.4450798  83.1023979  34.1523170  74.8977137  79.9589729
  33.2088685  75.0330162  79.8705053  34.5045996  75.7712364  80.1295280
  19.2207837 126.3278770  73.1687069  18.5759807 125.7005692  72.8416872
  19.2705441 126.1523533  74.1083622  50.7933235 109.1706085  65.9484386
  50.9089136 109.0741158  65.0031567  51.0170555 110.0843906  66.1250496
  79.0432453 115.9345341  91.2516403  79.9494839 116.1845207  91.0714531
  78.5528946 116.7546940  91.1956882  55.4297733  83.7238216  45.6367636
  55.0363636  83.7047291  44.7643566  55.7483387  82.8318977  45.7754135
  44.7123861  75.4309130  61.5212488  45.0758696  76.2064648  61.9485998
  45.3624582  74.7455072  61.6757298  35.8240032  84.4330978  91.7270374
  36.0564923  84.7428989  92.6023674  36.1817098  85.0953770  91.1357212
  47.4210310  91.5522671  19.8487115  47.1794128  90.6660080  20.1177907
  46.9454098  92.1236706  20.4516292  33.4340549 125.6311798  66.5885353
  33.1450748 125.8106136  65.6938171  33.0073333 126.3050365  67.1177387
  19.2476606  13.7164288  75.8411980  19.6999967  12.9834633  75.4235935
  19.9226987  14.3872242  75.9439945  55.7452774  71.5065813  53.6547947
  55.8761501  70.7972431  53.0255508  55.5008221  71.0637856  54.4674492
  56.4769173 103.1902790  88.4706879  57.3729420 102.9361248  88.6915588
  56.2202072 103.7934494  89.1681957  31.1012626  70.4874229  65.9707355
  30.1939750  70.5181599  65.6672287  31.6236377  70.5678892  65.1726866
  35.7587433  88.3409882  23.2071972  35.8813643  88.9085007  22.4461889
  36.5891647  87.8727436  23.2930732  69.7819042  86.8837929  54.9586821
  68.9608288  87.2827053  54.6706915  70.4162312  87.6003551  54.9388027
  47.8791094  95.9581375  65.6103611  48.6657190  95.5061054  65.3051567
  47.5019550  95.3682995  66.2631035  69.6786451  80.6680775  44.4198608
  69.9905014  80.4726028  45.3034735  68.9406538  81.2630653  44.5524931
  62.5923729 144.5349121  48.6507130  62.3129368 145.4060936  48.3693171
  63.3337116 144.6979046  49.2338800  59.3228531 108.3910847  73.0072784
  60.0572443 108.0061150  73.4855032  59.4304991 108.0767918  72.1095753
  71.2263536 125.6841469  35.4464841  70.5792475 126.3004971  35.7894254
  70.7809258 125.2490234  34.7195101  50.1733017  99.1249084  62.2033739
  49.4166327  99.6853065  62.3755169  50.4977417  98.8870716  63.0719376
  33.3058286  77.5494242  62.9624224  32.6131773  77.0624495  62.5159693
  33.1510830  78.4624338  62.7201414  61.5542984 127.3446560  55.1068306
  61.7877245 126.4538670  54.8456287  60.6708431 127.4719048  54.7610760
  24.3116045 103.1336975 105.4563046  24.5680404 103.5811234 106.2627125
  24.5339608 103.7506104 104.7590160  45.6284714 110.3379917  69.7834158
  46.2756157 109.7179508  70.1195574  45.7529402 111.1251259  70.3136587
  61.7649698  96.0191822  60.1050043  61.1968803  96.1254597  59.3419790
  61.5002203  96.7204762  60.7002592  35.3637123 109.5513725  83.4068108
  35.1759171 108.6128998  83.4220028  34.5682979 109.9603558  83.7478256
  50.9304285  94.8838615  46.3640451  51.0518456  93.9532471  46.1758041
  51.3855648  95.0215626  47.1947765  35.1202202 103.1139469  88.0504704
  35.1107073 102.3821354  88.6673927  35.4656696 103.8493347  88.5565281
  56.3407850 104.8725033  37.5848579  57.1864891 104.9606228  38.0244637
  56.4814281 105.2508736  36.7169356  40.6230450  57.9182482  38.5252357
  39.9967599  58.6077785  38.7455678  41.4789677  58.3412313  38.5939002
  34.2403293  75.6513643  53.9798117  34.1870213  75.2566290  54.8501968
  34.8660564  75.1033068  53.5061741  26.5344071  63.3846283  90.1346493
  25.8864617  62.7384710  89.8537922  26.4247251  64.1144037  89.5250320
  61.9351721 111.4742470  63.9068127  61.2626028 111.2031937  64.5316410
  62.7546978 111.1525822  64.2824936  69.4467449  78.8850498  61.0651731
  70.1877689  78.2792616  61.0769415  68.9127731  78.6249018  61.8157911
  46.4331865 102.7169991  39.9068618  47.2652578 102.7621078  39.4358468
  46.2992811 101.7829323  40.0675821   9.5904243 120.3087425  90.4895115
  10.5334246 120.3338814  90.3271866   9.5133150 120.1187706  91.4244938
  48.9770937 101.0582447  97.3475838  49.5277548 101.5562057  96.7434025
  49.0088844 100.1607609  97.0163059  39.7611213 102.7164841 104.4550991
  40.6683493 102.4156570 104.5068264  39.7154307 103.1988525 103.6295986
  54.9405003  76.2257957 102.9032042  55.8896828  76.2717056 103.0179938
  54.5849419  76.6931200 103.6591288  31.7773557 126.2110138  38.9156294
  31.8342733 127.1586037  38.7928319  32.1608424 126.0579491  39.7791910
  42.3820782  12.1557408  97.3360920  43.0597448  11.6955166  97.8312683
  41.5769911  11.6748410  97.5279427  23.9907551  89.1217518  84.3915558
  24.2440104  88.2285309  84.1586208  23.5117459  89.4419384  83.6271858
  36.4134359  91.9948101  50.3343344  36.8851519  91.9891071  49.5014572
  35.9244132  91.1719704  50.3382683  47.6393890  83.4586334  49.1848755
  48.1780100  84.2335129  49.3451643  47.7234840  82.9389477  49.9843025
  30.8423162 103.4695244  92.1585083  31.2801337 102.9865837  92.8594494
  30.2131271 104.0310478  92.6113224  56.7900467 107.1621704  69.6621227
  56.9888020 106.5186214  68.9819956  56.2376833 106.6896439  70.2848959
  68.7942314 111.7122078  59.5853519  68.6835432 112.4248695  58.9559889
  69.6761274 111.8370819  59.9359226  68.8488722 104.0654182   8.2994092
  68.1355667 103.4377861   8.1832165  69.6447992 103.5511589   8.1642687
  54.6417952 110.7622147  38.3722115  55.3124952 111.4251041  38.5364699
  54.0803194 111.1507034  37.7013445  10.0216413 116.6323185  93.1869030
  10.0215697 117.5548267  93.4422588  10.7758272 116.5452290  92.6039314
  54.3330383 114.0857410  88.3103275  54.0881824 114.3687439  87.4293137
  55.2566481 113.8454151  88.2366657  31.2554479  81.9762802  87.1387577
  31.7409348  82.3570538  86.4069462  31.5113640  82.5030518  87.8958893
  27.0555353  85.3874683  31.9114423  27.4046326  84.5852757  31.5230489
  27.6000237  85.5358887  32.6845765  54.2120409  61.4554644  95.5820751
  54.0493011  60.8774614  94.8366547  54.0732098  60.9009933  96.3498783
  52.0002794 120.6726551  74.8344183  52.0361471 120.4968929  73.8941765
  52.6415777 121.3697338  74.9724102  34.0368462  88.2942772  85.9778214
  34.6938419  88.4726620  85.3049469  33.2071662  88.2671165  85.5012512
  33.5596347 127.9243660  61.9860792  32.9520965 128.5526657  62.3764086
  34.3408346 127.9725266  62.5371122  22.6672578  90.4878330  82.1791935
  21.7260122  90.6390476  82.0930672  22.9326463  90.1389503  81.3282681
  24.3050551  98.4115505  74.4177198  23.4228492  98.2961750  74.0646887
  24.8637104  97.8898239  73.8415813  15.0456953  97.3477936   3.7945215
  15.2955604  97.2564125   4.7140065  14.1563308  97.7006531   3.8219396
  39.0723991  99.1700077  60.9988022  39.4548583 100.0452423  61.0613155
  39.3330717  98.8560009  60.1329565  51.2112474 109.6159744  46.5706396
  51.2976408 110.1036549  47.3897409  52.0577192 109.1832066  46.4591312
  43.8810730  97.0678997  79.5103693  44.6665955  96.7888165  79.0399504
  43.2858562  96.3209534  79.4469595  69.6031427  97.6529980  47.1145535
  70.2353287  98.3644104  47.0123243  70.1388979  96.8805790  47.2950268
  50.7424212 119.4619370  40.4590178  50.7500982 119.8794270  41.3203382
  51.2904358 118.6843109  40.5648804  65.8075047  92.1518421  64.8397446
  65.9558344  91.5436649  64.1156244  65.7174873  91.5902138  65.6096172
  31.8772936 106.3904762 100.4491997  32.7451110 106.5515709 100.0788403
  31.8118334 107.0034599 101.1814594  90.8847141  90.4498005  93.0342197
  90.2420902  91.1587620  93.0087662  91.1095810  90.2972984  92.1163940
  38.8548088 130.2637768  43.4975719  39.0037155 129.4746685  42.9766464
  38.2459974 130.7849503  42.9741621  48.1010389 139.8392677  70.1520872
  48.8750410 139.3108940  70.3469515  48.2693720 140.1984787  69.2809582
  14.4279242  93.2804775  99.0610409  14.0738726  92.4650383  99.4159222
  15.0761783  93.5612583  99.7069263  51.1157608 106.5771103  66.7179537
  50.1949883 106.3782406  66.5480947  51.1993122 107.5103283  66.5221167
  18.3332658 124.9086571  39.1677856  17.3872018 125.0398731  39.1046953
  18.6708391 125.1858425  38.3160543  11.0511279  91.7461491  74.6526098
  11.3903594  92.2932720  75.3609896  11.7438376  91.1053371  74.4921827
  42.6352835  83.8720226  31.1790752  43.5907650  83.9293385  31.1766648
  42.3669291  84.3116856  30.3722858  42.6762533  67.8499365  69.2302036
  42.3044062  68.7178183  69.3875074  42.4451828  67.6512384  68.3228111
  48.9664602  90.6196880  44.2645407  49.4468975  89.9247742  43.8145256
  48.3167839  90.1574612  44.7941637  23.2862830  73.6133432  38.0440974
  23.2137156  72.6885986  38.2803440  24.1771698  73.7050438  37.7062464
  59.5948124 102.8921223  35.5668473  59.0102482 102.4589825  36.1888623
  60.3596973 103.1370163  36.0876298  40.2535486  98.9089108  89.2139149
  40.0081968  99.7899246  88.9313221  41.0428667  98.7073040  88.7113571
  56.0974312  80.8950424  24.0998149  56.2826061  81.1034679  25.0155115
  55.1422262  80.9085846  24.0395308  63.6954880  80.5764484  79.7543144
  62.8310442  80.9875011  79.7538424  63.8139868  80.2668667  78.8563442
  57.1828699  97.1832180  53.8313627  56.8984699  96.4837170  53.2431030
  56.7111921  97.0164680  54.6474171  51.8421030 117.2157764  73.3928871
  51.5637207 116.4570236  72.8800249  51.1304808 117.3569679  74.0172958
  21.8802667 114.1219521 108.5690498  21.5202880 113.8933945 109.4260311
  21.5772820 113.4241199 107.9881382  46.0903072 126.2914181  72.7021170
  46.9724226 126.4064217  73.0555058  46.1956310 125.6504250  71.9990730
  33.9753795  58.8125801  63.1682348  34.8404431  59.0551424  62.8379965
  33.9051104  57.8748226  62.9896021  28.9189982  57.0051146  57.2740793
  29.2974353  56.1259174  57.2786808  29.6664119  57.5882816  57.4064445
  69.0996647  78.4018183  71.4007711  69.7625637  77.7151394  71.3281488
  68.5149622  78.0978155  72.0949888  41.6996241 114.6511841  72.4006653
  40.9197998 114.6547413  71.8456078  41.7732191 113.7464714  72.7045059
  22.7773976  69.4970369  84.3330860  23.2505345  69.6259880  85.1551247
  22.2083068  68.7456131  84.4996166  29.4551444  84.5951843  52.2051287
  28.8193440  85.1745701  51.7852449  30.0650740  85.1874924  52.6448822
  30.8839393 118.6041069  25.8380699  30.9956694 118.2036781  24.9758625
  30.3706479 119.3944550  25.6703925  71.9544315 122.2745514  82.9566288
  71.7692471 121.3775921  82.6784134  71.6341543 122.8192806  82.2376537
  50.3173065  67.1593332  77.8361940  50.1353598  66.2781286  78.1626987
  50.8089447  67.5794649  78.5418987  39.0271783 128.1192398  56.5184021
  39.3909431 127.8809643  55.6656790  38.1798697 127.6750469  56.5499258
  12.0723915 101.1407471  33.8836265  12.8010750 101.6940498  34.1648936
  12.0865226 100.3998089  34.4894719  23.1568718 116.8922520  59.4292784
  23.8026929 117.0768356  58.7473106  22.3303366 117.2147369  59.0700054
  29.2367101 106.2520313  77.0069075  29.5724225 105.5260658  77.5327492
  29.1936135 106.9891357  77.6160526  34.8628545 107.0652199  18.0348150
  34.2746091 106.3184643  18.1468526  34.3982005 107.6481724  17.4344007
  65.8180094 134.4672394  59.8232126  66.5651655 134.9673653  59.4947958
  65.1095676 135.1079369  59.8852491  38.8164759 117.6824570  55.1174450
  38.9923763 116.7522717  54.9758816  38.0003262 117.8464985  54.6449804
  83.9862537 120.5426502  88.6401844  83.2590294 119.9207497  88.6650085
  84.3497658 120.4510689  87.7594376  22.9697824  96.0820007  54.3144894
  23.6526513  95.9983921  54.9800205  22.2265220  95.5959034  54.6715641
  33.5934997 101.2984085  79.0571022  33.6999655 100.3919411  78.7686300
  33.0275559 101.6955185  78.3951092   9.9344492  93.0106544  69.2352724
  10.5219710  92.2778606  69.0507126   9.0678787  92.6105499  69.3074465
  66.1558533  88.4150124  45.3711843  66.0671616  87.4873352  45.5897808
  66.9894314  88.6748791  45.7634258  39.7113323 123.0027390  89.3447495
  40.1460075 123.5402203  90.0068665  40.2556419 123.0987263  88.5632515
  57.1342373  96.3772392  30.5434895  57.4938965  95.5989838  30.1178193
  56.2756300  96.4969921  30.1376748  50.6191921  88.2127762  69.5955372
  50.7024288  89.0950012  69.9574566  50.3133106  88.3495998  68.6989069
  63.0847120 122.8001022  36.9409394  62.8825712 122.2906399  37.7256751
  62.2413826 123.1585312  36.6642523  34.6172309 121.5807056  54.2772579
  34.2996478 122.4830437  54.3111753  35.5605865 121.6638756  54.1379976
  56.2224531  87.9086971  76.7976475  56.2752056  87.9905987  75.8454180
  55.2846384  87.8559875  76.9819260  56.0875463  76.0056353  68.9787531
  56.3667917  75.6366730  68.1408310  56.1651659  76.9524288  68.8613319
  45.8585930  94.0811539  52.7868652  45.5256701  94.8481941  53.2527494
  45.1598501  93.4316063  52.8648663  53.0231142  65.6313133  42.0794916
  53.4723616  66.4223862  42.3771667  53.4625196  65.3998852  41.2612009
  29.9378443 105.5415916  44.7545910  29.2021823 104.9414825  44.8766422
  29.9389362 106.0828495  45.5440664  67.1585608  85.1624489  57.7805185
  66.8067884  84.3542767  58.1538296  68.1034422  85.0992393  57.9199171
  29.0901875 117.0772171  68.2212830  30.0047398 117.0915413  67.9391098
  28.8585520 117.9996014  68.3298540  27.5723028 125.9214497   1.3106672
  27.9457593 125.3437424   1.9762651  27.2758007 126.6893864   1.7991296
  47.0535803  92.8250790  88.7383080  46.8272829  93.7180805  88.4783554
  46.3958788  92.2770405  88.3101463  37.6043010 103.9916134  71.6805792
  37.0819139 104.5897198  72.2150087  38.3975267 103.8415623  72.1948814
  32.4344206  81.9598866  12.5912583  31.8318558  82.6680470  12.8185499
  33.1570911  82.3959637  12.1397948  43.2694149 100.1523781  59.8781395
  42.8675413  99.3206120  60.1289129  44.2102003  99.9760818  59.8868227
  43.8764286  70.3110790  32.4496007  42.9723263  70.6220531  32.4956417
  43.8504887  69.5918655  31.8185019  20.0409102 111.7362785  50.0828075
  20.8829927 111.3629055  50.3430414  19.3976963 111.2744999  50.6206512
  64.0504837  78.2983589  29.1257548  63.8707018  77.4837255  28.6564112
  63.4732580  78.9429760  28.7164712  31.9260263   0.1345997  80.1101208
  32.7479601   0.2312260  80.5910778  31.6888547   1.0274201  79.8594046
   0.6588075 126.0157490  56.7915297  -0.2063756 125.7900906  57.1332455
   0.6071390 125.8147812  55.8570910  42.0931721 136.8013477  98.2888126
  42.3487949 136.6547108  97.3781013  42.5384235 136.1087990  98.7770367
   4.5054460  86.7148972  99.3851948   4.6589571  87.6589966  99.4218159
   3.5606357  86.6209793  99.5066261  32.9636335 113.2813549  56.3543415
  32.8345490 112.4248886  56.7618227  33.5122037 113.7614822  56.9746542
  46.7990589  94.4260788  63.3660507  47.1442223  95.2788925  63.1018639
  47.1396971  94.2934322  64.2506981  31.1504650  97.0980167  96.5978527
  30.3510284  97.0883179  96.0715103  31.2352085  98.0062485  96.8879795
  59.1695118  99.4066906  43.3051491  59.8222017  98.8102436  43.6718702
  59.6610546 100.2014065  43.0976868  61.7766857 104.8305702  50.6088495
  62.2041750 104.7587204  51.4622688  61.0154867 104.2537689  50.6729460
  49.1363621  79.9709415  41.3511467  48.1797838  79.9422979  41.3318682
  49.3576241  80.8290482  40.9892988  58.8142681  98.2724571  92.7014828
  59.3402624  97.5358868  92.3899841  58.4705305  97.9811001  93.5459900
  44.0829229 122.6564503  79.1373682  44.6840143 122.7679348  79.8739100
  44.6136665 122.2450924  78.4552240  54.1983843  97.1365261  48.4623146
  55.0580502  97.5020027  48.6711931  53.8233662  97.7515697  47.8319931
  34.1503930 130.5813217   5.2349893  34.3721533 130.2404213   6.1014978
  34.3566275 131.5147114   5.2848378  54.2292261 118.6855412  58.1492329
  54.9913836 118.8619614  58.7007952  53.7625313 119.5203972  58.1114292
  53.1856632  99.2948055  29.5464063  53.2149839  99.7619057  28.7114263
  54.0754366  99.3659878  29.8920393  55.4043627  94.2683697  47.9320669
  54.5405388  94.0705967  47.5702286  55.9947014  94.2254353  47.1798086
  45.3149462  83.9904499  33.3243680  44.4608736  83.7833214  33.7037015
  45.1137352  84.3297482  32.4522305  21.4194417  82.5319958  74.9365473
  21.0802078  82.3303890  74.0644741  20.9748054  81.9128704  75.5155277
  58.2640743  92.1486092  77.8039646  59.0933895  91.7704964  78.0963612
  57.5962257  91.5532303  78.1441545  76.8146229 136.7069912  61.0625458
  76.7845058 137.3300743  61.7885542  77.6303577 136.2240410  61.1950874
  36.6286922  72.2313309   8.4429228  35.7281637  72.1613836   8.1260836
  36.5409207  72.5098181   9.3544996  21.8171597  92.1597862  72.7158976
  22.3973417  91.5788269  73.2079363  21.2808919  91.5700340  72.1859550
  31.5472674   7.7005558  53.3090210  30.8360863   8.2176953  53.6871958
  31.7365122   7.0343190  53.9697361  14.4516003  85.6446362  63.8800907
  13.7231684  85.4935741  64.4824219  15.0161421  84.8795319  63.9903212
  74.1360998 115.6138420  75.6691694  74.6589708 115.3380394  74.9163246
  73.2321119 115.5872440  75.3555965  18.3632302 137.6210976  51.0046577
  18.2157147 137.3071480  50.1125193  18.4882438 136.8249512  51.5211344
  40.7433271 139.4944668  91.3747120  40.5555868 140.1947594  91.9996643
  40.1275444 138.7981415  91.6031456  40.2415514 103.4235668  52.4017668
  40.5607510 102.5877953  52.7421093  39.8727703 103.8679028  53.1651735
  44.6599960  91.2893295  47.5936699  44.5504856  90.4596806  48.0583429
  43.8932514  91.8058395  47.8417873  20.3975272  98.1418896  94.4289303
  20.3533340  97.6777649  95.2649212  19.5429623  97.9901600  94.0252876
  71.2873745 131.8522930  62.9463911  71.3615561 130.8979797  62.9420137
  71.9732428 132.1485901  62.3480463  44.5030880  93.2952118  90.7282257
  43.7752724  93.6566544  91.2340641  44.0987635  92.9755688  89.9216461
  23.3287072 120.8196068  38.2133389  23.6164165 120.3517914  38.9973044
  22.4425864 121.1150837  38.4224200  63.5025549 134.3668938  53.9133692
  63.1509876 134.6600914  53.0727339  64.2426538 133.8061047  53.6809826
  33.0195403  97.4409962  42.1755791  32.4739838  98.2220936  42.2677183
  33.1675792  97.1449375  43.0737209  22.7583790 115.7332516  69.9536991
  23.1828833 116.5806293  70.0877905  23.1327033 115.4045200  69.1363621
  31.4907551  97.3054981  56.2978220  32.1749020  97.9057503  56.0014057
  30.7713079  97.8765392  56.5671396  11.6684949  61.6809320  42.6298380
  12.1440065  60.8929110  42.3668766  12.2872412  62.3955345  42.4790955
  41.6790533 113.9426231  80.6625748  41.7351580 114.3346405  81.5340137
  42.4984312 114.1913986  80.2348232  38.9236975 117.5291634  72.4066830
  39.2972803 118.1491280  71.7803288  38.9334059 117.9970932  73.2416534
  43.2235336 118.1427383  62.1372700  43.8753366 117.8374958  62.7683115
  43.1789303 117.4456310  61.4828396  35.1041365  89.4733047  51.1742544
  34.4803190  89.6185970  51.8855715  35.8540154  89.0531349  51.5954113
  13.4111392 108.4681797  39.1517258  13.3007598 109.2773628  39.6510053
  12.5191104 108.1965828  38.9355063  45.3926945  98.9805889  43.4814739
  45.1530743  99.8670292  43.7517500  45.6383657  98.5402966  44.2951155
  55.5656099  95.3690243  66.6849279  54.6574545  95.2449417  66.9607639
  55.5265522  96.0796738  66.0448647  50.6994343  84.0779305  54.7356749
  50.1497126  83.3874607  54.3651485  50.5011082  84.8512554  54.2075920
  51.6211891  96.6043663  29.4566369  52.1073866  97.4006844  29.6704674
  51.9828558  95.9385777  30.0415707  34.8856664  73.9933062  72.9202127
  34.5755243  73.1507301  72.5883865  35.2108479  73.7994719  73.7993717
  76.4740944  99.2334747  30.5880785  76.8810701  99.0749550  29.7363305
  75.5349207  99.1471577  30.4245591  46.0351133  72.8617191  54.8938179
  46.4284658  72.0152760  54.6815872  46.6499281  73.5061836  54.5432425
  40.7861137  97.7217484  70.2276182  40.5267000  97.5094223  69.3310356
  41.7157936  97.4973774  70.2674675  69.7913074 100.9960938  74.7147751
  69.5019770 100.6391907  75.5544996  68.9851189 101.1054802  74.2104721
  26.9065309 103.1967449  78.1446218  26.8791509 102.2404671  78.1764317
  26.4322257 103.4761143  78.9277077  73.9572906  84.8299122  93.2485580
  74.0693760  85.1056385  92.3388100  74.8404121  84.8549175  93.6169434
  66.1239958 100.5326176  64.0074396  66.5304804  99.6683216  63.9442158
  66.8186569 101.1427116  63.7595272  68.4320116  97.3478317  58.5519457
  68.2150602  97.8116417  59.3606710  69.0853119  96.6997337  58.8154030
  67.2552443  88.6457920  78.0547619  68.1952858  88.5064220  78.1693363
  67.1732903  89.0151787  77.1755171  46.8500090 118.9457130  78.7008142
  46.4404297 118.6407375  77.8912067  46.1209249 119.2649078  79.2325926
  43.9052534  69.3153524  74.6229267  43.8668823  68.4328175  74.2543030
  42.9978037  69.5205784  74.8479891  38.4233379 140.8069420 100.9000015
  38.9378524 141.1708736 101.6204643  38.2554889 141.5532780 100.3246498
  21.0575366  78.7036371  12.7457118  20.5985475  78.0020189  13.2075489
  20.3957367  79.3848372  12.6264513  70.9896755  97.3267937  71.7325401
  71.5942049  97.8134823  72.2928190  70.8490801  97.8988838  70.9781027
   1.5110669 115.3601360  75.8030558   1.2721464 116.1645126  75.3424740
   0.6851418 114.8865986  75.9022570  74.4555759 107.0156097  53.3507156
  74.5756912 106.8337536  54.2827749  73.5285330 107.2391129  53.2678175
  40.4052258 127.1657372  83.9654827  40.9575844 126.8229675  83.2628918
  40.2356386 126.4095974  84.5273685  21.5082812  97.1929359  68.1217813
  21.8295574  96.3838291  67.7238417  22.2023892  97.4542999  68.7268734
  64.0652561  78.2094097  54.5139217  63.2447433  78.1704855  55.0053215
  64.1695070  79.1353416  54.2947960  61.0655355  79.9119902  77.0828056
  61.4559984  80.2531719  77.8873968  60.1223278  79.9410677  77.2432709
  33.1972647 107.1498299  67.3270702  32.5808597 107.8780556  67.4043179
  34.0263462 107.5624657  67.0850229  56.5217543 115.5628204  69.8100567
  56.6165066 116.2883186  69.1928864  57.4182367 115.3511715  70.0703621
  34.4530654 118.7519550  33.8138771  33.6179924 119.1479397  34.0630341
  34.8415017 119.3771744  33.2019520  32.0535898  82.1700668  50.6447792
  32.9233146  81.7800713  50.5569601  32.2014666  83.1103897  50.5439711
  69.5131922 107.3480701  36.6290593  69.2576170 108.2414341  36.3992333
  69.8713446 107.4214840  37.5136900  51.5623903  95.9989262  23.3878851
  51.1217165  95.2361870  23.7624192  50.9552908  96.3237381  22.7229381
  44.6799421  53.8916445  43.7365007  44.3088722  54.0114784  42.8623295
  45.4566526  53.3504486  43.5948801  93.1135482 116.9331837  38.7842083
  93.5549588 117.0892239  39.6190977  92.2909207 116.5066910  39.0242481
  34.3215036 130.7128716  59.9104977  35.0108838 130.4168987  60.5049610
  34.6325350 131.5574551  59.5846462  66.0270739 121.3656521  58.7622023
  65.3574848 122.0489311  58.7303352  65.7104874 120.7507420  59.4239378
  45.9474707 113.6519623  59.6398735  45.8721542 113.1962490  60.4782534
  45.8485365 112.9628468  58.9829445  36.5814972   8.8599949  45.0225544
  37.2005868   8.1301003  45.0372887  35.7369590   8.4620266  45.2337599
  41.4130211 118.2052040  24.6926236  40.7687664 117.5984478  25.0573301
  42.1094799 118.2377529  25.3484583  58.0950785 119.7009182  69.1250896
  57.7009821 120.5356693  68.8718796  58.0321360 119.6862411  70.0801039
  47.6966667 119.3495655   2.4429647  47.2855186 118.8087940   3.1173173
  47.4017715 120.2393532   2.6367227  36.6393232  79.6421671  54.0264225
  35.9842229  80.3038502  53.8045120  37.1379066  80.0304222  54.7453833
  51.2219000 105.6720734   8.9150333  51.1486483 104.7339249   8.7397015
  51.9413757 105.9648132   8.3556628 113.9303393  14.6208744  63.3153677
 114.8209990  14.7605305  62.9937172 113.3689088  14.9912815  62.6343107
  49.4483376  98.3468246  39.4305158  49.6052361  97.4794102  39.0574098
  49.0262794  98.8379860  38.7256336  31.4305019 122.8868103  42.0240355
  31.1401105 121.9995594  42.2354507  30.9394670 123.4487534  42.6234818
  17.7422690 129.2704678  64.4822216  18.0598807 128.6540413  63.8223934
  17.2644341 128.7262440  65.1080990  32.9948711 115.2194500  35.0323009
  32.1878815 115.2413368  34.5179892  33.0138016 114.3405247  35.4109454
  31.2048483 122.5323391  77.0394611  31.9213724 122.6679516  76.4194345
  31.4975643 121.8048477  77.5883722  28.8499260   8.9531308  28.5938215
  28.1285453   8.5062008  29.0366602  28.4455132   9.7234898  28.1947970
  41.8051338 131.3825607  62.9505205  41.0815716 131.3994122  62.3240995
  41.6175842 132.1027470  63.5525084  53.8607931 111.8681240  46.2717485
  54.1805696 112.2184944  47.1031427  53.1508875 112.4588299  46.0201025
  44.8252726  64.8058891 108.9962978  44.5324945  65.6493568 108.6512327
  44.1685057  64.5748425 109.6531868  28.9209723  97.8038979  26.6952777
  29.8780012  97.7895451  26.7061830  28.6989522  98.5339165  26.1173391
  67.3709297 130.8132076  31.0415554  67.2008181 129.8865032  30.8726931
  67.3432350 131.2232113  30.1770544  27.2143269  82.5579453  44.1810274
  27.8098488  82.2876167  44.8799610  27.6220655  83.3394337  43.8078594
  65.1741362  92.5494289  12.6366627  65.6686926  93.3024025  12.3131168
  65.2018261  92.6362038  13.5895193  57.0186520 116.0149097  31.4959931
  56.9266939 116.9545746  31.3384628  57.6449347 115.9531307  32.2172332
  39.7164583  99.3157959  72.0593596  40.0745487  98.5662270  71.5838194
  39.7490168 100.0363922  71.4301395  40.1788950  99.8156452  36.4502811
  39.6840286  99.3055153  35.8091068  40.1244211 100.7170010  36.1327505
  70.4512978 100.7680321  19.4650483  70.4685783  99.8173428  19.5751536
  70.9925747 101.1018753  20.1804495  47.4576902  93.5647106  46.6026592
  47.1551752  93.8275337  45.7333851  47.1992159  94.2872620  47.1748066
  26.5901232 122.8288364  42.6815748  26.9597268 122.6784992  41.8115044
  25.8730078 122.1984482  42.7493668  40.0384426 102.3210621  35.5189514
  40.3172588 102.9773521  36.1575222  40.6556225 102.4154854  34.7934127
  39.1640043  94.8481369  82.6823330  40.0892162  94.7286415  82.4680138
  39.1470718  95.6194782  83.2488918  33.1902790 129.1233826  57.9892874
  33.5788035 129.6138668  58.7136555  32.7196383 128.4048748  58.4117460
  21.7378879  95.3242683  63.9959764  21.8526745  95.3107929  64.9461699
  20.7916784  95.3953552  63.8700104  40.2340889 107.2868824  40.3041410
  40.8639765 106.6923332  40.7115602  39.8156285 106.7617035  39.6219993
  33.5061646 126.4232159  41.4791298  34.3723106 126.8239117  41.5530968
  32.9922557 126.8335438  42.1746588  47.4126577 100.4546642  50.5063581
  47.4496126  99.8877525  51.2767315  46.5386248 100.8437157  50.5369902
  48.7528563  71.3285780  56.9015360  48.3053923  70.4892778  56.7939329
  49.6404505  71.1697054  56.5803385  83.9696503  75.1789618  25.4224491
  83.2945347  75.8545732  25.4857039  83.6836243  74.4969130  26.0300922
  41.8547010 126.1864090  62.5301218  42.6302338 125.7411194  62.1888113
  42.1243668 127.1001911  62.6223946  66.9774866  95.0843430  31.8279266
  66.7531633  94.7367954  32.6911306  67.1303320  96.0173225  31.9776940
  18.8257957 117.6676655  33.6913204  19.1787326 116.7833328  33.7893939
  19.2679429 118.1785679  34.3693471  51.2747383 139.4050980  32.2598886
  50.6316185 140.1119232  32.2049117  51.1585951 139.0434074  33.1384802
  27.0206594 118.1876373  58.8216448  27.7538610 118.7288380  58.5288143
  26.7255640 117.7359962  58.0309677  22.0493340 111.2155628  10.9556007
  22.1742010 111.1987305  10.0067294  21.3713121 110.5601025  11.1196148
  79.8450661 136.2717056  51.8399286  79.1482544 135.9583569  51.2633038
  80.2194977 137.0215416  51.3775682   5.2604377  90.1965141 101.5425777
   4.5738852  89.8051357 102.0826721   5.1217848  89.8239231 100.6718445
  11.1355102 114.0692902  56.0496187  10.3528559 114.2071438  56.5831757
  10.8102036 113.6573029  55.2491999  23.7147641 101.1255646  60.1517248
  23.9611721 102.0197678  60.3882122  23.8163042 100.6268024  60.9623766
  31.0155988 123.9716148  37.0448422  31.3338947 123.3981323  37.7420068
  31.5627480 124.7543049  37.1100259  15.1360452 114.1482639  68.5356998
  15.4443228 114.4877148  67.6954794  15.8527350 114.3281174  69.1441727
  28.7266207  97.6996136  37.3941612  28.9555860  96.7704773  37.3715591
  29.3895411  98.1229877  36.8487048  72.8522635  84.1078949  20.0904369
  72.2349453  83.3763790  20.0965548  73.2526159  84.0907192  20.9597230
  66.0997391  92.6650047  47.2793579  67.0181417  92.4237728  47.4000692
  65.7800674  92.0623779  46.6078901  45.0095463 102.8424549  83.7484837
  45.4092932 103.7074280  83.6576080  44.8276854 102.7598000  84.6846008
  68.3277750 118.7538242  47.1530390  68.1798410 119.6889114  47.2943497
  67.4493980 118.3813477  47.0759058  48.0811262  73.4601402   3.6586958
  47.6131916  72.6253796   3.6376429  47.7815104  73.9224815   2.8759444
  69.9058008  87.1202850  70.5046320  69.2542934  86.8397808  71.1473513
  70.7283783  86.7437840  70.8174324  76.3300228 115.6819916  31.7295599
  76.9848633 115.6125450  31.0348701  75.8051586 116.4453030  31.4885139
  48.4806395 104.9087906  75.7855606  48.5943794 105.8510113  75.6610107
  48.9312744 104.7198772  76.6086435  61.0592794 139.2436218  49.9428749
  60.1719952 139.4200802  50.2556372  61.2914371 140.0185871  49.4312382
  56.8129253 109.6489811  19.7288799  56.9798231 108.9094353  20.3132176
  56.0692358 110.1036549  20.1243854  46.1635351  93.1229496  56.3259506
  45.9190512  92.6915550  57.1447039  45.5076361  93.8108158  56.2125206
  14.4272864  64.5760202  46.4022541  14.9525893  63.7795544  46.3252592
  14.0973389  64.5594072  47.3006392  82.2239780 130.6682682  37.3580027
  81.4998341 130.0594997  37.2122335  82.7048683 130.2958584  38.0971169
  13.6759794  98.3892059  64.6416235  14.2044473  99.1370678  64.9202967
  13.8549674  97.7127838  65.2947998  54.6575832 109.1326809  26.0401368
  55.5767870 109.2462254  26.2818098  54.3655729 110.0093269  25.7902551
  33.9579868 107.4066830  74.2372417  33.6748385 107.6666927  75.1138544
  33.1611061 107.0891953  73.8124895  15.1153362  74.4280100  18.3451486
  14.8287356  74.7975445  19.1803336  15.8273017  75.0013733  18.0612695
  95.6367397 105.0696468  30.8448505  96.0502911 104.8809052  31.6872191
  95.1362133 104.2795086  30.6413841  44.2441320 100.0875092  57.0224094
  44.1198540  99.7171879  57.8962755  45.1292610 100.4514599  57.0401716
  28.5913825 117.1205521  42.0301008  28.3266425 116.5490341  41.3093328
  27.8396320 117.1226501  42.6226330  56.4754105 110.0229073  57.0389318
  55.5713320 110.0384521  56.7248726  56.9495726 109.5171452  56.3789272
  54.9176025  65.7092428  12.5353003  54.9369335  66.6503763  12.7088535
  54.3181896  65.6144619  11.7950594  34.1888785  94.9683285  84.4456196
  34.3508077  95.9111500  84.4788551  34.4194245  94.6547413  85.3201199
  47.3650122 101.6949558  53.4007740  47.3082924 102.6371861  53.5595608
  47.9463625 101.6140556  52.6446533   6.9603664  80.2439880  56.5934753
   7.4056602  81.0578632  56.3577747   7.5472862  79.8230982  57.2216558
  39.3111157 111.5037251  25.0394988  38.5051394 111.5825653  24.5291853
  39.3163347 110.5949783  25.3401160  71.5265322 110.7776260  31.7094064
  71.9742918 110.1970005  32.3247266  70.8242750 110.2411556  31.3416195
  64.5456886 105.2670479  18.2064867  65.1882648 105.8396053  18.6254334
  63.6995316 105.6611156  18.4185314  49.1296768  89.7997570  28.4733605
  48.8914919  90.3590775  27.7339983  48.6626816  88.9796448  28.3134699
  51.9254065 103.7639713  66.8259001  51.8572950 104.7176266  66.7797327
  51.1714888 103.4951401  67.3508501  24.7950912 100.7649517  39.7602248
  25.4511595 100.0679588  39.7623539  24.2752147 100.6069374  40.5482578
  57.3915005 120.4623508  25.1387239  57.6363945 119.6230888  24.7489691
  56.4364862 120.4306602  25.1951027  59.3986464  81.3645935  44.6206760
  58.4607649  81.3561440  44.8118305  59.8163033  81.4716721  45.4752684
  79.6168852 104.9079418  38.3908415  78.7452602 105.0529099  38.0227637
  79.9078035 105.7770252  38.6670709  47.6267242  99.7460747  30.7649302
  47.0698643  99.0781975  30.3648281  48.5148239  99.5086288  30.4982328
  51.9010019  80.2539635  14.7667980  52.0118046  80.5227947  13.8548303
  52.6388741  79.6679115  14.9350834  46.5906906 107.1615219  17.1845603
  46.4287996 108.0600262  16.8969762  45.8637285 106.6580868  16.8180764
  68.8262987  80.7774258 104.4586059  69.2981195  81.2861538 105.1180121
  67.9269266  80.7391071 104.7840174  73.2680416  73.7368965  11.7503238
  72.4706602  73.7197495  11.2210584  73.5171986  72.8168583  11.8379247
  31.3867807  89.6091366  34.2754769  31.0382557  89.7133160  33.3900905
  31.8171716  90.4432678  34.4631457  35.9175873  93.0830193  58.6720181
  36.4106631  93.4591675  59.4011402  35.0045848  93.1169224  58.9575148
  28.9576387  79.3020248  41.6023874  29.4924712  78.6401558  42.0406961
  28.5029626  79.7523880  42.3141956  30.7024264 125.9978199  17.9493904
  29.8451829 126.4012527  18.0857956  31.0544157 126.4388943  17.1762216
  59.8690271 104.8740482  31.6957593  59.7149658 104.8628426  32.6404142
  59.7856522 103.9586735  31.4286089  28.7250066  90.6847763  53.1537390
  27.8955746  90.6558800  52.6768351  28.4836817  90.5155945  54.0644360
  14.2852330  94.8473167  21.8321967  14.6717000  95.1502800  22.6538348
  13.3406937  94.8950768  21.9798326  77.3104715 126.8929291  50.1762295
  78.1058598 126.8716812  50.7083416  77.4718571 127.5819302  49.5316601
  38.0589390 103.6605740  50.7293940  38.3120608 102.8966904  50.2110958
  38.7582612 103.7534618  51.3763523  68.2032299 109.5136070  57.7446318
  68.8063478 108.8238621  58.0216503  68.0445194 110.0256920  58.5376072
  33.7007666 102.1981812  52.6958752  33.1008077 101.5224171  52.3802376
  33.6134195 102.1699524  53.6486673  43.9213371 134.3346214  50.6116962
  44.1043377 133.3951187  50.6032276  43.8517380 134.5734119  49.6873760
  57.8526974  88.6246014  24.3496609  57.2386074  88.3534145  25.0319982
  57.3623991  88.5265446  23.5334373  15.8343732 110.4249001  41.0722637
  16.7895734 110.4808235  41.0458279  15.5403209 111.0232735  40.3854513
  35.1575255  96.5194130 107.4633762  34.8925781  96.3393593 108.3653823
  36.1093616  96.6107178 107.5070187  45.6200361 111.2291622  52.6557064
  45.6854868 110.5929375  51.9435501  44.9698782 111.8626118  52.3519611
  48.2759333 131.7124081  50.3056860  47.4762917 131.2664032  50.0265980
  48.9831114 131.2172318  49.8922539  51.9466305 133.5948563  46.2742376
  52.0819378 133.5938835  47.2218227  51.0687065 133.9581490  46.1580324
  93.4525967 135.1077843  42.3564243  93.7103558 134.4182873  42.9682970
  92.5222969 134.9498463  42.1956730   3.5327712 105.1416969  83.8010788
   2.5842890 105.2147961  83.9072418   3.8946712 105.6889439  84.4980621
  19.3444574  73.0636930  52.2499895  18.9080286  72.2609949  51.9646168
  18.9527869  73.2596684  53.1011152  18.2724357 100.5432320  36.9079471
  19.2174709 100.6080055  37.0455813  17.9675364  99.9655342  37.6076102
  42.4571609 132.9435635  24.3780541  41.5977192 132.6148033  24.1144156
  43.0750847 132.2931480  24.0443563  28.3807254 132.6034451  48.8190365
  29.1797972 132.1623039  49.1073275  28.6849761 133.2760906  48.2097578
  36.7112756 123.2712650  41.5452528  36.8264246 122.8031445  40.7183123
  35.7631731 123.3656502  41.6370487  37.2030187 116.5292835 108.8998062
  38.1325364 116.7531967 108.9455689  37.1885490 115.5728817 108.8634426
  69.8675394 102.9821014  25.0756121  70.0861740 103.2644844  25.9636927
  70.7144260 102.8809643  24.6411204  19.0238428  95.9728718  53.4191751
  19.4930768  96.6210842  52.8939438  19.0641379  95.1695538  52.9002428
  53.6634064  72.5705147  51.3162374  53.1958342  73.3892918  51.4811993
  54.4898129  72.6670980  51.7894840  54.5968437 134.4725895  52.2340918
  54.0172911 135.0779915  51.7716694  54.3229294 133.6048317  51.9371080
  68.2239056 101.3341236  39.0482306  67.2851896 101.3401413  38.8611364
  68.3490324 100.5778408  39.6214771  28.4918523  78.9398336  46.9552898
  28.0717039  79.7939205  46.8540573  28.9680743  78.8084936  46.1354160
  74.2030764 106.6145229  40.0588894  73.7943602 107.1866226  40.7084227
  74.4398689 107.1998024  39.3394327  77.9360104  96.9626427  63.1808043
  77.7603054  96.0456753  62.9697752  77.9592896  96.9880581  64.1373825
  11.3931131 123.0363655  26.3991189  11.3318670 122.6180458  27.2578931
  10.5430675 122.8713703  25.9911609  70.9159851 115.9306622  25.8126712
  71.3808823 116.1607933  25.0082159  71.5759230 115.4996109  26.3557267
  53.8718557 101.9269180  34.8874617  54.3232346 101.6576672  35.6874585
  52.9506683 101.7264462  35.0531697  54.5028687 127.1722984  72.7108002
  54.0136242 126.5467548  72.1764135  55.4214430 126.9877720  72.5148392
  32.5990891 106.4527035  56.1201286  33.1390786 106.7312241  55.3804874
  32.3376775 107.2688198  56.5465689  67.8282833 105.1488686  39.2133737
  67.9019737 105.2068043  38.2607746  68.4736919 105.7746983  39.5420313
  32.2159457 138.5077190  50.4411077  32.3143506 139.2760849  51.0033941
  31.9533086 137.8065681  51.0374594  57.4274302 113.7811947  27.5481439
  58.0277777 114.0746021  28.2335114  56.7215538 113.3400917  28.0207872
  35.4387784  98.1789303  40.9893179  35.9378147  97.4557972  40.6094790
  34.5988989  97.7890015  41.2317848 112.0547134  73.3219147  23.3036804
 112.7372736  72.6749706  23.4820318 112.2552437  73.6457682  22.4255371
  61.1973476  88.5321999  66.4233112  61.9226313  87.9086971  66.4612293
  61.1132860  88.7455940  65.4939938  75.1414156 111.8178082  83.7057877
  75.9872055 111.8978024  84.1467762  74.4980145 111.8522644  84.4136620
  56.3210678 102.0551205  56.8503141  56.2507296 102.9667759  57.1334648
  55.6720781 101.5896893  57.3779678  67.8055000  86.7336559  51.6752100
  68.3720541  86.3652325  52.3530817  67.0129919  86.9974422  52.1427393
  52.1293783 116.0531139  47.4509621  51.6418266 116.2537575  46.6520452
  52.8246069 116.7104721  47.4787426  62.4313354 109.3881512  43.0779457
  62.6310062 109.7258091  42.2048140  63.2838535 109.3141556  43.5068560
  53.1850958  96.5420628  51.8060780  53.3965254  97.4560833  51.6161060
  53.8676167  96.0406494  51.3600016  25.8537054 144.3886280  46.0790539
  26.1298966 145.2989006  46.1856127  25.2920651 144.2186451  46.8352938
  73.8607931 136.4361954  37.3198462  74.5215559 135.8903217  37.7460527
  74.2145109 136.6020679  36.4460039  39.7096682 116.2441349  21.4855170
  39.5886445 115.3194809  21.2696385  38.9333892 116.6767120  21.1298561
  54.8808384  95.5446720  73.6415672  54.4247150  94.8047256  73.2407379
  54.1835785  96.0764122  74.0253735  50.1415777 102.3413849  59.5788431
  50.5563164 102.3768616  60.4407978  49.8964643 103.2479191  59.3934965
  67.1208954 114.9152946  19.9958694  67.0992947 114.2080212  20.6404901
  67.3329210 115.6973743  20.5054069  61.5976524  87.5320816  46.1827517
  60.9963083  87.4705601  46.9249296  62.2453022  86.8454075  46.3416767
  39.2209697 122.5478268  42.0131016  38.3346987 122.6617336  41.6699076
  39.7680807 122.4456501  41.2343454  52.2147560  63.3152533  43.5052156
  52.6298380  62.6952648  42.9055929  52.3475122  64.1701174  43.0955601
  61.3140583  93.1963634  49.8057032  60.7030439  93.1608295  49.0697479
  61.2603235  94.0995121  50.1182270  55.7510853 123.2204247  74.6977854
  56.0544109 124.1198349  74.8214436  56.4412069 122.8037357  74.1817093
  30.9313679 104.0377140  32.7271080  30.6282449 103.4095097  33.3826256
  30.2552247 104.0221119  32.0497465  31.2407875 103.0489159  19.7042561
  31.6620016 102.2800350  19.3200099  30.7393456 102.7033234  20.4427385
  64.7908783 107.9538345  57.2633839  64.7746897 108.9102173  57.2274303
  64.6156549 107.7456570  58.1810951  95.2024937  87.7047634  33.6408424
  95.5039597  87.4588394  32.7662706  95.2303314  88.6615562  33.6435366
  49.2999601  73.7274408  58.2029152  50.0285959  74.1830635  57.7813387
  48.9716434  73.1286669  57.5321627  62.3411751  81.4388371  24.5571208
  63.2088661  81.6212082  24.1964507  62.3127365  80.4858685  24.6424699
  24.5499229  86.1938572  55.1142693  24.9890423  85.3550339  54.9736261
  25.2136016  86.8501663  54.9021101  43.3022118 144.6839523  84.3159485
  43.8566875 143.9475727  84.5738792  42.8533411 144.9395752  85.1218033
  21.6371226  99.3863392  54.8708153  21.7923713  98.5462475  54.4391012
  21.5633798 100.0147247  54.1525364  66.3151789 105.3463364  34.3113279
  65.5202961 105.6684399  34.7363448  66.0831785 104.4708920  34.0014815
  21.7854404 123.3968735  36.5900540  22.7105260 123.1565857  36.5379930
  21.4114809 122.7758598  37.2151279  54.8230791 123.1954193  25.0895548
  55.3766680 123.0254555  24.3273973  54.3471384 123.9953232  24.8662853
  33.9976406  84.4825554  54.8116255  33.3841681  83.8190842  55.1273537
  33.4398055  85.1897526  54.4877005 117.8882719 116.1301994  44.6365070
 118.2653350 116.8705654  44.1612005 117.6607258 116.4874935  45.4948759
  42.6025248 106.0338211  68.2388115  42.8409672 106.8761063  68.6260319
  42.8597307 106.1112022  67.3200655  50.1176643  92.1815205  56.0804653
  50.5851316  92.2805405  56.9098663  50.6222105  91.5267372  55.5978441
  55.9427452 108.6216736  71.8508720  55.1806021 108.9108562  71.3491297
  56.5648365 108.3199120  71.1889267  15.5695260  69.4218588   1.2089727
  16.0064793  69.8512363   1.9444588  14.6742654  69.7598171   1.2318344
  10.0716174 101.2134933  28.2481456   9.7612345 100.4156113  27.8200483
   9.3026966 101.7826653  28.2803488  64.2454147 126.4336109  34.7085214
  64.2647505 127.3360634  35.0270200  65.0319242 126.3531590  34.1689205
  34.4932342   2.6712876  42.8676891  33.8239241   3.3509713  42.7884150
  34.6192455   2.3537808  41.9735193  40.9823418 103.4903908  26.1826229
  41.6583204 103.3967113  26.8538237  40.9054947 104.4352818  26.0503340
  50.6352234  92.4973392  42.8760338  50.5190992  92.9258728  42.0280313
  49.7444248  92.3311424  43.1843901  61.3616943  94.0732574  30.0134349
  61.8675137  93.3286953  29.6878552  61.9916153  94.7930431  30.0501680
  50.5162191 123.9913368  62.3886919  50.0333929 124.7001648  62.8137493
  49.8519993 123.3282757  62.2005558  16.8067014  92.9818058  43.9887571
  16.6602385  92.3339939  44.6780443  15.9977221  93.4928894  43.9645815
  18.4164965  77.1860266  48.3112860  18.4803367  76.3000679  48.6679935
  18.2106209  77.7346849  49.0681362  30.9045267 108.9932728  56.9750023
  30.1674128 108.7744141  57.5450850  30.5073881 109.4552803  56.2367201
  20.5445147 121.8640041  38.3921885  20.4631472 122.4969292  39.1056466
  19.6656632 121.4970970  38.2961106  45.4336357 111.5440845  57.8288698
  46.2738323 111.0923004  57.7501059  45.2586603 111.8794250  56.9495773
  36.3491654  69.7800064  21.5354133  36.2343860  69.0743446  20.8989406
  36.0463881  70.5653286  21.0795283  40.9275341  74.2830372  26.8944001
  40.6860542  74.8776531  27.6045728  41.1944628  74.8602819  26.1790204
  30.4232740 109.2787457  77.8172445  30.8993292 110.0955582  77.9669523
  29.5075393 109.5461559  77.7388000  41.8833208  76.0702610  36.9334054
  41.3161373  75.4038000  36.5456295  42.7643156  75.7014084  36.8699670
  44.1320896  89.7729397  36.6935039  44.5135736  89.9787521  35.8400726
  43.2777643  90.2045345  36.6843414  46.3961077  80.4248905  22.0538139
  46.9363260  80.5038357  22.8400469  47.0152664  80.1998043  21.3593984
  32.8490210  79.5973015  34.9720883  33.5147524  79.0991735  35.4463267
  33.3225632  80.3467560  34.6111083  69.8399687  81.2689781  41.3301516
  69.2599821  80.6642723  41.7929411  70.0850582  80.8017921  40.5314636
  99.3234158  25.1393681  31.3116503  98.8027859  25.6967144  31.8900466
  98.9860439  24.2563801  31.4624429  50.4853392 106.9601250  15.5973041
  49.8766994 106.3641167  15.1607680  51.2665653 106.9520664  15.0442648
  22.9923511 104.5612335  40.5838680  23.3754897 104.1596889  39.8039937
  22.7400422 105.4402733  40.3012800  91.3496494 125.5255318  25.6993413
  92.1306133 125.3250122  26.2152147  91.6387272 125.4543209  24.7896194
  49.5473576  62.6327801  24.3539143  49.2171144  63.3126783  23.7666297
  50.4324818  62.9196262  24.5786428  66.6663742 105.4304695  52.7354431
  66.2985420 106.0715866  53.3436441  66.6461802 104.6038437  53.2176399
  73.2147598 120.1667213  47.8235722  72.8615618 121.0442066  47.6769876
  72.7811050 119.8641872  48.6214781  38.5351324 101.0010624  49.6217489
  39.4097948 100.8502769  49.2633343  38.4577465 100.3705692  50.3378010
  51.9494581 103.2543182  75.9228230  51.2275267 103.4983158  76.5020561
  52.7152634 103.2197666  76.4960432  36.3094211  90.5890179  17.0785236
  36.8278646  89.9610806  17.5816524  36.9111347  90.9144688  16.4090025
  51.5087080  73.9616537  21.2456751  52.0600986  74.1367817  22.0082569
  50.6151915  74.1025448  21.5587449  28.9025760 119.5034027  35.6216908
  29.5362997 119.1094875  35.0221372  29.4248652 119.7791767  36.3749456
  42.1324778 119.8489571  40.7993460  42.6943350 119.8436928  40.0244141
  42.1255302 120.7628441  41.0839462  29.2138124 123.1383801  71.7284822
  29.8978949 122.9387951  72.3675680  28.3994961 123.1029892  72.2303486
  22.7176666 133.9902973  52.6797390  22.5975251 134.8982906  52.9578495
  21.8792701 133.5689354  52.8688955  44.0612459 108.4126854  45.0227928
  43.6497641 108.6048889  44.1801977  43.8027906 109.1412258  45.5872917
  53.0727911 103.3420753  28.8847518  52.5182247 104.1162586  28.9812779
  53.2740498 103.0781651  29.7825718  55.5108690 136.8094444  46.7701387
  54.6705532 136.4934826  46.4380598  56.0302782 136.0161400  46.9009542
  25.7069206 105.1488209  14.0453136  24.8080873 105.3131676  14.3304849
  26.2293839 105.2260303  14.8436260  67.1590233  23.7256413  34.7049618
  66.8967628  24.4222241  35.3068089  67.7589750  23.1815892  35.2151585
  31.7366314  99.5521259  40.8691502  31.9963622  99.6263695  39.9508595
  32.4873114  99.8888683  41.3583565  62.1920586  85.4274940   7.5792676
  62.0938158  86.3619900   7.3967874  62.2627306  85.3757286   8.5324502
  21.7124224 110.8050251  39.6493602  21.3576889 109.9203777  39.7376299
  20.9479666 111.3772964  39.7152877  26.5179610 107.6969624  29.0869188
  26.6199827 107.0915413  29.8212814  25.6851673 108.1382084  29.2542005
  32.1973443  88.8799572  39.6693420  32.4055767  88.1593132  39.0747452
  31.4472651  89.3154526  39.2644191   2.5283545  69.6623993  13.6825418
   2.5799939  68.7357616  13.9168596   1.5972739  69.8745394  13.7482500
  34.2403054 106.0462952  71.0520077  33.3527446 105.6881809  71.0371256
  34.5095158 106.0574341  70.1335144  67.2120094  24.4242459  65.1212358
  67.1703005  24.2014485  66.0512161  66.5059566  25.0580769  64.9948835
  50.2610970  90.2838039  11.2533259  50.2538824  90.9385014  10.5550849
  50.5924559  89.4898224  10.8337688  14.0820348 132.5358486  60.7868385
  14.0658796 133.0141449  59.9578619  14.6320975 131.7722225  60.6120825
  24.4209218 116.9825268  57.0457506  23.9460182 117.0660782  56.2188768
  25.3405643 116.9177341  56.7882776  36.8210459  92.9276466  18.7187231
  37.0945120  92.0969677  18.3295906  35.8949637  92.8018665  18.9255655
  42.8845310 129.0060616  50.9638977  42.4917984 128.4125042  51.6039562
  42.2338915 129.0687656  50.2646351  84.5247936 114.9064350  22.1363163
  84.6889114 115.6229687  22.7494025  85.2408123 114.9637985  21.5036583
  59.3135262  91.1526394  24.9717283  59.8213291  90.9922504  25.7671165
  58.9818573  90.2903461  24.7213578  53.0431509  77.4993229   8.2633781
  52.5046349  77.3039961   7.4965119  53.9381504  77.5319433   7.9255348
  74.9555731 116.3816071   9.0409100  74.2517662 115.8484173   9.4104975
  74.8367977 117.2441006   9.4386983  45.4458046  85.7536316  12.9857695
  44.7221851  86.1332035  13.4842968  45.0350809  85.4068089  12.1937799
  78.2077980  81.8956089  15.4555333  78.2378197  81.3672352  14.6579385
  77.3635435  81.6819000  15.8527648  20.4883075  61.3185787  18.8520503
  21.1602020  61.1485338  18.1918442  19.6743727  61.0168743  18.4486699
  46.1573648 122.1487904  80.8076954  46.4245892 122.1547413  81.7268181
  46.9799948 122.1737194  80.3189278  42.8670025  95.4680252  29.7539353
  42.0984364  95.1116467  29.3083644  43.2138395  94.7323513  30.2586269
   7.6442653 121.2743664  70.4251909   7.0981967 121.9448853  70.8356094
   7.8325278 120.6544685  71.1298323  66.4725304 123.8752079  22.2512364
  66.0235500 124.7106552  22.1220922  66.7549801 123.6169529  21.3738775
  35.0454473  81.6726875  10.9765184  35.6923056  81.3988209  10.3262818
  34.7628522  80.8576012  11.3912606  28.2956409  92.5746536  33.4450412
  29.1838241  92.7606773  33.7496114  27.8697729  93.4312248  33.4110689
  14.2219722 112.4320316  56.4785147  13.7671220 112.2612286  57.3032379
  13.5960889 112.9377174  55.9600735  54.2732286  65.9723520  52.0323515
  54.0775633  66.7747450  51.5485001  54.5996571  65.3655624  51.3679075
  48.7737465  27.5878406  21.0136867  49.0992689  28.1647611  21.7046523
  49.3971443  27.6985073  20.2958012  33.2867646  89.9380779  53.7317562
  32.4139881  89.7650814  53.3788204  33.1345320  90.5324745  54.4664431
  88.1572628 105.0699234   5.3388840  88.8012981 105.4339314   4.7314763
  87.3333836 105.0850391   4.8518217  45.8712339 126.3599586  33.3641338
  45.0207520 126.2107849  32.9510236  46.3454628 125.5378628  33.2396412
  42.1292019 101.4931297  33.7036848  42.7902412 101.2896633  34.3653989
  41.9641256 100.6583023  33.2654428  38.7190557  95.8458996  51.8115711
  38.2851076  95.9389591  52.6596642  38.0141473  95.6175137  51.2056208
  42.4028063  90.1908398  27.4444366  43.3128119  89.8953438  27.4728513
  42.3090553  90.7519913  28.2142043  48.8528728  79.9634981 102.6444157
  48.3080149  80.5985641 103.1092372  48.5773087  79.1139841 102.9888275
  47.1738291  89.8354816   5.9234661  47.0834208  90.1873589   6.8090427
  46.7661572  88.9705181   5.9666467  37.4264526 137.6928425  43.3500719
  38.2952070 138.0945683  43.3603907  37.5080562 136.9309521  43.9237452
  10.8825505 133.2954311  32.7213955  10.5922103 132.5650692  33.2677484
  10.4404557 134.0604591  33.0895257  35.1605082 120.2388382  28.6072183
  35.3106403 120.4811382  27.6934457  35.9382367 120.5521393  29.0689683
  33.8167882  97.0728207  44.7955894  34.6557450  97.2338295  45.2273989
  33.4755540  96.2861443  45.2209616  42.1519232  90.6717587  61.6456270
  42.0509672  90.1528740  62.4436283  43.0921841  90.6560230  61.4670563
  33.5889649 112.8370762 105.7352873  34.1145039 112.7731133 104.9378239
  34.1774511 113.2315445 106.3789573  36.5878797  89.0696621  13.2221830
  37.0123792  89.8317146  12.8280866  35.7079363  89.3738937  13.4443772
  61.2525845 128.2542896   6.9725060  60.4527283 128.3938980   7.4794269
  61.9589996 128.5173130   7.5624400  45.5442762 114.3598652  14.3410015
  44.9146652 115.0170898  14.6374369  45.7019186 114.5765305  13.4220695
  36.6287255  80.6901741  32.9652238  36.1000371  80.8271885  33.7513185
  36.9628787  81.5601254  32.7466822  66.1533928  57.3326302  15.1035273
  65.7587290  57.6979876  15.8953536  66.5223169  56.4951897  15.3842771
  56.8271542  89.7515678  33.0144858  55.9290409  89.4229317  33.0548072
  57.3722267  88.9754868  33.1441927  58.2001257 100.0447750  13.9138806
  57.4543095  99.6254158  14.3429792  58.0018330 100.9805393  13.9494741
  42.0041656  95.3348160  58.4755707  41.1074066  95.3070068  58.1419849
  42.3084450  96.2190437  58.2711220  43.1816816 104.6207142  59.7590160
  42.5577688 104.6471119  59.0335751  43.8264036 103.9636612  59.4966459
  57.6041222 118.9203453  13.8897550  56.9428539 119.5671177  13.6434913
  57.8324127 118.4862900  13.0677366  49.6135330 122.0836830  19.9973464
  49.4138575 121.3903427  20.6263399  49.3167114 122.8872585  20.4244208
  50.4844522 102.1460152  32.6635218  50.0355721 102.9842758  32.5536942
  50.6049395 101.8201828  31.7715883  34.7299957  75.0899649  65.7996845
  33.9952397  75.6808376  65.6346512  34.8758268  75.1470470  66.7439842
  37.2264409 104.4851780  17.8117514  36.4888287 104.0591717  18.2484198
  37.3418403 105.3089714  18.2853317  21.7098761  95.2428818  47.9927492
  21.0083127  95.3164101  48.6397696  22.1759391  96.0770607  48.0489779
  55.2227592 122.3978233  38.2752943  55.4611158 122.3635006  37.3488832
  54.2655659 122.3951054  38.2765913  40.2956676 101.5411282   6.9164670
  40.2247572 101.8611336   7.8158009  41.1373329 101.8771362   6.6083491
   1.3534103 132.5531483  20.3828144   1.9974205 133.2234478  20.6112266
   1.3542871 131.9554996  21.1305118  89.4936848 139.1514397  25.1787663
  88.8377380 139.4084930  25.8267617  89.5047474 138.1950092  25.2155781
  50.4367685 128.3801460  36.4664364  50.6371593 127.5285244  36.0780764
  50.0780487 128.8946724  35.7433796  73.6013889  72.3209190  28.9393401
  74.0593767  72.1880245  28.1093884  72.7175808  71.9891977  28.7809873
  23.3112431 101.0108471  21.0085559  22.7312469 101.3106346  21.7085314
  24.1303492 100.7926655  21.4531779  30.6462336  96.3451958  14.4632113
  31.5482450  96.5750694  14.6862853  30.3431511  97.0690346  13.9150918
  16.3593721 124.0159607  35.3604674  16.7821431 123.2813931  35.8053470
  17.0801544 124.4958305  34.9525094  46.0623455  83.3412647  52.6619148
  46.8077040  83.1171799  52.1047306  45.5761957  82.5217247  52.7526474
  60.8762550   2.1602326  33.0293107  60.5300617   1.2961750  33.2524371
  61.7963791   2.1244030  33.2906795   6.0926467  99.4997215  15.2946174
   5.3519213  99.7678947  14.7508860   6.4174128 100.3153419  15.6760955
  30.2132511  98.7808514  52.0648909  29.4087505  98.3342361  52.3286057
  30.9165859  98.2328129  52.4130249  56.0639906 131.2582874  52.9200649
  55.3836536 130.7514286  53.3633089  55.5843782 131.8308830  52.3214483
  39.4137287  90.3329372  17.5064099  40.2858067  90.1332569  17.1660590
  38.8694787  90.4349709  16.7256308  46.4642954  79.8329449  41.5248299
  45.8618832  79.5021725  40.8585501  46.2021255  79.3842745  42.3286915
  78.4221888 109.0736103  35.3489470  78.3847094 108.2638454  34.8399091
  77.8538084 108.9099407  36.1015368  56.6561460  86.3678741   8.5304540
  56.6690588  87.2172546   8.9716190  56.5791178  86.5820408   7.6007056
  63.0948639  95.7775021 108.6496380  62.3976946  96.3156891 108.2747539
  63.4489441  96.3075733 109.3636940  55.7685757 130.3272629  56.8789101
  54.9700117 130.0566673  57.3320198  55.8354235 129.7298908  56.1339903
  37.4717975  77.1019125  41.7748833  38.1971717  76.7527866  42.2927380
  36.8770075  77.4818802  42.4214697  33.7553072 109.4230080   7.1937603
  34.6940231 109.6036816   7.1447444  33.6515141 108.9109612   7.9958010
  54.9132347 124.3125439  57.7069855  54.7731495 123.4443569  57.3290110
  55.5421686 124.7310448  57.1191692  54.5370626  89.2360401  37.9659224
  54.4402361  90.1785469  37.8297830  53.8067913  88.8481331  37.4837804
   1.7378168  99.3163013  20.5011749   1.6367602 100.2630329  20.4026222
   2.3133050  99.0605354  19.7803235  98.3247948 102.8059101  29.1640329
  98.9468956 102.3278427  29.7123623  97.4779701 102.6715565  29.5895600
  56.9924784  84.4095898  11.1785722  57.0095301  83.4761620  10.9672534
  57.4391651  84.8297501  10.4436111 102.9204292 118.7546158  19.4955218
 102.7603049 117.8258228  19.3283474 103.8145847 118.7860680  19.8357105
  49.4198084 111.6542244  22.5764465  48.7680054 112.0607758  23.1475043
  48.9293575 111.4036655  21.7935634  40.5542994  93.4031487  30.9411597
  39.9505138  92.8793907  30.4145193  41.2330008  92.7852726  31.2128592
  46.5185118 117.3469353  29.8630810  46.4624882 116.3914108  29.8701692
  47.4513960 117.5313663  29.7537947 114.7486401  70.9765339 102.0979538
 114.3740463  71.8567085 102.0631101 114.5581341  70.6700850 102.9845365
  75.6376362  75.4394770  34.7332883  76.1266899  74.6175051  34.6956205
  75.6658077  75.7761955  33.8377118  33.1408811  90.0247383  46.2549210
  34.0917253  89.9834919  46.3570309  32.7965021  89.7380638  47.1007681
  21.3615131  82.4274254  52.5836277  20.8656287  82.2878742  53.3903837
  21.4622855  83.3775425  52.5257444  57.2287893 102.3789215  51.4833832
  56.7454767 103.2016182  51.4072275  56.8954754 101.9787788  52.2865152
  34.6158624  95.5268764  56.0346365  34.4582129  95.0125217  55.2429152
  33.7869549  95.4918194  56.5120363  60.3976393 114.0883636  13.8347113
  60.4575300 114.7268105  13.1240559  60.2355909 114.6154022  14.6171451
  17.7035582 112.6223660  27.6540136  17.1368909 113.1405830  27.0825505
  18.4041727 113.2239342  27.9059792  69.4962502  88.2082462  28.0206347
  69.9090958  88.4185028  28.8582397  69.9088669  87.3882389  27.7493906
  48.0528259 118.0179024  43.9291382  47.1361017 118.1764698  44.1543198
  48.0464745 117.8805542  42.9818630  10.0115359 107.8838253  10.7095981
  10.1599300 108.3943748   9.9136382   9.7504681 108.5314274  11.3643420
  58.2677126  81.1290359  98.1305703  57.3852444  81.4251614  98.3537158
  58.8021660  81.3797474  98.8840529   9.0416133 118.2044125   4.8574823
   9.3284023 117.3603725   4.5088121   9.2667007 118.1684780   5.7871467
  52.0929337 138.0406761  17.8086114  51.6058636 138.4479809  18.5249233
  52.2944975 137.1604538  18.1261086  23.5785675  82.9941273  67.1986818
  24.2310143  82.3910141  66.8426037  23.2660604  83.4849262  66.4386177
  92.3421955 106.0997391  33.6162329  92.9276657 106.3605213  34.3271828
  91.4804840 106.0334778  34.0276909  47.0789146 104.2189407  54.2233372
  46.2498569 104.6389008  53.9941502  46.9479465 103.9022255  55.1170778
  39.3482924  83.5964584  25.0603127  39.1635346  82.6580715  25.0214076
  40.1752663  83.6974907  24.5889902  21.3222933 106.7690945  10.9252274
  21.4719915 107.2976303  11.7091084  22.1865177 106.4247417  10.6998992
  42.0403481   3.4769516  35.8987331  41.3662767   4.0361576  36.2849402
  42.3560619   2.9437046  36.6282558   4.9252245 122.1319866  18.0292940
   4.7929785 122.1226406  18.9772677   5.6441677 121.5175247  17.8816867
  59.4461298  88.2772350  22.1492195  58.7552500  88.6099720  21.5763330
  59.0697193  88.3201313  23.0282569  55.1170588 111.7755699  22.0445776
  54.4117260 111.1793900  21.7929578  55.0404119 112.5085831  21.4338017
  25.1291871  96.8718910  18.6883056  24.3408442  97.3659134  18.9134479
  25.5236053  97.3650551  17.9689610  51.9937420 128.0532551  25.4292560
  52.3560095 128.5851669  24.7206903  51.0961008 128.3695698  25.5313325
  51.5955830 125.6618595  23.6732125  51.2220669 126.5102863  23.9117360
  52.5297880 125.8354282  23.5575795  44.1411400 124.9093819  16.4305663
  43.2725525 125.2931690  16.3101673  44.1100788 124.0878963  15.9402359
  10.5882037 105.7954121  12.2703111  10.4354250 106.4515495  11.5903306
  10.7735562 104.9895382  11.7882001  35.6502962  93.5767651 101.1147174
  36.4545274  93.3956337 100.6282660  35.2649212  92.7144337 101.2699767
  69.1745710  85.4050827  32.9952288  68.2714462  85.0879478  32.9995203
  69.2743921  85.8550835  33.8341355  38.4516788 112.2792816  38.7147665
  38.3354235 111.3788509  39.0179873  39.1962266 112.6075268  39.2188859
  38.4783578  95.3016186  27.9610062  37.6410270  95.7288265  27.7804470
  38.3995795  94.9919033  28.8632822  40.4497147  80.2377510  49.6022129
  40.0330639  79.4799900  49.1917992  40.0782919  80.2669716  50.4839277
  51.2383604  54.3792534  26.6444659  50.8616400  53.5203123  26.8355966
  52.0136118  54.4305611  27.2035575  34.2256880  97.6521587  58.2039118
  33.3855557  97.5433445  58.6495161  34.1208839  97.1816826  57.3769331
  41.1339808  62.1067238  26.0778761  41.9907475  61.7387533  25.8615828
  40.5064201  61.4750719  25.7265711  19.7504449  71.9795799   6.0017550
  19.8313868  71.0288382   6.0776865  19.5611310  72.2757101   6.8920922
  53.3044958  81.3814449  20.6313562  54.1550398  81.0213280  20.3801179
  52.7394629  80.6150627  20.7295179 107.2839737  60.8923912  33.9867258
 108.1320000  60.9383678  34.4282627 107.0896053  61.7983341  33.7464643
  22.3741245  76.1858368  32.0410347  23.0779219  75.6225586  32.3629403
  22.6813531  76.4883232  31.1864328  22.8444576 126.3255692  48.6061049
  23.4633327 125.8204460  49.1334438  22.2046804 126.6546917  49.2374468
  89.4109535  98.3039093  13.0470788  89.8024464  98.1633854  13.9091778
  89.0283203  99.1798401  13.0976820  49.5110464 106.9682312  30.1923180
  49.2045975 107.8469467  30.4163146  49.3822956 106.4585209  30.9922242
  68.1162691 115.3059196  39.6330905  68.6202288 114.4932079  39.5909739
  67.2111511 115.0346756  39.4800711  40.9563351  62.2045612   3.0819765
  41.3710451  61.3595152   3.2556051  41.5122223  62.8410387   3.5315469
  77.9251242 123.5216713  38.1728649  78.5220337 122.8160667  37.9237533
  78.0114794 124.1672707  37.4714541  50.7028627 126.3696003  43.0415154
  50.5832911 126.5086651  42.1020460  51.2286997 127.1159458  43.3290911
  21.6092086  78.9749908  47.1006536  21.7634916  78.1998396  46.5606785
  20.9672952  79.4862413  46.6078997  49.4994450 114.9107933  28.9473391
  49.0252876 114.1641426  28.5813785  50.4190731 114.6465111  28.9214706
  10.8922231 122.7396584  37.3056698  11.8007636 122.8193569  37.0150971
  10.4793775 123.5574341  37.0281148  29.0592384 123.6261463   9.6491969
  28.1370807 123.6092567   9.3931293  29.1721487 122.8441143  10.1894808
  24.5285416 100.0496292  47.4058437  25.3629112 100.5148315  47.3455143
  24.7059727  99.3147182  47.9929256  58.9820147 105.1879025  34.2838931
  59.3186665 104.4044685  34.7187924  58.1068754 105.3089714  34.6522760
  50.2529716  76.2990713  24.3931651  50.6814051  75.5484962  24.8046446
  49.6259260  75.9117603  23.7823963  39.0559316 119.4615841 106.7290201
  38.2016754 119.7295189 107.0676761  39.3743443 120.2266502 106.2499400
  39.1630912 119.5828342  27.1020508  39.0707445 119.7112560  28.0460906
  39.3874335 118.6571598  27.0070696  33.3858061 117.6714706  22.1481204
  33.5008621 116.9199848  21.5665221  34.1152215 118.2533932  21.9346976
  60.5861521  88.8866234 105.7984733  60.4110670  89.3334484 104.9702665
  60.7876730  89.5920563 106.4132752   9.4751805 126.3222408  69.2239666
   8.9340788 126.0523987  69.9660063   8.8703412 126.3455868  68.4824419
  31.7816281 106.4859104  38.4410882  31.4558339 105.5987167  38.5926485
  30.9917974 107.0207310  38.3612967  53.8078976  98.9585304 105.7410633
  53.7469578  99.4748497 106.5447607  53.7353611  99.6024990 105.0365975
  73.9546871  99.8158741  24.5966721  73.4741974  99.6892262  25.4147935
  74.7641897  99.3189240  24.7149444   8.9737839 104.2155743  53.0660582
   9.7132027 104.3420315  53.6606216   9.3353218 103.7094593  52.3384809
  55.1861572  89.3412209  44.4345379  54.4313240  88.7533569  44.4642353
  55.6260490  89.2087936  45.2742958  42.8313398  66.5859175  46.1542988
  42.2696590  66.1443424  45.5173111  42.2324228  66.8720484  46.8439770
  46.6165638  61.6959715  27.4317837  46.5015793  60.8593941  27.8824973
  46.2648392  62.3460436  28.0400014  48.9567757 104.5485306  57.1326923
  48.1057262 104.2455673  56.8162155  49.5652533 104.3348980  56.4253378
  13.8776302 119.1104412  76.5692759  13.5706747 119.6269226  77.3144293
  14.6568525 119.5734882  76.2616491  31.8609715 115.1545238  45.5072165
  32.3615909 114.8838425  46.2768555  32.4560857 115.0102806  44.7715092
  63.6714697 135.4442406  22.9613876  63.2458735 135.3872776  23.8168740
  64.5493746 135.7745838  23.1521463 103.3501024 113.6906719  93.5448619
 103.3524985 113.7881088  94.4970854 104.0264148 114.2957973  93.2404741
  43.5680437 103.2228947  12.8650522  44.5027018 103.4225082  12.9180026
  43.2823992 103.6289597  12.0466650  67.4416351   4.8464470  47.6084375
  67.7813673   4.0380745  47.2245741  66.8031311   4.5530682  48.2584143
  41.0522413  80.7413101  55.1927757  41.1304712  80.0352287  55.8343077
  41.7875195  81.3229465  55.3859043 111.2153716  72.6357079  64.3383598
 111.7914552  71.8713379  64.3284369 111.5962667  73.2141352  64.9990940
  48.5074043  95.0141621 101.2485804  48.3367395  95.8086109 101.7545112
  47.8357220  94.3968010 101.5382852  46.2518406  95.4348564  30.4438233
  45.7874727  96.2561321  30.6053901  46.1719418  94.9490452  31.2646961
  47.3647404  87.0267582  41.2346697  48.1322289  87.5696659  41.0545444
  47.7225876  86.1559868  41.4076471  36.2157917  73.5647440  44.7762823
  35.6590176  73.2161808  45.4725170  37.0598316  73.1321239  44.9053812
  40.1995468 127.6657009   6.6638058  41.0334921 127.8640461   7.0897448
  40.4452324 127.2342014   5.8454692  26.3298178  76.4152861   2.3325643
  27.0552874  76.1533022   2.8993881  26.4173484  75.8586454   1.5587917
  68.1407499 111.9647026  50.6377888  68.6018085 112.5317764  50.0196552
  68.6453724 112.0335579  51.4482498  57.6554537 111.0178185  30.9244370
  58.1891727 110.6393528  30.2257681  56.9718599 111.5062618  30.4657865
  52.6382685  88.0549431  13.5015774  51.9707394  88.2251930  14.1661477
  53.1290102  88.8744259  13.4395850  86.0172176  99.2446899   5.3728604
  85.8708858  98.7731552   4.5528209  86.4493465  98.6075592   5.9416890
  54.7091436  94.9316502  29.2011333  55.3344011  94.5065022  29.7880960
  53.8522387  94.7284698  29.5761919  13.2102501  99.0596962  18.8014340
  12.8437042  98.2521534  18.4412158  13.9754820  98.7737179  19.3003035
  32.5405383 115.6500435  37.9739809  32.9476452 115.0378609  38.5869551
  33.2654548 115.9673882  37.4354482  60.0433159 107.6987076  27.8344321
  60.7554817 108.1218052  27.3548031  59.7044802 107.0399761  27.2282267
  65.7122469  70.6606865  32.2087598  65.3542852  71.0227442  33.0193210
  66.0761786  69.8133087  32.4651432  19.0620816  95.1882362   1.6161807
  18.7588108  95.1611233   0.7086992  18.2650149  95.3122711   2.1314803
  57.1236086  87.7820873  36.0088515  57.2426510  87.5492859  35.0880575
  56.2544489  87.4476242  36.2300301  19.6069717 113.7706280 102.3480877
  19.5134926 112.8270340 102.2171613  20.5404544 113.8976002 102.5175568
  54.1880274 121.7294216  32.3940802  54.0060425 122.6453018  32.6045060
  54.3724012 121.7315388  31.4548087  15.0703561  67.7930641  26.2903953
  15.9386075  68.1951666  26.2642050  15.0697100  67.1766090  25.5581284
  64.1222191 102.3510647  25.3444672  63.2317972 102.0400047  25.5076432
  64.6680689 101.5691566  25.4275560  73.3573055  91.0516644  23.7330413
  72.5140905  90.6351757  23.9112377  73.4174109  91.7563915  24.3780088
  53.1418467  96.4886475  13.2013905  52.3522615  96.2377548  13.6808062
  53.4026575  95.6935310  12.7366316  63.3048487 129.5876789   2.9853404
  63.4686184 130.5053616   2.7679268  63.5922289 129.1032124   2.2114283
  23.3287168  77.0624638  63.1717348  24.2314386  76.9374847  62.8789759
  22.8372884  76.3654757  62.7370691  39.6718001  94.5945168  57.6116991
  39.9688578  93.9190674  57.0019817  38.7995505  94.8334122  57.2980976
  22.3473620  99.0517330  23.7578988  23.2378626  99.2754459  24.0284443
  22.4539924  98.2875443  23.1914377  56.7244387  73.3953381  28.8082004
  55.9701681  73.9399338  29.0334249  56.5123463  72.5329399  29.1653037
  40.2503061 109.2797375 109.9053964  40.8176136 108.9520168 109.2075460
  39.4904566 108.6978436 109.8894769  24.5775867 123.2154369  17.4252582
  24.1928673 122.9438972  16.5918970  24.7708631 122.3948097  17.8785229
  46.9422388 131.1619949   8.2749838  46.9468021 131.7748356   7.5397080
  47.8457022 130.8512211   8.3333671  73.5414076  48.4958410  27.3063111
  74.3277025  48.0773115  26.9558716  73.3565044  48.0188370  28.1153297
  71.8394995  93.6322403  32.8725195  72.0653439  92.9774380  32.2118664
  71.0151672  93.3208752  33.2463574  47.7568769  49.5491838  22.1456218
  47.7193785  48.7682867  21.5933323  48.2954502  50.1667881  21.6509151
  26.6641831 115.2670479  22.1255636  25.8946991 115.5969143  22.5895834
  26.8881178 115.9632015  21.5079474  44.8725891  65.5361080  12.9467022
  44.6246815  66.3641119  13.3580232  44.9349976  64.9167109  13.6738086
  64.6335936 139.0389061 108.3623181  64.0132380 139.6690941 108.7287151
  64.0879488 138.3107853 108.0650891  52.7322578 109.0148830  35.2364206
  52.2361183 108.6775780  35.9822798  52.3624372 109.8829937  35.0756311
  25.3095126 113.3329964  12.0379949  25.4827452 113.9925575  12.7097082
  24.4508290 113.5686398  11.6867566  22.5228453 117.0230198  46.5791082
  22.3592114 117.4519157  47.4190474  22.6417899 116.0995007  46.8009090
  43.9972496   2.3910790  45.2452421  44.6849251   1.9580918  45.7510662
  44.1140127   3.3228283  45.4308414  57.4523115  76.2940502  42.0295191
  56.5985584  75.8615494  42.0460415  57.9612255  75.8453369  42.7047205
  67.1201992  74.8432159  31.1197448  66.8765450  74.6653080  32.0281577
  66.3438463  74.6058178  30.6126451  41.9885349 124.2523193  55.1474047
  42.4185276 124.7371864  55.8518505  42.5188780 124.4357777  54.3719625
   7.5016618 135.1453114  23.6523485   7.1005422 134.9696064  24.5035052
   8.3431971 134.6903992  23.6856818  52.9391432 106.2092018  36.8382335
  53.8073874 105.8195210  36.7356205  53.1057835 107.0645046  37.2343612
  49.2716074  98.4851170  22.6687312  48.4145641  98.7622929  22.9925823
  49.0736580  97.9037666  21.9345117  19.8567808  79.9846506  38.8258171
  20.0255132  80.6882763  39.4524503  19.3086314  80.3891277  38.1533837
  41.2904453 103.8099480  31.7137361  40.9966326 103.0627441  32.2348833
  42.1103811 104.0819073  32.1260166  32.4593568  76.9812298  17.9122043
  33.3981824  76.9188070  17.7363014  32.4051142  77.2819424  18.8193214
  31.5273046  87.5829792 100.6664505  32.0479250  87.1538258  99.9874707
  31.5427852  88.5103416 100.4298320  23.1841946  70.2886629  32.9373908
  22.7580786  71.0541153  32.5517225  24.0007257  70.1963615  32.4464846
  58.3900213 100.6382942  17.0425928  58.4175682  99.9267197  17.6822197
  59.1523743 100.4876232  16.4837074  50.8686781  85.3642559  10.0175655
  50.8891392  84.6765709   9.3520522  49.9531698  85.4025173  10.2943623
  23.9664149  96.6507912  29.5698023  24.0241885  97.5679302  29.3019581
  24.0380478  96.6749763  30.5240130  56.5924358   6.3793640  27.1217895
  56.6875553   6.3677101  28.0741811  55.8313847   5.8247261  26.9502902
  35.4432368 109.7946453   0.6892216  34.9262929 109.5813179   1.4660697
  36.3105369 109.4332314   0.8719955  17.9811382 101.3399506 104.2043498
  17.7926147 101.7275810 103.3496948  18.2825673 102.0743370 104.7391876
  44.0998602  92.1684265  53.9758539  44.3587494  92.7737331  54.6707010
  43.8116932  91.3816643  54.4386625  70.5668068 118.4120750  15.5050647
  70.3310013 118.7219524  16.3794780  70.3634977 117.4768257  15.5194926
  59.0339279 102.0991993  31.0861921  58.1724501 101.7538548  31.3203430
  59.0408468 102.0968151  30.1290202  60.9165049 138.0949593 103.9081081
  61.3703871 138.8399410 104.3020847  60.0027466 138.3742332 103.8507929
  47.1777296 124.2781830  45.5460930  48.0628872 124.5724964  45.3313780
  47.3085976 123.5379124  46.1386395  45.3279400  88.4670925  45.1745749
  45.8091545  89.2898083  45.2628803  44.5331573  88.5977936  45.6917524
  50.8266306 135.9285164  61.9088411  50.1827621 136.6214466  61.7621613
  51.6644669 136.3880062  61.9647217  96.4949512 106.9236946   1.9122465
  96.3855076 107.0817757   2.8499374  96.1718082 106.0324001   1.7802969
  48.4659290  80.8234310  10.3901422  49.1862154  80.3012466  10.7433271
  48.0234098  80.2370453   9.7765017   3.1999373  84.8173046  23.3586049
   2.3690295  84.8669910  22.8860021   3.8178778  84.4617367  22.7198911
  73.6309958 116.1336231  16.7299438  72.7650928 115.7703209  16.5443218
  73.8655949 116.6118526  15.9346509  42.2601700  64.4637489  93.5051151
  41.4127445  64.2470694  93.8938960  42.2838354  65.4206419  93.5003241
  41.5429592  70.2375889  20.5756235  42.0129299  69.4371605  20.8094478
  40.6284189  69.9651432  20.5006671  30.4619145  89.6396065  21.9363928
  31.3009524  89.2229462  21.7398262  29.9259710  88.9370251  22.3043275
  11.4587176 131.2748718  12.6285136  12.0248115 131.2125301  11.8591750
  12.0544064 131.4845371  13.3478391  44.3456793 127.6020908  14.7507274
  45.1516008 128.1185341  14.7548306  44.5004177 126.9219017  14.0952671
  48.0739641  55.9550476  27.0544267  47.7226067  55.0649071  27.0337081
  48.0140591  56.2573385  26.1481905  68.4376860  84.7690868  22.2017598
  68.8864899  84.0801430  21.7117047  68.9640713  84.8817730  22.9932475
  30.5368161 112.4230957   7.1710670  30.9975958 112.5194740   8.0045080
  29.6114683 112.5186443   7.3965323  22.7767110   7.4929028  30.4638386
  22.9383612   6.6539936  30.0321865  23.0311489   7.3464375  31.3749051
  58.8679266  96.1268902  14.5806384  58.7980509  95.4044151  13.9566350
  59.0237379  96.8989468  14.0366960  77.4616003 117.4829292  12.9214621
  77.6950836 117.6825905  13.8280213  76.8601418 116.7411709  12.9868472
  61.4443731  73.7795258  75.2262672  60.9749889  73.3180046  74.5313486
  60.8060408  74.4025230  75.5735859  32.5128675  97.8899002  20.1095724
  32.6731014  97.3444366  19.3394887  32.1047688  97.2980690  20.7415700
  52.4686623  77.3665571  92.2763213  51.8627787  77.1948528  92.9971894
  51.9035816  77.5035000  91.5159544  37.5385928 114.3087006  34.7169137
  36.8341398 113.6612034  34.6900988  37.1653056 115.0490856  35.1951575
  48.7229824  57.2298241  45.3490257  49.2972708  57.9909277  45.4335642
  47.9792500  57.5467062  44.8365068  41.6548443  65.2194929  18.1399274
  42.3741293  65.5416441  17.5967169  41.8057871  64.2763424  18.2025158
  69.9535227  85.3085899 101.2789299  69.8500776  84.8077393 100.4698052
  69.0983057  85.7146168 101.4202776  22.3845673  93.8977337  36.7799282
  22.9160976  93.2105637  37.1818113  21.7709494  93.4269047  36.2159896
  57.7431679 101.4425468  99.4894954  57.9713011 100.5131340  99.5092055
  57.9028511 101.7092133  98.5841664  55.5868435  82.4378014  50.0471449
  56.4595652  82.1525764  49.7765207  55.4460812  83.2586193  49.5752621
  65.3600073  68.7284279   3.0934778  64.7178459  69.0898848   2.4825694
  65.9759808  68.2502651   2.5383523  34.2048717 103.0350590  72.7147627
  34.9317265 103.5891342  72.4302959  33.9928293 103.3504868  73.5932684
  46.2737894   6.2594490  17.2622120  45.7206154   5.5288010  16.9858432
  47.0580196   6.1851769  16.7184293   8.8131601 110.9739685  48.3353758
   8.9492697 111.8420887  48.7149286   9.6912724 110.6760120  48.0979347
  67.0999336 106.8740940  98.0800875  67.7602100 107.3986721  97.6272365
  67.3733091 105.9682178  97.9355689  29.4503736  82.1034336 105.5605202
  28.7948132  81.9135571 106.2316509  29.3534160  81.3952827 104.9238493
  53.2409334 137.9773235   3.1506172  53.8637590 138.1673336   3.8521963
  52.4651098 138.4918880   3.3732092  40.2705812 141.2295818  87.7186259
  41.0741711 141.0773563  88.2159194  39.5660067 141.0303116  88.3351525
  62.4020910  94.9981689  26.4936352  63.0188656  94.3843842  26.0947776
  61.6147089  94.9315166  25.9534359  38.7694263 107.1374130   3.0597642
  38.4248114 107.9256725   3.4794131  38.2089663 106.4308167   3.3804622
  33.5527325  93.2028008  26.4594388  33.7723637  93.9474869  25.8995891
  32.6797724  92.9358959  26.1714554  32.4360251  72.3309278  34.7067976
  32.3733640  73.0961084  34.1351295  31.6998625  72.4229097  35.3116417
  54.4288445 104.1836643  31.7894149  55.3124952 104.4804287  31.5718842
  53.8517904 104.7761059  31.3074875  60.8915329 113.4313679  87.2082242
  60.2370071 114.0666103  87.4985584  60.8137465 113.4263420  86.2542041
  62.6327467 107.4668407  92.5277289  61.9069719 107.9761505  92.8884073
  62.2295380 106.9190693  91.8542346  39.6795368 105.8556557   7.7079195
  40.4558659 105.9213352   7.1518344  39.5586157 104.9153996   7.8403157
  29.9046731 104.6245861  41.6899109  29.6996617 103.7305546  41.9635820
  29.0593052 105.0735474  41.6855717  47.3819685  82.8386211  37.0944190
  47.0931244  83.4522724  37.7698755  46.7289543  82.1389675  37.1113849
  47.6617718  63.5341883  17.9389179  46.7931509  63.8314629  18.2097673
  48.2670069  64.1334581  18.3757281  64.7174978  94.5048332  48.9418077
  64.1751719  94.3050003  49.7048140  64.9487734  93.6487198  48.5815096
  20.4239464  52.4828386  36.7311740  20.8534956  51.6276646  36.7112994
  20.5458450  52.7912903  37.6290774  66.9547606 121.7289352  13.2398582
  66.0980272 122.1102333  13.0478942  66.7937803 121.1351681  13.9731824
  45.7195663  82.5257492  41.7735100  44.9697399  82.5912952  42.3648643
  45.9223223  81.5906620  41.7465496  37.6233745 135.5089092  92.2361025
  37.1791220 135.6581879  91.4014836  37.9942608 136.3609219  92.4657651
  30.8146977  91.4138603  87.8152212  30.7472372  90.8960915  88.6174687
  30.5889916  92.3040867  88.0850109  42.6960945 105.1014328  79.1092094
  43.4256124 105.6194305  78.7690386  42.4234533 105.5634212  79.9019655
  49.7805023  83.8495159  88.9535650  49.2199707  84.4521523  88.4648236
  50.5593586  84.3644714  89.1643461  40.6376219 109.7107506  93.4858450
  40.0033283 110.4157066  93.3556923  40.8210087 109.3876743  92.6036771
  48.3020592  90.2898979  56.6987848  48.7422848  91.1230564  56.5305758
  48.5899115  90.0398922  57.5767756  20.2873540  99.1302109   1.1847623
  20.3873825  99.9463654   0.6947421  19.6668243  99.3437386   1.8815972
  15.6312263  85.6261826  86.6323813  16.5445518  85.4838467  86.8809923
  15.6341648  86.4715672  86.1834320  55.7673883  56.9749975  89.0056237
  56.0737658  56.9686699  88.0988010  56.3135290  57.6312590  89.4383820
  61.7769766  74.9194431   1.1956943  62.5522375  74.3728542   1.3239191
  61.4721394  75.1144028   2.0818645  16.6563439 111.6974068  75.7263756
  15.8046198 112.0575333  75.4791880  16.8456423 112.0926189  76.5773773
  50.0274611 112.7032948  15.7774341  50.5892992 113.3373737  16.2229776
  49.8695230 113.0875969  14.9151111  39.9638700  59.9184418  91.6766235
  40.1652431  59.9808359  90.7429274  39.1843748  60.4622078  91.7903813
  39.5382738  80.1886654  21.9372654  39.9241304  80.4461575  22.7745485
  38.6595297  79.8831081  22.1623826  48.0643749 131.4867401 109.2605968
  48.5939980 130.9928226 109.8865187  48.5785818 131.4792061 108.4532776
  80.7437992 118.1484509   8.1417578  80.3928089 118.0454636   7.2572047
  80.0046349 118.4722900   8.6565334  69.8592663  63.4250832   9.6858805
  70.2310419  64.2209435   9.3055856  70.6015205  62.8250980   9.7587460
  35.5648065  85.7467175  37.2529531  35.2019024  84.9225044  36.9285893
  36.5131617  85.6278896  37.2006464  19.7269166  36.5417147  30.2435374
  20.4953766  36.4661098  30.8092117  19.1034424  37.0581293  30.7542515
  40.2250576  77.7135611  40.6773043  39.5428324  78.3390903  40.9212589
  41.0134268  78.0367708  41.1134720  65.9646893  90.2415466 100.4022380
  66.5273666  91.0113430 100.3183153  66.2087679  89.6847153  99.6629199
  78.5434914 116.7284203 101.8775084  77.8601313 116.0589981 101.8438735
  79.2784739 116.3446331 101.3992336  23.2060170  99.4255638   5.2343160
  23.3050108  98.5968113   4.7657046  23.9245462  99.9699879   4.9125147
  48.4888268 127.5573826  77.9608186  48.6729670 128.2578659  77.3350056
  49.0069151 126.8153572  77.6490339  51.6677332 122.8059673 102.5548115
  50.9364653 122.6942348 101.9473615  52.1867752 122.0080376 102.4541601
  38.6684585  97.3807716  79.1031130  38.4447932  97.7154160  78.2346543
  37.8701663  96.9480610  79.4059571  24.8638201 138.6437416  47.1411371
  24.0160990 138.3685112  46.7920732  25.3435826 138.9664936  46.3783216
  52.5157356  94.4471073  31.0878706  52.6640892  93.5409355  31.3581896
  51.6530132  94.6642494  31.4411306  62.4182844 112.8126431  12.9334259
  62.0317459 112.1486950  12.3624706  61.6721344 113.1956291  13.3947492
  47.8921413  68.7465763  27.0623946  48.0249071  69.6725988  27.2651076
  47.3726845  68.4133101  27.7940559  65.0214481 131.0131836  83.8825377
  65.2307034 131.5597153  84.6399959  64.5752192 130.2515411  84.2526969
  25.1766348  90.0504112   5.4805917  25.4057646  90.3507996   4.6011034
  25.6407714  90.6484127   6.0664308  23.4833431 100.1877308   8.4515005
  23.4418392 101.1434650   8.4186351  22.5691652  99.9067879   8.4116948
  53.7315750 106.1768818  82.6867207  54.6093273 106.1769772  83.0685433
  53.6075306 107.0720387  82.3712214  34.5491290  93.6170101   8.0279773
  34.3148875  94.3133545   7.4144065  33.8664508  92.9561234   7.9122037
  18.6363935  91.4908981   4.3233117  18.5232449  90.8562374   5.0308716
  18.4398496  92.3365498   4.7263888  19.1668642 117.4264908  89.6268161
  19.5723844 116.7146397  90.1218411  19.6469009 117.4462986  88.7989243
  16.9308031 100.6565762  21.5794992  16.5326273 100.1878071  22.3129487
  17.0092404  99.9984550  20.8888817  45.7200241  77.9090166  43.4897280
  45.8661413  77.1139860  42.9770756  46.5578699  78.0720282  43.9229393
  34.0266562  85.2218342  12.2310746  33.1434941  85.1613808  11.8669307
  34.2390180  86.1543083  12.1908402  25.2579975 115.9485531  33.2046866
  25.6541324 116.8185902  33.1563187  24.4414115 116.0835743  33.6855102
  43.3474684  78.4029865  25.7285810  44.0809107  78.9796066  25.9425998
  43.4850979  77.6281023  26.2734175  64.0814590 101.4981937 109.1258732
  64.4093704 101.5802479 110.0214006  63.6548758 102.3366737 108.9492320
  53.5987854   8.7959366  20.0218296  53.7313128   8.3970242  19.1618657
  54.4831657   8.9287548  20.3630948  15.6098878 115.2368355  41.9368458
  15.5555356 116.0794353  41.4859581  15.4101217 115.4407597  42.8504896
  28.1219268  90.2781582  15.1489091  27.5412917  90.9643364  14.8198831
  27.5412774  89.5385456  15.3279138  36.4161015 103.4211826 102.5052377
  35.5035281 103.6845779 102.3866399  36.4233899 102.4854088 102.3039635
  56.6476297  90.5247307  73.7383708  57.3089123  90.5484390  73.0467256
  56.6990948  89.6353722  74.0885624  74.9668121 115.4428101 105.9438147
  74.3150997 116.1205196 105.7643395  75.1701117 115.5462074 106.8734428
  44.5388174  69.5960808  35.1825118  43.9423466  69.9527168  34.5242834
  45.0889492  68.9801359  34.6985674  44.4396448 115.3629017  31.5338016
  44.0234804 114.6163368  31.9647074  44.6360683 115.9715462  32.2459793
  64.7498560  98.7467003   2.8241375  64.5655775  98.3887005   3.6925286
  65.6330252  98.4387779   2.6206023  29.0018559 134.9577808  35.9267735
  29.1759872 134.4660759  35.1241875  28.0844355 134.7721863  36.1270857
  37.1027589 104.7459030  21.2207627  36.6855836 104.2175198  20.5403185
  38.0329370 104.5297909  21.1552238  60.1435566 127.2889805  11.4298034
  60.3743458 128.2139587  11.3439059  59.2772865 127.2950745  11.8369508
  32.7063775 114.1637325  31.1523151  33.2744932 114.7908211  30.7048416
  32.6804280 113.4053326  30.5688930  55.0959063 120.0874996  46.1541939
  54.3483639 119.5249748  45.9517574  55.2328253 120.5998611  45.3573418
  45.7676220  96.0052204  17.9700816  45.5142641  95.5392838  17.1732473
  45.5110121  95.4191685  18.6820710  21.5450644  82.0803833  10.7852542
  21.1476159  82.2567177  11.6379988  20.8414674  81.6856861  10.2700877
  32.8907418  87.1988487  34.9240112  33.4797835  87.6589394  35.5219936
  32.3591113  87.8913403  34.5315075  65.7903576  93.6371899   9.3043011
  65.5772829  93.6444187  10.2374566  66.3420105  92.8632641   9.1905695
 117.2948594  81.7056465  98.9763805 118.0520416  81.4662933  98.4419509
 117.3003680  82.6628017  98.9844891  67.9929161  95.3597164  23.2794666
  67.3369598  94.6646690  23.2259059  68.8280821  94.9117088  23.1452179
  58.3285093  86.0875893 106.4404511  59.2296600  85.7985973 106.5841451
  57.8031588  85.2941513 106.5438583  27.9420853 112.0778561 106.2691178
  28.4962511 111.9641018 105.4969838  28.3108664 111.4794827 106.9188719
  52.5713825 116.9318485   6.7910212  52.8759098 117.8033733   6.5381682
  51.7360926 117.0884418   7.2314799  76.9995594 107.5062370  32.7468729
  76.0543013 107.6499367  32.7922964  77.3422098 108.2966709  32.3296952
  61.1537266 101.8465328  14.6188140  61.2377882 100.8936882  14.5835829
  61.9511604 102.1412277  15.0586843  43.5979939  86.0948563  98.1397518
  43.2208443  85.2346897  98.3244392  44.4814444  86.0526085  98.5057577
  59.4645023 114.0387344 107.8096009  59.0740013 114.1115475 108.6804831
  60.1553059 113.3839226 107.9108556  27.0380044 117.0433044  11.9249606
  27.8310537 117.5732899  12.0051026  27.1031857 116.6443920  11.0572875
  53.7221766  75.4899359  12.2131968  54.1527510  75.6413269  13.0545759
  54.3117619  74.8985052  11.7454088  26.5794182 144.3141842  58.0248880
  27.4112487 144.7007656  58.2984734  26.7808747 143.8708591  57.2008085
   4.0969598  65.9862900   7.8345460   3.8449350  65.1372480   8.1976420
   5.0338656  65.9024191   7.6573294  37.5231624 135.0420475  35.6282306
  38.1020713 135.6874847  35.2226329  37.4709606 134.3317699  34.9886847
  33.4843779   3.8308697  18.6782491  34.2293310   4.3385964  18.9999521
  33.6302638   2.9487400  19.0199995   6.9666517  75.6504297  95.0484832
   7.8849697  75.8339024  94.8503371   6.8965036  74.6971560  94.9977299
  43.0045891  57.2456694 102.8617080  42.2723150  56.9977379 102.2973200
  43.4364176  57.9603195 102.3936989  63.4856033  85.1607990 106.4153981
  62.7636528  84.6349907 106.7596897  63.4836531  84.9835682 105.4747506
   8.6165142 109.3302345   1.1740644   8.3060181 108.4300041   1.0771396
   8.7379187 109.6396732   0.2764335  24.8439550  84.0942955  26.9733405
  23.9969015  83.6658096  27.0963287  25.2096081  84.1597176  27.8555250
  33.0751038  94.0039444  88.9031895  32.1423578  93.8075256  88.8158163
  33.1458139  94.9329662  88.6837348  33.7928891  83.2873821 106.5680381
  33.6026573  83.9709568 105.9255653  32.9345083  83.0274487 106.9024741
  79.0042114 109.3680859  17.5029171  78.8865852 109.3038940  16.5551424
  78.4957981 110.1386929  17.7557182  41.8590498 133.3217239  13.0105746
  42.4684477 132.5917053  13.1198108  41.0790205 132.9263878  12.6213527
   7.2317892  88.9580727  40.5782604   7.4922562  88.0467510  40.4445267
   6.3186711  88.9905262  40.2929640  22.4712658  83.1244564  82.0268782
  22.3262715  82.3422813  81.4945277  23.3792496  83.3700275  81.8494161
  68.6597681 121.9652939   8.2610941  68.4172869 121.2084866   8.7946510
  68.7564898 122.6805115   8.8898492  51.6470814  99.7054195  36.9766927
  52.2483301  99.9473572  37.6811051  51.3890839 100.5397701  36.5848708
  34.6553922 115.5638504  14.6664405  34.3540144 116.4718437  14.6354806
  34.2263603 115.1435471  13.9211190 118.3430225 109.1606617  17.0255458
 117.5851477 109.4188309  17.5501478 118.6497248 109.9766064  16.6300690
  25.0175571  52.4537373  37.8464365  25.5173588  51.6380692  37.8798318
  25.0577950  52.7960253  38.7394381  33.6704111  69.1381359   4.4822726
  33.1715131  69.0529490   5.2947223  33.6606145  68.2597780   4.1019785
  58.4617043 119.8220921  31.3181996  58.1614351 120.1735592  30.4800224
  59.0512085 120.4932976  31.6619968  66.0067892  97.9984951  12.1816242
  65.7714319  97.6009274  13.0199397  66.3904905  98.8433743  12.4165547
  66.8636894 113.9429379  90.5424341  66.9089127 113.7158394  89.6136650
  67.7544355 114.2120934  90.7668372  60.1583958  80.5348492  27.3227501
  59.8861313  80.3448200  26.4249802  59.4134188  80.9978008  27.7060533
  19.3180048 119.1111183   6.7628175  19.0661478 119.9368382   6.3493079
  18.5867369 118.5202789   6.5828323  54.2523861  91.6158962  99.2602202
  55.0481796  91.1016178  99.1243311  54.5640755  92.4532604  99.6035978
  43.1719160  78.4021044  14.5647264  42.7570295  78.8899946  13.8533449
  43.8382864  78.9979410  14.9070120  60.1716518  96.3798714  97.9207643
  59.6206856  96.9079876  97.3430463  60.9391308  96.9274330  98.0862185
  46.7544317  58.2813215 103.9555969  47.6181507  58.1591797 103.5615107
  46.7697430  57.7337980 104.7405925   8.4677720  78.1551123  23.2541156
   8.9010727  78.2222891  24.1049790   8.4351915  79.0552473  22.9301906
  69.1923428  94.9464035   0.1920129  69.9599314  95.4134083   0.5220902
  69.5536852  94.2398071  -0.3431352  19.7178817  54.6432543  22.2310567
  18.9889026  54.1389513  21.8698049  20.2859712  54.8147058  21.4799833
  55.6688595 116.1747646  72.5201830  55.8261728 115.2308369  72.4979719
  55.5148792 116.4134884  71.6061076  61.4614868 120.5102921   9.6341097
  61.8865776 121.3009834   9.9662936  60.8942795 120.8216381   8.9287198
  53.4279537 128.3572769   6.1128521  53.5636520 127.7827740   5.3593540
  52.7153730 128.9380074   5.8459997  61.9715786  98.2487774  22.2868013
  62.7451324  98.8096333  22.3440862  61.3126564  98.6944294  22.8191996
  28.6091423 133.9082146   7.1299946  28.5639906 134.2107964   8.0369884
  29.2820764 134.4572544   6.7275608  29.2076635 107.3806477  21.2334156
  28.7911367 106.9371605  21.9723701  28.9342880 106.8769264  20.4667592
  62.5548601 116.5220356  42.0178032  62.1198368 115.8346272  41.5133667
  62.2378683 116.3994980  42.9126453  85.0610065 107.8540421  14.9709821
  84.2422581 108.3453655  14.9040008  85.7366276 108.5258389  15.0630021
  28.2689524  98.0251980  31.2515521  27.7232742  97.2447968  31.3487101
  28.0293775  98.3798981  30.3953838  46.2811470 132.2009182   1.9402513
  46.0142088 132.8385639   1.2781468  47.0773649 131.8058491   1.5850230
  20.9886074 119.9614334  45.2761841  21.9231582 119.8001480  45.4059410
  20.9369326 120.8847904  45.0292492  41.8551111 125.9081078  49.5678473
  41.1271477 125.9227467  48.9464903  41.4444447 126.0472202  50.4212141
  61.4635992  99.3388748  13.4830332  62.2190332  98.7573814  13.5691202
  60.7179642  98.7484741  13.3749509  46.2281752  59.2577934  14.0628660
  45.8403111  58.4251499  13.7936127  46.1725426  59.8110104  13.2837057
  38.1948018  82.9659271  32.1211410  38.0566168  83.4808826  31.3261795
  39.1028023  83.1433868  32.3666525  24.9420404  87.7491283   7.2912067
  24.7244644  88.2142067   6.4833772  24.1168618  87.3506546   7.5678432
 105.7165450  99.4610023  71.6295338 106.6587359  99.2953014  71.6619396
 105.3231258  98.6860275  72.0306063  34.6272397  83.6410809  14.6334112
  34.5521712  84.3298721  13.9729869  33.9561200  83.8561535  15.2811539
  64.5165253  78.5930443   8.5795784  64.0987968  77.7319098   8.5660499
  64.0851927  79.0572405   9.2970031  39.1723108 105.0853062  15.5122721
  38.9237809 104.3267155  14.9840665  38.4276271 105.6822681  15.4393578
  79.9091482 125.4065800 109.5380046  79.7592735 126.2336731 109.9959169
  79.1974592 125.3535938 108.9000987  61.2532330  64.6708775  19.9371541
  61.6749763  63.9725256  19.4364917  61.7033482  65.4691505  19.6607649
  63.4189653 125.8250713  29.8310828  63.1732559 126.3428116  30.5977678
  63.5616302 126.4724636  29.1405988  44.7479773  71.5475082  51.9435501
  44.3301439  71.5400028  51.0823917  45.0396109  72.4516821  52.0603895
  76.2837362  90.8634758  17.6349151  76.9337368  91.3612080  17.1389401
  75.9526443  91.4830875  18.2850575  39.9763608 125.9452534  12.2872186
  39.0978837 126.0097408  11.9125855  40.4502773 126.6894531  11.9160140
  45.7447863  78.0422831  99.9540105  45.0782919  77.7560091  99.3294617
  46.4634609  78.3610868  99.4080206   8.6243093 107.8909016  27.3717284
   9.0328979 107.0263004  27.4135852   8.8775283 108.3154106  28.1914258
  41.7226362 106.4863396  97.6838502  42.3598623 106.3934994  96.9756445
  41.5015507 107.4176502  97.6865622  37.2699380  62.8606272  45.4562330
  36.5245676  62.8058434  46.0542727  37.8637719  63.4867954  45.8703613
  65.6914186  96.8342400  20.0889516  65.7611275  97.6431561  20.5959368
  65.1200390  96.2721252  20.6121922  75.1108551  73.4962606  97.3061570
  74.9615860  72.9226065  98.0577358  74.2624855  73.9107418  97.1489843
  24.0814853 128.7409973  12.0464897  23.3582067 128.1699848  11.7875552
  23.7332273 129.6273613  11.9500208  24.4355059  88.9136982  28.0570865
  23.9311242  88.1501675  28.3378720  24.6146250  89.3931103  28.8659859
  64.1088724 104.9902058  15.6968760  64.2329502 105.0417614  16.6445994
  63.8385963 104.0855312  15.5395734  41.7152691  86.5084457   9.7446799
  41.7231226  85.5548954   9.6614993  42.0578671  86.8246174   8.9086831
  65.0220966 103.8640022 107.4212971  64.0849209 103.7111378 107.3006282
  65.2351522 104.5537472 106.7927330  30.2701974  93.9692307  89.0392693
  30.0436831  94.8781109  88.8421591  29.4429278  93.5688019  89.3066939
  49.6792459  80.1741409  49.3133497  48.9413071  80.2019310  48.7043285
  50.4493523  80.0816059  48.7524509  46.5977097  88.0411434  92.4098643
  46.7706156  88.9120293  92.0522484  46.7212963  88.1409645  93.3537897
  71.1091471 106.6235447  38.6830068  71.0282183 106.3565063  39.5986342
  71.8812084 107.1891022  38.6658001  42.0751190  94.4592667  86.4960989
  42.9281521  94.4292641  86.0628947  41.4717054  94.0683365  85.8641967
  11.5818727  88.3614254  52.3992872  11.8087721  89.2884159  52.4731112
  10.6249607  88.3468723  52.4177027  56.6791010  87.3685074  73.7497791
  57.6279354  87.3222923  73.6322626  56.3644218  86.4991856  73.5018238
  32.6738477  96.7475510  28.6716795  32.1131206  97.0348740  29.3922782
  32.8239202  95.8174992  28.8411450  51.4997435  70.4288149  18.6369264
  51.3096237  69.5581150  18.9861608  50.7848406  70.9775782  18.9594257
  55.3410149 112.4344063  33.8283205  56.0190773 112.9933643  34.2078257
  55.5055857 111.5695381  34.2040157  56.3939285 124.2985249  95.5356026
  55.5678988 123.8581276  95.7355118  56.1755610 125.2304745  95.5395412
  86.9954109  55.1398039  88.7368774  87.6887417  55.4306221  88.1444740
  86.1830139  55.3545284  88.2784748  75.1317692 104.9480915  73.2945633
  75.0400305 104.3251610  74.0155220  75.8175468 104.5745087  72.7410460
  27.6442361 101.8750191  86.7218971  28.5318041 101.5833759  86.9302177
  27.4799752 101.5333939  85.8429527  28.8005900  74.2707205  91.0249615
  29.2279601  75.0829124  90.7530594  29.4822073  73.7854147  91.4898396
  57.7543783  71.0035133   0.1114599  58.2632780  70.3097916  -0.3080710
  58.3299398  71.3412046   0.7976953   4.3764162  92.0813179 108.1374836
   3.8772675  92.4903679 108.8444233   3.8320506  92.2013855 107.3593521
  75.0136757  66.9146919   9.6795121  74.3858862  66.1922503   9.6933881
  75.5137491  66.8130302  10.4893342  45.7953024  70.4045439 108.0838585
  45.0933552  71.0169554 108.3039951  45.6157255  69.6318293 108.6194801
  59.3936062  69.7626972   2.9236642  60.3128672  69.5351744   3.0630437
  59.4053221  70.7005405   2.7324811  47.7358913 105.9036732  51.1788845
  48.2407236 105.2751446  51.6949558  48.2026911 105.9587002  50.3450346
  43.8408470  68.9158106  97.0199776  44.2546654  68.0529547  96.9983006
  42.9033661  68.7305212  97.0750332  64.9818277  57.6076698   2.6424733
  64.4972849  57.1344995   3.3189050  65.7098007  57.0276117   2.4192563
  10.3739941  85.7757568  68.0081511  10.2347207  85.2586079  67.2148132
  10.1091671  85.1955032  68.7218761  26.2522984 100.8374119  74.6048307
  25.7832718 100.1126766  75.0183582  25.6997895 101.0890675  73.8648081
  44.8261642  56.4903831  91.6168213  45.0662518  56.2343311  92.5073433
  44.3850470  55.7208395  91.2570381  37.1762919  95.9898949   9.6506349
  36.6097903  96.6642475  10.0255433  37.4610734  96.3549232   8.8128511
  19.8210669  86.0422897  63.1744099  19.4011056  85.2420044  63.4897232
  20.5559969  85.7341671  62.6441526  48.1844473  79.8871899   2.4527971
  47.4634266  79.8567247   3.0816308  48.7120533  79.1147470   2.6557485
  17.5577807  20.1458526   5.5779020  16.9887710  20.8051276   5.9751645
  18.1992042  20.6521010   5.0793878  25.3800321 101.2487507   5.5548517
  25.3294516 101.6906738   4.7072736  26.0225272 101.7556667   6.0512964
  33.3819842  80.3853798  78.9918041  33.1976271  80.9193325  78.2190561
  33.3943605  79.4860888  78.6641502  47.7910089  59.1794491  69.1574478
  47.5021505  59.0688038  70.0632906  48.7107849  59.4346952  69.2288399
  25.1468658  99.4929981  14.6806661  24.4212246  99.8518467  15.1914636
  25.7387972  99.1206932  15.3343049  14.3245804  75.8647203  99.6763229
  14.2920971  75.8294249  98.7203217  15.1543403  76.3000250  99.8718739
  34.9230623  77.8116560  26.9782583  34.3233705  78.5067129  26.7071477
  34.9874163  77.9079533  27.9284231  45.6853580  82.6634693   0.7760946
  45.4050922  83.4430790   1.2555734  46.6415930  82.6955605   0.8047143
  36.9079494 117.0976925   8.0235521  37.4448347 117.6345158   8.6064855
  37.5054908 116.4228821   7.7013532  32.2929025  99.4084454 109.4545460
  32.9252434 100.0949478 109.2421818  32.2859979  98.8421345 108.6828804
  24.1945052  77.7656841 109.0980816  24.5045233  78.5578918 109.5368576
  23.5168290  77.4197960 109.6788979  49.6821165  88.9108372  64.7368050
  49.5403290  89.8568726  64.7707224  49.3202114  88.6445618  63.8916111
  44.7520638 119.7868156  80.3033543  45.1667595 120.6124878  80.5533981
  43.8163424 119.9390888  80.4355240  67.6952696  90.3549576 104.4623852
  68.5809135  90.3457451 104.8254108  67.2815180  91.1212349 104.8597145
  55.1211596  45.6644201  22.6174394  54.8270988  46.4649677  23.0520479
  54.7638512  45.7276583  21.7316858  74.5116043  42.7939177 101.8974209
  74.5883179  41.9812059 102.3972702  73.7033653  43.1957102 102.2160816
  23.1167889  86.0999393 107.5367832  22.8668809  86.0289383 108.4580517
  22.4563050  86.6768932 107.1532345  60.2870750 104.9262047  13.0511895
  59.7816563 104.3225002  12.5068322  60.0848770 104.6651268  13.9496270
  51.5926552  83.2317162 102.5870419  51.5351105  82.5955200 103.2999039
  50.7040596  83.5772991 102.5021172 119.2482538 103.3939743  97.7532101
 119.8442019 103.7082767  98.4331322 119.3710453 104.0044117  97.0262146
  56.1226320 116.5864277 108.3210373  55.9496117 116.8824005 107.4273396
  57.0773983 116.5604877 108.3841324  12.7786958  98.6621189  81.6202354
  12.5430143  97.9006767  81.0902500  12.2694778  99.3811607  81.2461948
  41.3642502  78.5452843  70.9923553  42.0537519  78.6418009  71.6492414
  41.3963175  77.6210213  70.7454872  51.3894367 103.9673328  11.9696752
  51.0148239 103.1328487  11.6876642  50.6787634 104.5987892  11.8581621
  57.5398350  93.1204319  96.7779636  57.1896315  92.2977638  97.1197605
  57.5638533  93.7039661  97.5363445  11.1101198  84.5726967   6.7686216
  10.3411877  85.0109959   6.4041082  11.4711750  85.2021885   7.3928205
  34.1044044  91.7482471 104.3610668  33.1477284  91.7799187 104.3593597
  34.3742633  92.6644707 104.4239330  29.8765397  66.7873335  84.1494465
  29.9965072  67.7069378  84.3864346  29.1399312  66.7916489  83.5381985
  56.7447996  99.7105122   8.7416688  56.2228632  99.2136669   9.3717138
  56.2026405 100.4696941   8.5273305  55.7680798 104.9241161  17.2635118
  56.2756729 105.1420784  16.4818040  55.8788776 103.9787960  17.3651544
   5.6979561 115.3845692  22.4681417   6.4754397 115.7752514  22.8670350
   5.7461709 114.4587040  22.7062169  49.3870687  81.2510395  87.6780701
  49.7382021  82.0363331  88.0978870  48.6059904  81.5553761  87.2159767
  31.3998532  89.6693611  98.6082554  31.7973375  89.8498821  97.7564049
  30.5574870  89.2658806  98.3988190  37.0336461  83.9792061 106.2203503
  36.6215014  84.0959072 107.0763588  37.7941656  84.5601273 106.2394905
  75.0682068  94.7951698   5.6021062  75.4220295  94.2838764   6.3298551
  74.8785353  94.1469288   4.9238530  67.5041723  85.0474739  15.7273046
  67.5897646  84.8194504  14.8016111  66.5638256  85.1696205  15.8579389
  41.5369511  95.9113407 109.4283295  42.4753666  95.9671688 109.2480850
  41.2559462  96.8218327 109.5192719  24.3263555  81.3377380  23.7138025
  23.4960628  81.5033817  23.2672540  24.4656634  80.3955173  23.6186544
  98.7403202  70.7246447 102.0885658  98.3262730  70.1088285 101.4839363
  98.9182854  71.4999723 101.5561962  46.0672379  72.1926022   0.9193555
  45.7549763  71.5875530   1.5921346  46.8112803  71.7425823   0.5192128
   4.3054971  78.3514929  89.6687698   3.9807090  77.5902510  90.1496601
   3.6773384  78.4706545  88.9564133  67.0337772 103.4736729  14.7757856
  67.1960258 102.5725174  15.0547639  66.3800812 103.8015652  15.3933564
  10.6601131  85.0222874  60.0594854   9.7871757  84.6691799  59.8876429
  10.5941439  85.9482384  59.8260593  45.1850748 105.7434654  86.5380096
  45.7319880 106.4412212  86.8989182  45.4969549 105.6351566  85.6395435
  52.6740646  76.5882111   0.9210435  52.8092337  76.1219454   0.0960771
  52.2236681  77.3944855   0.6694452  43.2951403  78.6354256  89.3097019
  44.1556787  78.9631844  89.0483952  42.6937389  79.3512392  89.1043758
  63.3490801  86.8747997 102.8009033  63.2928038  87.1110058 101.8750191
  63.2994652  85.9189034 102.8076744  43.5415840  87.7252102  14.4790307
  43.0478001  88.0929947  15.2119294  42.9560280  87.8141499  13.7270681
  31.3601923  49.4247675  24.2569200  31.3858342  48.7839508  23.5463373
  30.8036113  50.1289654  23.9244119  49.7941637  64.5790577   6.1022035
  49.5431471  65.4954433   5.9861986  50.3766298  64.3951321   5.3652231
 112.4391086  95.9711552  15.1752511 112.5045902  95.0314522  15.0052682
 113.0723531  96.3675022  14.5767919  29.4588614  89.5161152  69.4112921
  28.6873150  89.7539997  69.9254513  29.1692781  89.5801926  68.5012007
  50.9353065  81.3423634 104.6004963  50.0199509  81.1662197 104.3829346
  51.2793207  80.4976177 104.8908234  42.5155783  62.5895882  29.1004506
  41.9979763  63.0974245  28.4756223  43.4101152  62.9109716  28.9875547
  64.0598679  85.5663872   0.1441709  64.2551279  86.1528778  -0.5866679
  63.8548136  86.1520100   0.8730356  48.6654663  90.1826000   3.7721959
  48.2284355  90.2167988   4.6231214  47.9530811  90.2330589   3.1348649
  58.6259651  97.4771786  82.2886753  58.2477188  96.8977165  81.6273212
  59.4528198  97.7702045  81.9056797  41.4292336  83.1892395   5.1198236
  40.5421925  82.9930782   4.8183099  41.4307547  82.9333401   6.0421792
  23.1616211 106.4808464  95.7433319  23.5520864 106.3874531  94.8743916
  22.7322078 107.3360538  95.7222939  40.7187223 113.3068180  29.5385400
  41.1360931 114.1437054  29.7426072  40.2678204 113.4602070  28.7082425
  33.2979798  74.3440056   4.7598020  34.1073632  74.8547602   4.7759477
  32.7005863  74.8589611   4.2174283  53.5123396  56.7556429 102.6636028
  53.1655741  57.3107719 101.9651604  53.3284378  57.2402477 103.4683132
   4.1846502  86.0005379   6.4414350   4.4483799  86.7814445   6.9281141
   3.6927685  85.4782009   7.0750371  48.3618593 102.6666832  19.2326299
  48.9150620 102.3568058  19.9496976  48.4630299 102.0046329  18.5487500
  21.3154435 103.8468170  10.2821485  20.6495047 103.3046722  10.7050268
  21.3687515 104.6306896  10.8289090  15.4615450  98.0514336  71.8076992
  15.4684269  98.5982037  71.0220623  16.0264719  97.3103905  71.5887308
  49.0405655  88.5104465  13.1817094  49.5011997  89.0035152  13.8606302
  49.5908928  88.6022949  12.4039308  21.0326004  83.8880157 108.9759731
  20.6253695  84.4280148 108.2986355  21.9646811  84.0991688 108.9224052
  29.6082997  91.2245560   4.4851629  28.7589121  91.3303661   4.0567056
  30.0226831  92.0842266   4.4110624  28.1761289 104.7889137 108.3890724
  28.7223125 104.0133381 108.5171127  27.3197889 104.5387268 108.7359428
  40.0194693  91.0104752  76.6316080  39.3814301  91.3436985  77.2625589
  40.6684875  91.7098713  76.5551805  78.9592028  75.6661129  97.9850483
  79.8028660  76.1105824  98.0681801  78.9860344  74.9755144  98.6473083
  51.5123224  56.0288811  93.5219479  51.0929298  55.4007387  94.1099739
  52.2333431  56.3931561  94.0354347  88.1521225  59.9284792  64.2212152
  88.1995296  60.1844883  65.1423264  88.3876419  59.0007114  64.2180586
  43.3084774  84.8434830   4.1059057  43.9777946  84.1955185   3.8859311
  42.5053883  84.3328667   4.2086355  41.3601542 101.2877560 108.0432224
  40.4085350 101.3046169 108.1450462  41.6929245 101.1329174 108.9272594
  41.5336514  62.7754688 109.0695858  41.5668964  63.6980486 109.3225193
  42.3301172  62.3963690 109.4412804  55.3548813  82.5610542  84.4212627
  55.8937740  83.2977962  84.1330814  55.9331846  82.0474434  84.9851704
  30.8301353  65.8944893 108.2561874  31.4782047  65.2711964 107.9279327
  31.1481166  66.1345816 109.1265106  35.8492255  97.5967312  11.2674180
  35.4753113  97.1540833  12.0293084  35.1537061  97.5711155  10.6102887
  19.4754148  70.5296087  83.7887287  20.1640391  69.8810625  83.9350796
  19.5828688  71.1582708  84.5024967  77.2866774  99.7239208   0.8476487
  77.7757454  98.9666176   1.1694280  76.8794394 100.0960350   1.6299096
  50.4014301  69.5487785 105.4039288  50.9736538  70.3160715 105.4110909
  50.7176065  69.0210342 104.6706104  68.2914591  39.9674797  82.6183033
  68.3177280  39.4297290  83.4097385  67.4068642  39.8440075  82.2740936
  41.8448067  97.2737598  85.6240559  41.5037394  97.4145412  84.7408295
  42.2627068  96.4134884  85.5851269  39.9488187  89.2524338  92.9636097
  40.7983446  89.3494511  92.5333500  39.7129035  88.3353519  92.8238678
  61.5601683  79.3485975   6.9913045  61.9707918  80.2049065   6.8715135
  61.1605597  79.3940067   7.8599206   1.9756374  93.7725639  19.4258539
   1.5796953  93.3093452  20.1640168   1.3203977  93.7189102  18.7301389
  32.5311255  45.9211445  93.0571651  32.7733707  44.9952078  93.0708504
  32.3875451  46.1175013  92.1313953  27.5656867  89.3296623  84.4184971
  27.0133281  89.4240093  83.6424541  27.2408986  89.9943352  85.0259113
  37.9760599  91.7929745   3.3855001  37.9580736  92.1190453   4.2852727
  37.4406290  90.9998417   3.4074251  46.8275213  80.6222439 108.8014889
  46.8513393  81.1604214 108.0102730  46.2720108  81.1121845 109.4077873
  41.4503479  97.1720028  73.1625223  41.8599033  97.3873806  72.3246050
  42.1275043  97.3544025  73.8139963  42.6651955  72.2971058  72.7222681
  43.0610657  71.6487360  73.3046246  43.3914709  72.6094437  72.1826363
  25.7798386 113.4152126  94.2332935  26.5462160 113.4678841  93.6622238
  25.4957223 114.3233490  94.3372250  60.9262419 105.0859451 108.1443596
  61.1578512 105.9952641 107.9553509  61.6573858 104.5753098 107.7966213
  45.0587320  92.5979710  39.3484346  44.7635269  92.5200653  40.2556363
  44.5901203  93.3603477  39.0087072  90.4272747  70.1784277 108.0801773
  90.7164955  69.6871853 107.3112392  91.2079811  70.6498623 108.3708000
  16.0181665  47.2821283  95.7450962  16.5444553  46.5425110  95.4414177
  16.2762201  47.4003935  96.6592312  14.9647522  82.1036339 103.0451012
  14.8332894  82.9057503 102.5395870  15.7770586  82.2553921 103.5281754
  23.2594752  38.3742809  92.8293228  23.6456752  38.6784506  92.0079994
  23.3493066  39.1174102  93.4259129  47.5819969  92.2578812  95.4439545
  47.0652628  92.5214291  94.6825314  47.9253864  93.0789948  95.7962227
  33.5755587  71.1423492  76.2811708  33.1821203  70.7911873  77.0799971
  34.0175653  71.9429588  76.5638208  62.5056982  97.8232384  72.1330690
  61.6527367  98.1772709  71.8813705  62.8740454  98.4818077  72.7219963
  60.0109148 119.6338367  78.4479189  59.4034863 118.9259911  78.2329321
  59.4477510 120.3876305  78.6236191  36.2255645 103.9381695 105.2976704
  35.3922772 104.3716812 105.4818821  36.3220048 103.9985371 104.3472576
  14.7121227  77.0684719 108.7804508  14.3810725  77.0104694 107.8841972
  13.9382982  77.2620821 109.3095493  36.6465735  85.9676170   4.1751806
  37.5627875  86.0374260   3.9070169  36.1536169  86.3348770   3.4414522
  55.8585691 144.0279579 102.9890251  55.2177954 144.1699505 102.2922611
  55.3906441 144.2507458 103.7937927   8.4227014 104.4147396  95.1081371
   8.0978060 104.0783882  95.9433270   8.9619130 103.7056732  94.7578335
  79.7749805 136.7328835  11.7204038  78.8227654 136.6408920  11.6878454
  79.9619246 137.4875641  11.1620656  45.8008814  72.1565199  83.4271717
  45.7055569  73.1019783  83.5422897  46.7310905  71.9893599  83.5788345
  40.1699924  77.6609468 107.9032326  40.2717876  78.1700802 107.0990849
  39.8679996  78.2962942 108.5523605  68.4388494  85.5469608  93.3174610
  68.3455610  86.2462139  92.6704788  68.9744949  84.8854446  92.8796101
  21.5220714  52.5822926 109.6790600  21.2522078  52.0298052 108.9454651
  22.4782896  52.5873661 109.6360016  30.9636188  79.5369005  16.0680906
  31.5898919  80.1004696  15.6137792  31.5053034  78.9742899  16.6215173
  77.3362207  96.3625050  22.0843545  76.7902946  95.7932281  22.6266900
  76.9126034  97.2193813  22.1346322  20.4365277  82.4918365  13.1498376
  20.9849524  82.2043228  13.8797704  19.9254465  83.2185841  13.5060064
  41.6051960  62.9496098  98.4338760  42.3490810  62.9867697  99.0351105
  40.8976030  62.5657511  98.9517593  38.3314705  53.5289001  93.9971161
  38.8902617  53.1050396  94.6485138  38.9412689  53.8617039  93.3386135
  19.0981841 107.1726322   9.3484250  18.7530887 107.8635311   9.9139348
  19.9622691 106.9761658   9.7103540  28.6158299  62.2738934   0.8596650
  29.0436649  62.2055578   1.7131940  27.7693462  62.6792288   1.0478154
  76.1456490  97.8036118  71.4971495  75.9286642  97.9494095  72.4179602
  75.3708267  97.3751450  71.1334324  54.2654276  91.4684296  16.6470090
  53.4132719  91.8983173  16.7195073  54.8820353  92.0929527  17.0290891
  55.1556396  45.7690859  95.0107193  54.4778490  45.5422020  94.3740368
  54.6881104  46.2395573  95.7008648  18.0241752  59.1978693 101.3173389
  17.3733461  59.8876095 101.1872864  17.5090003  58.3959198 101.4051247
  44.3616629 133.1708527 103.8443565  45.0892687 132.8406811 104.3714237
  43.9771080 132.3880768 103.4498882  30.9605169  89.3701744  28.5232488
  31.7073798  89.9611473  28.4274808  30.7531595  89.0993595  27.6288835
  39.7292376  97.7900887  15.3882829  40.1385784  97.7815628  16.2535039
  40.1819849  97.1008205  14.9023191  36.0180998 120.5676460  97.4429798
  36.0267091 120.8190346  98.3665371  35.5273366 119.7460747  97.4229527
  18.7075460  32.8862095  97.5558662  18.7237799  32.7856040  98.5076237
  17.9336059  33.4228897  97.3849201  30.8550692  57.2294378 102.3282528
  30.2100611  57.3721790 101.6355610  31.6907215  57.4760866 101.9319248
  80.5929279  88.8463402  94.4505596  80.3534889  89.1431999  93.5726261
  81.2886906  89.4441128  94.7240734  61.5510321  94.0766716  13.7256662
  60.6097841  94.2274666  13.8125650  61.7340517  94.2326736  12.7991620
  59.5058632  52.2035599  98.7482166  60.2896023  52.6389551  99.0834999
  59.8156404  51.6981173  97.9966831  90.7485485  57.7615929  99.5419025
  90.7947063  57.1008778 100.2329540  91.6465187  57.8327227  99.2181587
  27.6326942  76.2585115  88.5666752  28.3739948  76.3676071  89.1623306
  27.0322967  76.9667912  88.7992668  37.3681235 104.3387985  29.1595117
  37.2965503 103.8692856  28.3284513  37.8516030 103.7421036  29.7308484
  38.1360269 136.3982487  99.8382092  38.0575109 136.9193077  99.0390968
  38.2424212 137.0446396 100.5361271  40.1032591  95.4879951 106.9563484
  40.3854561  95.9488487 107.7464199  40.2813768  94.5657158 107.1405220
  77.5646305  95.5881214  71.3916874  77.0312691  96.3811493  71.4451933
  78.1696081  95.7546806  70.6688547  43.0701113 111.1296940   0.3353635
  43.4058189 111.4310932   1.1795751  42.4445057 110.4404926   0.5586282
  79.3835592  92.0704937  93.9152241  79.3583584  91.9123363  94.8589325
  79.5352602  91.2067509  93.5315800  28.8062787  57.4516106  92.4826527
  29.0835524  58.2726622  92.0761681  28.1428766  57.7126503  93.1213951
  28.3014202  96.1857986  90.8493042  27.4994469  96.1890125  91.3718605
  28.1466842  96.8412018  90.1690578  29.6675467  93.5448837   7.1535913
  29.7624469  94.4030666   7.5668184  29.9767327  93.6752129   6.2571184
 118.1339664  93.9219379  37.5894967 118.2790322  92.9895306  37.7501336
 117.2671289  93.9633751  37.1856252  41.1206436  90.1459599  90.4661369
  41.9038773  89.6208763  90.6306458  40.4560471  89.5090389  90.2037144
  53.8089323  78.1888103 105.1095963  53.7755346  78.7696648 105.8696747
  54.4189453  78.6160517 104.5082760  45.5324316  96.8945217  72.6572514
  46.1725903  96.9854546  71.9514513  46.0480833  96.9729233  73.4598684
  31.4533973  46.1094809  78.4971905  31.5475488  45.3621387  77.9065561
  30.5472994  46.0612249  78.8019657  55.7974148  71.5106916 101.5763760
  54.9481583  71.8176746 101.2589550  56.2603474  72.3086309 101.8317604
  20.3843307  75.6902409  23.0981103  19.4886684  75.5235004  23.3917371
  20.3253031  75.6999397  22.1427766  40.4485512 116.9188213 100.5107784
  39.6681619 116.4708614 100.8372116  40.1214933 117.5000286  99.8241425
  51.8012619  48.9659882  22.2509805  51.9047976  48.4727430  23.0647508
  52.5570869  49.5529032  22.2288362  64.1963577  88.2681942  83.7161446
  63.4490967  87.6726627  83.7725353  63.9437342  89.0207863  84.2509460
  24.1768527  52.8049755   0.7191030  25.0982833  52.5688648   0.8261148
  23.8953853  53.0738688   1.5935746  39.0879703  72.1510601   5.1810209
  38.9615369  71.2308502   4.9498025  39.2814875  72.1380854   6.1183683
   5.8873415 125.9780121  91.0922718   6.7632502 126.1632061  90.7535648
   5.6574959 125.1304817  90.7113457  72.4629927  80.1105881  20.9472696
  71.9122696  79.3962765  21.2677327  72.9932785  80.3619480  21.7034761
  31.6317964  65.0084543  21.4802018  30.7604218  64.7508860  21.7811910
  32.1139932  65.2056456  22.2832147  45.4275942  80.4846287 103.6509514
  45.6084633  79.9247217 104.4059467  46.1967230  81.0503006 103.5825348
  67.2405910 102.3502922  99.7100067  67.3312187 102.8032207 100.5483913
  67.6255894 102.9499912  99.0709591  27.7130413  51.8260431  85.0709057
  27.9494786  52.6506901  85.4955101  27.9561257  51.9506931  84.1535187
  48.7162113 107.2861767  62.5111341  48.1893015 106.8852806  63.2024193
  48.6016512 106.7080498  61.7568970  47.7946663  86.1898804  14.5691053
  47.0979738  85.7952023  14.0446225  48.2145309  86.8149376  13.9781419
  30.4209900  70.3386593  99.5310116  31.0994220  70.1079702  98.8963890
  30.2736616  71.2745619  99.3945694  76.2064266  67.4885798  92.0626068
  76.3435268  67.6451731  91.1283112  77.0748329  67.5895977  92.4523544
 121.7739517  88.5993385  22.5904313 121.7232592  89.1562653  23.3672754
 120.8938164  88.6306286  22.2154466  63.5957146  99.3800735 104.1718388
  64.3870926  98.8426495 104.1381931  63.4863520  99.5875168 105.0998688
  51.3741684 102.8346157   9.0237752  51.8080854 102.1539783   9.5382348
  50.6367636 102.3874283   8.6084501  57.3472023  76.2076044  83.5547543
  57.0812273  77.1253109  83.4972477  57.2268677  75.8673573  82.6681995
  35.5498672  61.5178013  66.0853195  34.8457479  62.0975161  66.3757944
  35.3013039  60.6546640  66.4161444  80.1806355 104.1486359  93.8523769
  79.5567751 103.4353828  93.7170696  80.6521893 104.2151356  93.0220413
  18.3717394  84.2879677  10.5986539  18.4056509  85.2367496  10.7207433
  17.7603209  83.9819813  11.2685529   6.3024420  98.0812263   2.6448575
   5.4054505  97.7705669   2.5218812   6.4124352  98.1256199   3.5946790
  40.7312059  79.2712307 105.8227062  39.8442507  79.3010807 105.4640198
  41.1877441  79.9946070 105.3931332  20.5117655  49.1086340  21.1835328
  21.4605999  49.2328882  21.1609689  20.3005075  48.7224007  20.3335801
   6.0356367  91.6287708  17.0011083   6.6237032  90.9014893  17.2047845
   6.0452169  91.6841507  16.0455648  48.1091261 127.3252296  94.6981525
  48.8590908 127.1469498  94.1306973  47.5674534 127.9333973  94.1952038
  47.0034742  63.7576246  79.0487480  47.1594381  62.9332924  78.5878992
  47.0529938  63.5265446  79.9763155  29.8297095  92.0901203  80.6843948
  28.9490366  92.0747852  80.3096867  29.7000313  92.3736382  81.5894032
  50.2732086  93.2845211  84.4598866  50.6086254  94.1714764  84.5904064
  49.3327999  93.4015083  84.3250656  30.4329062  67.5748062   6.9191781
  29.5959568  67.5603580   7.3834363  30.3633070  68.3205128   6.3230935
  44.8244476  99.5348644 103.1218433  45.5970860  99.9668407 103.4860611
  44.1761351 100.2341175 103.0383492  59.3797207  75.4535341  76.2246227
  59.6469164  75.5234575  77.1411085  58.6491823  74.8351097  76.2346315
  78.1329107  61.1879730  97.2966194  77.8135777  61.0514021  98.1885910
  77.4250269  60.8682919  96.7372131  36.2574387 115.5957031  92.7936840
  36.0669470 116.2719727  92.1436024  36.0415792 116.0025120  93.6328125
 122.4558531  96.4108753  76.3846207 121.9134257  96.2326145  75.6163597
 122.6083422  97.3554230  76.3562059  67.2344542 101.3629913  73.8872147
  66.6303062 101.0123825  73.2327557  66.8615866 102.2112656  74.1272831
  59.2589283  83.2695293  71.4650774  58.7702513  82.5991440  70.9875631
  59.8834658  82.7769566  71.9975805  12.8325999 105.5762386  56.4324999
  12.5467110 105.9258175  57.2764730  13.7605274 105.8052826  56.3803148
  51.0945415 130.0512218  51.5690899  50.8366156 130.5853653  50.8178329
  50.2716589 129.6934319  51.9023895  59.4806290 120.9890461  61.0844135
  59.5181894 120.8056450  62.0231295  60.3758097 121.2364101  60.8526993
 117.2032595  75.7420969 101.6996384 117.3094142  75.2757692 100.8704853
 117.7636982  75.2684355 102.3142815  37.5965834  66.2691975  62.4014330
  37.7601433  67.1359491  62.0296574  37.2456574  66.4453506  63.2743883
  28.3665967  83.5363483  63.0887890  27.7122045  82.8613567  62.9088402
  28.5315013  83.9429283  62.2380590  51.1620235  75.1045513  42.9417554
  51.5948009  75.9582710  42.9317132  50.5109024  75.1578522  42.2421590
  36.7266226  70.0942707  87.9530144  36.0727692  70.2811670  88.6266422
  36.2155437  69.8076725  87.1961117  66.5556479 104.4491768  74.5046568
  67.4872494 104.2468739  74.4184637  66.2826109 104.7009850  73.6224604
  48.3146334  57.2526789  80.5399895  47.5146484  57.4980927  80.0752068
  48.5645533  56.4110231  80.1586914  33.5204172 106.3287926  94.7275543
  34.3926239 106.1941242  95.0981712  32.9743600 106.5613079  95.4785442
  45.0792742  99.1747189  80.6900692  45.7804966  98.7564468  81.1896324
  44.4820547  98.4595871  80.4706669  62.6219606  70.3021860  80.3675270
  61.6658115  70.2601767  80.3517818  62.8670120  69.8746729  81.1881447
  60.6814194  83.7416744  93.9743328  61.0023022  82.8563118  93.8028908
  59.7817183  83.6161327  94.2759991  30.8348012  75.6601000  58.3060789
  30.5717421  75.4455996  57.4110842  31.7805934  75.7969427  58.2514524
  40.0133514  96.6681671  41.1147538  40.0332546  97.1333027  40.2784005
  40.4728842  95.8463001  40.9427396  21.0254622  61.2401676  98.4682941
  20.7692027  60.3854418  98.8147259  20.3660893  61.4363194  97.8027248
  43.6976624  62.7690744  62.7324581  44.3276644  63.3447504  62.2989559
  43.7849903  61.9319582  62.2765589  48.6950016 102.9328346  93.5949135
  48.1471205 102.8107738  92.8195667  48.1369734 102.6688957  94.3264675
  37.2587824  89.2233753  93.0046463  37.0270872  89.8822308  93.6592197
  38.2147622  89.2510033  92.9649734  14.2131591  92.2345448  78.6569786
  13.7904775  92.7041435  77.9379177  14.7734118  92.8891277  79.0739632
  63.2862425  91.1527824  75.9362221  63.4380627  91.0330963  74.9987459
  63.7249517  90.4077435  76.3469362  64.0058661  81.6701508  67.4435759
  63.3724403  80.9560966  67.5151825  63.5607004  82.4247837  67.8290415
  24.0166640  86.3507366  70.7747507  23.2464147  85.8444309  70.5166864
  24.6826792  86.1205196  70.1269484   0.2594740  93.1271553 103.0446339
   0.9957799  93.7140942 102.8726006   0.0438331  92.7562618 102.1889687
 120.0426350  81.6438961   0.3359166 120.0957245  81.0910606  -0.4436835
 119.8094947  81.0408401   1.0417501  56.6571665  93.7484455  68.6421633
  56.5119267  94.4756794  69.2473650  56.4176655  94.0992260  67.7843618
  41.3857841  62.4328852  64.4583464  40.9265900  62.0162106  63.7291336
  42.2897339  62.5175571  64.1551304  54.5278454 136.2353897  82.7274323
  54.5297194 136.0313320  83.6626244  55.1163912 136.9857311  82.6448250
  53.6415672  70.1049566  91.3652134  52.8031540  70.4145622  91.7079163
  54.2802715  70.7438374  91.6816330  45.4481792  69.5175695 100.3606415
  45.6317902  70.0524187 101.1329460  45.8032274  68.6552763 100.5765438
  29.4431949 122.5885582 108.3489895  29.0403271 123.4560680 108.3857727
  30.3843617 122.7599812 108.3814144  55.2081966  52.5599527  99.2605019
  55.1341677  53.3780098  99.7519684  56.0285139  52.1713877  99.5643616
  40.9770489  83.9552498  55.6441927  40.4086351  83.4425640  56.2189007
  41.8404007  83.5532951  55.7405901  22.5732970  67.7847576 108.7279224
  23.1611323  68.4482527 108.3667374  22.5684261  67.0868969 108.0727959
  53.5559845  70.4949045  55.4643011  52.9057264  70.8255434  56.0840321
  53.2957745  69.5875549  55.3054285  51.0100651 100.2941990  55.5640841
  51.2160349  99.8402977  54.7469044  51.6410446  99.9487495  56.1955595
  54.1237497 110.8179760  87.7564335  54.2698288 111.5167046  87.1187210
  53.5634232 111.2153816  88.4230232  40.4212761  77.1543455  84.0598965
  40.8790445  77.6038694  84.7702503  40.3204823  76.2548542  84.3713284
  71.3286400  98.4495926  86.7697716  70.7686710  97.9740810  86.1561298
  72.2101402  98.1205273  86.5939617  52.2687149  76.7769051  82.3885822
  52.2276497  77.7305937  82.4594784  53.0759144  76.6073847  81.9028568
  53.0519390  66.5414429  73.0613899  52.6265860  66.6037893  73.9166212
  53.1863356  65.6030798  72.9285717 103.1694984  72.0411348  79.4151449
 103.9749908  71.7046452  79.0224838 102.7280807  71.2645149  79.7590160
  54.6537685  53.3551407  80.6116295  53.8615274  52.9744864  80.9906960
  54.6211433  54.2776251  80.8649826  71.6310644  78.0078602  99.4744492
  71.3128233  78.3108759  98.6240768  72.2641897  77.3219013  99.2626858
 122.0320085  82.6655006  65.9739494 121.4332900  82.3806477  65.2835703
 122.5746105  81.8974113  66.1523962  71.7267036  88.8448715  81.5318680
  72.4282742  88.2340622  81.7575741  71.4614820  89.2250443  82.3693371
  67.4213171  78.4952879  63.1865740  66.8224144  79.1830969  62.8959417
  67.0308304  78.1636095  63.9951181  90.2486610  66.5202713  90.2382851
  90.7632351  67.2965240  90.0172043  89.3427467  66.8291187  90.2511215
  36.3921452 101.5942669  83.9251614  36.5636039 100.8503532  84.5026016
  35.6379414 101.3226032  83.4020901  51.0763359  64.4888878  90.9026146
  50.1603317  64.6918201  91.0923100  51.3089895  65.0792217  90.1859474
  59.6991968  61.4031982  79.7280931  60.2419853  62.1497536  79.9815989
  58.9275646  61.4659739  80.2910137  19.5733833  65.7845068  99.3927860
  20.1084304  65.0341463  99.1341114  20.0059676  66.5373707  98.9899254
  65.7902050  83.4370995  77.2056723  66.6062975  83.1710148  77.6292610
  65.7806873  82.9540634  76.3793421  41.7224312 111.9586849  83.4126568
  42.0875597 111.3658810  84.0695477  42.3063517 112.7170753  83.4234715
  28.0091119  41.3299084  95.7004833  28.6256385  41.6401815  95.0372696
  27.5831938  40.5738401  95.2965164  31.7730141  53.3187819 102.1495724
  31.7882085  54.0824080 102.7265263  31.7256498  53.6863089 101.2670135
  39.0963173 117.4254322  79.0010071  39.3859625 116.5481186  78.7506771
  38.4798384 117.2785282  79.7183704  40.6385612  78.4955406  73.9844704
  40.2840519  79.3191671  74.3194199  41.5150499  78.7211704  73.6728668
  81.7894459  93.8741779 100.9541607  82.1629715  93.4462261 101.7245865
  82.5365734  94.0150547 100.3726101  56.7826366  55.8483362  96.8524837
  55.9683990  55.7531357  96.3583279  56.7896080  56.7648888  97.1283627
  25.0120139 102.4407864  96.0925579  25.3140163 102.4583435  97.0006943
  24.1495728 102.8551865  96.1188984  53.8565874  63.6831141  73.1916761
  53.2887554  63.1153393  73.7126684  54.4653177  63.0829382  72.7610159
  35.8851194 119.0390682  64.7433949  35.1097417 118.4885311  64.6341753
  36.6225052 118.4428120  64.6131086  46.4077091  86.6925716  73.6580133
  46.9247341  86.9672966  72.9007483  46.7201614  85.8092022  73.8536167
  26.2230325  72.7383232  62.8226280  25.5205154  72.4686241  62.2310495
  27.0047498  72.3057604  62.4790621  22.4439812  91.8487358  69.3667126
  21.6657114  92.3468590  69.6165133  23.1355715  92.1824455  69.9381781
  58.6357689  85.7076931  70.0871754  58.8695621  84.7998142  70.2803564
  57.6789045  85.7186699  70.1099682  47.5019884  71.8583965  88.3119106
  48.0752277  72.5021839  87.8957748  48.0996752  71.2587452  88.7584782
  55.5486584  77.3161888  88.9342976  55.6218100  78.2199621  88.6275768
  55.6997681  77.3705435  89.8779297  59.1081715  65.3477240  18.5639802
  59.8745871  65.0717354  19.0666429  59.3141794  66.2393713  18.2833425
  52.7456236  82.1592331  85.2757931  53.6062670  82.4555588  84.9796104
  52.5695753  82.6800537  86.0593605  27.0583034  69.1738701  86.1680222
  27.0303631  69.1241407  85.2125263  26.8422508  68.2883835  86.4603615
  32.8592038 125.8306313  88.4120369  32.6728415 124.9595070  88.0618382
  32.0146179 126.2808037  88.3963394  44.2263508  95.7418156  83.6878681
  44.5139360  94.9376869  84.1201878  44.8218775  96.4159107  84.0152454
  32.8897119  73.6266232  85.5460167  33.0583811  72.9530001  84.8872185
  33.5455441  74.3016911  85.3716660  41.3323879 103.3237553  70.8790874
  40.6566381 102.6647282  70.7200718  41.7206955 103.0713463  71.7167807
  41.9819164  64.1685629  87.9355812  41.1529350  64.3533039  87.4941158
  42.4927568  63.6791182  87.2908211  73.9831209  95.8016682  70.3032923
  73.3770657  95.0801468  70.1350069  74.5735550  95.7991982  69.5498943
  47.8121185  84.2919731  41.6644859  47.0364332  83.8068104  41.9458389
  48.3836699  84.2959785  42.4323034  65.6314611  72.3207045  69.6829367
  65.8334875  71.5272188  70.1787138  65.8241892  72.0907688  68.7739706
  53.2728577  95.8081532  38.7000561  53.9044714  95.3423595  38.1520343
  52.4354410  95.6933022  38.2508707  70.3538084  99.2828846  89.4524288
  69.8890114  98.5754395  89.8993301  70.6068897  98.9078236  88.6089230
  32.8990698 104.8239613  85.0086689  33.0458641 104.0136242  85.4965591
  33.6450768 105.3789425  85.2360725  18.9661014  89.3333149  98.5533237
  18.3201599  89.2236805  97.8554916  19.3594098  88.4664726  98.6539745
  51.7582846 111.6857910  66.3608932  52.6598454 111.9419289  66.1664391
  51.3319111 112.4983215  66.6333389  33.6528015 125.0724888   5.2337972
  33.6963391 125.4107475   6.1281816  32.8704524 124.5210648   5.2240983
  46.3252401  85.1101112  66.8432379  46.9807291  85.2892494  66.1690950
  46.6499758  84.3292236  67.2915602  60.6041670  82.9767323  67.7083015
  60.1962662  82.4782944  67.0001984  60.3237057  83.8795185  67.5581503
  55.8811331  93.4226608  79.4329023  55.4925203  93.2528687  80.2910328
  56.2194872  92.5728512  79.1508150  30.4392600  96.7947197   4.0154210
  29.7594976  97.2972202   3.5663644  31.2615705  97.1767330   3.7086622
  50.6468058  82.6207161  78.7580872  49.9563074  82.3623276  78.1476164
  50.6325054  83.5777092  78.7447548  41.5990686 136.0252571  62.9601812
  41.7135525 135.3221321  63.5995102  40.8770609 135.7295513  62.4056578
  21.5235686  76.0122633  84.6098042  20.6626296  76.4272499  84.5568562
  22.1423459  76.7211246  84.4341183  52.1198273  97.2438622  78.0581045
  52.3491526  96.5364075  78.6607218  51.2321377  97.4964237  78.3119726
  57.7352095  90.3184509  92.0520115  56.8083096  90.5566597  92.0705700
  57.7370691  89.3615150  92.0742512  32.7630925 107.3154259  83.3898067
  31.9485903 107.3821831  83.8881683  32.5194311 106.8407249  82.5951290
   5.0415438 109.3020821  63.8626623   4.3922701 109.8433113  64.3118286
   5.8158267 109.3414402  64.4240618  69.7549438  55.2013636  97.6181126
  69.7778511  55.7282877  96.8193340  70.6588554  54.9106979  97.7393055
  13.8024879 112.7507591  66.3241863  13.5061979 111.8408012  66.3444901
  14.5506096 112.7724266  66.9209051  28.2772660 105.7050037  10.4472200
  29.2322803 105.6413555  10.4584733  27.9757214 104.8103714  10.6051198
  55.9443617 104.1205788  48.1869268  55.7291126 103.2125378  48.3998966
  56.5948200 104.0548897  47.4877691  47.3063755  90.2708435  50.7670021
  47.4156427  91.0961437  51.2394047  47.6484919  90.4491806  49.8909998
  33.3985209  99.9188805  98.4436989  33.2582879  99.7760773  97.5076580
  33.9172769 100.7220745  98.4883690  46.1300373  79.7492886  86.3889790
  45.6023264  80.3917885  85.9146881  46.8753242  80.2497673  86.7210960
  59.3957901 105.1241016  85.3135395  58.8631105 104.3356228  85.4174232
  59.9821234 104.9226665  84.5842457  16.1115825  86.5115070  70.6309557
  16.9261634  86.9156551  70.3320265  16.2846553  85.5706787  70.5975437
  33.2113814 118.0116844   3.9631311  33.7136722 117.4713421   4.5730153
  32.4182320 117.5042629   3.7908784  57.8717279  68.3629370  90.5163574
  57.1480179  68.7087488  89.9939728  57.4942350  67.6190329  90.9857559
  38.1830716  70.4330921  68.7269783  38.3904886  70.5407572  67.7987480
  37.3146629  70.8235359  68.8252068  27.5804853  95.7565308  73.5939980
  27.5440598  96.6144848  74.0168715  27.4739885  95.9444141  72.6614809
   6.4168978  72.1297216  82.8926849   5.5196118  71.8313169  82.7441502
   6.3649070  73.0836868  82.8337097  59.6595621  97.1770477  74.3569422
  60.3855705  96.5534306  74.3412733  59.5459366  97.3891163  75.2834082
  40.5022860  89.5947838  64.0952015  40.7340002  88.7555313  63.6974716
  39.7556067  89.3943405  64.6595812  29.9599600  89.2577267  93.8079929
  30.7372904  89.4624043  94.3276978  30.1428437  88.3964443  93.4325218
  44.1609049  51.2289858  82.9922485  44.8493052  51.0557985  82.3501015
  43.9435625  52.1527481  82.8671360  40.9343004 110.9344959 106.4139080
  40.4695034 110.2285290 106.8631363  41.6400480 111.1762428 107.0136738
  44.6776247 104.5062256 100.3236198  44.0855455 104.6986580 101.0506916
  45.4031134 104.0283680 100.7255554  49.2885113  88.1031895  85.4565525
  49.6519423  88.8499165  84.9805737  49.2551613  87.3993969  84.8086357
  31.7767692 100.1474857  77.2194099  31.7699718 100.5287075  76.3414288
  31.8739438  99.2068195  77.0713472  12.1537411  78.2795143  67.6508522
  12.9252136  78.4313011  67.1049404  11.4453661  78.1233120  67.0263243
  38.2469153  64.5348215  66.9881153  38.7232971  64.0144730  67.6350498
  38.5357666  65.4339457  67.1442270  64.2642164  67.3716450  80.4069614
  64.1587019  67.6860809  81.3048553  64.5796156  68.1340599  79.9216986
  50.6668377  75.2903271  70.7017612  50.6885862  74.3791246  70.4094172
  51.3833666  75.3565168  71.3329792  81.8611908  72.6687670   4.4263593
  82.0226097  73.0714226   5.2796212  81.5011311  71.8062353   4.6328298
  34.5649028  71.9858789  46.5437174  35.0357556  71.1544657  46.4864063
  33.9964056  71.9927502  45.7736540  24.4650698  84.6799088 101.4698124
  24.9110746  84.6864605 102.3167229  25.1627111  84.8246002 100.8305931
  39.6771455  64.7662973  72.4636745  39.0065646  64.0914154  72.5689697
  40.2394199  64.4378519  71.7621040  23.6031389  90.4524517  57.0714378
  24.4881773  90.0923061  57.0146418  23.0367041  89.6847820  57.1492863
  69.8923302  70.1230335  79.1442585  69.6536875  69.4781017  78.4784126
  69.1104317  70.2039385  79.6904421  43.6124563  97.7554798  75.1201248
  44.0138817  96.9975471  74.6951342  44.3453121  98.3433247  75.3034258
  18.9344847  68.3680010  59.7566462  19.0118146  69.2451334  59.3812895
  17.9918921  68.2055998  59.7937346  41.5451288  86.4154148  52.3056269
  41.0599709  86.9891071  51.7125559  42.3134661  86.1455250  51.8025923
  64.4775486 103.1466389  70.4351711  64.9588728 103.1300449  69.6079540
  63.6451721 102.7177429  70.2365923  57.3237562  74.6999121  79.4856119
  57.8645658  75.4896545  79.4781971  57.4830723  74.2925215  78.6342096
  13.8943648  76.1246872  92.5754452  14.5753837  76.5246534  93.1162548
  13.3862805  75.5907726  93.1861973  72.7090931  52.8738594 102.0258617
  72.9056692  52.3994970 101.2180424  72.8550005  53.7937307 101.8050098
   4.9237522  91.0588264  71.6599131   5.4464591  90.3578854  72.0493841
   4.3109757  90.6066990  71.0799789 115.3623683  80.5357170  87.1557140
 115.2572638  80.0543785  87.9763794 116.2683738  80.3699207  86.8951416
  53.0718851  86.6332817  79.6529818  53.6552954  85.8748055  79.6772623
  53.6224651  87.3677349  79.9244022  67.3466110 116.7134380  69.4830561
  68.0330276 116.6554165  68.8184547  67.5187159 117.5402641  69.9335814
  54.0807724  89.1208744  80.2554417  54.7828865  89.4782734  80.7990742
  53.4724951  89.8507881  80.1394653  47.1473980  95.1970196  95.9479237
  46.2253094  94.9600506  96.0470676  47.3689365  95.6442070  96.7647362
  19.2813218  90.1418877  62.1408844  18.5858345  89.4844246  62.1574497
  18.9465070  90.8583641  62.6801443  33.3092904  90.0809574  76.1246347
  32.5706530  89.5917416  76.4870167  33.8146949  89.4279194  75.6405544
  30.1921749  74.1446066  19.2759172  29.2590308  73.9334869  19.2458669
  30.2745891  74.9409485  18.7512437  35.5144286 112.1171379  70.9876633
  34.6133423 112.1532822  70.6667757  35.7263923 113.0239391  71.2090492
  55.5460548  65.1958084  98.7147331  56.1933279  64.6067142  99.1023445
  56.0663843  65.8850336  98.3018589  34.0303612  76.4508724  93.5760403
  34.1179895  77.2741938  93.0957317  34.5033669  76.5997171  94.3947887
  19.3373394  97.2982502  83.8058567  18.5340357  97.4063110  84.3150234
  19.2126966  96.4750099  83.3336639  35.5553603  78.0935144  11.4445154
  34.7697973  78.5407829  11.1297551  35.7703090  78.5362196  12.2655145
  34.6932173 133.3797264  55.9715700  34.3849683 133.8313961  56.7572021
  35.2294254 132.6598644  56.3039970  13.0513942  95.0848961  60.8082962
  12.8628242  95.2776432  61.7267275  13.6582696  95.7742405  60.5386019
  69.2989302  92.2010422  80.8310223  69.0490532  92.8891182  80.2143002
  70.2363729  92.0759773  80.6834030  89.3520737 105.0310040  86.5526390
  88.9689541 105.4495621  85.7817554  90.1135159 104.5590973  86.2153912
  22.2944164  99.3851948 105.3059769  21.5348744  99.5153427 105.8737755
  22.2170854  98.4793854 105.0063801  30.2085042  76.3972521 100.3393555
  31.0730124  76.0228920 100.5087948  30.3870511  77.2944546 100.0576019
  51.2062645  77.4285412  89.7433376  50.7658195  77.9339743  89.0601254
  51.8837881  76.9373035  89.2787075  76.3056660 111.3594055  81.3586807
  75.7279873 111.3214684  82.1209621  77.0234442 110.7632256  81.5721989
  55.2605104  86.4628696  93.8422108  54.3511009  86.3488770  93.5661507
  55.2197695  87.1227264  94.5344257  41.1998796  99.7328472  91.6407299
  40.7736111  99.4799423  90.8218479  40.4834843  99.8044014  92.2715187
  18.1837547  85.9117794  79.3486786  17.9667473  85.8536720  80.2791405
  17.8035343  85.1218987  78.9642859   7.9484230  71.8459177  67.9617882
   8.4965676  71.0915422  68.1778574   8.5592896  72.5816536  67.9197550
  34.8556185  77.6969767  55.8483839  34.8927569  77.1356630  55.0739336
  35.6706619  78.1981230  55.8202744  29.6791530  58.2561350   8.2549707
  29.7384787  58.9894056   8.8673631  30.4938507  57.7703285   8.3833734
  36.9381070  93.0526447   9.2081300  36.0432267  93.1795788   8.8929979
  37.2407079  93.9329910   9.4309560  22.9753065  84.5177841  86.5211391
  23.8087177  84.5196438  86.0503387  22.3130822  84.6102238  85.8361912
  41.7323637  86.2840652  64.4560862  42.0537567  86.9512939  63.8496685
  40.8241415  86.1376095  64.1916609  53.2569933  77.0376587  74.8899603
  52.5888538  76.3968897  75.1333618  53.1645536  77.7374268  75.5364990
  13.9471519  99.1117668  73.8221979  14.7786117  99.2884636  74.2622948
  14.1839409  98.5638809  73.0738831  22.5344038  77.9818201  78.5277176
  22.5897384  78.0836582  77.5775576  21.6032577  77.8418446  78.6997747
  48.6726236  76.7555094  75.3606749  48.1196880  76.5597630  74.6042538
  48.1562662  77.3700237  75.8821917  64.5855331  83.9451885  84.1864014
  64.9481153  84.3403053  84.9792862  64.2263174  83.1075573  84.4789314
  37.8497958  55.9591198  14.2791883  37.0306206  56.4504147  14.2173902
  38.5155320  56.6244364  14.4534818  31.1420536 103.0507088 108.0664158
  31.2859988 103.2699776 108.9869785  30.8145714 102.1514225 108.0827808
  60.9690189  86.9585323 107.4822712  60.7906008  87.6157379 106.8096066
  61.9065142  87.0423698 107.6563454  49.6986818 104.7803593  91.6304684
  49.7869349 104.1741371  90.8949852  49.5302963 104.2173481  92.3860359
  64.4311714 115.3219700  71.8301916  64.4221544 115.7763386  70.9877539
  65.3588963 115.2546597  72.0560884  32.4575663 100.4219532  66.3234997
  33.3771682 100.5192852  66.5706682  32.1145821 101.3155842  66.3201332
  47.3060513  64.0093851  63.2295513  48.1259680  63.5392523  63.3810139
  46.9252110  63.5851288  62.4606562  10.7234776  99.7386837  85.0806046
  10.0897622  99.1287041  85.4581738  11.4495158  99.1838360  84.7955894
  56.5819120  80.1285839  93.7477779  56.4752865  80.9565449  94.2161274
  56.3108349  79.4605827  94.3774700  40.6331635  61.0328436  72.3832083
  40.3755331  61.9544840  72.4041033  40.4497433  60.7531548  71.4863443
  56.0055590 105.8173561 102.6677227  55.4606199 105.5684566 101.9211769
  56.2087202 106.7407894 102.5186348  26.0856533  94.9876404  61.0085249
  26.9419622  94.5933628  61.1743927  25.5372453  94.6820259  61.7310762
   1.5033160  79.1930580  54.2850637   0.5921479  78.9417171  54.1339588
   1.4517319  80.0837517  54.6318150  41.2340498  79.2361593 101.1532402
  42.1008921  79.2211199 101.5589428  40.8408928  80.0537682 101.4584923
  50.1766348  69.6463537  85.3604698  50.5883837  68.9909267  85.9235859
  49.2412519  69.4485569  85.4070663  71.1155319  52.6979733  78.7887239
  71.5490532  53.5461807  78.8827372  71.8272543  52.0839500  78.6080170
  72.1507502 123.3473492 107.1923542  72.2066879 123.1963158 108.1359100
  72.4658632 124.2434311 107.0741367  20.9946346 101.7037296  73.2946444
  20.2422810 101.3280392  73.7518644  20.6116557 102.3141193  72.6645851
  26.2301326  87.9514503  90.5269337  25.8172393  88.0840588  89.6736050
  25.4989791  87.7998257  91.1258125  11.7869496 111.7268467  89.2576885
  12.0434797 111.3771915  88.4043598  11.1628389 111.0873127  89.6007824
  60.8006525  86.4825726   1.3290635  60.6542540  85.9067059   2.0795194
  60.2592325  86.1108398   0.6327001  63.6639071  91.3419151  94.4142914
  63.2377148  92.1943951  94.5029926  64.2320156  91.4365673  93.6497402
  55.5062962  78.1077671  31.7692566  55.8888626  77.7592897  30.9640002
  54.6043062  77.7874327  31.7640638  77.6687956  60.9032202  17.3109380
  77.2310734  61.2660980  18.0809728  78.5123396  60.5920744  17.6393453
  31.0008645  86.0582829  79.3193197  30.0617790  86.0965824  79.1379786
  31.3349891  85.3967285  78.7135601  40.3593254  79.7485161  91.6797543
  40.0569105  80.2809143  90.9440041  40.2461052  80.3116989  92.4454212
  40.0977945  30.8768773  89.6920872  40.3723860  31.2298012  88.8457584
  40.6990337  31.2726068  90.3230667  41.8898439  90.2696037  11.6083471
  42.1985865  89.4904327  12.0707361  42.4352264  90.3138733  10.8229677
  51.8815470  58.2218456  79.8133326  52.6079273  57.7970219  80.2695465
  51.1602116  58.2035589  80.4422760  34.4530511  81.5357685  99.3400764
  34.0097523  81.9109631 100.1009655  33.9381480  80.7589245  99.1218472
 118.8935561 129.3413258   0.7619993 118.0264271 129.0776253   0.4541341
 119.5026148 128.8305855   0.2286855  19.8551404  90.3065872  76.2384892
  20.4419208  89.5674992  76.3986921  19.2985559  90.0181103  75.5151463
  26.6774631  62.8046989  64.3133593  27.0410705  61.9296360  64.1781473
  25.8891344  62.6583433  64.8361826  49.9643183  80.4663944  29.1505075
  50.5061769  80.9792042  28.5508060  50.3532124  80.6161404  30.0122333
  20.1573801 136.8898392  65.9814310  20.5147862 136.1089802  66.4042234
  20.5237579 136.8724251  65.0972986  47.8374434  81.7982388 104.2798519
  47.8485632  82.6408672 103.8258934  47.9132652  82.0245552 105.2068138
  84.0392876 104.9732780  72.4637318  84.4886780 104.5883560  73.2161331
  84.7346783 105.1340008  71.8259048  48.6865425  85.9177494  83.4430981
  49.4331169  85.4032135  83.1363201  48.1104898  85.9816647  82.6813126
  55.3645802  73.6403036  60.0480556  55.8678341  73.4275913  60.8340120
  55.9624338  73.4558678  59.3236351  38.5459638  77.6401472  71.9853115
  39.4990063  77.7116442  72.0384932  38.3822870  77.2560310  71.1239767
  20.2456307 114.6051407  91.9672394  20.0515890 115.0755882  92.7779484
  19.5978785 113.9010143  91.9380093  70.7423401  75.5718279  56.5913630
  70.3256845  76.0495615  57.3085833  71.4758921  75.1145172  57.0024681
  20.2949715 116.3158512  22.2862601  20.1712418 115.4447079  21.9093704
  21.0062528 116.6998196  21.7735457  24.0738177  74.0593433  77.2645044
  23.3913279  74.1380882  76.5979910  24.3374968  73.1398296  77.2298384
  48.9904070 111.7228127  31.2712932  48.9710140 110.7658768  31.2822437
  49.8692751 111.9410229  30.9611201  16.3922310  39.6135926  96.1603642
  15.4356802  39.5783973  96.1583710  16.6497183  39.1753674  95.3492641
  49.2524958  68.5641813  19.7513914  48.3462477  68.2779646  19.8655200
  49.5929956  68.0077505  19.0509081  30.1563644  73.3173943  81.0769653
  29.8898864  73.7073183  81.9095421  30.9632921  72.8447628  81.2812233
  18.9443052  88.1584644  74.5305538  19.3438685  87.4291897  74.0564871
  18.4907568  87.7463436  75.2658653  67.2084045 115.1795292  71.7812729
  68.1624746 115.2303505  71.7229605  66.8957090 115.6573391  71.0130596
  36.2847781 120.5684566  88.6596203  36.5107012 121.3174915  88.1081295
  36.1585069 119.8468494  88.0435181  22.5855327  60.2132654  51.1334610
  23.2293463  59.6672201  50.6822729  22.7128887  61.0875654  50.7652044
  57.2807980  78.6047077  72.1097422  57.8194380  78.4362793  72.8828716
  56.7871428  77.7948380  71.9807053  59.4718981  46.0307741   2.4364988
  59.6599674  46.2171888   3.3563367  59.6288443  46.8611050   1.9868890
  82.7081108  65.3749132  84.4567013  82.8363514  65.4798746  85.3994465
  81.7872143  65.1300287  84.3660545  34.4933391  84.2142773  78.0650377
  33.5649657  84.1247940  77.8497505  34.4999337  84.5696068  78.9538145
  39.2957330  68.5264587  74.8204041  39.5123672  68.0150890  75.6000185
  38.5235691  68.0931902  74.4567060  30.0650287 100.4605007  86.9045067
  30.1255989 100.6907463  85.9773827  30.4932904  99.6067905  86.9677448
  10.1353323  57.5924587   9.7631419  10.1794600  57.8047085  10.6954694
  10.2301192  58.4359741   9.3207240  16.0209584 110.1619530  49.5851994
  15.8466470 109.6402359  48.8018417  15.2286851 110.0711632  50.1146221
  69.9158478 111.1579704  45.2587366  70.0028992 111.6865349  46.0520029
  70.3885794 110.3495026  45.4565430  22.8952861  55.5114365  38.7920570
  22.6577878  56.1217451  38.0939531  23.7720776  55.7851171  39.0614367
  46.1475229  74.8963594  57.0227098  45.6628466  74.1876698  56.5995312
  45.5035400  75.3225565  57.5882864  67.9923964 133.3137989  18.7777543
  67.8118610 133.3370876  19.7174859  67.5682688 132.5119495  18.4721768
  59.4947767 115.3291607  75.0316715  60.1858091 115.3833771  75.6917953
  59.2595291 114.4016457  75.0068188  64.8923397  99.2672443  83.3528233
  65.7085323  98.7858677  83.4882545  64.2309952  98.5867882  83.2270145
  45.7048178  94.6140957  81.4368725  45.5549526  95.1318645  80.6458664
  45.5906630  95.2360725  82.1554470   6.9512618  62.0977449  57.3849106
   7.2298574  62.0889902  56.4691925   6.3796407  62.8624010  57.4540520
  50.0179911  53.5031748 106.4162731  50.8430529  53.0553675 106.6032791
  49.3575811  52.9950953 106.8873882  26.8651485  60.3897810  69.4207048
  26.3148904  60.0773859  70.1389360  27.7066541  59.9543858  69.5568275
  43.3644247 111.7674160 103.0049896  43.9798498 112.0874691 103.6645699
  43.0539894 110.9313869 103.3527279   7.7136272  67.7886057  82.4300385
   8.6256605  67.5126314  82.5209332   7.6631486  68.6122704  82.9150772
  37.9434848  90.8479691  78.6172104  37.4079847  90.8968258  79.4090986
  37.3370528  91.0512638  77.9050684  65.9386539  74.2776918  81.5163708
  66.3714218  74.7150421  82.2496319  65.0075054  74.3060398  81.7363644
  76.4788723 101.6244316  84.6938324  76.2422085 102.3754883  85.2380180
  77.3709583 101.8118763  84.4017982   6.9310421  78.2748365  60.2569342
   6.6403669  79.1767693  60.3920555   7.4315041  78.0638552  61.0451365
  44.1753912 109.6648979  59.6757746  44.8894405 109.6711540  60.3132105
  44.4447279 110.2958107  59.0082121  58.0328751  81.8802834 109.5161343
  57.2485352  81.9889259 110.0539398  57.9351568  82.5265121 108.8167953
  16.7904937  80.3459072  49.5046425  16.2763464  81.0433006  49.9114895
  17.5211036  80.8004379  49.0853071  38.7888885 107.3300457  60.5147266
  38.6234188 106.8547344  61.3289309  38.0780816 107.0621395  59.9323034
  39.6092081  62.7461433  68.5808706  40.1973295  62.3283815  67.9517269
  40.1626253  62.9314137  69.3395758  41.8264532  84.8152065  28.4023213
  41.2906933  84.4844913  27.6813364  41.6543007  85.7566929  28.4163690
  51.0762739  79.6020174  34.3927121  51.7698669  78.9609575  34.5482850
  51.1331654  79.7940493  33.4566975  39.2168331 119.6013451  75.8450031
  38.4390354 119.7618294  75.3106737  38.9641428 119.8793602  76.7253971
  46.5221167 112.7711582  76.1199903  45.5889130 112.9458904  75.9982061
  46.9313908 113.6363602  76.1077070  59.5514774  86.4863110  73.0934715
  60.2463818  86.0438442  73.5808706  59.1418314  85.7922459  72.5770521
  27.5529909  97.6381874  56.6705179  28.2486415  98.1550980  56.2641859
  26.7439985  98.0782509  56.4095402  42.4353695  80.8232689  59.7696781
  42.7775049  80.1463795  60.3536272  42.3096561  80.3763103  58.9326286
  50.5495548  89.4613075  91.5410709  49.9848080  89.8618126  90.8800888
  49.9964237  88.8029671  91.9616127  46.0470915 116.4859486  59.5235777
  46.5324116 116.4497852  58.6993265  45.7983208 115.5776882  59.6950960
  60.3862286  84.5412636  36.2072492  60.8524847  83.7067986  36.2572646
  59.4625711  84.3050289  36.2925601  53.0336094  77.3895168  57.0403957
  52.9630804  77.2894907  57.9897404  53.6072588  76.6740179  56.7661333
   4.8232689  85.9160805  64.8108721   4.1973865  85.9765244  65.5325699
   5.5723840  85.4498291  65.1819086  26.5984368  71.9958401  42.2171545
  25.8901215  71.4926338  41.8155289  27.0581317  71.3635254  42.7695084
  47.2104263  68.7757826  88.1744576  47.1325779  68.6079454  87.2353077
  48.0761480  69.1712904  88.2761288  57.7758646  77.9887342  98.8321590
  57.4130249  78.5046196  99.5521832  58.6951256  78.2519388  98.7884045
  47.9552841 101.2325573  43.5592699  47.0946693 100.9936237  43.9034843
  48.1592369 100.5446720  42.9256678  30.0054526  45.9711885   0.4834119
  29.0897870  45.7021999   0.5571119  30.3568745  45.8695841   1.3679448
  22.8879595  49.2533731  70.9187794  22.7353120  48.5595608  71.5603018
  22.8079772  48.8171005  70.0705433  24.0802217  79.2160988  64.7395754
  23.2218218  79.6367311  64.7890282  23.9287305  78.4222078  64.2267179
  68.4341812 109.0671635  71.5937233  68.2004595 109.9742603  71.7906475
  68.8535881 109.1090584  70.7343197  50.6424332  43.4498119   7.9391996
  50.5662632  43.0679893   7.0647565  50.9459686  44.3443060   7.7843610
  57.7250338  73.4380960  72.7298450  57.8755999  72.4999142  72.8454876
  58.5861588  73.7935591  72.5099611  50.0632906  59.3034649 101.1722851
  49.2733335  59.6900034 100.7944202  50.0681829  59.6075821 102.0798779
  45.9307623  90.4844952  75.9573698  45.1352882  90.5691433  75.4317427
  46.6310596  90.3689957  75.3151226  35.5667233  59.9017334  45.5110216
  35.2675462  60.3712320  46.2896681  36.4580607  59.6262503  45.7251692
  20.2796030  51.7533112  57.9258251  19.8627615  50.9684849  57.5701189
  20.8502960  52.0613956  57.2218180  41.8455791  54.2599058  79.5055008
  41.7424679  53.5061026  78.9246559  40.9783983  54.3858767  79.8906755
  58.6011982  78.2976294  48.0147219  57.8452063  77.7105141  48.0119038
  58.9982224  78.1810284  47.1515846   5.5107939  72.8739691  67.9597998
   6.4245367  72.6036263  67.8691339   5.2853036  73.2458305  67.1070957
  22.9787326  68.9557028  76.0027790  22.0695591  69.1677046  75.7913637
  23.0127835  68.9740801  76.9591951  52.0285130  79.5158768  47.5812578
  52.5011063  80.0201893  48.2434893  52.7149916  79.0728855  47.0825195
  72.2546530 126.1630630  59.3334675  72.5634289 126.0000706  58.4422159
  73.0410480 126.0971737  59.8751974  55.2613878  71.0747385 104.8371410
  55.2262592  71.9771051 104.5197582  56.0912895  71.0196209 105.3109169
  14.8924339  94.6154594  28.8643408  14.6931076  94.2833710  29.7396803
  14.2500758  95.3102207  28.7197351  31.7527270 105.5687523  81.2024403
  31.0852218 105.0445557  81.6450214  32.5594282 105.0633240  81.3024712
  35.1952314  82.3146820  84.7484016  35.5269861  82.4341011  83.8585091
  34.7350407  81.4757824  84.7218990  47.3774385  88.9756107  80.5572033
  46.8509483  88.7463760  79.7913790  46.8116188  88.7800598  81.3040924
  22.1050501  92.7706146  61.0174417  22.9497910  92.8152561  60.5695009
  21.6599083  93.5812569  60.7705784  44.3470764  57.7978182  76.8563175
  45.0532484  57.9311514  76.2240410  44.2928553  56.8475723  76.9579649
  36.5898490  87.4749565  72.9354334  36.8732643  88.3734608  72.7662992
  37.3487258  86.9376564  72.7081871  39.4301391 106.7459774  73.1191778
  39.7379065 105.8419228  73.1839418  38.7617850 106.8208408  73.8003016
  41.2049055  64.7122002  44.5038271  41.2594795  64.8789358  43.5628462
  41.2920856  63.7623739  44.5842218  60.4286528  93.2389927  57.5052881
  60.1237345  93.0490303  58.3925152  59.8396873  92.7415085  56.9379568
  64.6316862  92.2612858  42.1645975  64.3346643  91.4273167  41.8005943
  63.9247084  92.5323868  42.7501869  61.4458847 111.0299683  89.3107224
  61.9408751 110.2156258  89.2208862  60.9032202 110.8959198  90.0877476
  44.6119547  95.8858490  46.1674547  44.9901485  95.0518990  46.4462662
  45.3597260  96.3956642  45.8557606  42.5348091  85.2336025  83.7598610
  43.2675171  85.8205223  83.9466763  41.7685175  85.6883335  84.1094971
  44.9051142  74.0328312  74.5029163  44.7149706  73.7042665  73.6242104
  44.8487139  73.2600832  75.0649738  31.8329453  70.8522224  53.6016703
  32.5594950  70.6478977  54.1904068  31.6889262  70.0439835  53.1094885
  47.5860929  98.2726192  18.4316730  47.0118856  97.5161934  18.3119202
  47.5283527  98.7505150  17.6043189  37.5230718  86.9432640  44.5423937
  37.7972841  86.1427593  44.0949059  37.0621085  86.6355038  45.3227949
  72.5861025  86.1735535  89.6454906  72.7596426  86.9512749  89.1151428
  73.3976460  85.6678677  89.6017742  19.5250666  53.9749765  43.6054230
  20.1541018  53.6029673  42.9872370  18.9216602  53.2564306  43.7946939
 104.8013115  85.5144787  52.8857470 104.3255901  85.6102180  53.7108231
 104.3476105  84.8064804  52.4284410  49.4887495  78.9632416  64.1425085
  48.7339020  78.4517050  64.4336510  49.8696470  79.3088341  64.9497986
  39.7688580  94.9796772  78.8056231  39.3556261  95.8077908  79.0499449
  39.1827917  94.6042538  78.1484985  60.9048796  92.3415947  76.1875820
  61.8209362  92.1072960  76.0386610  60.9358406  93.2495689  76.4890003
  51.9296837  66.0190773  49.1371918  51.4047813  65.5209398  49.7637415
  52.7945709  65.6103373  49.1708899  48.8772726 114.1071224  50.4690742
  48.2207346 114.5151806  51.0335970  49.7012615 114.5251942  50.7190609
  36.8158507  78.5349560  78.9273834  37.5215626  78.5112095  78.2811356
  36.1955142  79.1764688  78.5811520  31.2933183  64.7456169  54.8959780
  31.1059690  64.0542555  55.5309200  30.6125760  65.4011726  55.0478458
  60.5770016  75.4399824  64.4101143  59.6280622  75.5653858  64.4151449
  60.8104324  75.3411961  65.3331423  26.8042827  75.0835133  83.6341190
  26.8844891  75.5509377  84.4655800  26.1889505  75.6087160  83.1224918
  60.3380728  83.6274910  88.5936928  59.7638321  83.6045551  89.3591690
  61.1500931  84.0193558  88.9150906  49.5104694 108.2302666  92.6803589
  49.9651051 108.3470154  91.8461514  48.6083317 108.0251122  92.4348164
  58.9675808 102.1746349  80.4696083  59.8988152 101.9631100  80.4041100
  58.5227013 101.4183903  80.0869846  37.2389174  99.7146130  86.1425972
  37.3678708  98.8955021  86.6207695  36.8399835 100.3048897  86.7818642
  56.4939070  88.8275719  46.7226410  56.2665319  89.3931580  47.4606466
  57.2642565  88.3436012  47.0202303  30.9083605 110.3904533  70.3004646
  31.4371824 111.1530495  70.0658894  30.0036335 110.6927109  70.2208471
  47.7361536 114.9757671  67.9353380  47.2292376 114.1784954  67.7816534
  47.4647713 115.2681446  68.8054562  23.1627584  71.4555979  26.6657209
  24.0403461  71.6047907  27.0175910  23.2796621  71.4715958  25.7158208
  39.5267749  58.6175823  60.7764959  38.7177730  58.2032824  60.4763222
  39.9879670  57.9262447  61.2514591  55.2966166  78.9380884  63.4453869
  55.0663662  79.8669529  63.4248352  55.3673792  78.7294197  64.3768787
  46.7383003  69.4843245  67.1118212  46.4274502  68.7929630  66.5273380
  46.8965864  69.0404177  67.9449606  45.0337982  79.5491695  65.5213070
  45.0192308  80.1557922  66.2615919  44.2404032  79.7553158  65.0270796
  58.4380436  71.3965130  36.0264921  57.6331663  71.7511606  36.4041543
  58.9437628  71.0943890  36.7809463  52.4908495  94.4737053  43.7347460
  51.9411278  93.6901474  43.7433052  53.0466080  94.3679619  42.9626131
  21.3960934  87.6656818  77.0976686  22.1847463  87.2338104  76.7694187
  20.8410311  86.9491005  77.4053097  50.8090401  73.2394505  54.6898556
  50.7341099  73.8078690  53.9233589  49.9859476  72.7511358  54.7072935
  76.5013504 102.6116467  20.1767659  76.6392994 103.5583687  20.1462460
  75.6079245 102.4893188  19.8557448   7.6058894  81.8966293  79.7787619
   8.1279236  81.3578701  79.1842461   6.8335509  81.3640785  79.9688148
  38.3760238  64.7323847  27.4635220  38.2166648  65.5379915  26.9717574
  37.5331092  64.5283365  27.8686047  40.2738667 115.8245373  64.7990465
  39.6121407 116.3380432  64.3357325  41.0969400 116.2807369  64.6239471
  46.7478466  96.5276051  37.0181561  46.5770245  95.8078289  37.6255894
  47.4546814  97.0252609  37.4292040  55.9975863  58.6068344   3.0663148
  56.4562178  59.1943169   2.4656812  56.6687059  57.9888535   3.3560220
  31.0895681  83.7107277  56.9242907  31.4174557  83.0593014  56.3043165
  31.8684673  84.0058422  57.3959446  45.7432508  91.9941425  80.3577328
  45.2991915  92.7250385  80.7876587  45.7258320  91.2891674  81.0049915
  66.5688467  89.1573715  59.8690796  66.7364454  88.9713478  58.9452076
  65.7914782  89.7158623  59.8637581  57.7690220 114.8437023  82.5587368
  56.9922400 114.8788548  83.1169510  57.4937963 115.2545166  81.7391586
  49.8351860  79.2923164  51.8148470  50.3238535  79.8940659  52.3763895
  49.8172283  79.7233105  50.9603548  54.4650269 112.5835323  55.4629803
  53.5257053 112.7585983  55.5200529  54.8509073 113.4244251  55.2175951
  49.2168474  73.8753414  77.0471382  49.3655634  73.3954620  77.8618956
  48.2704735  74.0166235  77.0217037  27.6876187 103.3703232  44.5187807
  28.5685182 103.0041122  44.5970726  27.1764040 102.6773357  44.1008663
  57.4452829 114.2130089  94.0931416  57.4792719 113.2564354  94.0994167
  58.1340313 114.4811344  94.7013950  35.2371693 109.0467644  68.7851524
  35.0911450 109.9915314  68.7368774  35.6701660 108.9141178  69.6284485
  47.2249651  69.5187759  42.6393080  47.9288721  68.9691639  42.9838037
  46.4991140  68.9128447  42.4902296  54.0028524  68.2416058  50.5687952
  54.4678783  68.1316185  49.7394085  53.3747196  68.9438581  50.3999043
  47.4702120  59.5601988  77.4269152  47.4086666  59.0187359  76.6399813
  47.5265646  58.9314556  78.1464577   3.5509348  69.6577501  74.0546799
   3.5395697  70.6132078  74.1112566   3.0555102  69.3665791  74.8201895
  53.2801008  88.9335918  95.1250553  53.0146790  89.6119308  94.5040512
  52.8814316  88.1312180  94.7881794  35.9434390 105.8348751  72.9914713
  35.5507207 106.2765026  73.7444496  35.3168893 105.9705448  72.2806501
  68.0852985  77.9477262  88.6250019  68.2364941  78.2813787  87.7406597
  68.1276846  78.7234640  89.1841698   9.2109054 100.6657124  49.3209553
   8.2588977 100.6347466  49.4155884   9.4621170  99.7620487  49.1298342
  28.3505678 143.8873196  55.9087992  29.0653157 143.4012699  56.3200474
  28.5337472 143.8346958  54.9707651  32.4630070 126.0628033  70.8426285
  31.5313292 125.9602833  70.6484747  32.9036927 125.5001545  70.2058792
  36.7117500  61.8058014  60.1050615  37.3185587  62.3975468  60.5498695
  35.8831120  62.2844648  60.0832987  44.1201591  74.5855474  45.7334232
  43.7370872  73.7265921  45.5554295  44.8863888  74.3983603  46.2757206
  28.0801010  58.0279922  28.7381983  28.1379938  58.8812208  29.1681767
  28.1261730  57.3950529  29.4547820  76.1987114  82.6791286  59.5875597
  76.9350529  82.4519634  60.1553869  76.2184286  82.0193958  58.8943100
  35.9770894  89.4106293  43.8289595  36.5640807  88.6661530  43.9610004
  36.0554886  89.6151257  42.8971529  38.1865883  98.9147186  34.2654562
  37.8963399  99.6043777  33.6684942  37.8390384  98.1075859  33.8860178
   3.4663168  83.3536911  11.9709742   3.5021520  84.2953396  11.8029284
   4.2652774  83.1678486  12.4642885  58.5923910  76.9601011  79.8932266
  59.5140076  76.8710279  79.6504927  58.5357523  77.8216028  80.3065491
   8.6304057 101.9500542  75.5430460   7.9160738 102.5015926  75.2240276
   8.4217566 101.0749817  75.2160215  37.9945350  90.0970554  72.0805311
  38.8214064  89.6189308  72.0179462  38.2495499  91.0195351  72.0656061
  54.4580173  80.2809811  56.9271898  54.4038057  79.9104929  57.8081179
  55.3093576  80.7178593  56.9030666  63.4177208  83.8809681  65.0917196
  63.7127304  83.3763599  64.3337154  62.8923655  83.2635784  65.6007051
  26.3274384  65.8997440  40.4167747  27.1777964  65.9171343  40.8558893
  26.4709258  65.3618574  39.6381068  32.0427561 106.1278629  49.9187803
  32.3607159 107.0083904  50.1182604  32.8268719 105.6424522  49.6622992
  33.6369014 106.7255211  64.3376493  34.0414596 106.4394474  63.5186720
  34.3302321 107.2028923  64.7933292  49.1133451  97.7459621  70.5800247
  49.0883017  97.9376793  71.5174961  48.2176733  97.4858665  70.3647327
  55.6598663 108.3644962  59.5574999  55.9346914 108.9829731  60.2343988
  55.9099102 108.7838078  58.7341642  42.5945187 128.5346413  78.6121321
  42.7671385 127.6191807  78.3922195  41.6616631 128.5579491  78.8253689
  46.9740963  58.3620977  43.6857557  46.3163471  57.9930544  43.0963469
  46.7573214  59.2931938  43.7336493  38.7013960 116.3619518  68.4019423
  39.4742417 116.9021416  68.2372332  38.5067129 115.9582043  67.5561762
  13.5046828  87.4953079  70.5684996  14.3992281  87.1570015  70.5288219
  13.5693312  88.2801151  71.1126709  51.4912128  79.2764235  72.9579258
  52.0870638  79.8104000  73.4833431  51.9942093  78.4885263  72.7518988
  63.6255169  93.5642910  56.6569901  63.6863136  93.4700203  57.6075935
  62.7431583  93.9031601  56.5058517  62.0381260  90.9600449  63.6285067
  62.0179272  91.7589092  63.1015921  62.1129799  91.2701988  64.5309639
  48.6381292  90.0988197  93.9271259  48.2300043  90.5760670  94.6495533
  48.2258701  90.4563236  93.1406975  31.7095160  86.0236359  62.3636484
  32.2319746  86.6519928  61.8652153  30.9933853  85.7867622  61.7743444
  34.9971056 103.5006046  50.0214148  35.9053183 103.7370110  50.2098179
  34.5737457 103.4734440  50.8794737  49.5465374 118.4959507  77.7780581
  48.6409044 118.5875511  78.0741405  50.0026512 118.1008816  78.5210991
  55.1809740  94.6581459  58.8705492  54.2551088  94.8943996  58.9270258
  55.4232550  94.4231129  59.7662544  44.7477627  87.4201584  83.8091373
  45.1917934  87.3064232  82.9688263  43.9030790  87.8094864  83.5829353
  51.5791416  74.3497992  56.9558001  51.4556837  73.8916445  56.1244869
  52.0574188  73.7273741  57.5035858 124.4455985  71.5077877  84.8256874
 124.7065480  71.0008430  84.0568256 124.8481259  71.0489368  85.5630207
  15.4032302  90.0504494  57.2717953  15.9320915  89.8480415  58.0435228
  15.5324471  89.3016052  56.6897583  37.7079844  89.6711159  32.4346972
  36.8374538  89.6365261  32.0381975  37.6726294  89.0318966  33.1463003
  42.0486641 111.6092777  98.7467289  42.9072809 111.5834236  98.3244324
  42.1883345 112.1231079  99.5421600  54.6238756 100.2143288  63.7181425
  54.6913147 101.0304070  63.2224512  54.1937828 100.4654598  64.5355701
  38.0044103 106.5800476  65.6433439  37.1688294 106.9082165  65.9755182
  38.4630632 106.2621021  66.4210224  42.8189278 116.0601139 101.4777184
  43.1946087 116.7845345 101.9780350  42.0451260 116.4352703 101.0573292
  46.1215925  92.0003986  58.8102579  45.8796501  91.8991280  59.7308254
  47.0259666  91.6901207  58.7647676  76.2551212  78.6253214  94.7096539
  75.7318354  79.3449783  95.0624943  76.2893677  77.9837656  95.4192066
  53.5525703 105.9835434  67.9457855  52.7051592 106.1853027  67.5490236
  54.1020966 105.7105637  67.2111177  57.4799347  78.0048180 106.3462830
  57.1920252  78.9090109 106.4718628  58.3054447  77.9473019 106.8273830
  40.2669239  86.9926262  70.3477192  40.5023193  86.0701084  70.2488041
  39.4846320  87.0995426  69.8065901  29.7858620  72.5456429  53.1459522
  30.3235006  72.8144264  52.4010181  30.1658869  71.7135334  53.4277487
  40.9374571  71.2662411  86.2912941  41.8329525  71.5477705  86.1040497
  40.8165598  70.4812050  85.7571220  50.3005552  96.3524342  43.1125546
  50.9195995  97.0743465  43.0036831  50.6707668  95.8240318  43.8196373
  23.8753748  80.9061527  88.0254173  23.5782433  81.6539764  88.5437775
  23.0828619  80.5804920  87.5986862  31.0165739  96.6628838  59.4026947
  30.6112981  97.4708748  59.0878391  31.0222840  96.7533302  60.3555918
  44.2431116  82.9214287  88.7773705  44.3510199  83.5870457  88.0980015
  44.9114656  83.1336403  89.4289112  62.2372723  60.7490015  46.1566687
  62.7347612  61.5621853  46.2431145  62.4453974  60.2554178  46.9499493
  29.0095806  62.2642040  52.6129866  28.7298155  63.1795502  52.6233673
  28.5691404  61.8705797  53.3661795  63.5268450  94.6442318  76.4003134
  64.1480827  94.4540787  75.6973600  62.7668762  95.0175285  75.9538507
  34.9571061 112.4150562  49.4437981  34.5450687 113.0503559  50.0293350
  34.5216632 112.5478363  48.6017847  24.0912151  92.2026634  52.8573751
  24.4333553  91.3570404  53.1473875  23.6138248  92.5405025  53.6151314
  40.0455189  82.0028400  60.4435349  39.9700832  82.0502758  61.3965797
  40.9873581  81.9536877  60.2799749  26.8007278  76.8067884  51.2662697
  25.8927965  77.0620251  51.1027145  26.7480636  76.1879301  51.9946051
  43.1270123  70.1278830  24.8424554  42.5836515  70.8148289  25.2285838
  43.9501476  70.5663490  24.6269774  34.1435790  98.5481358  47.9584885
  34.7191882  98.1448078  47.3086929  33.7875843  97.8104782  48.4538221
  31.6400623  39.8465157  43.4765530  30.8979392  40.4184389  43.2806301
  31.8110633  39.9865937  44.4078827  41.1683655  60.7089949  59.7166491
  41.1028099  61.5648174  60.1403236  40.6012964  60.1400042  60.2371407
  42.3970318 111.4152431  66.2847185  41.8928719 112.1601963  65.9574604
  41.7370892 110.8072948  66.6180372  47.2456884  92.0245361  37.7535582
  46.3411140  92.0763969  38.0622482  47.5032234  91.1174107  37.9179525
 124.3423377 101.8323135  44.0915251 124.9058677 101.9208527  43.3228731
 123.7378657 101.1254692  43.8652039  36.7068577 116.3453674  73.7144518
  37.1583986 116.9849205  73.1637096  36.3079119 115.7347679  73.0945778
  63.7878227 110.7432747  52.4515629  62.8504324 110.5769444  52.5508642
  63.8974953 111.6581917  52.7106333  33.8905644 114.9389935  79.8021317
  33.5866976 114.7406483  80.6878757  34.2123294 115.8389282  79.8552132
  68.3287191  80.0401020  78.2928467  68.6225224  80.9330273  78.1123352
  68.1789303  79.6578360  77.4281693  36.9228673  96.7536163  53.9444542
  36.0019469  97.0083618  54.0013742  37.1314788  96.4133835  54.8144865
  24.9723458  89.9893761  20.7955742  25.3195453  90.5503750  21.4890909
  24.2091703  89.5664501  21.1891818   8.9386475  85.1039028  71.1138916
   9.8695451  85.0337029  70.9023905   8.9180017  85.5580139  71.9562578
  73.0561209 123.9225006   1.7701495  73.7370539 123.8320827   2.4367711
  73.3999634 124.5787239   1.1640255  35.1041412  97.4734211  30.1486301
  34.3269277  97.0196342  29.8226738  34.8291945  98.3860016  30.2370882
  55.8989096  79.9908781  21.4495087  56.0330963  80.0736809  22.3936319
  56.4624310  80.6637764  21.0675693  17.3259914  50.6232929  17.3045397
  17.5078022  50.1809692  16.4753664  18.1866467  50.8904552  17.6272297
  13.3363760 108.5719013  49.8023319  13.6036122 107.9559994  49.1200733
  13.2177246 108.0291843  50.5818272  41.7585325  81.8652058  45.1484776
  40.8987999  82.1772003  45.4308939  41.8186331  80.9771824  45.5006599
 121.3547648  67.2397375  62.3439884 120.8320383  67.7454662  62.9662704
 120.7306713  66.6348791  61.9428873  41.2305689  71.6840553  32.9244423
  41.2363291  72.5688601  33.2895708  40.9819984  71.1233139  33.6593008
  75.3040648  67.8874397  82.3239040  75.6765413  68.3873892  83.0502224
  75.5849314  66.9865465  82.4843311  38.1008720  91.6278362  36.2838650
  38.9251924  91.8593121  35.8559132  38.2293606  90.7265759  36.5795827
  26.3277507  76.1545610  67.2412205  25.6679320  76.7381907  67.6157093
  27.0595741  76.7307138  67.0205164  10.8479917 119.3423843  62.8593588
  11.4135778 119.6782970  63.5547113  10.8363557 118.3951569  62.9967070
  21.1602211  69.5943499  50.6408405  20.6419206  68.8368416  50.9124613
  21.2917733  69.4699621  49.7009182  47.6352549  76.1489105  62.8883410
  47.6732111  75.5166149  62.1707106  48.4482813  76.0092640  63.3738518
  72.4695635 101.8007755  66.0030746  72.6163626 101.3753223  65.1582861
  72.9294825 101.2464905  66.6335297  52.3482418 113.4850597  23.9369273
  51.7664146 112.7369976  24.0714812  51.7628336 114.2418766  23.9092898
  15.2024937 100.3114605  65.9357119  14.8482311 100.6500340  66.7579651
  15.9184694  99.7350025  66.2027359  71.4222288  93.2660580  27.2152162
  71.0784769  92.4407864  27.5572515  71.3401365  93.8803768  27.9446745
   1.6586173  91.6902256  55.7762766   2.2161926  90.9711838  56.0734701
   0.8355125  91.2686825  55.5292273  26.0943580  64.9527884  37.7645350
  25.8381319  65.8627224  37.6141930  26.2585616  64.6024179  36.8890285
  50.4255915 101.8954563  44.5839930  50.6140137 102.6151466  43.9816856
  49.5714140 101.5663528  44.3041706  53.0059004  70.0349140  46.5841007
  52.9644585  69.0803623  46.5262461  53.2646275  70.2090120  47.4890757
  17.0673978  41.1502838  41.7431211  16.7557383  40.5593634  42.4286222
  16.9495475  42.0263672  42.1103048 108.8160515 109.6120262  61.2154865
 108.4000492 110.4318810  61.4819813 108.5958099 108.9940643  61.9125175
  33.2857227  96.2972260  63.9225626  32.8363848  95.8290005  64.6261883
  32.6044798  96.4603233  63.2702255  43.1592751  79.2113352  73.3932495
  43.3805561  80.1375103  73.4904814  43.9610338  78.7470055  73.6336899
  29.8377013  76.6970491  90.3894997  30.6263256  76.7753839  90.9263039
  29.5478439  77.5995636  90.2565384  79.3643761  81.7076302  27.3328471
  79.2227411  81.3633347  26.4510155  78.9592648  81.0607338  27.9104662
  66.7005777  71.0519075  21.8212867  66.6399908  70.0989723  21.8882012
  66.4759159  71.3682222  22.6963305  34.0176296  96.4713097  17.9086459
  34.9018908  96.4996624  18.2740378  33.7927365  95.5409718  17.8976333
  40.4526806  80.2569294  24.4629288  41.3207340  80.6223392  24.2920732
  40.5425549  79.8094273  25.3042936  14.7508991  86.8177700  60.5687237
  14.1217637  86.7758846  59.8485374  14.7628403  85.9307289  60.9282207
   6.7194736  43.6900234  82.5832558   6.3101321  43.8855457  83.4261417
   5.9844983  43.5769844  81.9805431  39.9366093  67.1354866  15.0759447
  40.3873110  67.3695898  14.2645907  39.3669105  66.4061260  14.8316002
  63.8173914 113.6020947  52.7340460  63.4584808 114.3123627  53.2659721
  64.7386551 113.8334274  52.6157713  23.4981656  76.9072533  26.5935493
  22.9304552  76.1572933  26.4160728  23.0359340  77.6532793  26.2114310
  42.6497889  58.9994669  53.1902647  43.0195618  59.7403097  52.7100039
  43.3596420  58.7059498  53.7613964   1.6358827  82.9074478  30.8628416
   1.4456329  82.6906586  29.9501324   2.3779447  83.5102749  30.8161592
  69.1796827  91.3405037  31.0653830  69.1503334  92.2019196  30.6490421
  69.7155046  90.8083439  30.4772234  56.8385124  99.2686844  52.0988178
  57.5818205  99.8593330  52.2207260  57.0445490  98.5088634  52.6432943
  90.2270603  66.5154219  40.3228903  89.6640587  67.1229887  40.8025980
  89.6543312  66.1316633  39.6588516  35.1698184  73.7438059  33.1731462
  34.8752642  74.6544933  33.1621051  34.3617606  73.2308531  33.1855536
  41.3190889  91.0331821  46.2012529  40.6024981  90.5835247  46.6490650
  40.9276772  91.8445396  45.8776617  30.7567286 109.1681576  42.2776222
  30.0577044 108.5143948  42.2637415  30.6473875 109.6179676  43.1154490
  47.8262186  76.2759352  55.1631546  48.6713743  76.5233994  55.5382586
  47.3530722  75.8669853  55.8878088  53.6204147  84.8602390  54.6379948
  53.7828112  85.4907799  55.3396225  52.7573109  85.0968170  54.2984056
  44.9502897  74.1150284  28.2880497  45.2727938  73.3385038  27.8306341
  45.2501631  74.0034008  29.1901851  60.5502987  92.2556400  22.8084922
  61.2847567  91.7138386  23.0970359  59.8218870  91.9903946  23.3699989
  59.3433952  56.2225151  37.2339630  60.1355696  55.9159756  37.6752400
  59.6653652  56.7431021  36.4980578 102.5897312  75.4555607 106.7019432
 103.4716606  75.7694912 106.5022545 102.1100998  75.5491734 105.8788874
  51.3116503  79.6691179  21.0817957  50.8661461  78.9055538  20.7147408
  50.6132698  80.3077316  21.2255502  42.7824306  50.7730341  79.4368935
  41.8531370  50.7592916  79.6659184  43.1660509  51.4179611  80.0311470
 106.7248506  73.6465597  24.8654151 106.3508124  73.5203171  25.7374191
 107.6714510  73.6368847  25.0071383  28.1893325  60.2935648  43.6628056
  27.4488688  60.1579523  44.2540407  27.7984738  60.3095436  42.7891922
  79.3552542  48.1120300  18.7593877  78.7448263  48.7265158  19.1668367
  78.9775467  47.2495270  18.9316022  62.2957087  96.5071678  55.4597664
  62.9056263  97.2350597  55.5798197  62.6953077  95.9702206  54.7754860
  51.0082340  95.9583759  70.3891230  50.2129936  96.4127731  70.6672430
  51.6336679  96.6597652  70.2071714  68.3419466  81.5584564  21.4927459
  68.1961107  81.2240982  22.3777151  67.9049349  80.9258080  20.9226465
  11.7701256  88.1031704  68.5255003  11.3468909  87.2822380  68.2741547
  12.4129617  87.8483772  69.1873693  64.2319298  61.0993910  28.9996147
  63.8164186  60.6388712  28.2705712  63.5062981  61.5160942  29.4644237
  41.7925453  80.0725269  68.8235235  41.5759754  79.5146418  69.5705795
  42.6373720  80.4605865  69.0513468  28.1171679  41.3599396  41.5574837
  28.9027810  41.7711258  41.1969709  28.3172536  41.2332344  42.4849224
  42.3297405  68.7456894  51.4293623  42.7672768  69.3630934  50.8431768
  41.6233921  69.2537403  51.8283463  42.0275402  50.1514673  34.7150302
  41.4901114  49.8301172  35.4390025  41.8407440  49.5511723  33.9932394
  32.0698643  89.3720913  58.7858438  32.4990034  89.9770641  59.3908834
  31.1356115  89.4742680  58.9673948  55.8899975  87.5892448  59.7262144
  55.1032925  87.5195217  60.2670145  56.2252378  86.6941547  59.6745682
  22.3887014  77.5441027  22.8698778  22.1307015  78.1784773  22.2011209
  21.7617583  76.8271208  22.7744412  26.1261439  96.7126369  45.2432728
  26.9780207  96.3792038  45.5249786  25.6732917  95.9461498  44.8916292
  41.6481066  74.9354362  31.0270286  41.6860390  73.9925194  30.8667016
  41.6068220  75.0148726  31.9800305  41.0596657 117.9395390  17.1774757
  41.6013861 117.1590900  17.2943628  41.2675762 118.2453823  16.2946033
  33.9679050  79.9896622  31.1487436  33.2973886  80.5919170  30.8263564
  34.5601892  80.5417156  31.6593003  52.3386192  95.7239819  67.4359989
  51.4478397  95.9410000  67.7110529  52.7767658  96.5709782  67.3531914
  67.0614767  70.6354475  83.8769245  66.2485313  70.4885101  84.3604088
  67.5443697  69.8136806  83.9649487  34.9557042  46.5738678  51.5056038
  34.0288162  46.6151905  51.2702227  34.9689794  46.7154503  52.4521828
  38.2626963  82.6626968  81.2506390  37.4455261  83.0099010  81.6082859
  38.3106732  81.7680931  81.5877151  55.2380037  75.4028893  57.1939421
  54.9162722  74.6314526  56.7274523  55.7434607  75.0472689  57.9248857
   6.3154095  87.6359463  22.8288245   6.1080092  87.3850822  21.9286680
   5.6076992  87.2590351  23.3516169  31.6401601  70.3520298  79.2151642
  30.6979108  70.5151606  79.2574406  31.9913602  70.7716370  80.0005436
  40.4931641  89.1791344  58.0077791  40.8589745  88.2955074  57.9674149
  40.1455212  89.3347836  57.1296310  28.7015796  88.7159920  48.7395763
  28.7975526  89.3067360  47.9925585  28.5882854  89.2972565  49.4915915
  28.1558514  88.6708260  80.2884483  29.0304780  89.0582085  80.2539158
  28.0791187  88.1793594  79.4706488 104.8341162  97.9936981  41.9048023
 104.3588585  98.8245392  41.8962765 105.1941318  97.9146385  41.0214138
  83.0181408  80.9429550  58.0234098  83.2479572  80.3364182  57.3194647
  82.3322487  81.4957047  57.6489019  27.5765967 118.3580875  53.5196447
  27.5755167 118.7940311  54.3718100  27.5338960 119.0731525  52.8847504
  32.7273393  79.0579319  55.2955627  32.5962853  78.8946581  54.3615389
  33.5444522  78.6056948  55.5054188  52.9846716  83.3732033  44.1883850
  52.7305031  82.6861286  43.5723019  53.0199862  84.1693115  43.6580992
  43.7882948  59.9998474  29.9678254  43.3719730  59.7831964  30.8020735
  43.4486580  60.8675623  29.7488618  62.4387312 106.6687584  19.6150792
  61.8987894 107.0152187  18.9046848  61.8260193 106.5348148  20.3381777
  38.3047271  79.6022034  30.6814051  38.5070992  79.8836565  29.7891831
  37.9526806  80.3848457  31.1053967  41.5746927  94.1973686  41.1658907
  42.3400402  94.1897774  41.7407036  40.8625937  93.8623142  41.7107582
  65.4717064  65.1719856  26.5923095  65.7858038  64.3225908  26.9023180
  64.5916986  64.9951363  26.2598300  61.7092514  86.1958504  23.5908198
  62.5156307  86.6063690  23.2786345  61.3435030  85.7673359  22.8169775
  34.7625804  68.8624334  29.7199607  34.2113662  68.1220388  29.9733543
  34.6793675  68.9080477  28.7674761  27.0280099  71.9400692  15.3893387
  26.3312745  71.5685034  15.9303844  27.5337553  71.1820507  15.0963128
  13.4523332  90.6662464 100.0494435  13.6099780  89.7326851 100.1903238
  12.9595613  90.7049084  99.2297407  56.1534834  95.6361485  33.7566686
  55.9964466  96.5301895  34.0604162  56.3897943  95.7345867  32.8343344
  41.4599228  64.1575718  41.8804026  40.8453321  63.5812855  41.4260864
  41.8275404  64.7082806  41.1891699  34.5949984 100.4011631  72.7410746
  34.4260001 101.3425827  72.7035379  34.5394516 100.1113605  71.8304920
  68.3230972  96.1663151  27.9568887  68.3897829  96.0795593  27.0059633
  68.6222553  97.0574188  28.1376553  73.2399273  87.1836758  34.2092180
  74.1300440  86.9468689  33.9487386  73.3118391  87.3993778  35.1390195
  56.8586063  56.2754440  86.5749344  57.6065874  55.9611940  87.0828708
  57.1990538  56.3790655  85.6863459  26.5110016  61.9407701  56.8241882
  27.1295714  62.2585917  57.4819088  25.9139681  61.3730145  57.3114681
  23.0497050  71.6111279  51.1456490  23.4742951  71.7960215  50.3079319
  22.5007343  70.8463955  50.9722948  14.5726168  77.8352833  18.5761976
  15.4637456  77.6825666  18.2618749  14.0118694  77.5456285  17.8565490
  59.9801064  71.4777422  16.0948002  60.9169626  71.2821007  16.1107028
  59.6247768  70.8935976  15.4249156  31.4866900  62.2601748  24.1424394
  30.9667873  61.5098333  24.4303989  32.1587729  62.3588514  24.8168254
  39.8255420  46.0544777  18.3921027  39.6663451  45.3689241  17.7433336
  40.6029224  45.7595539  18.8663721  29.7573805 121.3471222  69.7011232
  29.5010471 122.0569897  70.2898693  29.1288495 121.3946533  68.9807606
  40.8570385  85.8277607  17.7490175  40.6541777  85.0903988  17.1733713
  41.7666149  85.6843567  18.0104387  64.4346619  95.6064415  36.6497493
  64.0563679  95.3069973  37.4764657  64.0410233  96.4666748  36.5038896
  44.7501945  95.2946091  97.3277664  44.5072651  94.8453045  98.1372929
  44.6334076  96.2238979  97.5252914  45.9137249  73.6724758  66.8765640
  45.2615643  73.2879448  66.2908506  46.1588144  74.4958973  66.4544964
  36.3955855  74.6398497  52.9093027  36.3341618  73.9792728  52.2193098
  37.3185802  74.8933458  52.9167175  55.5492353 102.1745872  44.4111204
  55.1659918 101.4968109  44.9678755  55.6863403 101.7427063  43.5679626
  54.3439960  94.0931702  36.9362140  54.4349241  94.1523647  35.9851837
  54.7348118  93.2490921  37.1621060  56.0236788  90.9367943  48.7593508
  56.0784006  91.7676544  48.2872105  55.2482367  91.0267162  49.3132830
  30.9167576  92.4304581  41.6888428  30.6575751  91.5493679  41.4191628
  30.5391598  92.5344086  42.5622559  28.1146479  65.7018805  55.8804655
  27.5782681  66.4419127  55.5960751  27.4989104  65.1139164  56.3179588
  31.3154316 116.3228416  27.8716516  32.2528768 116.5143681  27.8442907
  30.9491158 116.8137360  27.1360779  76.6076374 116.6378593  63.6872005
  77.4969196 116.7915916  63.3681822  76.0813951 116.5431499  62.8932667
  47.1873856  86.4473057  30.3392172  47.3315239  86.5215302  29.3958473
  46.8469524  87.3037910  30.5976152  36.4295030  61.5771961  55.2768755
  37.0599914  61.3735485  55.9677029  36.9543958  61.9784069  54.5842361
  39.3611479  46.5596724  34.9793601  39.6165037  47.4812984  34.9389935
  38.6778188  46.5295744  35.6489778  18.8337719  76.9356537  40.6527233
  18.7982678  76.8758917  41.6073942  19.7685480  76.9282818  40.4468822
  35.3652573  75.9771442  63.0382729  35.6563449  75.9109306  63.9477301
  34.6015859  76.5532207  63.0725527  54.2011356  69.5960140  84.8795891
  54.0862799  69.4355726  83.9429474  54.5685482  70.4785585  84.9281311
  21.4230418  70.3686237  30.0219631  21.0897112  70.3528786  30.9191108
  21.0579205  71.1690426  29.6448088  19.7853839  96.2757015  37.4395609
  19.8108363  96.5654564  38.3514953  20.6763673  96.4154911  37.1188760
  94.0113068 118.5532761  24.9640036  94.4976044 117.7989197  25.2967215
  94.2175674 118.5780334  24.0296173  52.2981071  77.4516964  42.5012970
  51.8902588  78.0612946  43.1163406  52.6091051  78.0058813  41.7854834
  26.2682796  63.6039543  43.0554008  26.8731332  63.1650782  43.6535406
  26.5212893  63.2912445  42.1868181  33.9322233  84.4088078  25.9407806
  34.0982795  83.6012745  25.4544234  34.7976780  84.6944332  26.2334228
  40.8404732  70.3844452  68.9519835  39.9187899  70.1350307  68.8846970
  40.8290625  71.2197161  69.4193363   3.8910452  85.8741760  54.0710640
   3.3399883  85.9400177  54.8509550   3.4502617  85.2272034  53.5202742
  48.4766579  93.6676502  71.8671274  47.5870562  94.0085983  71.9598484
  49.0358067  94.3564415  72.2265196  60.4688263 108.2678890  65.3069067
  61.4188147 108.2140827  65.4110956  60.2064419 107.3858929  65.0433588
  61.9233656  92.1129131  35.8314419  62.8632116  91.9902611  35.9651518
  61.8447542  93.0015373  35.4844666  40.9506178  68.0757618  47.3710203
  41.3704109  68.9291143  47.4796200  40.2897453  68.0441761  48.0627441
  33.6036158  71.6000462  43.9090490  33.1043577  71.8962526  43.1479788
  33.1841826  70.7788420  44.1658163  31.4158869  70.3290319  46.3337374
  31.5096259  70.6072807  47.2447920  30.7694817  70.9309149  45.9647799
  50.4831219  93.1527615  14.8383832  51.1883879  92.9123211  15.4392338
  50.4492998  94.1084957  14.8789668  58.6793661  49.3449116  28.0514503
  58.9132309  48.4607077  27.7690935  59.5105124  49.7399092  28.3148861
  59.4172907  94.0381050  94.7833824  60.0665283  94.4217396  95.3729153
  58.7954044  93.6000538  95.3644180  56.3335943  78.3816528  40.3117847
  56.5247393  77.5745583  40.7895851  56.9282818  79.0299034  40.6890726
  30.9996057 110.3376770  36.9524765  31.2386417 109.5148277  36.5258479
  30.7059860 110.9018803  36.2371492  62.8924751  77.2496462  64.9473190
  62.4678040  77.0853901  65.7892847  63.1100416  76.3787937  64.6148729
  58.9443588 100.6167412  56.7678928  58.1172562 101.0849190  56.6541338
  58.7949467  99.7639179  56.3597250  57.3238611 100.8025646  73.9486265
  56.8149042 100.0184155  74.1543102  58.2357216 100.5150700  73.9943027
  36.1403203  86.3486767  46.7388630  36.1321044  86.6905403  47.6328945
  35.2497959  86.0276318  46.5970087  34.8837376 108.4742832  52.0781755
  35.7154727 108.9382935  51.9825792  34.5052123 108.4775734  51.1990023
  53.7800694  64.1704273 103.2816696  53.1145144  64.7485113 103.6546135
  54.4045687  64.7628880 102.8630733  18.7943816  66.9606638  40.1180124
  18.0070210  67.4998236  40.0431538  19.5050001  67.5330448  39.8288155
  30.0244999  82.3825455 109.8060827  30.8006763  82.2503948 109.2617302
  29.8588777  81.5256214 110.1991184  31.7063594 114.6060658 108.8454264
  32.0373273 115.1304817 108.1162649  32.4883103 114.3679047 109.3434882
  21.6984677  92.3638248  17.0336461  21.8915510  92.1889687  17.9547203
  22.2396541  91.7378712  16.5524650  37.0128059  79.5200157  22.6690221
  36.7180562  78.6824799  22.3114109  36.2238598  80.0615597  22.6920676
  69.9379539  90.1181030  37.3352051  69.0446377  90.0025177  37.0113897
  69.8409319  90.6624317  38.1165695  40.5057144 121.0089970  29.8329592
  40.8226633 120.6393147  30.6570411  39.9603438 121.7500210  30.0969315
  55.2626944  88.5636234   9.2447823  54.5014238  89.1151810   9.0645802
  54.9522257  87.6706028   9.0952647  28.7488198  79.9787521  53.3670664
  29.4513655  80.5776787  53.1141806  27.9984999  80.5481148  53.5376072
  48.9776707 121.2683392  50.1616192  49.0667057 120.7463360  49.3642378
  49.8459911 121.6473675  50.2979612  57.6876354 123.0035877  54.7370625
  57.8621531 122.1663857  55.1670361  57.2765827 122.7650166  53.9061880
  20.6194353  46.4141989  37.4079227  20.4080606  46.9712067  36.6587257
  21.5733933  46.4551067  37.4751997  53.2728720  81.6015053  41.9808865
  54.2102242  81.4309216  42.0731020  52.9771900  80.9675026  41.3275480
  37.9281259 107.2490025  51.6012383  38.7399006 107.4337959  51.1289024
  37.2353101 107.5528526  51.0148001  51.3650036 106.3056469  34.7334838
  52.0281696 106.1994648  34.0514517  51.8265152 106.1097336  35.5488729
  48.4340763  85.4961681  23.6868596  47.6657820  85.0142097  23.9929223
  48.3947659  85.4286957  22.7328515  18.8638067  87.0907688  34.8278356
  19.0067112  86.1444855  34.8088121  18.5094368  87.2619915  35.7003808
  47.9707909 110.6703281  57.8561449  48.2621336 111.4984131  57.4745369
  48.7173176 110.3696060  58.3743143  35.6570530  83.9096832  62.4191904
  35.7660842  82.9892731  62.1800423  36.3533521  84.3644047  61.9452429
  25.3516436 109.0489769  40.4499340  24.7639060 108.5637283  41.0290098
  26.1698151 108.5525036  40.4684067  47.9374170 100.5560684  58.8710594
  48.6849260 101.1123657  59.0901327  48.0330753 100.3843307  57.9342651
  48.4206200  82.7759647  44.6216488  47.6393175  82.2260666  44.6800709
  49.1003990  82.2749138  45.0722933  39.5520496  84.6554279  43.8480139
  39.3429112  84.3908215  42.9521990  39.6247983  83.8317776  44.3302441
  55.2918577  83.8605976  35.2075911  55.2515697  84.6710777  35.7152557
  54.3784142  83.6602497  35.0033474  65.7182693  83.8428402  23.0536985
  65.6899738  84.0746593  23.9819694  66.6287565  83.9901447  22.7976847
  66.3485909  65.4892302  21.7782474  66.3164949  65.3749466  20.8284378
  65.4881954  65.8412552  22.0063448  61.9505739  80.9840393  50.8723974
  61.6245985  81.3979721  51.6715431  62.3284149  81.7037010  50.3668737
   6.2636703  80.5263901  26.7030764   5.5938762  81.2001801  26.8197370
   5.9135950  79.7596073  27.1566463  64.4170666  65.6150818  10.7550442
  64.6217680  64.9470377  10.1007879  65.1722479  66.2030840  10.7413495
  55.3608751  84.4477844  15.7651687  55.2747631  83.6216736  16.2409401
  55.3460217  84.1951942  14.8420167 122.0604847  87.8150272  58.9100122
 122.9732872  87.8649998  58.6262417 121.5556878  87.8305912  58.0968904
  42.4803019  78.3846569  50.7785797  42.0739603  78.2260323  51.6306114
  42.1929979  79.2650175  50.5363894  36.3209653  91.0290337  76.0782814
  35.4006553  90.7919598  75.9640360  36.7950392  90.4373264  75.4940224
  43.3260441  77.0768929  64.2731094  42.4490356  77.0108557  63.8953209
  43.8045645  77.6454067  63.6697531  10.8211815  31.5116286  54.7439861
  11.3728380  31.5144038  53.9617443  10.4235113  32.3821688  54.7597122
 102.7163696  99.7132492  55.7244682 102.1568775  98.9446926  55.6125259
 102.3886871 100.1343441  56.5191555  33.7988639 118.3487034 105.1912785
  34.6734905 118.6345673 105.4549789  33.9387035 117.4930286 104.7856903
  43.4880495  62.7204561  55.2754402  42.7668953  63.3269787  55.1072264
  43.1742668  62.1679211  55.9913158  46.4030552 103.1779766  29.9323702
  45.9089804 102.3600578  29.8764133  45.9619999 103.6777020  30.6193709
  52.1124744  96.0756111  64.2332697  52.3706150  95.7543087  65.0971889
  52.8829050  96.5439987  63.9118910  59.2750025  91.1077499  58.6713457
  59.1501045  90.1587391  58.6723471  58.8274431  91.4090633  59.4619989
  37.8519249  99.5295620  41.5891457  38.3743501  99.2767334  40.8279753
  37.1952677  98.8377666  41.6694450  39.7610950  92.4470997  19.2626452
  39.3787861  93.2763672  18.9755964  39.4221210  91.8001842  18.6439097
  94.2564869  84.3774796  83.3275613  94.2654705  83.6963081  82.6551374
  94.7367287  85.1070023  82.9359087   3.8970685  94.6102047  54.6210098
   4.4925168  95.1070976  54.0599680   3.6253789  93.8667202  54.0828133
  31.9104981  75.2589607  52.8632927  31.4545512  76.1000490  52.8330564
  32.7840495  75.4717302  53.1917191  47.5583076  81.1752129  47.6638746
  46.6124249  81.0293770  47.6802778  47.6869297  81.9710922  48.1798792
  29.3021727 135.7366562  40.2509117  29.4751024 136.6716003  40.3613853
  30.1659536 135.3265190  40.2945662  32.6489353  46.2238693  40.5707455
  33.5188651  46.6047621  40.4508495  32.7595377  45.2994108  40.3485489
  37.2037053  76.1767673  73.9742851  37.6240659  76.8013906  73.3832073
  37.1348572  75.3711939  73.4618902  27.0991874  50.4813385  33.3703232
  27.5814390  50.2522850  32.5758433  27.4683762  49.9135017  34.0467024
  37.7622271  88.3157158  40.8779478  37.3308349  87.4644852  40.8034897
  37.0445561  88.9387894  40.9917593  32.9021144 109.3906212  45.8259344
  33.7277269 109.6638489  46.2258625  32.6717019 110.1093960  45.2372837
  37.5798559  86.4972878  50.5809259  37.7513981  85.5977631  50.3022575
  38.4213352  86.9429207  50.4831505  73.2221413  46.3778114  12.6063204
  72.7163267  46.6412783  13.3750653  73.6640930  45.5723572  12.8749299
  41.4831877 106.5398788  53.4275961  42.0881891 105.8140755  53.2745838
  41.8986559 107.2912693  53.0044699  56.0456753  78.1206083   3.8719940
  55.5430460  77.4737978   3.3767909  55.8812189  78.9484882   3.4205475
  32.4721575  54.6111727  47.0579910  31.7232037  55.0867653  46.6986752
  32.1435118  54.2249155  47.8698015   2.2533368  57.4886179  53.1765747
   2.2583482  57.9362297  52.3304987   1.5467556  56.8469810  53.1039047
  41.5307903  65.3107882  22.6261425  42.1045876  64.6073580  22.3225403
  40.8036327  65.3122091  22.0036697  53.6548901  82.0763302  54.1438007
  53.3259726  82.8074074  54.6668434  54.1519403  81.5427494  54.7638512
  36.5247989  75.6855679  24.0682220  36.8895268  76.2412834  24.7569799
  36.5225911  74.8061180  24.4461036  28.5692430 107.5286102  42.8115225
  28.7638736 106.7512035  43.3349609  27.9222584 108.0092239  43.3279037
  73.8281679  82.6696110  88.6191424  73.7485123  83.1223774  89.4587167
  74.0654564  81.7721462  88.8525757  34.8964334  76.3030052  33.0906200
  35.7903457  76.6451883  33.0984521  34.3414950  77.0828915  33.0834222
  59.6020412 109.6555710  62.9814776  59.8857880 109.2193317  63.7848529
  59.2832518 110.5098820  63.2726058  67.1143913  88.3722591  20.9660459
  66.2798119  88.1872177  20.5353808  66.9645023  88.1491280  21.8847275
  37.9512119  86.0507488  20.6602311  37.9498005  86.1922359  21.6069150
  38.6352015  86.6343212  20.3318596  49.1402102  49.4940138  46.2912130
  49.1940832  48.5527325  46.1259413  49.0272141  49.5646811  47.2390890
  57.9177141 123.6238194  27.2464466  57.8097248 124.3467617  27.8644490
  58.4291458 123.9968586  26.5284562  63.2138968 106.6897964  26.9381928
  64.0239859 106.2669849  26.6531825  62.5570488 106.4003944  26.3049221
  23.4418058  63.5452747  39.1662002  23.6564136  64.3231392  38.6513233
  23.5960293  63.8085222  40.0734758  36.6626787  65.9973049  19.4908309
  37.4233317  66.0290146  18.9106297  36.4177227  65.0722790  19.5142794
  22.1915245  62.4119234  88.9564451  21.2402248  62.3187065  88.9057239
  22.3876119  63.1698895  88.4057530  47.9846811 110.2380085  20.6623912
  47.8458881 109.2918682  20.6200528  47.9211569 110.5303288  19.7531354
 107.2960109  78.5961485  19.4279921 107.5424058  79.5110130  19.2918074
 108.1277425  78.1224203  19.4338512  29.9713993  70.9699392  36.0883212
  30.0774884  71.7261553  36.6654754  29.4102836  70.3702402  36.5799952
  51.0845327  95.7299519  34.8626208  51.5761042  96.2375832  34.2169428
  50.3906918  96.3212967  35.1543713  51.3080072  74.1685534  30.5751777
  50.7384872  74.5767307  29.9230504  51.1306334  73.2313490  30.4950261
  42.2122192 103.7119770  28.7364554  42.2838783 103.8115692  29.6857595
  43.0884838 103.9128208  28.4077334  60.1867676  98.2686901  46.8745995
  61.0557508  97.9029846  47.0400000  59.7861099  97.6619720  46.2520218
  22.6115322  75.8397484  53.6527443  22.3419094  75.1982880  52.9954290
  23.4067535  75.4699135  54.0362501  67.2262192  53.4178257  27.8492451
  67.8363657  52.6813221  27.8881907  67.7843618  54.1846704  27.7201939
  39.9202132 112.1159458  46.0022593  40.1015091 111.7572594  45.1335192
  39.4201589 112.9142284  45.8322048  44.7092533  49.6287012  40.4395771
  45.0819826  49.2352962  39.6505690  44.5727396  50.5472851  40.2076435
  55.6246805  92.8273010  52.7960730  56.4465666  92.6653481  53.2592201
  55.5295086  93.7797260  52.8030014  99.0948486  64.6646166  48.8841200
  99.4582176  64.1593647  49.6113777  98.3616638  64.1364765  48.5682964
  55.3943825  80.3968143  36.3244915  54.5051718  80.1038361  36.5237427
  55.6570101  80.9044266  37.0923376  46.0308456  83.4906578  56.4907026
  46.2615967  84.1089344  55.7973576  46.7471313  83.5602856  57.1218300
  35.2772331  63.7812996  95.3660270  35.3279781  64.5336962  94.7764846
  34.8294997  64.1157150  96.1431583  70.8769417  58.6965227  30.6309247
  71.3386106  59.3495941  31.1568427  71.2427902  58.7947464  29.7518706
  35.7679391  57.4943304  35.0636315  35.3008223  58.3069468  34.8695087
  35.9210110  57.0955610  34.2070198  62.1657848  83.5613823 109.7217904
  62.6643372  84.3542957 109.9192122  61.2586832  83.8594246 109.6542230
  81.3475704  78.7380457  15.8367395  80.6082153  78.3552885  16.3090634
  81.9149780  79.0883589  16.5234363  57.5691271 106.6137981   7.6420927
  57.9326105 105.9291458   8.2036698  58.2332945 106.7464542   6.9656938
  38.9398336  74.6781874  10.2479935  39.4954085  73.9041805  10.3400886
  38.8770986  75.0347853  11.1340702  66.6478920  48.6563110  18.8239193
  65.8178186  49.0519142  19.0898299  66.8011761  48.9920568  17.9407382
  35.2531648  74.9810410  49.9558401  35.1868129  75.9343100  50.0116110
  34.6559501  74.7404099  49.2475557  57.7301693  84.7549820   2.9122749
  57.1648216  84.9709988   2.1706909  57.4480104  83.8809586   3.1819251
  47.4828577  84.8323536  27.7088618  48.4301043  84.6947479  27.7132893
  47.1163845  83.9836597  27.9571581  35.4458356  73.9398479  39.5012045
  35.6214976  73.6554003  40.3981256  36.0280609  74.6879959  39.3688297
  41.4821959  61.0778427  48.9856720  42.0924664  61.8150616  49.0032434
  41.8182373  60.5051231  48.2962513  48.6379242  91.1228466  26.0110545
  48.4288883  90.8940697  25.1054072  48.5318136  92.0734119  26.0485673
  64.5630789  94.7373962 106.4463862  63.8819838  94.7317028 107.1189239
  65.2255249  95.3416348 106.7814877  23.3088708  48.2120323  48.7365007
  23.3118367  49.0949154  49.1062927  22.4062109  47.9113770  48.8415909
  92.0188808 104.3882751  42.9015732  91.1173439 104.7097778  42.9111338
  91.9728470 103.5603046  42.4234724  23.3492184  61.6469717  29.7377896
  23.1949544  62.5232267  30.0907922  23.9052296  61.7916441  28.9721823
   5.6528914  89.2031860   1.2803797   5.7331651  88.8826752   0.3820162
   4.7720897  89.5753574   1.3240913   7.8161436  79.1065407  43.1010199
   8.1165987  79.2989588  43.9892387   8.3925122  78.4040499  42.8001261
  22.8559113 115.7519150  54.6563578  22.5002241 115.2409744  55.3834486
  23.4299231 115.1418495  54.1931438  30.8318210  87.3031330  50.3521109
  30.0226927  86.9367886  49.9952745  31.4761782  86.6022587  50.2530670
  33.9441442  74.1695881  47.8079891  34.2818069  73.4673309  47.2520638
  33.0627227  73.8829565  48.0470943  54.2627573 103.7966156  38.8436294
  54.7950077 103.7042809  39.6338296  54.8624754 104.1598797  38.1920052
  14.9254179  90.0828075  42.7445555  15.4815936  89.8143578  43.4758806
  14.4736838  90.8648491  43.0616808  56.3562870  99.1245079  20.7425880
  57.1528482  98.6876583  21.0440564  56.4159918  99.0991402  19.7875905
  64.3375874  60.0096464   6.1428517  65.0945044  59.9817705   5.5575931
  63.6900043  59.4426537   5.7240576  36.2848282  60.6277466  11.3914073
  35.3811121  60.6311846  11.7068684  36.7759562  60.1743221  12.0765591
  34.2240429  42.7175570  45.9441423  34.7344112  43.4636354  46.2589788
  34.6606851  41.9530582  46.3197947  44.9590826  56.3983536  83.4238537
  45.8932304  56.2291002  83.5461482  44.7864532  56.1449289  82.5170978
  49.2514849  88.2726574  50.6723309  48.4375191  88.7104797  50.9213400
  49.1542339  88.1009197  49.7356987  64.3948317  80.6228542  53.7773800
  64.2690086  81.5662861  53.8789940  64.5895338  80.5059719  52.8475094
  36.1281252  75.4307604  27.3068881  35.7832623  76.2980843  27.0946455
  37.0342636  75.4514122  26.9991231  29.9399185  51.5362120  23.2552981
  30.5641770  52.2614145  23.2799935  30.0403929  51.1634159  22.3794222
  38.7750030  71.7385435  28.3120489  38.7475467  70.7937860  28.1606936
  39.4701600  71.8573236  28.9592576  22.7768350  93.7708378  20.9050536
  23.6213422  94.0576267  20.5575037  22.1305180  94.2723179  20.4080367
  70.1745176  84.5575047  36.4240074  69.9527645  84.3117237  37.3221469
  69.7020197  83.9276409  35.8797216  25.3537130  91.9614410  64.3870640
  24.8779750  91.1468887  64.5495462  26.1022115  91.6988754  63.8513041
  78.6016083  76.6055059  14.2419255  78.0530119  76.6829538  15.0224864
  79.0824318  77.4323177  14.2041099  21.7343140  82.8678131  57.6130152
  20.8170056  82.6234722  57.4902439  22.1397448  82.7126598  56.7599106
  61.4932966  88.9409924  59.4336557  61.4610434  88.9676094  58.4773684
  60.5756378  88.9031029  59.7032928  29.7902513  98.0038071  46.6471386
  29.3965364  98.7970257  47.0104885  30.2707744  98.3062840  45.8765316
  42.8226614 102.2070503  86.0361727  42.3512793 102.7489281  86.6689500
  42.2083330 102.0970821  85.3104051   8.6068481  80.6805420  22.5989580
   9.3007439  80.8765793  23.2284880   8.8701439  81.1398983  21.8015218
  29.5760965  77.4500418  29.3566823  30.2707911  77.0413160  28.8403749
  28.7753439  77.0096493  29.0719318  19.6789813  45.3733301  17.9598022
  20.3732896  45.9305811  18.3114254  19.9259114  44.4872236  18.2245159
  26.3786507  70.2660322   3.7363091  26.5403008  70.7144499   2.9062372
  26.9159698  70.7383204   4.3722826  79.5379877  96.7222404  59.0653563
  78.8797045  97.4131680  59.1396093  80.3373528  97.1142578  59.4168806
  58.6158133 125.0251007  43.1035995  59.2589188 124.3213558  43.0176640
  57.9863453 124.8614120  42.4013090  17.4704742 102.7373314  44.1657114
  18.0024683 101.9474792  44.0689898  16.6005170 102.4131107  44.3987083
  14.7685397  53.0692196  47.9022312  15.4727852  53.1546450  47.2596025
  14.3478060  53.9289379  47.9121971  50.3173018  79.0097427  11.4937007
  50.0707054  78.4404278  12.2226095  50.3512239  78.4267330  10.7352936
  33.8701367  70.1327801  33.2643628  34.6580267  70.5256462  32.8887105
  33.3460736  70.8788776  33.5557866  13.4431863  51.6057396  19.4262779
  13.3838069  51.1808252  20.2819371  14.3816960  51.6423178  19.2416370
  21.3219523  92.3028851  34.8605180  20.4971004  91.8254280  34.9493670
  21.9941592  91.6214371  34.8588991  71.0385847 106.2700081   3.1004131
  71.2652588 105.7709217   3.8851187  71.7850256 106.1464787   2.5140658
  72.3189497  82.1080208  34.7810984  72.5037336  82.1886921  35.7168221
  71.9047451  82.9384041  34.5462966  37.2210932 105.9080791  53.9865494
  37.4257159 106.3309956  53.1525803  36.4762044 106.4020252  54.3291712
  49.5566845  54.8996925  13.8991117  50.4167414  54.7236013  13.5176289
  49.7430897  55.1543093  14.8028028  20.9681582  67.2982025   8.3284962
  20.0338268  67.2766352   8.5353607  21.2672210  66.4012098   8.4774792
  54.3704844  70.3073978   7.5184631  54.8430634  69.5944977   7.9482013
  55.0513792  70.9363031   7.2795099  13.9324677  79.8730516  21.9085908
  13.3262789  79.3673611  22.4499249  13.3673108  80.3778458  21.3237739
  10.4238629  74.4087553  30.4308724  10.4160094  75.3491306  30.2523780
  10.9513021  74.3200445  31.2247062  78.6066341  89.2085075  98.1517168
  78.7167358  89.5206928  99.0498527  79.0499878  88.3603001  98.1369337
  52.6835632  81.1423492  38.3389163  51.7715073  81.1696625  38.6281157
  52.8092575  80.2460861  38.0272388  35.8595610  66.3538074   7.4286151
  36.7565799  66.6586399   7.2919911  35.3268123  67.1475506   7.3798329
  57.8409386  78.5634756  35.6880808  57.0065117  79.0107012  35.8293152
  58.1211758  78.2971668  36.5637422  49.7579336  89.9396229  19.1851544
  50.6486750  89.7988987  18.8642049  49.8651218  90.1151562  20.1199961
  24.8781443 104.8867130   2.4176528  24.1958857 105.4163647   2.0050730
  25.5526400 105.5179501   2.6683071  37.5604558  68.2864332  64.5237112
  38.4748316  68.4174395  64.7746754  37.0617795  68.8005638  65.1587105
  10.6961429  55.4068136  44.4344330  11.5752530  55.5462790  44.0823698
  10.4144907  54.5753241  44.0529490  56.5214443  93.2693481  30.7065964
  57.3759985  93.4634113  30.3214884  56.6876650  93.2245731  31.6481900
  28.6139202  64.3870783  26.6456819  28.4073973  63.8893366  27.4367762
  27.9288793  64.1428185  26.0233569  66.7831373  92.0164108  50.1193142
  67.0327377  92.8669930  49.7581482  65.8264160  92.0369911  50.1413727
  50.0402880  83.4689617  34.7085476  49.7428322  82.6095963  35.0072908
  49.6817160  83.5527039  33.8250065  37.6612949  70.3857517  35.4405880
  37.1538496  70.8888626  36.0774636  37.3959804  70.7379389  34.5909977
  65.7370853  90.6359959  29.7464061  66.3001585  90.5901051  28.9737034
  65.6434393  91.5727997  29.9192286  37.5897312  88.7662792  52.9020548
  37.3569417  89.4028568  53.5779333  37.4283719  87.9150486  53.3090115
  38.0432916  92.2020626   6.4392269  37.5635767  92.3234749   7.2585958
  38.4261942  91.3279057   6.5131271  49.8043823  86.6450405  25.6787181
  49.4688320  86.0893345  24.9752760  50.2571630  87.3567963  25.2263713
  58.0997658  85.5508995  97.2666832  57.7213097  84.9916935  97.9451355
  58.7798643  86.0497379  97.7192970  53.9566946  60.0788164 102.2694197
  53.5594654  59.3737268 101.7582556  53.2321930  60.4438257 102.7774521
  23.6069155  96.9159603  72.1772337  24.4956255  96.8900871  71.8226099
  23.4664679  96.0396099  72.5357056  24.3474650  98.6583900  27.2549725
  24.7924018  98.9527702  26.4602399  23.9534497  97.8204346  27.0124602
  54.9061060  66.1976957 101.5184536  55.4202080  67.0020294 101.4478590
  54.6732473  65.9822369 100.6153556  53.1686640  92.5946426  46.9827223
  53.7046003  92.5885773  46.1896467  52.3233938  92.2429848  46.7032862
  23.3031225  90.4157829  35.4343748  23.6803889  89.6313858  35.0360870
  23.0641437  90.1432705  36.3203001  44.2312288  76.4454174  52.0905304
  43.5152912  76.8952036  51.6417980  44.4203663  76.9953012  52.8508472
  75.0964022  47.3259163  29.9614859  75.9374523  47.7393723  30.1562309
  75.3262615  46.4502907  29.6505594  54.2414331  96.9291115  15.7410848
  54.0007210  96.7178440  14.8390567  54.3379593  96.0782337  16.1687744
  54.3176842  64.3833399  49.0682173  54.5169687  64.7552109  48.2090139
  53.8092947  63.5953903  48.8760948  19.7923708  80.0416851  19.2571104
  19.2929935  79.7329426  20.0131083  19.1494691  80.0920200  18.5497379
  38.1998992  85.2408981  34.0533757  38.5263586  84.4337654  33.6556292
  38.2437229  85.0783253  34.9956489  40.8917618  41.4422369  85.9649428
  41.0251379  41.2132215  85.0451621  40.7335138  42.3862267  85.9562119
  54.9227095  75.6722450   2.4035391  54.2239285  76.0917902   1.9016254
  54.4642210  75.1395035   3.0533159  75.6552744  60.7019138  37.7953291
  74.9221277  60.2693653  37.3575735  76.3772392  60.0771236  37.7272725
  29.6505737  74.1239214  22.5742269  30.0466275  73.2644606  22.4303699
  28.7132525  73.9806509  22.4433279  20.6049562  97.6498222  25.6019258
  20.9613776  98.3204556  25.0193048  20.3374338  98.1306171  26.3851905
  55.8106995  91.2347603  12.9242527  56.5664577  91.4764214  13.4596586
  55.1427937  90.9718513  13.5575104  47.1761656  85.4806805  38.1719446
  46.6160059  85.7812214  38.8875747  47.7083063  86.2440205  37.9475331
  22.5140381  62.2725153  36.0703397  22.4726343  62.2705841  35.1140380
  22.2469854  63.1571960  36.3198519  56.2258005 102.2917080  17.2308159
  55.5662870 101.7190456  17.6223826  57.0233345 101.7626286  17.2148263
  72.7648926  90.3614807  20.6753421  72.2687149  89.5661545  20.4817200
  72.8333378  90.3746319  21.6300011  29.8965049  72.1105909  38.6213994
  30.8200645  72.0999765  38.8727021  29.6459889  73.0332136  38.6687469
  60.6585169  74.0391445 108.4735828  60.9843874  74.7395039 107.9083058
  60.8890629  74.3194246 109.3593165  32.4624681  73.5623789  56.1764669
  31.9736075  73.5102606  55.3551674  32.1521616  72.8150225  56.6877413
  62.7582741  95.2323532  38.9821768  62.5221157  94.3797684  39.3476272
  62.0054817  95.7917690  39.1734672  54.6082354  75.9117126  61.1303759
  54.5991087  75.0995207  60.6239223  53.8987589  76.4347219  60.7570982
  60.5288172  64.4680882  38.2426381  60.1185131  64.0845919  37.4675131
  60.2078867  65.3696680  38.2622337  21.1067724  96.0328579  29.0424275
  22.0404053  96.2368679  29.0966797  20.6752563  96.7681503  29.4775915
  61.6626310 104.0975094  56.6017008  62.4137354 103.8826561  56.0486126
  62.0474052 104.3462086  57.4421358  57.0750475  85.8727551  43.8354540
  56.5242243  85.5992031  43.1019688  57.9705429  85.7776165  43.5110140
  36.9358516  59.3884373  14.2443085  36.7651105  60.1967239  14.7277904
  37.8084636  59.1181374  14.5301688  28.3890033  63.2867384  45.0051880
  28.9960194  63.2079172  44.2692852  28.4311652  62.4363613  45.4425859
  44.8123264  81.2325287  37.4902868  43.9994812  81.0610962  37.0147634
  44.6863222  82.0998764  37.8750944  68.8007784  73.8969088  39.1786695
  69.0445423  72.9773808  39.2848468  68.1529093  73.8931274  38.4740543
  19.8767495  60.4768181  23.0850554  20.3406787  61.2928534  23.2723832
  20.5694747  59.8219633  22.9982948  36.7272997  98.0523396  56.8517780
  36.0079503  98.2007122  57.4655771  37.1536040  98.9056110  56.7716217
  52.3655128  63.3112144  31.9140291  53.0391788  63.7692499  32.4166322
  52.4518967  62.3949432  32.1771240  39.4125032  39.7632742  33.6039829
  38.5814762  39.7861910  34.0784311  39.1614437  39.7764635  32.6803875
  52.9147339  96.3252258  26.0488749  52.7532816  97.1360588  25.5664706
  52.0800400  95.8577347  26.0177135  74.5808077  84.7830677  37.7780437
  75.0680590  84.8154068  38.6013126  74.9742270  85.4698658  37.2397447
  63.2835150  75.5854130  21.5812802  63.5604095  76.4549351  21.8702269
  62.4542999  75.4349852  22.0351577  27.3160124  61.8339396  20.7695007
  26.5442514  61.9923019  21.3131356  28.0082655  61.6166115  21.3938308
  17.4818254 100.7356930  12.8686583  18.1119668 100.0215530  12.7730095
  16.7057407 100.4352760  12.3957193  24.4417310 102.9667473  26.4113379
  23.6145258 102.4884701  26.3545704  25.1019073 102.2877502  26.5505123
  54.1282892  78.0644703  20.4294252  53.5799932  77.7222538  21.1354637
  54.7837543  78.6018515  20.8741975  86.7352390  75.2893114  20.5446148
  87.1666718  74.4711590  20.2982068  86.0826683  75.4318953  19.8590124
  51.7635107  35.1619530  26.3498592  52.5695086  35.4020596  25.8927512
  51.5953779  34.2589211  26.0806060  44.9654484 125.6809902  13.0333269
  44.3757629 124.9845886  13.3223248  45.7219505 125.2194691  12.6714802
  25.6082654  84.8230553 108.1993433  24.8027086  85.2571011 107.9184323
  26.2635970  85.0953770 107.5569951  54.6274042  93.3274651  34.3104076
  55.4725361  92.8800869  34.3532777  54.7884130  94.0909576  33.7559819
  22.6693511  87.8059769  18.4865069  22.1056294  87.0378590  18.3946347
  22.3301458  88.2612133  19.2571771  37.9008508  87.8488159  34.3193650
  38.1968927  86.9417000  34.2436695  38.5854459  88.2824612  34.8287892
  61.6751814  88.0489540   6.6115570  61.8366861  88.6368084   7.3495126
  60.9283257  88.4367466   6.1554241  21.3390827  90.5193233  20.0964284
  21.8346643  91.2923241  20.3668046  21.7746925  89.7894859  20.5366564
  51.0138178 111.0247135  24.5162249  50.8936119 110.1932812  24.9750257
  50.3226471 111.0350132  23.8541055  65.9294367  74.6537733  33.5419011
  65.1398087  75.0920105  33.2246232  65.6549263  73.7505293  33.7000847
  96.0747337  86.9091988  69.6089324  95.8846283  87.3048592  70.4595431
  95.3367901  86.3211823  69.4479998  44.9785900  64.9904060  22.7235913
  44.5503616  65.5493021  23.3720398  44.3126774  64.3449306  22.4866152
  51.5684366  72.1958590 106.6753139  51.2097692  71.8649578 107.4987791
  52.4806166  71.9057608 106.6776427  37.6745033  77.9002619  14.6074319
  38.0204606  78.1163359  15.4733753  38.4399056  77.6160860  14.1077960
  64.1422415  86.0715008  21.9497395  64.8674774  86.5219402  22.3826075
  64.4044828  85.1509953  21.9386148  22.4164796  68.6985207  28.1579161
  22.8377271  69.1727114  27.4410295  22.1277714  69.3833971  28.7610888
  52.1309662  45.9629536  16.1958790  51.4345074  46.2926865  15.6280327
  51.7088318  45.2852297  16.7238259  32.6035762  82.2879028  55.2565336
  31.8171835  82.2410011  54.7128248  33.1124425  81.5159512  55.0087929
  57.4809837  26.8186855  47.7910089  58.0871534  26.1558747  48.1218815
  57.7358723  26.9411874  46.8765402  64.3421412  70.2124548   5.0788224
  64.7588730  71.0099792   4.7524440  64.7477531  69.5068598   4.5749950
 117.7337629  70.7821417  15.9321904 117.6242871  70.3456926  15.0873470
 118.6458809  71.0724258  15.9354019  43.6524487  48.6339998   0.6144666
  43.9476347  49.2635679   1.2722945  44.3213034  47.9492950   0.6211166
  46.1646271  97.6074028  13.3458018  45.6334114  98.2458496  12.8699529
  45.8460236  96.7572308  13.0425990 104.2861623  83.8563156  11.4199936
 104.4024653  84.0421677  10.4882407 104.3439598  82.9029465  11.4830959
  66.2426281  70.9053373  29.6428037  66.2217522  70.7717705  30.5904078
  65.9313583  71.8022013  29.5204234  60.2904558  52.1711683  30.4532051
  60.9167433  51.4501095  30.5169773  60.6033564  52.6957083  29.7161937
  63.6781597  73.0010462  24.2075038  63.3905220  72.3153448  24.8102546
  63.2011986  72.8229523  23.3969331  71.4292192  41.9283915  22.8828502
  70.9859848  42.2270536  22.0887589  71.9724989  42.6707077  23.1475067
  59.7459221 110.0525570  29.3671441  60.3993845 110.7150364  29.5915008
  60.2554035 109.3243122  29.0117311  55.9391642  97.1642971   3.3848187
  55.3722048  97.7089119   3.9308879  56.3222742  96.5322685   3.9930889
  34.3065596  74.3944407  37.1124887  34.7590327  74.1334677  37.9146075
  34.8888779  74.1133213  36.4067221  43.4615660  45.4386044  25.6111884
  42.9488659  46.0670662  26.1195254  44.2959166  45.8809280  25.4548550
  55.9338284  80.8707714  26.8182063  55.9356594  79.9326229  26.6282177
  55.8896160  80.9216976  27.7730274  47.5724173  64.5571184  23.3226609
  46.7813158  64.6647167  22.7946305  47.2683048  64.1359901  24.1266513
  63.9510012 119.7612381  55.7946682  64.3224478 118.8866520  55.6790876
  64.6173954 120.3526402  55.4448128  47.4304199  46.6014481  40.5998373
  47.1447563  47.3542309  41.1174774  46.8430138  46.5936565  39.8441076
  13.2478881  55.4847145  46.8743515  12.5340331  54.9184990  47.1676874
  13.1704772  56.2688017  47.4178982  67.9428434  84.8960209  10.5884826
  67.6784134  84.0673828  10.1888871  68.8996696  84.8759460  10.5706549
  21.1927199  65.8395624  27.8745198  21.6282535  66.6353416  27.5691056
  20.3772736  66.1490917  28.2688189  47.2336483  90.5994701  53.8518000
  48.0102873  91.1466026  53.7347126  46.5510798  91.2092781  54.1319180
  65.6071758  51.3679600   7.9354882  65.7903194  52.3009253   7.8247672
  65.2052736  51.1029387   7.1081603  36.3056803 107.4508667  20.6166530
  35.6904483 107.3855591  19.8862731  36.4375067 106.5462494  20.9003949
  23.0474567 105.3745651  25.2678919  22.9144812 104.5625210  25.7569098
  22.6641679 106.0538292  25.8228016  65.6694698 110.9648037  33.2292032
  65.7538223 111.2558270  32.3212266  64.7463512 110.7285786  33.3202267
  55.7304144  90.1851749  58.1617832  56.1222458  90.0068474  57.3068571
  55.6255960  89.3219852  58.5619593  51.7599916  81.1681175  12.3428333
  51.0740709  80.6521797  11.9190919  51.9316006  81.8854237  11.7327130
  15.6533217  62.2859955  52.5591135  16.5247250  62.6791954  52.6068687
  15.3221929  62.3278141  53.4562397  25.8104324  70.8550167  20.8616114
  25.9229302  69.9334621  20.6285572  26.2154531  71.3357830  20.1397705
  71.4605284 104.5046329  36.0508585  70.7802343 104.5420742  36.7231870
  72.2252989 104.9083233  36.4612174  38.3837056  71.9269466  13.8815820
  37.4718642  71.6383696  13.8428402  38.4113979  72.7080822  13.3290470
  38.6865544  45.6587887  21.9640160  38.6810160  46.6125965  22.0443392
  39.5947671  45.4093218  22.1347380   8.7154263  88.0938053  26.2263274
   7.7738374  88.1952667  26.3654256   9.0688747  88.9777660  26.3259363
  50.0441408  87.9223156  43.9992237  49.6341038  87.0796967  44.1944313
  49.9473333  88.0221081  43.0521774  30.2526593  74.1105270  42.4705887
  29.7766137  74.9404669  42.4419928  30.9185243  74.1927052  41.7878675
  43.2771492 114.5980167  62.4158907  43.9186954 115.1160336  62.9020071
  43.1886482 115.0516510  61.5776682  58.1332016  84.6203041  16.0716689
  57.1820164  84.5467758  15.9937453  58.2729101  85.0224209  16.9289958
  42.4123955  91.5744305  37.5468707  42.6810694  92.4089241  37.9311252
  41.7668200  91.2247467  38.1610298  59.5045280  87.4030399  48.0361271
  58.7037468  86.9701576  47.7401686  59.6825933  87.0169258  48.8937092
  51.6835833  83.0806065  57.1007109  51.4654160  83.3071613  56.1966610
  52.5679445  83.4243774  57.2270346  33.1773043  29.6072745  26.6618109
  33.5512114  29.1363955  25.9170318  33.6748791  29.2943501  27.4172783
  63.9244032  88.1064415  47.9778194  64.6910810  87.9090977  47.4397707
  63.3203793  88.5484123  47.3811245  31.1030388  96.7652225  33.3116984
  31.7745996  97.4125385  33.0966949  30.7960033  96.4475441  32.4625564
  42.8573799  57.8921223   3.6472896  42.2470188  57.9070902   4.3844903
  43.7103939  57.7200747   4.0460429  27.8410983 130.9805870  35.8615279
  28.7249446 130.6136227  35.8810282  27.4841356 130.7007980  35.0186014
  80.9116459  86.4314461 100.3769835  80.1940250  86.4533043 101.0100468
  81.6923237  86.6331387 100.8928295  57.8155899  78.0241442  16.3150477
  57.0306158  77.7637434  16.7969632  58.2922363  78.5906124  16.9218016
  33.8474202  76.0526133  23.5025716  34.8002601  76.1432552  23.5131741
  33.5333419  76.8701077  23.1161952  27.8016591  93.2598209  71.8872031
  27.7460766  94.1057014  72.3317631  28.7286425  93.0256557  71.9329628
  40.2503586  78.7725592  32.5551152  39.9036121  79.2963839  33.2773399
  39.7887588  79.0960121  31.7814636  37.0695853  86.7965698  14.5285010
  36.2207174  86.8444538  14.9682319  37.1169019  87.6003933  14.0109551
  40.0668669  97.9879570   9.1985154  39.7595334  97.3817062   8.5245442
  39.2999077  98.5204124   9.4094610   7.0689249  97.4362946 101.4407607
   6.5143728  97.8128624 100.7574584   6.4707100  97.2672939 102.1686401
  49.6803379  49.4912291 108.4047955  48.9645815  48.9033651 108.6463334
  49.2449141  50.2603579 108.0372646  32.0600557  47.6616240  12.8743768
  32.6516795  47.4122715  13.5843325  32.2103953  48.5994482  12.7555597
  15.9471655  71.6597223  41.3442564  15.1908708  72.0411539  41.7900753
  16.4344859  72.4135160  41.0117722  63.6976671  99.3181801  17.0105648
  64.1124725  99.4338989  17.8654182  63.5694504  98.3728123  16.9325709
  32.3460174  94.7843266  11.8306196  31.8037987  94.4952774  11.0966718
  32.3012543  95.7399845  11.7996883  58.4320831  73.9582586   6.0932463
  58.4869385  74.8210335   5.6823409  57.5012398  73.7372589   6.0628921
  59.6176386 125.5978966  90.5396637  58.7768221 125.2285385  90.2697834
  60.2690125 124.9850941  90.1984748  44.6066189  78.0470133  19.2397952
  45.1598167  77.2709942  19.1503334  44.0877008  78.0652285  18.4356666
  42.7669954  35.0282907  25.4853535  42.2678137  35.8449006  25.4994607
  42.8088713  34.7891378  24.5594549  44.1634274  61.5850449   0.0262771
  44.9483490  61.4752340  -0.5104451  44.2411852  60.9140110   0.7044350
  15.7125151 120.6348896   9.4358897  15.2330887 120.4169750   8.6365813
  15.1876688 120.2557468  10.1408839  31.9143200  67.5134039  28.9947438
  31.8041611  67.7437544  29.9172592  31.4425659  68.1971502  28.5191655
  48.7855196  85.0500202  32.4655008  48.2235909  85.4785919  31.8199086
  48.5820103  85.4908657  33.2904077  77.5772953  84.3238449  76.1089452
  78.4197330  84.7732735  76.0414680  77.0019579  84.9567223  76.5387019
  73.3425713  50.2965927  36.1212921  74.2221832  50.4258776  36.4759707
  73.3560514  50.7475471  35.2770853  74.7000408  79.6827412  26.1980772
  75.3894806  79.1280127  26.5630150  73.9482450  79.5399475  26.7730951
  50.1313591  46.7264986  14.7242904  49.3560743  46.8042564  15.2802765
  49.8614359  47.0965576  13.8837969  41.3915062  65.5035686  30.4262710
  40.5591822  65.1108360  30.1631570  41.6780376  64.9791288  31.1739993
  29.6159029  60.4372740  25.1661253  30.1770139  59.8585272  25.6823039
  28.9184451  60.6948757  25.7689714  35.8145237  75.4353523   5.1739264
  35.9593654  76.0432196   5.8990121  35.8813095  75.9788084   4.3887991
  90.7731724  76.7770147   5.6914163  89.8822021  76.4664793   5.8525801
  90.6650066  77.6932192   5.4362780  65.1274347  79.0538692   5.8765846
  64.8058319  79.9214649   5.6314677  64.7794056  78.9091969   6.7564571
  25.7404447 105.0532532  27.5718904  25.1445007 104.4009876  27.2036028
  25.2259588 105.4924011  28.2491517  35.5643582  89.8727131  20.7014823
  34.8952246  89.3635941  20.2440047  36.3712621  89.6976376  20.2172422
  56.1309385  98.3269787  34.3661237  56.8709707  98.9196110  34.4979382
  55.4154491  98.7229156  34.8636484  23.9887094 126.7348099  44.2883492
  23.9683700 127.3457813  43.5517836  24.9084759 126.7081165  44.5520687
  35.2889824  60.3435087 108.1836806  35.8587241  59.5981646 107.9937171
  35.7274342  61.0902214 107.7757419  43.1239223  84.6224022  18.4066927
  43.2499027  83.8346386  17.8777385  44.0090370  84.8860455  18.6582816
  32.7769589  26.1993957   9.2958605  32.7111697  25.2455306   9.3410420
  31.9751906  26.4739680   8.8508773  38.1913638  54.8132133  36.9783044
  38.0734754  54.1335154  36.3147211  37.3326159  55.2300167  37.0494294
  27.4946761  66.2573242  29.7985172  26.6265559  66.5362883  30.0896811
  27.5967383  66.6554070  28.9340258   1.6966856  96.2124443  21.0597277
   1.6013031  95.5174732  20.4084587   1.9694236  96.9783401  20.5545139
  16.2734616 103.4468842  27.0182490  16.9782078 103.3559227  26.3769293
  15.4797828 103.5368729  26.4907932  68.9554787 106.7093849  78.9093240
  69.4619513 106.0828018  79.4261607  69.6137428 107.2085667  78.4258541
  27.7389145 109.9877357   0.8146255  27.0621204 110.2433395   0.1878507
  28.5427976 110.3779507   0.4715031  57.8502417  89.2281151  19.9179411
  57.1707869  89.3920612  19.2639554  58.6273432  89.0054703  19.4053233
  85.1031399 104.6356964  11.5003049  84.7732449 105.5060959  11.2771535
  85.4961109 104.3132973  10.6892157  57.5415421  67.1458054  11.1080480
  58.1968498  66.9413137  10.4409742  57.5654221  66.3975859  11.7045617
  79.3244839  24.2071176  81.4860638  80.0126076  24.1073990  80.8282145
  78.5503435  24.4651246  80.9856852  45.9921646  51.6917086  22.4832082
  46.2852573  50.7954264  22.6475573  46.7708111  52.2289133  22.6293325
  76.6666603 110.4669380  32.4569249  76.3679838 110.5372620  33.3636093
  76.5211391 111.3383389  32.0885420  68.0019331 118.3940315  36.3150501
  68.9573669 118.4066391  36.2583280  67.7403021 117.6426601  35.7828617
  67.8718233  98.5228443  35.3449273  67.1810722  98.6139870  36.0012674
  68.3442020  97.7312374  35.6027031  43.6704111  55.3091764 100.0840911
  44.1220903  54.6071243  99.6157523  43.3867407  54.9059105 100.9045407
  30.4109931  97.5476360  23.9390922  30.0668454  96.6653442  23.8000131
  30.2929354  97.9863453  23.0965757  32.1709156  81.4709187  29.9469137
  31.3917780  81.0351276  30.2922583  31.8547416  81.9605923  29.1876507
  44.8780441  57.7966642  18.8149309  44.7730112  57.9969072  19.7450399
  44.4990683  56.9235420  18.7136185  50.2688265  84.6442318  27.8952336
  50.6152201  85.3177738  28.4805369  50.3979254  85.0010872  27.0164752
  53.3345747  85.4960346  83.0760201  53.9386320  85.1003265  83.7043222
  53.1065798  86.3414288  83.4627517  58.8907909  53.8032579  90.2922507
  58.3281565  54.2157364  90.9476372  59.7803640  54.0295315  90.5637094
  39.7910476  91.1283112  49.3606329  39.6775365  92.0293522  49.0581846
  39.6960115  91.1811161  50.3116369  43.1459999 101.6981983 102.9815694
  43.2753277 102.6041985 102.7010789  42.7697086 101.7704296 103.8587352
  37.4744534  72.0473003  24.0787268  37.8908181  71.3509607  24.5866513
  37.2760105  72.7273941  24.7224069  47.0156765  72.7990484 105.5957424
  46.4080286  72.0757008 105.4415917  47.0673466  73.2519579 104.7540560
   1.1038994 116.6405392   3.1446752   1.0821448 117.5808525   3.3223331
   1.1549364 116.5781116   2.1908775  39.9563074  56.2853003  86.3449439
  40.2510548  56.9617891  86.9546326  40.6030750  56.3004208  85.6394681
  24.4844484  96.8627930  80.1178034  23.9723039  97.2156048  79.3901642
  25.3840327  97.1301079  79.9293264  63.1025410 120.4701042  22.1671295
  63.8837624 120.3953838  22.7151608  62.4008608 120.0926208  22.6975822
  85.8994579  92.9304123  25.7612586  85.7429314  93.2531643  24.8738098
  85.9717751  93.7218952  26.2946916  69.9630547  66.3853025  89.1888055
  70.2578068  67.2751904  88.9952716  69.7169161  66.0240078  88.3372697
  50.4850721  75.4111290  95.7899412  49.5766640  75.1239920  95.8825620
  50.4486036  76.1165762  95.1439961  63.3879900  70.7917547   1.8774436
  63.8842487  71.4139795   1.3456582  62.9623699  71.3318396   2.5433129
  28.1610632  85.7806683  16.5714049  28.9663386  85.2662659  16.6275835
  27.5157547  85.2694798  17.0597613  38.2470584  63.2180405 104.2445304
  38.3797312  62.2952366 104.4614812  38.2196569  63.2376385 103.2879236
  61.9779444 133.2471180   0.3835281  61.1779499 132.7449512   0.2283767
  62.2405910 133.5534286  -0.4844718  71.2299156  92.0096016 101.6300186
  71.4595604  92.3710537 100.7739540  71.5544605  91.1094570 101.6048249
  37.5733614  82.3737526 104.0656545  37.8247023  82.9285622 103.3272471
  37.2683048  82.9877377 104.7336277  36.3298965  89.7837162   3.1701937
  35.9716129  89.7351646   4.0564820  36.2519622  88.8919735   2.8311548
  75.0624800 110.8702660 104.7747000  75.0167370 110.1809692 104.1121199
  75.2947092 111.6588306 104.2843207  63.0084562  94.6838856   1.7911503
  63.1139421  93.7740135   1.5132354  62.0697403  94.7775078   1.9532806
  59.1006708  97.1713066  21.5475607  59.3986034  96.7357635  20.7489586
  59.8709631  97.6426315  21.8649530  38.6714268 108.4483337   8.4844446
  39.4791079 108.5994530   8.9754081  38.8675213 107.6956272   7.9265797
  40.4124355  70.7925653 104.7454061  40.8864975  70.2260542 105.3541439
  39.5203090  70.8221197 105.0910433  22.2834420  97.0839310  36.4121103
  23.0563450  97.3293591  35.9035635  22.4346113  96.1695290  36.6513801
  46.5868902  42.1776676   6.3520563  47.1183062  42.9051685   6.6754413
  46.2584782  41.7507076   7.1433073 104.9043340  40.5410957  23.3546901
 105.1789684  41.2809420  23.8963914 104.7194213  40.9268284  22.4983907
  52.0114708 121.1960030  26.5159750  51.7904568 121.0008717  25.6053114
  51.8722153 122.1393394  26.5993905  42.9277372  95.0105762  33.7378359
  43.0258036  94.1613007  34.1683507  43.7325001  95.4822731  33.9525104
  44.4678402  48.0388403  19.8622859  43.9686823  48.0735683  19.0462792
  44.3920994  48.9205456  20.2270961  47.3883104  87.2934151  53.3136415
  46.9399166  88.0989933  53.0563164  46.6871357  86.7133713  53.6105347
  67.3749542  61.7165756  10.0402153  68.2779169  62.0325327  10.0727963
  67.4500179  60.8058214   9.7553897  86.6719723 129.3191338   2.5358096
  86.6189194 130.1254463   2.0227115  86.6036892 129.6091557   3.4454545
  25.3643465  78.8287735  30.4634476  25.8385658  78.4533310  31.2053323
  25.8105397  78.4790134  29.6922088  14.0909362  62.1335030 104.3102380
  13.5393894  62.8885603 104.5149794  13.6274552  61.3878870 104.6916469
  44.8263168  91.9506454   4.5961738  45.0814104  91.0890293   4.2663708
  45.5714035  92.2346210   5.1257348  46.4755678  61.3219357  20.6663346
  46.0119629  60.8357286  19.9844933  46.1799240  62.2259760  20.5589366
  47.1081448  74.1055393  90.1158031  47.3086739  73.2464647  89.7443064
  47.7353096  74.6980572  89.7012886  36.2946868  71.2557173 102.0211389
  36.2948608  70.9832191 102.9387315  36.9045258  71.9928503 101.9900801
  68.0251312  85.7460499  95.9369119  68.0587864  85.6824207  94.9824222
  68.0800819  84.8395920  96.2394687  47.6733398  60.5653381  24.7548890
  47.8370762  60.6166315  25.6965852  48.1179047  61.3316250  24.3923974
  21.0885072  64.5592070  32.9792356  20.4836440  64.8514509  33.6611199
  21.9038367  65.0242138  33.1669617  23.6896825  75.9199238  79.4314130
  23.3267045  76.6839457  78.9833602  23.8320684  75.2790117  78.7348589
  29.9871254  56.3545370  37.3818803  29.3805838  57.0928717  37.4384665
  29.4438910  55.6195641  37.0973730  27.8428531  98.4851360  20.4665232
  27.0436954  98.5749817  20.9856629  27.7379322  97.6516819  20.0076389
  54.1607666  93.2666111   1.7667897  53.5875893  93.4692001   2.5061518
  54.0468168  94.0034103   1.1664836  42.8662109  85.0600719  91.5149578
  43.1969738  85.5544472  90.7650098  43.2599449  85.4870701  92.2757968
  50.3571892 104.6506023  23.1989813  49.7444391 105.1204014  22.6332450
  51.1758089 104.6332932  22.7032018  50.1836014  71.1036777   2.2098033
  50.7929325  71.6538620   1.7176203  49.5399618  70.8193064   1.5608859
  73.1677532 107.9924870  16.5614176  73.8968039 107.3732948  16.5250301
  73.3547211 108.5379887  17.3254240  58.4934378  62.7533865 101.6924497
  58.1616879  62.5007868 102.5540569  58.5942221  63.7038803 101.7438283
  27.4035120  62.3963499  14.8174477  28.0411434  62.3604965  14.1044462
  26.8169737  61.6583252  14.6515644  75.5999470 120.4931164   7.8064066
  74.8774242 120.4934978   7.1785557  75.3197384 119.8886204   8.4936476
  54.8532295  89.3855286  14.8309398  54.3857956  89.8251152  15.5412221
  55.2833128  88.6411762  15.2518773  55.7915068  67.2421741  26.3230753
  56.4335537  67.1143103  27.0213985  55.4592609  66.3634872  26.1393571
  80.3979588  48.6760473  16.4703095  81.1350632  49.2576170  16.6565430
  80.0751972  48.4147453  17.3327351  46.4862776 102.9837227  96.8047687
  47.3926353 103.2816410  96.7273577  46.5379333 102.0325661  96.7106506
  62.0983982  84.7884846  16.1425734  62.6251936  85.3898430  16.6689634
  61.5570974  85.3590393  15.5969536  44.4697332  53.2132196  92.9663595
  44.3173027  52.4985504  93.5846158  43.6057568  53.4010077  92.5996014
  60.2916765  88.6435223 100.8921220  59.6407509  89.3442440 100.9310689
  61.1319447  89.0995312 100.8448114  17.2140789  89.6120739  28.8766503
  16.4751863  90.2016354  29.0272593  17.6358569  89.9532700  28.0880332
  45.6766224  98.3600235  26.5454197  44.9164915  98.4166241  25.9664321
  45.3536463  97.9004765  27.3204923  75.6723118 122.8970051  65.6799650
  76.1728191 122.5994873  64.9202204  74.9467278 122.2762871  65.7467985
  47.5433588 133.8182640  16.5871203  47.3568010 134.6887207  16.9388795
  46.7648315 133.3028316  16.7979515  23.8476777  69.0840435   4.4653821
  24.6173239  69.6487093   4.3944803  24.2042279  68.1964064   4.5000514
  55.5777502  85.6780148  39.4134974  55.0722885  85.8170795  38.6126256
  55.9533119  86.5358639  39.6116924  27.4139833  59.2897797   1.1569662
  28.2766843  59.2596722   1.5705761  27.5947952  59.5002365   0.2408625
  20.7703519 110.2774620  32.8469419  21.5078640 110.4735661  32.2691441
  20.2335405 111.0697365  32.8274155  69.7187901  95.7466412  18.1555820
  69.4194698  96.1139488  17.3238838  69.8608446  94.8183823  17.9701543
  24.5229578  62.5668287  24.0870857  23.7929416  62.4252605  23.4843731
  24.9427867  61.7097330  24.1602874  13.8177359  82.8735828  11.0990191
  14.6391165  82.9606915  10.6153071  13.5524678  83.7743378  11.2847519
  44.4631386 115.0075245  97.8143128  44.5768023 114.2187881  98.3446022
  45.3548241 115.3022480  97.6292213  62.1563148  73.4395123  34.2569947
  61.8616343  74.1431284  34.8351979  61.6845226  73.5893297  33.4377289
  38.8941717  93.9053154  48.7744951  38.0247927  94.3044281  48.8078928
  39.0023828  93.6431026  47.8602934  27.3017716  69.2886829  90.8883091
  27.8820133  70.0266218  90.7012376  26.4352202  69.5902348  90.6155702
  27.7381825  83.4786892   7.5492805  27.8242016  84.3796253   7.8609753
  28.6362052  83.2010365   7.3684520  28.5309839  93.9780903  19.9735534
  28.8747525  93.8908195  20.8626199  28.7665677  93.1558228  19.5438862
  47.5459671  71.9547415  10.6618476  46.8881702  71.3285685  10.9642386
  48.3472681  71.4380836  10.5769169  67.7554369  89.1814232   8.0011803
  67.1513939  88.9809799   8.7161511  68.5773754  89.4052696   8.4376943
  44.4450951  77.8201962  22.9121256  44.2254639  77.9862928  23.8288617
  44.4600868  78.6879635  22.5084066  46.7439127  81.5311432  80.9902366
  46.0658789  81.3441277  81.6394886  47.5475454  81.6213417  81.5023597
  62.6144886  74.4158030  16.3754773  61.8623257  74.4186020  16.9674897
  62.3354101  73.8755989  15.6362021  27.6485062 100.2002716  61.2437010
  27.1686459  99.9284172  62.0260477  27.6614714  99.4210911  60.6878662
  26.6792893  93.0774307  74.5537218  27.3467422  92.6218033  74.0407475
  27.0312309  93.9592266  74.6753558  23.5868025  96.9428158  13.6388373
  22.6315165  96.9273567  13.6973345  23.7990379  97.8515148  13.4256375
  27.1553040  73.2838392  22.9948521  27.0697427  72.4222469  23.4029865
  26.4490223  73.8025236  23.3800316  36.5514994  56.4039946  32.5429058
  35.7493424  55.9055948  32.3867893  37.2079468  55.9807873  31.9895434
 122.7167287 109.7357845  34.0353012 122.3531934 110.5143070  34.4571781
 121.9527251 109.2650032  33.7022996  37.3796225 113.7835979 109.5577882
  37.0901465 113.1005096 108.9529530  37.8581381 113.3124638 110.2399057
  29.7111106  84.3753529 107.7247841  29.6825171  83.8767624 108.5413716
  29.6351647  83.7136364 107.0373326  49.7987318  61.7833948  91.4822181
  49.0597916  62.3823500  91.5892395  50.5669546  62.3536587  91.4528164
  97.1044159  80.5424976  94.2869874  96.2418461  80.9456825  94.1887649
  97.6684380  81.2542439  94.5895096  58.7079144  80.6974792  78.0171951
  57.9913378  80.1051140  78.2449278  58.8640070  81.2024784  78.8152155
  49.7345066  80.2361202  94.4752022  49.0344238  80.0750256  93.8426133
  50.0286627  81.1269665  94.2852219  77.4924326 130.4849434  77.2792944
  76.6482830 130.8857727  77.0720037  77.9304743 131.1253643  77.8398355
   5.6567687 107.1633720  26.8232560   5.7308370 107.8723145  27.4621129
   5.0020111 107.4725437  26.1972094  41.6249228  73.9943409  34.4588065
  41.2654543  74.8131561  34.1173959  42.5701189  74.0763998  34.3319273
  14.2025149  70.5727720  93.3396217  13.7331808  69.8626614  92.9017850
  13.6755919  71.3523006  93.1637844  53.0457354  72.3752260  19.6242380
  52.4798584  71.6119576  19.5082951  52.4962711  73.0139542  20.0784945
  21.4578199  64.8363447   8.8919723  21.3169932  64.3991566   9.7317743
  21.6209126  64.1229582   8.2749516  76.3489819  77.3723316   3.7692514
  75.5642605  77.4760580   3.2310262  76.0784149  77.6523876   4.6436626
  59.7450352  81.9842434   7.5505817  60.6990623  82.0122337   7.6232827
  59.4357491  81.9825172   8.4564346  83.1239414  90.8508205  98.2489976
  82.7231121  91.1448097  97.4309894  82.8949261  89.9233055  98.3081313
  77.0644522  95.9267616  28.3046222  76.7337036  96.8249035  28.2911277
  77.4696350  95.8078003  27.4456072  42.4395561  75.9815502  20.1695132
  43.2305527  76.2395334  20.6427979  41.8234444  76.6975117  20.3245497
  62.8044271  65.9963703  31.8277979  63.1402397  65.2457333  32.3176980
  62.7930498  65.7022572  30.9169745  53.2230377  86.0992813  98.3887478
  53.9308167  86.3266754  97.7857777  53.1812525  86.8364334  98.9979192
  46.4329100  77.5029087  16.4389575  47.0685339  78.0030823  16.9508541
  46.9184923  76.7345095  16.1389434   9.0992683  98.6076355  30.3651333
   9.9653506  98.8336563  30.7043195   8.4913909  98.9100361  31.0398722
 122.9477806  82.0246696  24.0072179 122.4621255  82.6260376  24.5717788
 123.6220395  81.6536331  24.5763755  52.7872229 103.4861279   6.2401420
  53.0271292 103.3901501   7.1618062  53.6236620 103.4977627   5.7748842
  48.0246878  93.1302452  30.1974869  47.2762060  93.7140083  30.0740862
  47.6541376  92.2497272  30.1374650  35.4721308  72.9164696  17.2562838
  36.4195490  73.0525064  17.2451317  35.3564858  72.0125771  16.9633114
  88.7190247  72.8024626   9.8821878  88.4890842  72.8238010   8.9532602
  88.3851337  71.9606924  10.1923025  28.0466771 101.5396690  23.1657863
  27.9268694 101.3382053  22.2377300  27.1602225 101.5411568  23.5269332
  18.5795617 100.1715183   2.8367755  18.7414002  99.5012760   3.5007167
  18.6530364 101.0002327   3.3101368  48.0572796  99.4935703  94.2669686
  48.5345793  98.9376163  94.8828741  47.1859837  99.5851040  94.6525797
  46.0141420  67.9992437   1.0850937  46.6902637  68.1522179   1.7451656
  45.2822685  67.6236296   1.5744840  55.8663082  64.8287487  43.7057781
  55.4143810  64.1530323  44.2111492  56.3010836  64.3496466  43.0003262
  23.9442086  76.2866688   5.8933222  24.7144938  76.6641331   6.3180721
  24.2145610  75.4012299   5.6501436  16.5611196  83.9819527 100.7379326
  17.0382142  83.1623650 100.8679333  17.1848869  84.6641827 100.9863236
  80.3416920  96.1838150   6.1497426  79.4922447  96.2026405   5.7089186
  80.7277012  97.0394897   5.9625357  95.9985924  65.2590847  52.3464394
  96.7637062  65.5306339  52.8534746  96.3447475  64.6404409  51.7032528
  66.6712141  79.1174078  17.0135212  66.8654966  78.5309219  16.2824106
  65.9920549  79.7022533  16.6774702  29.1746998  88.4939384  17.1624088
  28.7419486  87.7038574  16.8387902  28.7394381  89.2112350  16.7016816
  17.9804409  59.1287613  93.6477479  18.6063612  59.3385744  92.9546126
  17.2297740  59.6961975  93.4723946  14.4743824  70.0454330  99.5279440
  15.0991023  70.6834316  99.8727807  13.6621296  70.5400991  99.4194039
  64.0218496  39.9954557  26.7303824  63.9254999  40.9428501  26.6334772
  63.6716366  39.8069024  27.6010299  43.8846970  84.7442436  37.0453858
  44.3022013  84.3885517  37.8298593  44.5713472  84.7245979  36.3787842
  81.0871029  50.2251387   0.1048640  81.7284107  50.5235100  -0.5400673
  81.3261318  50.6838703   0.9102586  42.4120998 102.1200848 105.6013876
  42.9271412 102.9171181 105.7266911  42.0497942 101.9305038 106.4668503
  53.8500929  91.9670010  23.4955049  54.5834541  92.5687504  23.3677673
  54.1838551  91.1178207  23.2061529  59.8568821  85.0939465  25.5528760
  60.3703880  85.5303478  24.8730969  59.2189789  85.7514477  25.8303595
  39.4131923  76.4683104   5.1434863  40.1945782  76.9715023   5.3725380
  39.0081215  76.2586498   5.9850276  72.0190334 102.4831486  14.7576725
  72.7291775 102.6340389  14.1338503  71.2260914 102.7318573  14.2826784
  42.8314400  60.9016848  20.6920791  43.0584526  60.7646513  19.7723413
  42.7221632  60.0190115  21.0458875  46.1350393  87.3748207   6.1867023
  45.5804157  87.2211552   5.4218400  45.5392027  87.3048115   6.9325644
  31.8653917  83.7707520  88.9204630  32.1830797  83.6147499  89.8098286
  32.6161122  84.1462135  88.4603795  16.6762674  54.9709511  92.4317857
  15.7301593  55.0486326  92.5545689  16.9162178  55.7456589  91.9233748
  15.1721919  89.6998024   3.1041801  16.0741985  89.8247337   2.8092089
  14.6364319  89.9887276   2.3654559  64.4315434 104.3275261  43.0068818
  65.1514578 104.4048882  42.3808042  64.1641855 103.4100437  42.9522554
  28.9101720  60.0551653  83.7895298  28.8010764  59.3728447  83.1271362
  29.1602349  59.5812082  84.5826626  45.1659155  60.9596682  78.2962227
  45.6374454  60.4876375  77.6098728  45.6976032  60.8337307  79.0821457
  60.6137085  59.6707773   9.2716924  59.9592781  59.6171904   8.5752240
  60.5704737  60.5787420   9.5716420  10.5058789  77.6398993  25.7461683
   9.8008120  77.0472813  26.0067788  10.5904365  78.2488155  26.4798585
  47.5839472  75.2854013  15.2183000  48.4467554  74.8801804  15.3054372
  47.2150946  74.8953819  14.4257966  46.7515182  78.0695915  77.3949718
  46.1516047  78.3975792  78.0648661  47.2014284  77.3363304  77.8146601
 118.4711660  65.6311512  88.7692547 118.4678317  65.8305168  89.7054482
 118.4676755  64.6748447  88.7279987  31.4390779  31.5659499  94.0230083
  30.7156634  32.1837497  94.1289616  31.6018105  31.2339830  94.9059296
  21.9146252  82.0133877  22.8936044  21.8959498  82.8315544  22.3971120
  21.4057279  82.2002697  23.6824743  42.0871878  81.1548138  19.0589658
  42.6525736  81.2195492  18.2893030  42.6932621  81.1171150  19.7988836
  75.6596184  37.4375129  15.5034295  75.7711983  37.4236655  16.4540044
  76.1970663  36.7107081  15.1885740 102.4373627  43.2153606  97.8775120
 102.6083183  43.0860424  96.9446182 102.1478081  44.1252851  97.9440689
  13.2976007  29.9982738  69.0162277  13.4159052  29.1220546  69.3829393
  13.5056174  29.8991847  68.0871725  61.1987638  37.0711422   3.8167325
  60.8036900  37.9130816   3.5902635  61.8797874  36.9409013   3.1568281
  51.4640522  88.2195663  75.5988121  50.5507612  88.4468555  75.7733774
  51.5919685  88.4344864  74.6748686  24.4983435  82.9467678  76.1031342
  23.7232041  82.9422760  75.5415535  25.1258993  82.3839378  75.6496716
  87.4352741  80.2474117  98.0740166  88.0834866  80.3196621  97.3734093
  87.7074814  79.4777107  98.5737228  36.0781503  68.9738607   5.7175580
  36.8478847  68.7247086   5.2060262  35.3690529  69.0200090   5.0762407
  66.1057568  37.3714590  10.2906743  65.7585287  37.1379471   9.4297830
  65.7301331  36.7216635  10.8847371  45.5802870  54.6203184   8.5154096
  45.8879519  53.8319921   8.9627496  44.7705030  54.3495846   8.0827562
  18.5991991  70.8485937  96.6995430  19.3776965  70.4871416  96.2758350
  18.2525206  70.1247358  97.2211552  32.6611233  93.2308674 108.3015823
  33.0051064  92.3413181 108.3828640  32.1588564  93.2199287 107.4868202
  54.1623068  73.6653280 104.4563007  53.2553196  73.6724472 104.1504288
  54.5994568  74.3308353 103.9250469  25.7158089  68.5283613   9.1041509
  24.9107456  68.0576611   9.3198911  25.7127285  69.2877579   9.6868459
  49.5070601  73.3854818  87.5693512  50.0684738  72.9557228  86.9240952
  49.9939394  74.1683435  87.8268528  52.2526598 108.8535976 105.5120277
  52.0327282 108.3960152 106.3234901  52.0201015 108.2363224 104.8183918
  64.4371223  67.1367025   5.3635637  64.2403650  66.2282848   5.1348916
  64.7984600  67.5128508   4.5609514  22.5213456 105.3254414  62.1003866
  22.1520495 105.3849220  61.2193012  23.1703401 104.6243382  62.0412397
  50.5798721  81.9735909  97.7610016  50.0909901  82.7908325  97.6643658
  51.3608313  82.0964241  97.2213268  42.3774958  51.5326357  70.6471491
  41.5844440  51.3912296  70.1301384  42.1493340  51.2255239  71.5245628
  21.9591093  65.9082317  95.7580662  22.2501326  66.2961102  96.5833473
  22.6102829  66.1929131  95.1168442  26.0538316  43.2376909  89.6555424
  25.5914593  42.6487494  89.0592289  26.2657475  44.0024805  89.1203594
  65.2407074  82.5956249 101.6287613  65.2700663  82.7241993 100.6806850
  66.1595774  82.5729084 101.8959522  75.3900623  71.6286707   1.7967454
  76.3413477  71.5249872   1.7734567  75.1660728  71.9784260   0.9343473
  43.6053848  60.8930683  25.4482499  43.9605665  60.2128839  24.8760358
  44.3554068  61.1866903  25.9654275  48.2438421  37.7809310   9.1857663
  47.3327875  38.0057526   9.3746129  48.5675621  37.3909426   9.9977723
  47.5119209  66.4247370  83.6353302  47.8398418  65.5407000  83.4704590
  46.5684080  66.3124895  83.7511539   8.1231529  60.6386614 109.1289520
   7.4411714  61.3005447 109.2431641   8.8125950  60.8971167 109.7405910
  38.6526942  72.8047514  21.8766538  38.1589079  72.4878216  21.1203710
  38.2781553  72.3343897  22.6214448  68.7412024  95.0223923  13.7826291
  68.6006546  95.6049442  14.5290223  69.1421366  94.2401314  14.1615144
  17.6079690  86.8755150  90.1422215  18.1032145  87.6642036  90.3634357
  16.7137420  87.0670605  90.4248810  14.0608048  89.2630672  29.6831743
  14.2542291  90.1162338  29.2946760  14.5995915  89.2321873  30.4737321
  34.6657801  76.2491083  99.2584324  34.6455121  75.3000355  99.3812752
  35.5967116  76.4625740  99.1949558  26.7959762  64.1290951  82.5394917
  25.8572578  63.9473534  82.4946499  27.1991873  63.4373665  82.0149326
  24.2941952  56.5462685  28.0088655  23.8570213  57.2733259  28.4521428
  25.0611687  56.9435835  27.5964109  69.0921593  57.4899101  21.6977063
  69.9706745  57.3227501  21.3563958  68.5044813  57.1778488  21.0096113
  72.6130247  89.0867996  93.1968403  72.4693441  88.2447433  92.7649498
  72.5405216  88.8921928  94.1312313  34.3952417  88.9804077  99.8910904
  34.3912101  88.7087631  98.9732456  34.1029954  89.8917103  99.8724461
  61.9971657  34.9048090  88.2649612  62.2015905  34.3088198  87.5443840
  62.7052975  34.7707534  88.8948917  13.4840286  74.6249390 102.2327423
  13.7672389  75.0970840 101.4497280  14.1456532  74.8353195 102.8916931
  42.1520329  78.2960892  78.9674044  42.7623272  77.6449537  79.3135214
  42.5665474  78.6093855  78.1635046  93.6691284  39.3503904 107.4416256
  93.0056000  39.9900174 107.1831131  94.3866634  39.4861984 106.8228149
  47.1337461  71.4456797  16.4310113  46.6568756  72.2166967  16.7381898
  47.9577541  71.7937326  16.0902826  28.6367869  74.8955011  95.0341034
  28.3083296  74.6965837  95.9109020  27.8494883  74.9724054  94.4951439
  32.0545173  43.0068779 102.1705246  31.1617279  42.6931477 102.0265293
  31.9632769  43.9553213 102.2619534  50.4485083  90.1083565  87.4636650
  51.3194609  90.4423332  87.2488785  50.1401520  89.7043705  86.6525364
  34.2840791  43.4169102   6.8880788  35.0299835  43.7529850   7.3849813
  33.9213490  44.1870022   6.4503423  40.1291943  33.1811476  32.2857896
  39.9116945  33.7169743  31.5230218  39.3243814  33.1638312  32.8036825
  23.5220313  26.2484479  97.6849174  22.7707005  25.6561351  97.7149296
  24.2639780  25.6834412  97.4692440  83.7205124  37.5126076  14.0588037
  84.2937946  36.8277121  14.4030420  84.1820621  38.3293104  14.2490808
  29.9176121  27.1748257 101.5560818  29.3494320  26.4744353 101.8767929
  29.4026446  27.9732466 101.6725445  64.6002722  66.1685228  89.9774456
  65.3844643  65.7433796  89.6302700  64.4174910  65.7037830  90.7940483
  20.1877213 100.6062031 102.7958870  19.4751072 100.6861210 103.4299374
  20.7864118 101.3194942 103.0172634  58.7569427  62.7610493   0.6128351
  58.4645462  62.9365778  -0.2815493  59.7042990  62.6469994   0.5370752
  15.7896376  73.4916496 106.1984730  15.4459429  73.0039454 106.9469738
  16.2486410  74.2359018 106.5878773  61.2704182  74.3469667   6.1020128
  60.6745768  73.7244177   6.5187112  61.0893011  75.1799726   6.5373651
  36.9891572  41.4742088   5.7473317  36.7669463  42.2587347   5.2459565
  37.9161596  41.3254070   5.5608980  50.4688835  58.1051588  82.6127243
  50.4175806  59.0513468  82.4773693  50.1108551  57.9689407  83.4899330
  68.9229393  58.6240292 105.8803844  68.3350992  58.3075666 105.1944351
  68.6023951  59.5026970 106.0839367  34.0591669  52.6777935  86.1504269
  34.0967941  52.9262400  87.0740509  33.1364155  52.4772644  85.9937382
  43.7352753  60.9279394  67.5471592  44.0021133  60.2916384  66.8837166
  42.8311968  61.1456585  67.3202848  88.2314682  86.3605595  98.8022423
  88.2122612  87.3134804  98.7139034  89.1357040  86.1195374  98.6009884
  35.8167410  69.6299314 104.5201683  36.6111684  69.8048973 105.0246429
  35.1033306  69.9204063 105.0884151  66.7369413  58.7490940  10.5145208
  66.0853100  59.1104174   9.9136487  66.3086462  58.7654829  11.3703958
  53.0091333  75.4418039 108.2429600  52.6189709  75.7365513 107.4200821
  53.5164881  74.6663332 108.0032444  39.5297432  41.8170071   4.4270936
  39.8521256  41.6426659   3.5428373  40.0353289  42.5746727   4.7213022
  58.5358191  44.8399782  93.3277416  57.6651382  44.4436693  93.2948589
  58.4761572  45.5978155  92.7460575  31.5769839  75.6150818  15.3251020
  31.7158794  76.1217833  16.1252252  31.9712186  76.1466169  14.6335260
   3.3833987  58.1232357   4.7596208   2.8671992  58.2915306   3.9713041
   4.2781532  58.3594465   4.5149747  45.7532072  64.7257280  72.7975941
  46.6489029  64.3886232  72.7795506  45.2673626  64.0869999  73.3193302
  27.0974374  49.0894985  92.4583244  26.9573832  50.0352240  92.5054836
  27.9626036  48.9558983  92.8454494  56.9201612  54.3361235  19.4012014
  57.5057125  53.8305044  19.9648610  56.2562847  54.6842670  19.9964372
  27.5607252  62.2903156  72.2766829  26.8492317  62.5738621  71.7025661
  28.1241822  63.0598450  72.3577785  57.8979731 104.3881130   1.4004556
  57.7964783 104.0810108   0.4995576  57.8933907 105.3427124   1.3300363
  55.5814886  56.2478399  28.0016176  56.0853386  55.4796505  27.7328245
  54.7997332  55.8871555  28.4199563  49.9871063  45.9219265   3.2520143
  50.0789404  46.8300200   3.5403863  50.8422327  45.5280876   3.4248773
  40.2666998  43.0375671  21.5180627  40.2408648  43.2903576  22.4409238
  40.9975100  43.5367060  21.1533681  45.9324026  90.4329014 109.2811012
  46.0185242  91.1154556 108.6155605  46.8212366  90.0966740 109.3957710
  25.7203460  92.8271294  23.2939092  26.5995288  92.4510002  23.3362523
  25.1568818  92.1645927  23.6936513  48.6477089  49.2545700  91.8716431
  49.2537546  49.2415619  91.1308479  48.4328318  50.1799202  91.9890785
  50.8087921  94.4347763 105.4761219  50.7155848  93.5769558 105.0617695
  51.1344385  95.0036049 104.7785378  43.8732910  81.6074562  94.0822697
  44.2728949  80.9226418  93.5459995  43.1175375  81.9000912  93.5729313
  66.6403055  88.1330490  96.5618706  66.9841576  87.9817677  97.4422741
  66.8948698  87.3535538  96.0681057  24.1055751  55.2594423  78.6598206
  23.8804626  56.0099411  79.2096424  24.7696805  54.7860527  79.1609192
   1.3143601  87.4322987   8.9433614   1.5264882  86.5015221   8.8733712
   2.1648115  87.8685856   8.9944974  10.9010315  62.6857615  79.8092031
  11.0322690  62.3815489  78.9111710  11.5075469  63.4201431  79.9043560
 112.1376795  53.6529255  97.0120335 111.6412467  52.8520012  97.1802711
 112.1567268  54.1045856  97.8557682  55.4795122  58.4799290   7.4503270
  55.2998686  57.8810549   6.7255441  54.6144724  58.7224436   7.7806703
  29.8162556  94.3892288  85.5475140  30.7670450  94.2786884  85.5510330
  29.5517755  94.1600037  84.6565914  62.5266600  45.9889364  37.4423162
  62.5490808  46.7686844  37.9970399  63.0332851  46.2316942  36.6673127
  69.9838686  87.1228504  97.1961689  69.1220903  86.7885113  96.9476032
  70.5663681  86.8273449  96.4964485  45.5239773  61.4826155  92.1957397
  45.1386023  61.6200066  93.0610943  46.1510324  62.1989632  92.0963287
  75.7852840  39.4879389  93.6254692  75.8305407  38.5520816  93.8213158
  74.8568678  39.6537638  93.4618187  55.1340437  59.4511747 105.2557087
  54.3399572  59.0371180 105.5936623  54.8477221  60.3172874 104.9657154
  41.3658094  67.6053476  12.5467149  41.8630648  66.7892265  12.6006738
  41.9539690  68.2151794  12.1012918  60.8687258 115.7876587   1.9377939
  60.7495070 116.3640118   2.6926652  61.2043715 114.9720669   2.3098031
  74.8938894  69.3327236  94.7313595  74.6836376  68.6099768  95.3226757
  74.1064787  69.4429350  94.1983795  51.1522532  42.6935577  93.1919193
  51.9071722  42.5452423  93.7614155  50.9087372  43.6057186  93.3497143
  55.1110458  94.9866199 103.2135677  54.5824432  94.1890144 103.2388878
  55.0882816  95.3176308 104.1114235  27.4971390  56.7954206   3.8765088
  27.7239060  57.3395300   4.6306650  28.3167291  56.3617468   3.6389581
  31.5078449  75.8917046  92.3180199  32.3595524  75.5811787  92.6252651
  30.9218621  75.1449776  92.4415302  56.8472433  51.9450235  10.5663339
  57.4847555  51.5108204   9.9995271  56.4335632  52.5998354  10.0039140
  72.4800634  36.0919166 102.2700119  72.9614210  36.4260697 103.0268955
  72.1861410  35.2213860 102.5383663  29.9349046  63.0825424   3.7750951
  29.1011667  63.5356331   3.6493055  30.5441451  63.7713766   4.0407411
  92.8759766  35.7306004 109.6456814  93.4465218  36.0433865 108.9436245
  92.9356766  36.4057708 110.3215599  75.5299902  31.2141776   6.6172735
  75.1844072  31.0786629   5.7349817  75.6172752  32.1640468   6.6970292
  19.5730710  25.6636453   4.4041196  20.3150034  26.2660837   4.3508664
  19.8556495  24.9897313   5.0223581  40.8383846  88.8020897  77.8380680
  40.5761623  89.6279144  77.4312830  40.3583336  88.1322193  77.3511839
  44.1399050  71.2457323  98.7029362  44.5778990  70.9522104  99.5018387
  44.2740440  70.5314589  98.0799961   7.7105111  41.2663269  21.8686715
   7.5674713  42.2019005  22.0117608   7.1958733  40.8379793  22.5527040
  50.0502014  82.2929478 107.2078896  49.2771482  82.6920891 106.8087578
  50.6165028  82.0750713 106.4675808  43.1210995  92.0630264  68.3809280
  42.7840662  92.7703667  67.8311062  42.5695992  91.3103104  68.1676102
  24.1017222  96.2622929   0.5655805  23.3300710  96.8283176   0.5454580
  24.4718385  96.3305378  -0.3145274  49.6948051  73.3356714  74.3665886
  48.8887930  73.5221720  73.8851357  49.5129824  73.6270571  75.2600479
  45.9350729  50.9850645  17.0457307  46.2308788  50.2272081  16.5413705
  45.0690889  50.7351160  17.3679677  41.5948772  71.4358664  99.4187069
  42.4505043  71.4076376  98.9905262  41.6437340  70.7614756 100.0962353
   1.2794520  41.0480642 106.3496971   0.8309481  41.3649082 107.1337128
   0.6850927  41.2624073 105.6306553  65.8803749  80.4420853  70.1217651
  66.7491817  80.2034855  70.4450035  65.7433510  81.3345337  70.4395676
  20.2703071 104.8234081  20.4309598  20.1816511 103.9527798  20.8187429
  20.8875346 104.7025013  19.7094003  38.0787373  71.5569067  59.2279720
  37.7543211  72.3504734  59.6536922  38.9956188  71.7485523  59.0309095
  69.2946625  54.6592617  10.6186334  69.8066902  54.2068291   9.9482862
  69.3942118  55.5880833  10.4097883  44.1807747  98.0211639  68.4341288
  44.1013336  97.7932453  67.5078583  43.9207983  98.9413643  68.4775019
  13.6564589  76.8914747 106.1089325  12.8644454  77.0346355 105.5908108
  14.3587351  76.8313789 105.4612923  60.4394150 101.9896889  92.9363155
  60.2474642 101.4934444  93.7320137  60.7986307 101.3414288  92.3305511
  21.5750766  65.9009981  87.9979515  22.5184488  65.8441591  88.1497765
  21.2327170  66.3368559  88.7783718  49.2573738   7.2933692  85.0414753
  49.6998549   6.4449620  85.0668812  49.8624325   7.8650081  84.5688534
  24.0408540 100.0426006  97.1790981  23.7474632 100.0454998  96.2679768
  23.4811950 100.6866169  97.6129818  38.0729532  76.5079594 109.3778801
  38.7629390  76.9476223 108.8810444  38.5404992  76.0132933 110.0508881
  34.2371535  66.7594671 108.0405998  34.9169540  66.5472746 108.6801910
  34.1174269  67.7055454 108.1232834  21.5338826 102.1529102  91.9565964
  22.4461675 102.1235371  91.6683197  21.4765620 102.9458809  92.4896526
  83.8732338  76.5967417  42.9608766  84.6960163  76.2291956  42.6381055
  83.2061195  75.9669971  42.6877157  57.3743773  76.7610931 103.9075756
  57.3320436  77.0761061 104.8104572  58.1581974  76.2122822 103.8818741
  40.7513046  29.0728354  24.2287675  40.2553463  29.6131659  24.8438302
  40.4588938  29.3634772  23.3649103  70.0987244  85.5958843  88.5300732
  70.3957558  85.2999973  87.6695728  70.9053326  85.7526302  89.0210342
  30.0863028  51.9311380 110.0777912  29.8030400  52.1986675 109.2034721
  30.7744813  51.2849712 109.9193287  36.3569880 100.4927063 102.8068161
  36.7744899 100.5981159 103.6616993  35.4417133 100.2992439 103.0094910
  89.6363068  53.4488058  84.1761494  89.5032597  53.5444784  83.2330799
  90.4989338  53.8314819  84.3363667  38.3823276  80.0556564  68.6852980
  38.9566898  80.7033157  69.0937996  38.9575696  79.5581007  68.1041145
  36.6466761  46.6521311  84.4032860  36.9746041  47.0093393  85.2285671
  36.7065430  45.7030678  84.5124817  43.8874865  37.2658372 104.3163490
  43.4976292  37.1239209 103.4537315  43.9169216  38.2177687 104.4122028
  77.6992702  66.4445400 101.1638260  78.4803915  66.1183500 100.7169724
  77.0495033  66.5444994 100.4680920  25.2354169 115.4480267   3.1989518
  24.3331075 115.6015015   3.4791604  25.1804256 114.6876335   2.6201574
  44.1975117  67.1729708   2.8767339  44.6865749  67.4172401   3.6624757
  43.4085989  66.7447615   3.2091180  41.3085032  90.4759693  66.9881582
  41.2432098  90.3352451  66.0436106  40.5192423  90.9691334  67.2119665
  59.8970842  58.1290388 106.2335491  60.1776028  58.4625626 105.3813171
  59.5691729  58.9000750 106.6963768  75.5925512  30.9882689  61.5642023
  75.4371786  30.7051277  60.6631374  76.4298868  31.4507198  61.5289354
  56.4381313  67.2351313  94.1492748  55.8148718  67.4858427  93.4674168
  57.0259380  67.9868269  94.2245960  44.7013712  67.8031969 108.6868763
  45.1940060  67.8367281 109.5068836  43.8230467  68.1017733 108.9227486
   4.7542766  63.7477922  19.2528764   4.3483144  64.0251017  20.0741712
   5.5925494  64.2094231  19.2322198  46.1519909  28.0265999   5.7251016
  46.4814615  27.1490741   5.5311147  45.6807661  27.9280472   6.5524236
  33.7229466  74.1659737  77.4284554  34.5738721  74.4679213  77.1106768
  33.7491250  74.3257904  78.3718586  29.5943594 104.8646832 101.7174149
  30.1715231 105.4728031 101.2555695  29.9659419 104.0005112 101.5403175
  52.2687531  55.3320837   3.1105748  52.1262741  55.1522732   2.1812669
  52.9436731  56.0107374   3.1224862  40.3239202  57.8431416  82.8860378
  40.9187031  57.4398327  83.5183430  39.7803068  58.4314585  83.4100628
  96.0459137  65.4913044  97.5046062  95.6648064  66.2054539  96.9937420
  95.8514404  64.7034073  96.9970322  36.3329363  53.2904387  19.5928518
  36.8795800  53.2498646  18.8081399  36.8935847  52.9559469  20.2928678
  56.1870861   8.7295324  91.1278248  56.6029453   9.3758970  91.6983604
  55.4093027   9.1735053  90.7899284  50.7836199  79.5267773  59.0949726
  50.3715706  80.2534676  59.5622635  51.1702251  79.9302530  58.3178091
  56.2496853  56.3586950  79.1942644  56.9874573  55.9467697  79.6439791
  55.6410503  56.5908575  79.8956156   8.1998420  58.0760336 104.7022343
   7.3285085  57.7577782 104.4661713   8.4059274  57.6249170 105.5209255
  35.8440304  72.1025085  61.6227674  35.5888057  72.7230167  60.9400845
  35.6548953  71.2424564  61.2475729  65.3957987  84.0519047 107.9220295
  65.1344442  84.3580341 108.7904835  64.9497366  84.6429539 107.3154640
  41.7241383  84.3499756 104.8282719  41.3983297  84.6147633 105.6884861
  41.0481071  84.6407890 104.2161942  48.1019258  51.9990492 108.0649567
  47.2072268  51.6588545 108.0676937  48.2443666  52.3055363 108.9605141
  11.4931631  99.1925716  95.3709602  10.7008624  99.2848587  94.8418331
  11.8624544 100.0749969  95.4051781  49.5430374  62.5337124   2.5726358
  48.7248135  62.2922134   2.1385614  49.7990513  61.7478371   3.0554334
  65.6437349 107.5783443   7.5602952  66.1224937 108.4007835   7.4572126
  64.7768974 107.7585983   7.1965257  33.5799098  79.0512228  98.9859295
  33.9737964  78.2928848  99.4172096  33.0775785  78.6800909  98.2605553
  72.0540762  47.1585512  14.9207441  71.6630840  47.9791260  15.2207700
  72.3310089  46.7174673  15.7238523  55.2103758  36.8993759  18.6317388
  54.7308826  37.0079637  19.4530336  54.8343611  37.5566030  18.0461637
  60.9792995 103.2577133  74.0220594  61.3288307 103.6527157  73.2232857
  60.2107811 103.7872601  74.2346525  51.3871479  34.7940350  19.3966810
  50.7638931  35.4079819  19.0082876  51.9566011  35.3410053  19.9377672
  51.6710329  48.5371542  25.0947801  52.0713186  49.1751385  25.6855241
  50.8789730  48.9699030  24.7760335  37.6227069  46.4870405 106.5443420
  37.9136753  45.5797052 106.6355610  37.2292376  46.6986370 107.3908901
  64.7358942  71.8171597  12.4989072  63.7809610  71.8249846  12.4335615
  64.9592066  72.6802635  12.8473512  21.0254598  75.5803919  11.6286031
  20.2116394  75.0777102  11.5933458  20.9741402  76.1721897  10.8780233
  15.7186949  53.0207872   3.1018201  15.5554116  53.4935045   2.2856656
  16.3464952  53.5677767   3.5739461  81.6555786 100.7390404  30.6443635
  81.9682693 100.2883434  29.8599283  81.8249893 101.6652298  30.4720060
  77.6884222  70.2339220 101.2523937  78.3588791  70.8995628 101.0986328
  77.1304703  70.2720451 100.4755592  57.1830463  77.4720716 109.7340679
  56.8162251  77.3414803 108.8596439  56.4639139  77.8479767 110.2417850
  61.9287014  30.6447864  82.1008587  62.1758842  31.4317369  81.6152287
  61.0867453  30.8641648  82.4998856  52.3796463  58.6729002  84.7426796
  52.2717953  59.3710995  85.3885174  52.0977926  57.8796291  85.1982117
 106.0866637  38.4780192 104.0968895 106.1162145  38.2166719 103.1765270
 106.6565341  37.8510666 104.5423126   6.8026590  27.4652863  19.5499555
   6.7340738  27.2267294  20.4744188   5.9342277  27.2836947  19.1906778
  42.3257399  60.3274632  16.2447587  42.3643017  59.8265266  15.4300157
  42.1082020  59.6791029  16.9144861  51.1478996  40.6012297   6.4847890
  50.7879305  40.3245687   7.3274652  52.0582247  40.3060293   6.5046731
  48.9437914  75.8570576  89.5449162  48.3448362  76.3796663  89.0116596
  49.7534895  76.3671589  89.5653057  21.7056537  78.0598354   9.9477521
  21.6385150  78.3602381  10.8541051  21.6828513  78.8626766   9.4270173
  59.0919209  75.8827400  68.7430000  58.5949755  75.5114651  68.0140114
  58.8006639  75.3872108  69.5084095  82.4272919  58.1432104  97.8158092
  81.5080070  58.3792067  97.6914978  82.6325703  57.5787830  97.0704746
  85.5144787  80.3562164 102.2465992  86.4657021  80.4629993 102.2502041
  85.1877594  81.1349106 101.7958927  37.3496771  97.5224113  81.8309975
  38.2039189  97.9204369  81.6634369  37.3468757  96.7277813  81.2973404
  30.0286055  73.2409143  11.9446698  30.0139022  74.0995407  11.5218393
  29.1060328  73.0014706  12.0327226  36.4670634  85.2830887  94.3004704
  36.9976258  84.6282005  94.7541809  36.5723801  86.0792828  94.8212433
   3.7091523  77.3930502  73.5623121   4.3146887  77.6252222  72.8582859
   3.4177113  76.5075111  73.3452559  43.4295654  64.7881603  74.7647047
  43.0151272  63.9255285  74.7464275  44.2895174  64.6325064  75.1552010
  51.1458158  48.1901455  73.4865665  50.6620741  48.0279875  72.6766682
  51.9197702  48.6803532  73.2092142  44.5094919  66.2042475  60.8373785
  45.2519178  65.6690168  60.5570698  44.2774773  65.8592272  61.6995621
  32.2647500  67.0092154  49.4403219  32.8544736  67.3565054  48.7711096
  31.5853024  67.6773357  49.5308828  14.6349466  65.2642918 108.1933689
  15.5889404  65.3141308 108.1330109  14.3222725  65.9817028 107.6422024
  10.2372825  58.2451677  71.7996740  10.2247512  58.8588524  71.0651922
  10.1542282  58.7989759  72.5759649  40.5136824  61.5826130  76.9491339
  41.2778950  61.3677740  77.4839830  40.0080395  60.7705116  76.9167614
  26.9479203  74.2877388  52.4890089  27.8431916  74.1134262  52.7794123
  26.6895962  73.4944487  52.0197582  72.2566319  39.8694062  16.3443796
  71.4610195  39.4244123  16.0524694  72.1134996  40.0284815  17.2773496
  41.5364456  79.0131235  85.7603836  42.3924589  79.4239330  85.8816338
  41.0205746  79.6685791  85.2908230  49.9097633  60.5115223  88.1404018
  49.6283484  59.9792004  88.8844872  49.7179651  61.4116001  88.4036636
  12.7914214  65.6090069  68.0347013  12.8057098  66.1106396  67.2196007
  11.8978357  65.7101870  68.3625698  29.8203540  61.4178181  73.7043381
  29.6143579  62.2233963  74.1785145  29.0609598  61.2709665  73.1404305
  33.0098963 103.4410191  61.2881613  32.4627113 103.5836411  62.0604849
  33.1214929 102.4912930  61.2457609  24.8682165  43.6664057  70.2910614
  24.3329263  43.7879992  71.0752249  24.5556474  44.3350935  69.6816444
  38.6665249  74.2661142  66.4728069  39.3822408  73.9295769  67.0119953
  38.9897728  74.1957188  65.5745935  32.0625734  45.9691143  87.9319000
  32.1234846  46.8458939  88.3110905  32.9644680  45.7435274  87.7040291
  36.9526076  97.4891567 102.9241753  37.5319052  97.1119499 103.5862637
  36.8901443  98.4147739 103.1599140  35.9965730  43.1187057  86.8192863
  36.3016415  43.5463142  86.0190964  36.7428446  43.1680584  87.4166775
  58.5788107 103.9006233  59.5492458  59.3508816 104.4588661  59.6414566
  57.8688908 104.5067692  59.3375111  48.9832783  85.6779194  56.8869209
  49.5100880  85.2518368  56.2107849  48.8469648  86.5670013  56.5595150
  10.5253100  59.6276093 106.7666721   9.6850395  60.0375509 106.9719124
  10.2922368  58.8188744 106.3107586  45.5634260  61.8281841  71.4418125
  44.8166323  61.4891386  70.9482670  46.0615444  62.3376560  70.8026314
  42.8847408  71.4955950  62.6068878  42.0460653  71.1962414  62.9579449
  42.9732227  71.0350180  61.7724609  21.3594365  62.3658609   2.4299661
  21.3089275  61.7713881   1.6814462  20.6011701  62.1384144   2.9680482
  61.1363029  62.3327875  89.0187740  61.3672972  62.5311804  89.9262524
  61.6831827  61.5808487  88.7913227  44.9030256  38.7416720  88.3639526
  44.3913507  38.3352947  89.0634346  44.8264694  38.1348491  87.6276493
  29.4632459  61.1254454  97.5610542  30.1473546  61.6445684  97.9838276
  28.7174940  61.1798906  98.1586552   2.3466112  70.6001186  71.1830902
   1.7737792  70.9813309  71.8485022   2.1845718  69.6583652  71.2385845
  56.6250372  50.6807613   6.7280427  56.9696093  50.1176739   7.4211828
  57.1184063  50.4289055   5.9474126 111.3875241  57.8478575  58.1587410
 111.7646498  56.9724941  58.0707359 110.9093935  57.9859734  57.3410940
  45.2326345  34.7539878  97.5104237  45.7522202  34.4276810  96.7757225
  45.7481956  34.5318699  98.2857323  46.1837626  48.5510206  94.5413589
  46.4475203  49.1943789  95.1992035  46.6339922  48.8265610  93.7428570
   5.4287279  57.6150036  96.1226654   4.5323458  57.5575638  95.7918644
   5.5506736  58.5427713  96.3241863  24.3745399  78.8355446  73.2641268
  24.9486947  79.5740509  73.4670830  23.5467911  79.2400265  73.0043983
  58.5643911  49.2702532 103.1037807  59.0787411  50.0198317 102.8040886
  58.0477381  49.6108818 103.8340282  43.7994957 114.8360062  79.4364882
  44.3499279 115.5421066  79.0978479  43.6968517 114.2367649  78.6971617
  35.3327012  45.8523130  88.6971378  34.8957348  45.2323580  89.2810535
  35.4626513  46.6349459  89.2327023  27.9024863  56.7192411  95.5816174
  27.1008062  56.2635660  95.3248978  27.6235151  57.3276567  96.2658882
  56.4008713  76.0831642  71.5911102  56.1636162  75.6575871  70.7672024
  56.8538475  75.4033899  72.0900583   6.9235963  68.3928967  98.2892036
   7.3137796  67.6458454  98.7429619   6.0062981  68.1474304  98.1686020
  61.1225891  90.6751156  68.3285475  61.0477781  89.8820305  67.7978468
  60.2242756  90.8705139  68.5951757  88.3894348  95.7703972  52.8034592
  87.6850224  95.1241589  52.8526306  87.9482460  96.6137791  52.9049110
  49.3666458  67.2978210  81.7705154  48.5902691  67.1596718  82.3130894
  49.3508196  66.5763664  81.1416340  50.9647751  84.7860146  75.3846025
  50.4747200  85.1122665  76.1393452  51.8830729  84.8653126  75.6428146
  20.6171155  55.0083828  78.9360762  21.5532541  54.8663187  79.0764141
  20.5004358  55.9530592  79.0370941  28.0823708 110.3985691  79.8378754
  27.5180459 109.8334312  79.3102455  28.1300473 109.9623871  80.6885815
  32.1017337  84.9200439  85.6501389  31.5239096  85.4940701  86.1529732
  32.8871536  84.8374844  86.1910057  17.2613168  82.9998684   0.6927244
  17.1545041  82.4281979   1.4529935  17.9400659  82.5757885   0.1676599
  59.0065527  60.3882170 107.1479321  58.1345463  60.3468943 107.5405216
  59.1533709  61.3205051 106.9881916  62.3230505  62.3212910  91.6700649
  63.2098532  62.0530128  91.4295673  62.2679758  62.1508884  92.6103592
  71.8777418  79.5859909  79.7129250  71.8350506  79.1315031  80.5542660
  71.6119623  80.4837608  79.9119139  41.5994406  37.5032711  87.9200172
  42.3919964  37.3981571  87.3936749  41.6017389  38.4259391  88.1747913
  19.2382383  62.7733183   7.3605481  19.1830862  62.1795654   8.1093065
  20.1532745  63.0538082   7.3441831  74.1573429 105.1174259  97.0609856
  73.4221172 104.5294285  97.2339821  73.8372612 105.9826565  97.3162460
  60.8553457  66.7190599  80.7064438  59.9539423  67.0410728  80.7094765
  61.3286638  67.3372698  80.1496506  30.1408076  94.3738174  34.9097252
  30.1325083  95.1819324  34.3967843  31.0588503  94.1028786  34.9149847
  56.2213802  69.4404459  52.0248938  55.5462360  69.1248608  51.4242077
  57.0038080  68.9420652  51.7889833  40.1473761  73.9104605  87.4222088
  41.0282516  74.1279984  87.7271175  40.1821566  72.9714489  87.2397709
  23.1427193  97.7709579  77.2901630  22.3930168  98.2969761  77.0118141
  23.7041354  97.7257156  76.5162182  46.5642548  62.6979303  44.5681620
  46.0262156  62.8803539  43.7977934  47.4627113  62.8469563  44.2735481
  54.0685558  61.0736322   2.6657525  54.1000319  61.8345165   2.0858423
  54.8746157  60.5938148   2.4752847  59.8636007  70.2432728  86.4280891
  59.3729353  70.0409603  87.2246742  60.7704782  70.3316689  86.7213345
  32.1907282  73.5802698   7.4595205  31.3959551  74.0955925   7.5974122
  32.4906921  73.8317442   6.5860120  53.6130190  20.3686142  55.4968548
  53.8228416  20.6446004  56.3890648  53.6068344  19.4122839  55.5371761
   0.7256974  64.8199797  92.2088051   0.2663774  65.5157471  92.6790810
   1.6494542  64.9593687  92.4173069  47.8039503  48.1641436 102.0874977
  47.8342628  47.8138113 102.9777718  47.2128820  48.9148140 102.1455097
  41.4724255  70.6846428 109.3078327  42.0898104  70.1780272 109.8354721
  40.6143188  70.4760838 109.6771336  48.2615042  66.0284376  76.3558674
  47.4309015  66.2609959  76.7708921  48.8926077  66.6503525  76.7180252
  27.2399783  77.0518732  80.2964020  27.6101470  77.4543810  79.5107889
  27.0224833  76.1590910  80.0283241  39.8902607  55.8988190  66.5248871
  39.6317339  56.1755657  65.6457949  40.7962656  56.1949873  66.6124773
  18.7643266  95.3540134  95.6184673  19.5769131  94.9915409  95.9713936
  18.2937634  95.6789684  96.3860703  61.3197470  76.1199093 101.0094833
  60.9068060  76.9832182 101.0298252  60.6401396  75.5219460 101.3206196
  48.4832001  47.8050661  77.0659447  49.3547821  47.7889395  76.6705751
  47.9481649  48.3008385  76.4461184  63.7771797  92.9673767  78.3748531
  63.8689899  93.7056828  77.7725983  64.4697046  93.0989742  79.0224123
  42.7981043  34.6354389  15.6758825  43.4780884  34.1289067  16.1200372
  43.1730890  35.5113864  15.5845968  36.1848831  82.6712799  75.1498890
  36.2792349  82.5966644  74.2002773  37.0686746  82.8620434  75.4641390
  48.4510946  60.0701857  80.7195854  48.8652897  60.3854752  81.5228748
  48.5996962  59.1246319  80.7286930  57.8311825  67.1001244  76.3081741
  58.6611223  66.9873619  75.8447981  57.9675722  67.8704262  76.8597746
  20.5380511  60.1635075 105.3931046  20.4296160  59.9676037 104.4624710
  19.9919665  60.9357071 105.5405331  33.3947849  37.0696235  70.5488920
  34.2365003  37.2605729  70.9627581  33.4973335  37.3724508  69.6466637
  71.6677713  86.4366913  94.8976040  70.9485817  86.5388584  94.2742634
  72.4295330  86.2364197  94.3536854  60.2215052  46.5942955  77.9905081
  59.4130802  46.5276909  78.4986830  60.5970049  47.4365473  78.2471132
  59.6504831  73.7444019   8.6801091  59.1323376  73.3465338   7.9804937
  59.4546080  73.2156324   9.4535867  64.1421080  88.1672668  63.3965492
  65.0874138  88.3093548  63.4459019  63.9442587  87.6089001  64.1484261
  47.7148676  68.9635277  84.7214985  46.9735718  69.3043756  84.2209721
  47.7414560  68.0314159  84.5054150  42.9671717  48.7247133  81.2761497
  42.9131126  47.8853941  80.8191490  43.1478643  49.3623066  80.5854511
  60.2999544  71.1440802   6.9991437  60.9088564  71.3207340   7.7162687
  60.7917404  70.5821514   6.4003030  68.8120079 100.5224228  86.7375183
  69.4457579  99.8438549  86.9701862  69.0878773 100.8207607  85.8708382
  49.1794825  61.4994049 107.5942707  49.2663193  62.4353504 107.4134350
  48.2791042  61.3976002 107.9027939  50.8353281  38.1290889  87.2552013
  50.4226065  38.4156895  86.4404964  50.1077795  37.8268313  87.7988434
  37.1623683  61.3672972  17.4373094  36.3166642  61.3771296  16.9890729
  37.0542574  61.9783068  18.1661550  48.6970282  72.0708609  60.3472471
  48.3865881  72.8936100  60.7253313  48.5493803  72.1687651  59.4065857
  63.2356882  63.0696344  83.5561848  63.2804203  62.5874519  84.3818474
  62.4703074  63.6365747  83.6510658  32.8450203  66.6584539  59.0514517
  32.5014830  67.5488567  58.9779329  33.5722518  66.7325783  59.6694088
  33.9920878  91.6747379  91.7456532  34.4347739  92.5100803  91.8955040
  33.1259155  91.7891693  92.1366596  61.0077381  50.2974939 107.0195198
  61.3413620  50.0086069 106.1701202  61.4662552  49.7490263 107.6560497
  18.3052909  69.9414349  74.0803862  18.3926737  70.7768536  74.5393753
  18.6824381  69.2979479  74.6803188  38.2264900  83.2607174   8.8860083
  37.5744057  82.5697327   8.7695557  37.8288221  83.8615894   9.5161211
  65.5070734  95.5735302   2.4557725  65.8233929  95.7753658   3.3363572
  64.7374916  95.0224495   2.5981847  19.4114470  74.9025011  78.7903738
  18.4554470  74.8586655  78.7710524  19.6483576  75.3287935  77.9667330
  11.9456708  63.6617374  10.1474611  12.6609671  63.0271959  10.1915017
  12.2549593  64.4073915  10.6618253  51.1937714  74.9225569  61.7350388
  51.6930342  74.1425991  61.4928913  50.3325176  74.7879601  61.3396168
  31.4743161  57.0565081  90.6453419  30.7109785  57.2159958  91.2004185
  31.3965750  56.1374235  90.3894806  19.1690314  65.1757860   4.4823877
  19.7319853  64.4016504   4.4769040  19.7775519  65.9145451   4.4694558
   8.5006464  67.9266310  77.9237509   9.1163820  68.6064816  78.1974411
   8.0901641  67.6336527  78.7373209  46.7019367  35.2567959  74.5493603
  46.3231277  35.8298016  73.8827276  46.3559675  35.5908322  75.3769827
  55.7300186  54.6395063  77.0476294  55.5093861  54.9756145  77.9162979
  55.0811195  55.0352383  76.4657736  27.9724646  37.0324826  62.5050068
  27.7121019  37.4084496  63.3458900  27.2462630  37.2371984  61.9159794
  10.2077711  27.8403974  83.6205482   9.9797761  28.7243152  83.9085388
  10.2676582  27.3327923  84.4298553  29.1407108  98.3309841  80.3440380
  28.7832284  98.9320374  80.9976196  30.0718260  98.5489273  80.3021145
  17.9764867  22.8077555  70.2262688  17.9913044  22.2411299  70.9975958
  18.0602789  22.2067952  69.4859600  22.0744467  92.6612473  88.9762497
  21.5588403  93.4513378  89.1379547  21.6133332  91.9722366  89.4546509
  61.3829994  61.9494724 104.5252037  61.5585947  62.4016714 103.7000275
  61.9403648  61.1718512 104.4954967  20.0430179  67.1899366  90.0546646
  20.0349975  67.0445919  91.0007286  19.5049047  67.9713297  89.9278164
  16.4059091  70.5737114  79.4154501  16.4387846  69.6175575  79.3849897
  17.0036328  70.8114529  80.1242733  24.7862816  66.2778378  84.3712902
  24.6440530  66.9292736  83.6845303  23.9911366  65.7449865  84.3643475
  12.7273071  90.6259155  58.0493069  12.8022397  91.2698555  58.7535524
  13.6322093  90.4318905  57.8048897  55.9168625 106.4093113  63.4346914
  55.2982378 107.1371174  63.4965229  56.5869713 106.7157841  62.8237438
  69.8267174  75.5037212  74.9326849  69.6490192  75.1935148  75.8206224
  69.4278812  74.8447323  74.3644476  47.5116491  55.1409340  82.3680782
  47.9473066  55.8719397  81.9298172  48.0022097  55.0225925  83.1814480
  10.5365276  42.3076010  35.3736091  10.7176280  42.6992035  36.2280583
   9.7086775  41.8423986  35.4939651  19.2107499  80.1397514  98.9049911
  19.9334216  80.6676388  98.5654163  19.3068767  79.2932081  98.4686947
  55.2362967  77.7214098  97.5646591  56.0827494  78.0419827  97.8760719
  54.7521019  77.5094795  98.3627033  30.5487871  49.0248728  96.1013508
  31.0587692  48.2206106  96.1978531  31.1529112  49.6437979  95.6912327
  81.8205929  53.9423227  96.2513351  82.7130508  54.0640306  96.5752888
  81.3036823  53.7601948  97.0361137  21.4301348  39.1624832  84.9326134
  21.1439037  38.3119988  84.5994759  22.2517443  39.3355632  84.4730186
   7.0540887  72.7284956  85.5743504   6.6495001  72.0803022  86.1508846
   6.8869019  72.4006176  84.6907330  13.4747767  60.7320547  69.0501213
  13.6999714  61.1919832  68.2414293  13.5408676  61.4004230  69.7321415
  30.0458026  70.7161188  74.8779535  30.7354832  71.0127544  75.4717398
  29.5825291  70.0374985  75.3689623  15.1789200  85.6397629  73.0865002
  15.4817390  86.2232113  72.3907185  15.9784877  85.3722572  73.5396719
  49.1764593  72.7925825  65.8295631  48.7813187  72.5426292  66.6648006
  48.9574194  73.7189054  65.7286644  25.4945970  54.7267962  85.4099941
  24.9179578  55.4712868  85.2383804  25.3400350  54.5111370  86.3296890
  33.7567663  55.9680653  62.9398346  33.1288528  55.2508450  63.0267572
  34.0105176  55.9537220  62.0169926  42.9817200  84.3489361  72.5851583
  42.0582056  84.1059303  72.5196123  43.3791399  83.9968777  71.7886972
  35.2278090  61.0122490  95.8348274  35.2932882  61.9516277  96.0066319
  36.0361981  60.6462193  96.1936665  44.0251732 104.3698788 105.9278965
  44.3264484 104.7728062 106.7422199  43.3599520 104.9720287 105.5945396
  86.1919785  42.8331804  76.0904884  86.5571404  43.0079651  75.2231169
  86.8837070  42.3573017  76.5501356  40.1908350  45.2009344  91.2131405
  40.0233746  44.5953035  91.9352245  40.9111023  45.7498980  91.5231133
  45.7185793  28.8210034  74.2460871  45.1484394  29.3359613  73.6751318
  45.4658556  29.0788817  75.1325750  70.9123278  67.6459885  99.9284935
  70.2508974  67.9254866  99.2955494  70.4153633  67.4461794 100.7217979
  57.3487377  63.9089155  32.5888482  58.1939220  64.0291739  33.0217878
  57.4240637  63.0630350  32.1472112  61.1795712  77.9845142  92.2637272
  60.9695864  77.2795057  91.6512775  62.1169376  78.1357956  92.1425247
 123.1988292  80.0515270  90.7837009 124.0963437  80.2917004  90.5534458
 123.2782937  79.1874790  91.1878586  66.6344452  85.8188152  64.8610449
  65.9059143  86.2210083  65.3340340  66.9824791  86.5228176  64.3137884
  41.3509798  95.0607204  76.5099716  41.1126041  94.8585320  77.4146986
  42.2293282  94.6947002  76.4061975  30.6591392  53.1227779  87.4787331
  30.8050704  53.4079361  88.3807468  29.8128009  53.5018969  87.2416401
  34.2423964  54.2240763  66.8030262  35.1034236  54.1485167  66.3917446
  34.1077709  53.3799076  67.2337055  45.2206087  73.7890863  80.5572033
  44.7847319  73.4796858  79.7631502  46.0141087  73.2571650  80.6176090
   7.7206403  91.1081409  69.5637465   7.1874827  90.3320312  69.3916273
   8.3205825  90.8372879  70.2586842  40.3050995  52.5471258  77.0447588
  40.1785231  51.6549969  77.3677254  39.5206976  53.0175638  77.3269510
  43.9451027  91.5410805  95.4679966  44.6405554  91.3886356  96.1077881
  43.1370258  91.5071678  95.9799576  36.1884427 105.7283783 100.4422760
  36.8325567 105.0269794 100.3453922  36.6119862 106.3645935 101.0185337
  21.7665482  89.7797871  86.7140484  21.9557929  89.7913170  85.7758141
  22.5175810  89.3327808  87.1043968  46.9203615  73.8668394 103.1106472
  46.8598700  74.8221064 103.1040955  46.2248087  73.5787487 102.5195122
   6.3821530  75.6891870  35.2614903   5.8929187  76.5057755  35.3618097
   5.7645851  75.0062847  35.5231905  83.6652851  60.2762032  73.9527655
  83.6644077  59.3335438  73.7865591  83.3310413  60.3623104  74.8455667
  14.4720900  69.2742586  88.2392693  13.8809907  69.9748516  88.5149479
  14.9181938  69.6264648  87.4690914  56.0731745  64.8034716  75.2415752
  55.9938955  64.0294123  74.6841049  56.1989021  64.4519901  76.1229897
   2.8077254  65.0004482  96.8350792   3.4402546  65.5833673  96.4151478
   2.7039829  65.3556681  97.7178574  21.9127512  77.8393412  81.8930912
  21.5507197  78.4515095  82.5337219  21.1580396  77.3331261  81.5924454
  20.1662350  25.4389429 100.0240898  19.6810865  26.2088060  99.7271538
  20.6082845  25.1167440  99.2385864  37.9421759  54.1788435  88.7563038
  38.7458038  53.9856386  88.2735157  37.7373219  55.0854111  88.5273933
  29.8527217  64.4390154  92.2782612  29.4971871  64.8891592  91.5119743
  30.0674629  65.1423597  92.8909874  70.1478958  53.1721687  81.5128994
  70.3324842  53.0858850  80.5776405  70.4034758  52.3286676  81.8862820
  66.1160946 100.9450817  58.1065130  66.2233019 101.5356731  57.3609018
  66.2717056 101.4965916  58.8732243  64.4487190  69.1061735  90.0481510
  64.5036888  68.1505585  90.0513554  63.8276863  69.3126965  90.7466507
  68.6523199   5.0030482  87.8309917  68.8540363   5.9387523  87.8321552
  69.3393898   4.6105915  87.2923374  45.5956602  34.2782664  83.6612606
  45.0578117  33.4883904  83.7164879  45.4071903  34.6361971  82.7937412
  39.7803974  47.2799015 102.3632145  39.1835403  47.6921988 102.9877186
  39.6778893  47.7912331 101.5605545  54.1628933  39.6326709   0.8113900
  54.6692562  39.8961592   0.0430147  53.2983208  39.4125819   0.4645292
  12.8106022  42.0472908  76.9440699  12.6657820  42.6507902  77.6728010
  13.3057880  41.3233566  77.3273945  19.0743041  63.1350565  78.2028866
  19.9651611  63.3983660  77.9720783  19.0954018  62.1782398  78.1860590
  54.5423937 110.6343365  74.3501616  55.2139759 110.4113579  73.7055779
  54.0288496 109.8325157  74.4481373  43.8640261  53.2894468  97.2924805
  44.5172691  53.8745022  96.9087887  43.7535048  52.5950480  96.6429996
  50.3946781  70.0769663  61.2680149  49.6026659  70.5737162  61.0626125
  50.4091167  69.3711710  60.6215858  51.0798311  40.8591938 104.9090195
  51.8863440  40.7913589 104.3979740  51.3746166  40.8858299 105.8193111
  52.0788813  65.6008101  83.5931873  52.6991510  64.8970985  83.7836933
  52.1087027  66.1625385  84.3676567  64.0077639  76.4715815  52.2518301
  63.3175182  77.0072317  51.8608332  64.3609238  77.0136213  52.9573059
  61.5871572  58.3582640  94.4112110  61.5746832  59.2970181  94.2246151
  62.3427582  58.0275393  93.9255047  49.3572140  63.5788679 100.2634239
  50.1582623  63.4071541 100.7584667  48.8504314  62.7704430 100.3399467
  33.8355279  83.5785770 109.7363567  33.2990193  83.1164837 109.0922642
  34.0361047  82.9178429 110.3992558  72.4073839  61.8898773  93.2730007
  73.0582237  61.2892389  92.9098511  72.4466705  62.6583576  92.7036858
  64.0799236  70.9261560  84.7965717  64.0383625  71.6645336  85.4042816
  64.0337276  70.1516724  85.3571701  45.6336212  72.4686050   7.8621236
  45.2286434  71.6536617   8.1589166  46.5375614  72.2271395   7.6600877
  91.0857391  62.5177050  88.5134888  91.5329266  63.3621502  88.5697556
  90.4658794  62.5258732  89.2428303  31.5716910 137.6601315  69.7676611
  31.3663173 136.8229389  70.1837921  31.6610622 138.2742786  70.4964066
  52.9966497  76.0296631  88.1973839  52.9664373  76.0471630  87.2408295
  53.9291811  75.9764290  88.4066296  55.1475000  23.2074785  90.4453468
  55.8304262  23.0566382  91.0988712  54.6885157  23.9885211  90.7544422
  72.5378847  51.3237524  83.5250664  72.5531292  50.8800364  84.3730736
  72.5769043  52.2553539  83.7414646  22.2114873  74.0879583  81.0424805
  21.4348269  74.5887375  81.2919807  22.6988220  74.6743011  80.4637432
  55.0155687  37.8243566  80.7092476  55.3558731  38.7139201  80.8046627
  55.1899385  37.4093246  81.5539837  49.3083763  83.7751007  -0.0006255
  49.5327854  82.9638100  -0.4563483  49.4605064  83.5803127   0.9241144
  45.1511240  73.0637550  71.8452787  45.0583076  73.5388088  71.0194826
  45.3935623  72.1752405  71.5845203  52.8925610  51.1776924  98.9143276
  53.2751274  50.3151274  98.7535286  53.6462975  51.7595053  99.0123653
  60.4736996  63.0118608 106.8831539  60.8692408  63.8821220 106.8338490
  60.9152651  62.5089598 106.1987972  36.5602160 108.8869667  71.0372543
  36.3055086 108.7262249  71.9458342  37.1274161 109.6568203  71.0801268
  44.6534491  76.1572266  79.1740561  45.2393055  76.9088984  79.2635012
  45.0348663  75.4874134  79.7415924  47.1051073  51.5293789  83.9117336
  46.8387842  52.4481678  83.9453983  47.5784874  51.3870335  84.7314072
  14.1537142  70.8706856  96.1771107  14.3499267  71.0232735  95.2527428
  14.3452942  69.9426937  96.3126087  42.0361280  49.7664452  83.6154938
  42.2542286  49.1638088  82.9045105  42.7892590  50.3546715  83.6703968
  63.2049751  96.0684395  86.3306522  62.9615879  96.9630051  86.0924625
  63.3456373  96.1023712  87.2768593  22.3971820  56.5309668 106.5786648
  22.2115707  56.4087009 105.6476212  23.1948733  56.0247135 106.7323589
  38.8842392  27.9384065  87.7713203  39.1809630  27.4900556  86.9793797
  39.6791029  28.0576229  88.2911396  59.1826630  82.8429508  90.8729839
  58.4865952  83.1600285  91.4484692  59.1442680  81.8898964  90.9532928
  39.2654467  87.8896904   1.1309949  39.9182034  88.2338619   0.5213395
  38.4891582  88.4290600   0.9803621  11.3522577  55.5180550  10.9265844
  10.8745790  55.0330162  11.5994779  10.7700002  56.2412739  10.6938592
  18.0276310  33.1945562  53.5402298  18.4816420  32.4209356  53.2061338
  17.1983218  33.2105207  53.0625010  60.1094770  77.9636812 108.4119606
  60.0980473  77.9237127 109.3682575  60.9742260  77.6331043 108.1687450
  50.6144333  55.6452560  21.3359491  50.6966448  55.4483223  22.2690526
  49.6880102  55.8539915  21.2159292  71.4134455  86.8807793  92.1538258
  70.5453634  86.9664478  91.7597103  71.9458485  86.4688587  91.4733124
   3.3185330  51.9482565  58.5739756   3.6427587  51.0480022  58.5484266
   3.8628653  52.4169111  57.9412889  54.0489674  84.8675632  47.7339077
  54.1743994  85.7874870  47.5010347  54.2265606  84.3891335  46.9240904
  20.7361364  42.7197647  52.1759176  21.5428758  42.6539850  51.6649580
  20.1396394  42.0951843  51.7632198  32.2991872  90.8857346  67.6358938
  32.8114104  90.4773045  68.3337784  32.1793079  91.7903900  67.9248047
  30.7786655  58.5621166  62.7499056  31.5617824  58.0174255  62.6707268
  30.0664568  57.9384708  62.8915215  34.6745658  57.8039789  43.1539869
  35.1380777  57.4273348  42.4059725  34.6787548  57.1095371  43.8127422
  28.3222795  78.0297375  22.7339196  29.0947819  77.4921846  22.9085898
  28.3368850  78.6994028  23.4177041  35.6205678  41.0139799  88.9616299
  36.0697722  41.7089033  88.4804630  35.0780749  40.5791807  88.3036995
  74.0206146  78.3752251  68.6818647  74.4832897  79.0722561  69.1469526
  73.1646013  78.3302927  69.1078377 116.4976800  81.8413067  50.4334879
 116.2316657  82.7503204  50.5719137 117.1137649  81.8807888  49.7019720
  28.0664492  32.0757818  58.3725262  29.0121746  32.0831895  58.5201025
  27.8500175  32.9837465  58.1604195  42.2399092  56.9154167 105.5361557
  42.4931955  55.9931469 105.5748844  42.6010132  57.2283411 104.7067451
  30.6540585  67.0530748  63.8941336  30.1305771  66.5602112  63.2622433
  31.5462160  66.7289829  63.7706375  24.4488239  64.7496462 108.5610580
  23.7199521  64.5907402 109.1608334  24.2220163  64.2566299 107.7725697
  15.1447082  56.3665152 109.8734283  15.8087504  57.0496082 109.7803688
  14.5153499  56.5475893 109.1753292  30.3283334  58.5316515  99.3191433
  30.7094169  58.2270765  98.4955883  29.7716928  59.2685509  99.0674114
  65.7466936  76.5088320  92.0896339  66.5367794  76.0089874  91.8843460
  65.7221127  77.2002983  91.4281940  60.0546265  50.6888628  53.4092045
  59.2954302  51.2075090  53.1430149  59.9984503  50.6547070  54.3641472
  40.6814146  60.1530123  69.9348164  40.7214451  59.2214251  69.7185516
  40.1795864  60.5436230  69.2193937   5.9822667  51.3819838 104.7307014
   5.8630103  52.2426653 105.1322460   6.7887628  51.4647627 104.2218399
  45.0600195  50.5943203  73.9040279  45.3328133  50.2941656  73.0370092
  44.8886299  51.5292263  73.7908697  27.0333433  63.9162970  61.7290449
  26.8922329  63.9266539  62.6757288  26.4726853  63.2086420  61.4110470
  40.3559685  83.2554722  72.8069735  40.8059168  83.2225037  73.6511850
  40.0063705  82.3724747  72.6872587  28.6957097  48.6576605  67.2494459
  29.5412564  49.0891504  67.3723364  28.0827355  49.1802502  67.7665472
  38.1145406  59.6055031  64.0948486  37.3004508  60.0673628  63.8944054
  38.8034225  60.1739216  63.7505054  38.1504893 105.9503746  37.7397180
  38.8381720 105.3939152  37.3740911  37.3889565 105.3747845  37.8104401
  27.4139857  67.6503849  27.4153352  26.4989781  67.9314423  27.4163270
  27.4159932  66.8430233  26.9011426  49.6438169  58.2492304  74.6949911
  49.3634033  58.8257885  73.9842319  49.0092039  57.5326872  74.6866655
 123.9353357  78.1464195  48.1863022 124.4177253  78.2620716  49.0049314
 124.2954438  78.8118839  47.6000357  53.6518860  71.9686747  99.4777584
  54.0974808  72.1619463  98.6529350  53.7201595  72.7791119  99.9824905
  24.7838593  63.0821419  96.9913006  24.9947762  64.0052176  97.1315479
  25.0118542  62.6561356  97.8176022  36.8994069  78.9150715  44.5635796
  35.9903908  78.9359903  44.2644405  36.9896793  78.0660486  44.9962997
  23.5699129  47.4243832  30.9323716  24.0169907  48.1108618  31.4274430
  24.2486787  46.7713737  30.7618070  55.3119421  54.6705008  40.9724522
  55.5766296  53.8135624  40.6380415  55.4667377  54.6178007  41.9155836
  58.4615040  75.2476025  61.1812925  57.7718496  74.8537064  61.7155743
  58.1018353  76.0924006  60.9107494  20.4117846  82.0229435  72.4628878
  20.6777191  82.5240135  71.6918898  19.5872688  82.4245930  72.7368879
   5.5604398  88.6024380  57.6240826   6.1626828  88.6708450  58.3649302
   5.8568358  87.8284836  57.1451521  49.4070816  66.0124636  73.5751534
  49.8876810  66.8396235  73.5425234  48.8450909  66.0922337  74.3458891
  36.6353655 108.4536839  48.9472771  36.7341781 107.7381134  48.3192444
  36.6593337 109.2469978  48.4122038  49.6094465  65.1718855  79.4630527
  50.1607132  64.8435116  80.1733398  48.8923597  64.5405054  79.4049263
  41.2251329  61.3176727  66.8085384  41.2422419  61.6520548  65.9118032
  40.5448198  60.6443739  66.8001556   7.4913311  83.2854271  56.1012173
   7.8789067  84.0350628  55.6494808   6.7794031  83.0019951  55.5275822
  71.1155272  80.6536484  71.1989975  70.4921722  79.9286413  71.1540365
  71.9408989  80.2441406  71.4584064  40.5168915 106.9916630  89.0839386
  39.5837140 107.0098877  88.8716125  40.9462976 106.7706585  88.2575035
  26.3641429  96.0118961  25.1538777  27.2404099  95.6286621  25.1149583
  26.0136318  95.7231140  25.9964800  34.1904497  36.2376142  78.3242226
  34.8295784  35.8872604  78.9447021  34.6436071  36.2255955  77.4811697
  56.7537451  81.2438488  90.7153511  56.3345814  80.5657864  91.2452221
  56.5855026  82.0574474  91.1907291  19.3122542  55.6445408  59.6300888
  20.2228785  55.5930901  59.9205112  18.9981616  54.7410345  59.6654606
  33.7036824  54.4684219  58.1233883  34.1184211  53.6935759  57.7441311
  33.0758190  54.1187668  58.7556553  36.8637490  82.0337677  14.5737183
  37.2332859  82.1487236  15.4491949  36.1820006  82.7028084  14.5117640
  26.8540788  81.7020512  48.5058594  27.0133352  82.2598267  49.2672682
  25.9143233  81.7822361  48.3425713   9.0415865  60.5262661  77.3225307
   9.9106342  60.9262371  77.3543835   9.1907531  59.6102905  77.5569677
  41.6947842  62.9866505  31.7699051  41.9189310  62.6647472  30.8967662
  41.4756775  62.1984291  32.2668242  31.0475230  61.5367699  86.6013241
  30.3798938  62.1686459  86.3344193  30.9122038  61.4286137  87.5427151
  16.8130481  58.8681316  84.9495697  17.2986484  59.6536064  84.6976662
  16.1676013  58.7517023  84.2523766  13.3828318 107.4898243  15.2215397
  14.1866159 107.0396042  15.4812801  12.9329276 106.8666840  14.6510100
  20.1712847  99.0190315  60.2534437  19.5458877  99.7432137  60.2791929
  19.9470615  98.5371208  59.4573784  60.7007885  58.7274504  75.3780413
  60.4640484  58.1623125  74.6426439  60.1946020  58.3859491  76.1151838
  41.8421030  65.3753471   0.8458177  41.5256023  65.4401588   1.7468492
  41.3254023  66.0207748   0.3634492  45.8923960  69.0791273  77.0971251
  45.1220703  68.9035416  76.5567493  46.1337566  68.2247496  77.4549246
  72.9349422  94.6810532  82.2937679  72.3092031  94.4155884  81.6198158
  73.6989069  94.1241360  82.1439934  26.5818095  85.2609825  72.5148916
  27.3892474  85.0742531  72.9938555  26.4147019  86.1889553  72.6797247
  25.3050900  54.7188807  88.3883953  24.5301604  55.2434301  88.5898018
  26.0389185  55.3234243  88.4990788  48.7976027  82.4970627  91.2189293
  49.2296314  82.7678013  90.4088211  49.3137312  82.9057789  91.9137764
  26.3607574  67.8046942  56.3917255  26.7252541  68.6115885  56.7554522
  26.6083264  67.1257830  57.0194387  52.2082853 104.0060139  93.0196190
  52.9017878 103.4281921  92.7011776  51.6957521 104.2176342  92.2393799
  48.2885981  88.5639858   1.2167398  48.1193542  88.3298779   2.1293107
  48.0416584  87.7841377   0.7196561  27.2389507  87.7789211  38.9759612
  26.4028335  87.5454235  39.3792248  27.8671908  87.7578640  39.6978354
  15.9402597  62.9519939  87.9751587  15.3539622  63.6418056  87.6642799
  16.6215718  63.4173918  88.4603882  49.8623943  95.2492142  31.9604063
  49.5868587  96.0832691  32.3407388  49.0705872  94.7113800  31.9634366
  52.5639963  93.6964321  90.2429771  52.4244165  94.5167542  89.7698689
  52.2983789  93.8902283  91.1419296  54.1568136  70.5681086  62.5803947
  55.0703526  70.5244684  62.2979546  54.2031527  70.8169699  63.5035181
  36.6414666  55.4725409  63.7082481  36.5092254  54.5644569  63.9805174
  35.7570434  55.8297253  63.6279345  39.6824789  50.5211020  69.5906067
  39.4524908  50.4341507  68.6655235  39.1266704  51.2320375  69.9097919
  30.8154750  39.2738962  78.3681250  31.6415620  38.8982654  78.6726093
  31.0389853  39.7087026  77.5451899  42.7637148  78.4509373  37.7998400
  42.3826456  77.5885248  37.6347089  42.7754545  78.8758087  36.9421816
  33.4739494  69.6070290  95.0130653  34.0099573  69.5998526  94.2200470
  33.6865973  68.7841272  95.4533482  35.2029872  51.8835354  91.8499660
  35.0485778  51.3896084  92.6552200  34.3613744  52.2968626  91.6574097
  35.4009557  50.2136850  39.4751310  36.0480022  50.8913755  39.6708250
  35.7022882  49.4469452  39.9625111  43.5273075  41.1972141   0.6650010
  44.1855812  40.5616903   0.3839055  42.7588749  40.9986830   0.1299039
  72.6025915  73.9679623  96.2305641  71.8780851  74.2199945  96.8031025
  72.1882963  73.7810421  95.3881550   2.2038956  78.0711603  66.7519617
   1.4899021  77.4378204  66.8249369   1.8842058  78.8466740  67.2130585
  96.6930580  66.6614485 106.3222313  96.3278198  65.9885216 106.8966866
  96.7793179  67.4331379 106.8819427  24.2039680  87.7399731  45.9330654
  24.4860554  87.0468712  45.3361845  24.8977041  88.3974743  45.8815336
  63.6995316  79.4148827  91.7018127  63.6620665  79.0849972  90.8040333
  64.6330547  79.4293451  91.9129086  37.1798635  86.7194843  54.5675182
  36.8264866  86.3030243  55.3535938  38.0422258  86.3204193  54.4521189
  67.6039696  80.6862831  60.3176641  67.0332003  80.3801537  61.0224581
  68.2698822  80.0036526  60.2351570  44.2357397  53.8146305  70.8306360
  44.5915985  53.6048460  71.6941071  43.5907030  53.1273317  70.6639767
  52.3512268  52.9041195  47.3008013  51.3941193  52.9095364  47.2885323
  52.5877237  51.9915867  47.1347141  43.1816292  59.9750757 100.1959801
  43.7051344  60.0759315 100.9909630  43.6765194  59.3550539  99.6603584
  35.2501655  67.0014906  76.7942142  36.0822368  67.0906496  76.3295174
  35.0422812  67.8892279  77.0856619  41.8785286  55.5857325  20.5582762
  42.4687910  55.5222845  21.3091421  42.4079609  55.3024721  19.8128235
  16.9475234  62.7398729  91.5375900  16.9571006  63.2220793  92.3644066
  16.0848856  62.9212570  91.1645222  50.6791592 111.7508602  73.8748169
  51.3843250 112.2274971  73.4368849  50.6706047 110.8928013  73.4506607
  52.2276640  74.6723890  52.4733210  51.9855452  74.5246935  51.5591002
  51.8094158  75.5028105  52.7007008  24.1529727  70.5093288  73.7266302
  25.0784755  70.6787491  73.9026165  23.8514829  70.0127983  74.4874144
  33.0028486  65.6705761  67.0668602  32.1043348  65.5259228  66.7702484
  32.9084015  66.1193371  67.9070520  23.7464976  25.8736372  65.2949715
  23.0879092  25.1920342  65.1611471  24.0123868  26.1266518  64.4109392
  18.9414442  77.6645947  69.6468163  18.5535872  78.0792618  70.4174328
  19.5462835  77.0141935  70.0037098  54.6649885  84.2328072   0.6340638
  55.2445364  84.9899292   0.5496637  53.8267660  84.5324039   0.2821199
  71.3661289  95.0339603  74.5410442  71.4290524  95.9788609  74.4016075
  72.2677755  94.7547722  74.7001410  35.8403468  47.1754408  78.6689091
  35.2111053  46.9909382  79.3662214  36.2470961  46.3290882  78.4832382
  25.1412678  63.8625050  76.3369322  25.0837374  64.7247744  76.7485285
  24.9728036  64.0281582  75.4093456  34.3812132  93.4977627  67.3906708
  34.3633389  92.7101135  67.9342842  34.1861558  93.1838512  66.5076923
  48.8960028  77.7862549  59.6857786  49.5701027  78.3417320  59.2942905
  48.5534430  78.3031511  60.4149532  12.9489839  86.6065598  58.5219193
  12.8560901  86.8637180  57.6046038  12.1389341  86.9028759  58.9369440
  36.6746187  50.7023430  52.6057673  35.7257795  50.7402039  52.4853277
  36.8431973  49.8071671  52.8998232  33.8818717  58.7533379  31.9347048
  34.4832277  58.2167912  31.4182568  34.2756772  59.6257687  31.9307899
  59.3267727  78.0648565  45.2384090  59.3704510  77.2254992  44.7803688
  59.1641188  78.7067270  44.5471954  47.2127056 110.4732132  43.6451721
  47.9113579 110.3514671  43.0022907  46.9153404 111.3726997  43.5082865
  25.4403663 103.1467819  68.1362438  25.2428174 102.9112530  69.0427399
  25.9696603 103.9413548  68.2051325  38.1902170  63.6084509  61.7208529
  37.7303624  63.1952953  62.4516535  37.9945517  64.5410681  61.8112755
  55.7934332  91.8909359  60.6760502  55.6995249  91.2794113  59.9456692
  54.8964024  92.0584774  60.9649944  51.1972666  67.7422762  33.3120012
  51.0326004  66.9117260  32.8655624  51.2285852  67.5128603  34.2407751
  59.0834570  74.0310192  87.4512100  58.8868237  74.3257618  88.3404255
  58.9362764  74.8031187  86.9049168 121.9248924  80.4137707  58.4863377
 122.7795342  80.5140400  58.0670977 121.7068798  79.4893122  58.3676529
  35.5420423  91.6566181  22.8319502  35.9180808  91.1280537  22.1280670
  34.6102858  91.4375114  22.8244114  54.5711803  98.5068893  83.2855988
  53.6685324  98.2137680  83.1609631  55.1009560  97.8492260  82.8349876
  36.7555380  45.6023884  37.7016449  35.8744669  45.9135008  37.4939203
  36.7850304  44.7132063  37.3484874  16.6263080  69.5097876  67.1812820
  17.4846613  69.1595840  66.9429111  16.8205059  70.2430058  67.7651548
  32.9049253  86.4834881  47.3696136  32.2245455  86.4907646  46.6963673
  32.8725791  87.3602676  47.7523041  39.7991061  61.2733555  38.3712101
  39.6576333  61.6068792  39.2572021  39.4189215  60.3949690  38.3824039
  44.1123390  25.5851173  41.4201355  44.0257692  25.6617641  42.3703289
  44.2272234  24.6475935  41.2649488  65.3143501  54.9187756  58.8371468
  65.8860302  55.6587744  58.6326742  65.6591129  54.5697260  59.6590614
  29.9792433  54.0986252  57.3203039  29.1579986  53.6547613  57.1087122
  30.6144476  53.3901882  57.4245310  30.7916093  75.0523424  48.7680340
  31.2380648  75.6815815  48.2014894  30.2232623  75.5888224  49.3206692
  28.8213992  67.8567505  44.0850735  28.0213547  67.3401403  43.9887714
  29.5045161  67.3167038  43.6876631  23.7719750 104.2899036  52.2995377
  24.3627787 103.6297989  52.6620865  23.0023146 103.7945175  52.0194483
  42.2566652  79.4487143  57.6103163  41.7003918  78.7967253  58.0365801
  42.8880119  78.9334202  57.1082211  17.7226102  60.3811979  65.4409695
  17.4192274  61.1067820  64.8953390  17.7570188  59.6321821  64.8459673
  19.6461368  44.9515724  76.1604595  18.8025939  45.4012918  76.1112881
  20.0631356  45.3096390  76.9441271  41.7993450  73.3660078  50.8155298
  41.7795706  74.2170334  51.2532520  40.8785915  73.1179094  50.7325315
  40.4589033  67.8576708  44.4616270  39.5961905  67.4490929  44.5325184
  40.8059597  67.8407288  45.3535318  16.2882102  83.1826496  63.5517454
  17.1592343  83.1251812  63.1590033  15.7228637  82.6945782  62.9530716
  51.0785103  58.0139494  24.3547082  51.2205315  58.9591551  24.3032670
  51.7799187  57.6370955  23.8234472  56.2849522  62.7863312  40.8769131
  56.9897032  62.5122738  41.4638138  56.4266109  62.2775412  40.0786018
  81.0169315  73.4243011  19.6494091  81.3759995  73.1892204  20.5050015
  80.2154446  72.9062366  19.5754695  36.9544148  76.5292120  45.6137037
  36.2193084  76.6138363  46.2208986  36.7730904  75.7240772  45.1288176
  44.6648884  42.7572298  57.3282766  45.1503134  42.3983765  56.5854359
  44.6210480  42.0363665  57.9564953  46.0099602  97.6569462  64.9378109
  46.3090897  98.3235741  64.3194580  46.8136597  97.3184013  65.3323793
  21.4681315  44.9153757  62.2848797  21.5791225  44.4522095  61.4545822
  22.2888470  44.7657061  62.7541971  46.9547987  41.3230228  52.7582788
  46.2575626  41.9027090  53.0649662  46.5193939  40.4842377  52.6063204
  29.1040516  71.4467287  78.3277035  28.5860753  71.9551229  78.9517784
  29.6168542  72.1009159  77.8530407  49.2572975  82.7061844  39.8618460
  49.3874550  83.1035328  39.0007997  48.6331701  83.2843113  40.3005505
  48.6330605  61.7755985  39.8448825  49.3151665  61.6078377  39.1946340
  49.0118170  61.4771843  40.6717587  59.6548033  80.2048874  59.9281502
  59.8808336  79.3769693  59.5042419  60.4440355  80.4499626  60.4111433
  71.3505554  98.9141655  29.9096608  70.8988380  98.7875938  30.7440257
  72.0108461  99.5822716  30.0937152  30.6158423  78.2863045  62.0681334
  30.0000548  78.2842875  61.3353062  30.8597827  77.3673153  62.1785259
  50.9342051  84.7924805  82.0620728  51.7070246  84.7745037  82.6265717
  51.2811661  84.9626446  81.1863518  37.4894094  60.7254601  57.4983883
  37.4748898  61.1911249  58.3345556  37.1482515  59.8548698  57.7031183
  64.1218090  31.2200403  30.3138995  65.0185490  31.1941886  29.9801064
  64.2131662  31.0827994  31.2567949  28.3088946  82.0563602  31.8889999
  28.9705014  81.4970016  32.2959661  28.6950970  82.3140049  31.0519218
  56.7177343 110.4881096  35.4372001  57.2897720 109.8860645  34.9612188
  57.1910238 110.6782246  36.2471914  35.6765604  78.2602787  29.7154641
  34.8233390  78.2566214  30.1493216  36.0978031  79.0632010  30.0222278
  43.3678102 102.2064018  55.3999710  43.5232449 101.4126301  55.9118223
  43.3092213 102.9044151  56.0523367  24.1645694  82.7640438  48.9667177
  24.0046096  83.6638355  49.2513704  23.5811305  82.6424885  48.2176828
  11.9448447  99.4905186  67.1659994  12.4427712  99.8281384  67.9105234
  12.4153113  98.6998272  66.9019890  45.7759476  67.3771524  33.7153268
  44.8582554  67.2016954  33.5072684  46.1748266  66.5101480  33.7890172
  46.5913057  70.9299135  46.8353271  46.7693281  70.0095034  46.6419935
  47.3081684  71.4057541  46.4158964  64.8711491 112.2620869  14.3151844
  65.0893831 111.3456821  14.1454601  64.1008472 112.4293900  13.7721574
  50.1311350  83.1310749  30.7190013  49.4660807  83.7321854  31.0545588
  50.1476955  83.2944202  29.7759867 113.0103976  75.5578327  58.1328821
 112.4254293  75.7272530  57.3944092 112.5973279  76.0031128  58.8726997
  31.3686109  61.0945892  45.9123278  30.6715870  60.9753561  46.5574408
  31.8360281  61.8764019  46.2064791  40.2119398  59.4450998  54.1324854
  41.1112833  59.1812134  53.9381218  40.0032139  60.0960350  53.4624481
  53.4021091  29.5977712  40.3668308  52.7041054  28.9833951  40.5939054
  52.9612303  30.4440713  40.2917480   9.4038087  79.2374086  35.5536866
   9.1505659  78.7940645  34.7440314  10.2064729  78.7941885  35.8284879
  34.9871159  79.8746300  41.3717937  34.5232463  80.1957417  40.5985260
  35.7088542  79.3540859  41.0191536  49.8709583  31.4745307  35.0457430
  49.4824457  31.3824129  34.1757989  50.8150864  31.4695001  34.8881674
  35.5362940 100.0171375  38.8246679  35.6904817  99.4321060  39.5664191
  35.7572198  99.4920063  38.0554771  18.1770062  61.3349676  17.3366833
  18.7072873  61.0643673  16.5871441  18.0548418  62.2766542  17.2161520
  51.5010786  58.6441946  20.9257936  51.8437004  57.8328753  21.3007689
  51.2962294  59.1908598  21.6843605  17.4288750  53.7071705  49.7821665
  16.8330717  54.3415594  49.3836689  17.0290375  53.5009909  50.6270647
  36.7142463 105.9728813  69.0371180  36.9083667 106.4365196  69.8517275
  37.5724077 105.7310867  68.6888027  16.7797685  49.5036411  82.7729607
  16.8572247  48.5513401  82.8308678  17.2864497  49.8307896  83.5162544
  46.2332487  72.2731209  43.2577753  46.4835167  71.3861895  43.5165358
  45.6650496  72.1494579  42.4974537  35.9504128 115.4806709  63.8216686
  35.4516363 115.6110573  63.0151606  35.3877473 114.9285793  64.3646526
  66.2739849  40.3744698  29.3299961  66.2481546  39.4239688  29.4400311
  66.6110563  40.5038881  28.4435034  29.4037247  27.2870779  84.6287060
  29.0077400  26.6067147  85.1732540  29.9451137  27.7935600  85.2341843
  56.5608311  86.6079807  50.8799171  56.6307402  86.3529396  51.7998600
  55.6896305  86.3128376  50.6150866 124.4369524  85.3958225  34.6209598
 124.4177284  86.3275051  34.8396611 125.3187279  85.1114845  34.8614907
  24.6398616  92.5885773  71.2236977  24.5294404  92.7198982  72.1653938
  25.5641842  92.7777672  71.0622454  21.0678267  36.3521099  35.8870792
  20.1569176  36.6033912  35.7343268  21.5775681  37.1037245  35.5846381
  25.1898813  45.0817633  50.2775049  24.2734528  45.3071070  50.4375362
  25.6709719  45.5242729  50.9767675  27.7521348  67.9853582  48.7256622
  27.4906039  67.0681477  48.8066721  28.4850359  67.9719687  48.1101036
  48.2999039  74.7957945  60.4352188  48.1847286  75.7389212  60.3191090
  48.5726452  74.4799614  59.5737696  25.7932138  72.5356150  86.9624043
  25.7495999  73.0106783  87.7922440  26.7238498  72.3456907  86.8437672
  43.2545853  62.9607677  22.5349212  43.0844831  62.5684547  23.3913016
  43.1463432  62.2393227  21.9152141  45.3499842  79.8613596  15.4236519
  45.7324457  79.1156054  15.8860433  46.1032343  80.3440666  15.0833094
  52.7033186  66.2834549  35.5541325  53.3443069  66.4558315  34.8644590
  52.4550056  65.3678179  35.4269147  14.3291306  70.7938433  60.6787634
  14.4388604  70.0629520  61.2870264  13.4600651  71.1423874  60.8774424
  35.0135279  49.0250635  57.4479723  35.4081297  48.1723690  57.2651148
  34.7324467  48.9680147  58.3611917  33.9167452  70.5588293  55.7159281
  34.5657659  70.6670809  56.4111137  33.9035034  69.6170807  55.5451536
  60.8112240  24.3928933  21.7416692  60.4802656  24.5230103  20.8529806
  60.1226664  24.7425032  22.3072600  36.5850115  63.9412975  57.5802326
  36.3380790  64.8650455  57.5361729  35.7608795  63.4802723  57.7367306
  71.0271406  54.2037344  35.4161501  70.4225492  54.9445295  35.4600310
  70.6889153  53.6603737  34.7043943  21.9193196  74.0333223  51.8619394
  21.0771656  73.6417389  52.0936108  22.5124121  73.2878637  51.7682981
  20.0748277  71.8020296  26.6636276  21.0199070  71.7314434  26.5291929
  19.6949780  71.5862274  25.8119369  45.4562950  82.3573971  28.3768177
  46.0285807  81.6413498  28.6524963  44.5726109  81.9944859  28.4370232
  69.6929264  78.1983662  21.3364291  68.8881826  78.4126186  20.8645010
  70.0175953  77.4059200  20.9088254  11.1285222  71.6724682  70.5828953
  10.4799950  71.0882235  70.9757042  11.9010866  71.1218262  70.4557467
  31.3481879  87.2862434  64.7627449  31.3209248  86.6291618  64.0672350
  30.7527947  86.9505501  65.4328537  31.3148046  45.8974075  37.8264117
  31.2867856  44.9893665  38.1279182  30.9533072  45.8669233  36.9406223
  36.1365461  63.8236523  37.8279042  35.6066036  64.0796995  38.5827780
  36.1363363  64.5957661  37.2621536  26.6254497  41.8507385  59.7723770
  25.9449792  41.3391829  60.2099895  27.1145701  42.2592592  60.4865885
  46.0606718  69.5600796  58.9904308  46.1658573  70.3476143  59.5242500
  46.7454243  68.9674044  59.3004036  41.8810129  65.7568169  60.7118082
  41.5155888  66.2546301  61.4431620  42.8101921  65.9866571  60.7061529
  27.8890634  65.8842182  32.3582435  28.2993865  65.0293207  32.2277880
  27.7115011  66.2022448  31.4730549  48.6987829  53.6991358   1.9180568
  49.1347790  54.4596672   1.5337011  49.1218185  52.9463959   1.5049538
  47.5657988  71.0735273  53.3003092  48.4161472  70.6351280  53.2696438
  46.9498730  70.4257393  52.9579163  46.5029335  73.6717892  30.6824231
  47.2221804  74.2057562  31.0197473  46.2838888  73.0818462  31.4036870
  47.3451185  60.8591270  46.7567682  47.8188276  61.4279652  47.3636103
  47.3692369  61.3266754  45.9218740  71.1129284  48.6281633  29.1702747
  70.8132982  49.5365334  29.2065692  70.9062004  48.3431482  28.2801843
  41.7354250  76.7469454  61.0517025  42.0988941  75.9079981  61.3350582
  42.4964380  77.3213339  60.9670734  29.8806715  66.8774843  51.9454718
  30.3758955  66.1880875  51.5030718  30.5492353  67.4337578  52.3452377
  35.4864812  83.0317879  58.7013865  35.0583768  82.1772385  58.7533617
  36.1166668  83.0281830  59.4218636  59.7256565  50.8719063  40.0524902
  59.1455412  51.2976170  40.6837368  60.6065273  51.1268950  40.3268623
  27.3379827  87.1309662  66.1790609  27.0153284  86.8253231  67.0268297
  26.7144346  87.8075886  65.9152508  42.5959492  57.0156288  40.9535027
  42.8795385  57.8169346  40.5133724  41.6631031  57.1510506  41.1198902
  31.7399693  75.8379889   3.1728137  31.8848133  76.4440393   2.4462080
  30.9114361  75.4067707   2.9634994  52.5733089  65.6891203  38.6654091
  51.7110777  66.0788059  38.5207200  53.0857849  66.3865471  39.0743041
  17.1599567  81.4709377  65.6650591  17.3842204  80.5537510  65.5078888
  16.7678869  81.7658710  64.8431587  37.5269461  82.9277515  28.6236382
  37.1276879  83.6305046  29.1364408  38.2623959  83.3460140  28.1759787
  39.8034048  48.5290098  27.1892381  40.2609205  49.2154121  27.6747918
  39.3399382  48.9958096  26.4938784  53.2578278  56.8941975  39.3246341
  53.5440207  56.1578321  38.7841773  52.4526119  56.5869236  39.7410965
  34.7182488 103.9715004  22.6933455  35.4246736 104.5325470  22.3733115
  34.7356153 103.2101917  22.1133971  38.3614922  59.1675425   2.9351363
  38.9174509  59.5092916   2.2348869  37.4781179  59.4510603   2.6995543
  34.0670419  64.8501682  54.9815702  33.1712794  65.1265192  54.7880030
  33.9911509  64.3388939  55.7872200  26.1950183  93.9763641  34.4816065
  26.3895583  93.2370949  35.0576878  25.2415681  93.9698219  34.3972278
  47.4535894  70.0017262  37.3199511  48.1072426  70.6925869  37.2118664
  47.6974535  69.3381834  36.6746044  66.4491701  98.9661789  42.9889488
  66.9982481  98.2832718  42.6037550  65.7534695  98.4880257  43.4401703
 119.7138578  37.3124194  49.9696779 119.7624118  38.0953789  49.4211817
 119.8964137  37.6282430  50.8546448  53.4972286  61.3899422   8.4829855
  54.4354391  61.5735197   8.4351337  53.1527662  61.6814947   7.6388419
  35.9008121  32.1761823  53.7025452  35.6469536  31.2684512  53.5357714
  36.0213995  32.5550008  52.8318024  50.2590942  64.3919945  50.6622076
  49.5216894  64.8563051  51.0582829  49.9507952  63.4909630  50.5656528
  40.1052284  79.8461199  96.0408211  40.2691555  79.1935396  96.7216301
  40.9728622  80.1843548  95.8193684  44.6042013  60.0647736  43.3625317
  43.8666296  60.4233122  42.8688955  44.3270493  59.1793442  43.5979700
  43.9041948 108.8372993  29.3823290  43.3626986 109.5304680  29.7598696
  43.2957697 108.3171272  28.8574743  45.6742811 108.4923553  66.8846607
  45.7653856 108.1634808  67.7789593  45.5206442 109.4313335  66.9892597
  35.0541115  78.3582258  39.0123892  34.5151424  77.6221991  39.3022251
  34.4401264  78.9459324  38.5720944  64.0210867  85.7698536  52.1512079
  63.4135437  85.7002258  51.4148140  63.4667921  85.6895065  52.9274368
   9.9945694  62.8521633  71.5460587  10.2224219  63.2689190  72.3770952
   9.0568113  63.0155659  71.4453506  22.3271155  76.5889883  68.8318157
  21.9341111  76.4853477  69.6984386  22.5595641  77.5162792  68.7835741
  48.3064699  37.8927445  20.0638056  47.6411104  37.2335196  20.2611661
  48.8144112  37.9696512  20.8714652  74.1733599  47.0309973  23.4697533
  74.4600964  46.9335222  22.5617242  74.3470573  47.9488564  23.6785555
 124.5244955  80.9829140  78.6698580 123.6250230  80.7173538  78.4783840
 125.0522398  80.5357647  78.0082130  37.4779153  37.2204733  14.0916109
  37.6048946  36.8225002  13.2303762  38.3636308  37.4122095  14.3997979
  56.8084383  81.2554550  45.4656887  56.6970825  80.9326267  46.3598967
  56.7312908  80.4744244  44.9177265  40.0727797  42.7613688  31.6601610
  40.7145929  42.3671484  31.0694861  39.6398520  43.4311724  31.1308503
   6.5085495  80.9818172 107.2796356   6.9977391  81.3655376 106.5518450
   7.1670175  80.5072594 107.7870310  26.8097878 104.2789936  63.6529255
  26.7929387 104.2802143  64.6099758  27.4464679 103.6014080  63.4254456
  20.4096365 136.9324684  60.1782608  20.8530092 136.2475204  59.6777630
  19.4775128 136.7466831  60.0648451  42.6615143  63.6913252  50.0883055
  42.0337057  64.2860937  50.4985952  43.0301094  64.1953802  49.3628407
  66.3373518  70.0050354  18.6885774  65.8309126  70.8157778  18.7380385
  67.2284937  70.2646446  18.9224613  61.4952946  68.4894896  40.0808811
  61.7358780  67.8372669  39.4228888  61.7646313  69.3250990  39.6995068
  24.2818260  69.4397068  49.6484566  24.0740681  70.1874781  49.0881777
  25.2377892  69.3919182  49.6393824  60.4731750 123.0887508  43.1571150
  60.1605177 122.3796558  43.7189627  61.3978577 123.1849289  43.3850145
  14.9911296  98.5060310  52.6529503  15.5728483  99.2660141  52.6691961
  15.4456234  97.8453064  53.1755543  12.5938678  47.4621630  56.6278028
  12.2246528  47.6615477  57.4881268  13.0098546  46.6071558  56.7379951
  29.4138694  56.8566751  52.0403671  28.5886097  57.2888565  51.8203688
  30.0354624  57.5745296  52.1609497  67.6027679  97.2764874  48.8654518
  67.9713488  96.9926834  49.7020102  68.3504725  97.2945499  48.2680941
  50.7525396  66.4181185  46.7508793  51.4036036  66.2456465  46.0707331
  51.2349987  66.3279152  47.5726604  38.9420080 107.5096893  70.3298235
  38.9223576 107.5634098  71.2853146  38.3815050 108.2286263  70.0379372
  46.7912722  85.3567982  70.4902267  47.3178196  85.8575726  69.8671722
  47.2105885  84.4968891  70.5214167  54.0192556  78.4801054  15.4115570
  54.4310188  77.6164722  15.3829098  53.9468908  78.6801100  16.3448274
  82.0064926  61.5122557  18.4963334  81.2063503  61.0316515  18.7085414
  82.2698402  61.1731100  17.6408446  38.6771107  89.3208122  74.8460150
  39.4311213  89.8412132  75.1232910  38.9423943  88.9425659  74.0076876
  39.9409509  60.9983397  62.5229836  39.7770810  60.2940369  61.8958187
  39.4097281  61.7290974  62.2067022  45.6224394  43.5659552  53.9086723
  44.9646091  42.9877567  53.5224390  45.1899385  44.4181299  53.9631605
  40.5246449 119.6552181  55.6513739  39.7908163 119.0717697  55.4581976
  41.2730408 119.2527485  55.2107430  56.6864491  31.6022778  33.3774781
  56.3972855  30.7191801  33.6071634  57.5006247  31.7224216  33.8662696
  24.6302795  18.2715774  63.5369778  24.5962214  18.2306123  62.5812578
  23.8720846  18.8023901  63.7811279  54.1558409  77.4524021  46.3436317
  54.8733044  77.1316576  45.7971859  53.3742762  77.3411322  45.8023310
  26.1101580  68.8478947  40.6040907  26.2232995  67.9050255  40.7242060
  26.9906449  69.2095566  40.7049704  51.4504290  66.8658972  55.0215435
  51.2620926  66.1070299  54.4693804  52.3994303  66.8430281  55.1444769
  60.8226442  97.3890400  57.6869965  61.2217522  96.8189430  57.0297813
  60.1037025  97.8203392  57.2251177  66.6854811  73.1173325  75.9866333
  66.9549894  72.4972820  76.6642237  65.8295012  73.4323263  76.2769938
  11.1953723  43.2911587  59.8198462  11.8500006  43.6314154  60.4296970
  10.3705561  43.6781216  60.1133919  39.5658898  84.7346401  30.3156471
  40.0097704  84.8161697  29.4715166  38.7167788  85.1556110  30.1814055
  36.4816165  61.1363554  38.7627292  36.7603064  61.9149351  38.2806730
  35.6159401  60.9325838  38.4087300  44.3649626  66.5492868  40.3959417
  44.8125172  66.9962168  39.6774840  43.4596062  66.4630365  40.0974083
  25.2363014  65.6450367  50.7557583  25.4191136  65.2956963  51.6279793
  26.0987258  65.8479452  50.3934193  50.9209490  46.0220098  35.3966379
  51.4022779  46.3020897  34.6181083  50.2966261  45.3732491  35.0717330
  31.6918159  68.5831833  72.3981047  31.5806127  68.9310741  73.2828856
  31.1219621  69.1264772  71.8537426  59.1901159  62.3008108  24.3251252
  59.4850063  62.3147392  23.4145880  58.2405329  62.4084997  24.2710233
  26.4849949  70.5177927  38.0857086  27.2044373  70.5171633  38.7170815
  26.9141912  70.5948734  37.2336054  31.5146017  58.3485794  56.4235115
  31.2608099  59.1337872  55.9384680  32.2120070  57.9571247  55.8975601
  59.4638872  83.8716984  19.5936179  60.1422596  84.2661190  20.1417708
  59.9447393  83.4659767  18.8722241  33.9271903  95.2197361  70.5600548
  33.0915451  95.5937195  70.2806520  34.5070338  95.3405666  69.8081112
  62.1729517  99.7148800  44.9025154  61.5818644  98.9642143  44.8446369
  61.9104338 100.1651001  45.7053947  67.3592710  96.6167450  52.2724819
  68.1140089  96.2110996  51.8458033  67.4231958  96.3395309  53.1864262
  18.8030636  78.8140154  67.2485447  18.7573826  77.9964972  66.7527580
  19.0613246  78.5453320  68.1302118  27.1116090  84.9024773  50.8386040
  27.4474931  85.3839207  50.0825500  26.6764665  85.5675602  51.3720369
  64.4742441  25.7726645  18.4227765  63.8395405  26.4890409  18.4090066
  64.9221325  25.8656216  19.2636025  40.3501940  42.6884270  34.4710350
  40.3355551  42.8248215  33.5237169  40.1260567  41.7646599  34.5835066
  17.9693234  47.6698828  65.1064730  17.3472762  48.0575991  65.7220745
  18.7272990  48.2538748  65.1321602  53.2036972  57.3130941  22.7013302
  53.3861351  56.4958000  23.1649947  53.9836597  57.4649334  22.1676278
  34.5104909  71.5718603   7.0898068  34.1979980  70.6677246   7.1233255
  33.7279582  72.1015501   7.2424585  89.1867065  68.4454727  37.0222068
  89.6089745  67.6277304  36.7591119  89.9121380  69.0498352  37.1794462
  48.2142067  70.4139614  34.1946650  47.6294756  70.2680731  33.4509969
  48.8617277  71.0401917  33.8709688  22.8938746  53.0267143  18.4485590
  22.3559642  53.8151979  18.3766007  22.6086688  52.6158667  19.2647064
  63.5559654  75.9125423  33.0338168  62.8136063  75.9853411  33.6336756
  63.5924959  76.7618084  32.5937653   3.6158445  69.1543579   2.2102532
   3.2029447  69.3858719   1.3782990   3.7665397  69.9938917   2.6446533
  38.6667132  69.5456791   4.3733141  38.4875536  68.6234426   4.1899881
  38.6880875  69.9614525   3.5113937   6.4310783 102.4523067  19.2244327
   5.9645790 103.1327820  19.7097814   6.4967704 101.7217731  19.8394442
  73.8938570  51.7636299   8.5367584  73.9854765  51.4749813   7.6287264
  73.1791782  51.2313938   8.8863176  31.4843202  82.3223686  47.3728561
  30.9900069  82.9855633  47.8545856  32.3894835  82.4428368  47.6599026
  62.6857805  66.8180275  38.0012560  63.5423565  66.5945864  38.3653831
  62.5468779  66.1763906  37.3046637  83.7699318  63.6977434  14.0676188
  84.2371655  64.3743849  13.5776448  84.4618511  63.1636047  14.4577086
 120.8159927  64.7242355   7.7891910 121.3855634  65.1015806   7.1187925
 119.9989695  65.2173281   7.7145660  61.7793465  63.9997053   8.9338040
  62.2741032  64.0832663   9.7489524  62.1456480  64.6735907   8.3611465
  29.0937448  76.6302872  42.6374674  29.0279269  76.5400839  43.5881329
  28.2294965  76.9393253  42.3657990  42.9561520  32.2340560 107.8715906
  43.8699341  32.4168491 108.0902772  42.4621773  32.9292989 108.3061691
  27.5665832  83.7280750  34.1840267  28.1393003  84.2854881  34.7108245
  28.1519437  83.3157063  33.5487819  45.8215809  79.0325975  51.4698410
  45.2118158  79.5564175  50.9501934  45.7273579  78.1442356  51.1260986
  19.1413963  73.7763834  44.6646309  20.0882649  73.6669207  44.5769596
  18.8684845  74.1727734  43.8372087  71.3469553  35.8573890  23.2651925
  71.7710447  35.1003957  22.8610373  72.0713425  36.3967466  23.5823441
  47.6781464  81.3482380  51.1495161  46.9904613  80.6837749  51.1069202
  48.3505249  81.0362148  50.5438900  64.7708035  62.6110697   6.7686671
  64.7109890  61.6727400   6.5892363  65.5095434  62.9097319   6.2382960
  45.7399607  69.9359417  11.7330039  45.9698439  69.0178728  11.5897048
  45.7181025  70.0315666  12.6851642  48.2076216  83.1401348  99.1806825
  48.2320213  82.1871185  99.2666157  48.0002403  83.2922554  98.2586821
  71.2509203  50.4337931   9.0068942  70.3884077  50.2156115   8.6537611
  71.2350416  50.0972366   9.9028349  45.4331970  40.4093933  23.7741446
  46.2864780  40.6856537  24.1085529  44.8166323  41.0459137  24.1359782
  58.6101341  64.1117430  11.0821867  57.7836084  63.8013077  11.4519370
  59.1817236  63.3440542  11.0953212  54.1588831  82.9787350  26.6439295
  54.7348070  82.2241211  26.7668104  53.9863825  82.9975986  25.7025886
  38.9466119 102.7202988  20.3668070  39.6422172 102.8897858  19.7314799
  38.9906621 101.7771721  20.5242944  65.6692028 100.8247757  31.3161707
  66.1420393 100.3847408  30.6097484  64.7456408 100.7217503  31.0867095
  25.0961137  49.4194174  18.4106624  25.1682210  50.3376198  18.1500077
  25.2037811  48.9298010  17.5952411  46.5315437  27.4517775   8.7228423
  47.3901987  27.1115088   8.4715241  46.6209555  28.4022784   8.6536503
  34.8207831  74.9384069  15.5555403  34.8214412  74.1973591  16.1614072
  34.8387003  75.7103252  16.1212730  47.0587587 100.4709816  27.5560117
  46.5317535  99.8393250  27.0666218  46.9465923 100.2176476  28.4722400
  43.4265471  70.9357166   8.5462809  42.5544691  70.8213091   8.9239401
  43.3686543  71.7543030   8.0535352  82.6796532  32.4214244  28.3282471
  82.3904037  31.8994737  29.0766692  82.4278831  31.9036770  27.5635386
  21.4672279  77.5906277  39.7355628  20.9574318  78.3066273  39.3564987
  21.7815757  77.0942020  38.9799333  43.9229965  39.3469524  41.1163282
  43.1155539  39.1590309  41.5948105  44.0942669  40.2725983  41.2897491
  69.1549778  68.3413219 107.0568761  69.8980761  67.8180838 107.3573149
  69.1519356  69.1058588 107.6328107  84.0243626  42.4915791  18.7880933
  84.5780754  41.9278574  19.3283188  84.6139526  42.8331614  18.1158316
  32.7634311  76.1968946  42.1016741  32.9795980  75.9104443  42.9890585
  32.8417826  75.4056072  41.5687990  76.7748785  47.3143959  39.7831774
  77.6613712  47.3315239  39.4225216  76.8991613  47.1396017  40.7160378
  17.9998028  49.7363186   9.2229271  17.7547669  49.6372700   8.3029389
  17.2603357  50.1969290   9.6194905  61.2707472  85.4381180  33.7832046
  60.9856272  85.3915024  34.6957636  61.8395710  86.2072086  33.7489891
  57.4107313  36.0871887  19.7604680  56.5465021  36.4266396  19.5278525
  57.3664093  35.1545286  19.5497167  47.2895336  80.1042843  28.7843871
  46.9016790  79.6313000  29.5206523  48.2338381  80.0164223  28.9140034
  82.1092319  94.0638733  19.0926909  82.5719357  93.8004875  18.2972264
  81.6021919  93.2911682  19.3418288  28.8609648  41.6180563  19.5323861
  29.4921327  42.2731018  19.2344308  29.2863607  40.7786083  19.3574679
  65.7870626  36.4362836  37.9264736  65.1463509  36.6700983  37.2548676
  65.4937744  35.5849671  38.2512450  43.6571312  55.1286507  26.1085844
  42.8787184  55.6833839  26.0579014  43.4585571  54.5001411  26.8026876
  11.5977550  62.7469206  37.4617839  10.8436608  62.5697517  36.8994832
  11.4089930  63.5994053  37.8540492  13.0260062  76.4061451  27.2544122
  12.7783668  77.3303938  27.2803116  12.1937263  75.9366655  27.1984577
  60.2812719  47.7846050  35.2067804  59.8547649  46.9788504  35.4984713
  60.9220743  47.9776764  35.8911252  63.3593225  78.8041639  16.5873373
  63.8009071  79.6360445  16.4164269  63.1654930  78.8240004  17.5244963
  59.6759987  51.6537333  36.0868883  58.9085674  52.0482254  35.6725788
  59.6209192  50.7257652  35.8586907  54.8035955  74.2020226  22.1606159
  54.5228338  73.3518505  22.4991608  55.2464533  73.9974880  21.3370442
  35.4251003  83.2340240  23.2468820  35.0651789  82.3547173  23.3631659
  35.7816124  83.2313442  22.3585558  20.5101180  69.1019392   6.2795204
  20.6337643  68.3988667   6.9171983  20.7654119  68.7138462   5.4425985
  51.3693857  97.1075535 109.7349653  51.3629007  97.8148270 109.0900190
  50.8118773  97.4257660 110.4450059  49.9003553  39.8381114   1.9132270
  50.6480837  39.3940163   2.3131119  49.7002649  40.5571365   2.5125623
  40.6129789  44.5342064  42.9093695  41.4870882  44.9228382  42.8757191
  40.0250053  45.2445269  42.6525259  26.6203499  56.8491602  12.1443355
  26.5761876  56.2423801  11.4053500  27.3730946  56.5506315  12.6547134
  43.4807491  74.3458796  54.0795851  44.0610647  73.5973072  54.2177773
  43.9512110  74.9022675  53.4588337  65.7258177  69.5894527  70.3312969
  64.8383999  69.8932743  70.5221319  65.6048536  68.7171316  69.9562454
  32.8639555  87.2719193  31.7771530  31.9311333  87.3738670  31.5882540
  32.9860663  86.3279438  31.8783188  13.4622788  72.7288342  21.9994020
  13.7287843  72.2865295  22.8053641  13.3468223  73.6439323  22.2553158
  59.1599178  65.4908943 107.7757081  58.4005117  65.3092575 108.3293694
  59.7699213  65.9536743 108.3501331  18.3777905  48.2873583  11.6453111
  17.9983926  49.0087748  11.1434615  19.2337382  48.1398678  11.2430286
  46.5182972  30.5855942  11.0205734  46.3292170  30.0875521  10.2253139
  46.1819220  31.4632010  10.8392179  63.6883688  84.2237854 103.1451842
  64.1772842  83.7145710 102.4987408  62.8592777  83.7552738 103.2418283
  68.2661009  49.5255804 109.4432269  67.4649811  49.8835135 109.8257580
  68.0020952  48.6788225 109.0833202  39.6673918  55.8310318  29.7028685
  40.2061701  56.5189886  29.3121433  39.5729327  56.0920429  30.6189394
 115.5005264  40.5974007  26.2368631 115.1193810  41.4652920  26.1037087
 115.7249832  40.2967119  25.3562760  26.9468999  70.2007771  44.0763569
  27.8214693  69.8178911  44.0073681  26.5801835  69.8182821  44.8735046
  62.9022074  65.1806211  25.7733226  62.2602081  65.7849407  26.1459661
  62.4923992  64.8617411  24.9692035  30.4109406  52.7424383   8.3224797
  30.1250982  51.9838858   8.8315237  31.0699201  52.3935604   7.7222610
  16.6957605  92.5854683   1.0521182  17.1760392  91.7588902   1.1003362
  16.1429524  92.4963379   0.2757858  27.5269556  44.8893833   0.9117495
  26.9390941  44.1931057   0.6187451  26.9999695  45.4076290   1.5199769
  77.2588301  67.0530510   3.4897539  76.9970894  66.9768858   4.4073173
  78.1127453  66.6226006   3.4477475  47.7881289  44.6440697   7.1446002
  47.9786301  45.5020666   6.7654121  47.8730106  44.7753668   8.0889457
  38.8122272  46.2035942  25.8399701  38.2119894  46.6636133  25.2531767
  39.2771316  46.9011831  26.3019919  66.1541080  10.9962249  23.1593490
  65.6164503  11.5232003  23.7504911  66.9308615  10.7765889  23.6737919
  19.2184412  70.3089762   9.0745717  18.7669551  69.4667244   9.1293812
  20.1433516  70.0931311   9.1936702  38.9222598  53.4202194  14.7737837
  39.1606450  53.2584095  13.8609743  38.6013222  54.3219805  14.7812772
   8.1468439  67.7228880  29.2193317   8.1500328  67.4908400  30.1479721
   9.0087432  67.4532080  28.9021039  28.4600592  71.5780544  61.8639708
  28.2534528  70.7593584  61.4131021  29.1466498  71.9785309  61.3306379
  89.6546650  75.1447868  99.5622762  89.0770531  74.5564842 100.0485864
  89.6897411  74.7718859  98.6813995  51.6827059  61.5311861  18.5774648
  51.3047457  61.4256716  17.7043998  52.4058390  60.9045506  18.6027384
  60.1659632  85.8533764  39.1729879  60.9978390  86.0012054  39.6228361
  60.3995705  85.3386497  38.4005094  48.4271288  71.0567904  28.7829566
  49.3627405  71.1993980  28.9262319  48.0181026  71.2975216  29.6142054
  47.4225903  31.0671782  29.9484563  47.0032406  30.2302909  29.7484565
  47.0817804  31.6698527  29.2875004  26.6664696  66.0005617 109.2783881
  26.2472939  66.6469240 109.8464871  25.9382939  65.5435896 108.8574689
  47.0550108  74.4954920  92.8694721  47.1000242  74.5033264  91.9133636
  47.4327135  73.6524343  93.1201299  50.1277351  86.3063812  53.2425117
  50.7630348  86.9674110  53.5175943  49.2948055  86.7763996  53.2032633
  32.3655534  75.8707571  30.6525254  31.4159155  75.8089972  30.7555008
  32.6012158  76.6888189  31.0900998  43.6340189  16.7533529  25.7069182
  43.1242943  16.9407439  26.4951420  43.0776358  17.0484757  24.9861026
  28.8340998 101.8619347  16.8197203  27.9227638 102.0849514  16.6301012
  29.0739608 102.4339485  17.5487566  35.7467413  61.7276096   8.0060524
  36.2505436  61.0421896   8.4449279  36.4084864  62.3207235   7.6503271
  44.1223288  42.2111177  49.3855286  43.2640457  42.5319958  49.1087198
  44.1661119  41.3183403  49.0430880   9.3568200  62.5890255  11.9408977
   9.8313862  62.3317671  11.1504316   9.6044451  63.5027790  12.0822108
  29.8229885  71.3660860  16.4073360  30.3839397  72.1352959  16.5067482
  29.3630648  71.5103197  15.5803537  60.8659649 112.8181076 103.6764612
  61.5813446 113.0974293 104.2478164  60.6028128 113.6145592 103.2153227
  56.2468767  95.2390003  14.5675898  56.4342737  94.3660355  14.9126303
  57.0263529  95.7526302  14.7793043  85.2891731 119.4273376  53.0830860
  85.7991505 119.3447304  53.8889027  84.4935131 119.8880386  53.3493614
  20.0989890  85.6237411  32.2225714  19.2013848  85.2922344  32.2478724
  20.0188589  86.5497398  32.4513674  54.1956949  63.6039305   5.7109159
  53.8624048  62.7077818   5.7563585  55.1231146  63.5039473   5.4961449
  44.1779900  94.4862556  76.2937927  44.1854811  93.5550117  76.5150595
  45.0984669  94.7470856  76.3242483  21.3969278  52.7953196  41.9583273
  22.2854280  52.6703358  41.6248941  21.1689305  51.9539595  42.3537445
  58.6023283  77.7183676  74.4601639  59.1777515  77.0383263  74.8104104
  57.7664661  77.5771904  74.9047216  28.6594176  85.8053493  28.7802935
  29.0010667  86.2847424  28.0255175  28.7255144  86.4245510  29.5072436
  21.0671043 126.8866920  50.5824423  21.7522836 127.4461460  50.9481812
  21.1999345 126.0380745  51.0048532  14.0249288  78.6561632  96.0473987
  14.8078179  78.2179451  95.7138070  13.3149219  78.3332491  95.4925593
  38.2500672  56.4712334  18.3268690  37.6678348  55.8182764  17.9384315
  38.0375290  57.2843838  17.8687704  36.1177135  46.9400644  24.7256637
  35.2998209  46.4554310  24.8370814  36.1843681  47.0836020  23.7816381
  42.3557568  95.3110504  44.7936440  43.0943060  95.5892277  45.3353071
  42.7604961  94.9117470  44.0235996  47.8521729  93.3645153   4.1462457
  48.2374477  92.5338554   3.8673165  47.8665543  93.3260632   5.1025647
  46.1714363  83.6943722  90.8988675  46.1719847  84.6179199  91.1504527
  47.0625591  83.3960247  91.0808750  45.7860899  78.5555983  80.2788433
  45.2560759  78.6901951  81.0644659  46.6894054  78.5615349  80.5954179
  18.2685494  84.9651527  58.8809633  18.2760465  85.7216072  58.2945013
  18.4498000  84.2181015  58.3106136  53.3636570 114.0691757   3.5672176
  52.8376293 114.5243454   2.9096848  54.0133619 114.7155190   3.8435453
  63.6447763  50.9002829  48.1449556  63.4504175  50.9337854  49.0816164
  64.5140314  51.2933064  48.0665016   1.4547090  69.8707676  21.7586398
   2.3934910  69.7758865  21.5976501   1.1904436  70.6074333  21.2075257
  32.2854948  60.1385832  12.6332486  31.5926385  60.2146101  13.2893002
  32.7710748  59.3538666  12.8875506  26.5372968  74.9727583  31.9958639
  26.1681628  74.8544550  31.1206627  25.7749462  75.0239515  32.5724339
  42.8496170  57.3354626  51.0292673  43.7780142  57.3079681  50.7978630
  42.8144979  57.8822613  51.8141317  53.6388111  67.6977539   0.7009815
  53.4858465  68.2867908  -0.0378494  52.9637623  67.0246649   0.6144162
  49.9858713  45.2922678  93.9725980  49.1962671  45.4163933  94.4992324
  49.7761202  45.6920433  93.1285509  55.0920296  91.4355755   5.4633981
  55.2039146  92.3646355   5.6647927  54.1457653  91.2953758   5.4974866
  38.2245922  28.9448309  18.8617122  39.1681027  28.9403033  19.0229416
  37.8755283  29.5669723  19.4999349  42.8022528  71.0406351  49.9241829
  42.8899097  70.9107637  48.9798927  42.5573254  71.9612408  50.0176191
  65.1481152  89.4860840  49.8251677  64.5804548  89.1358471  49.1386414
  66.0051918  89.0983391  49.6482468  55.7513237  56.2435102  11.1771762
  54.8798943  56.6198015  11.0537016  55.9215307  55.7626390  10.3672206
  34.1878486  72.4522877  24.4229841  34.5905542  71.5905142  24.3161988
  34.2279124  72.8450918  23.5510135   8.7471879  67.5204277  53.9299107
   8.6697847  68.3223724  53.4130716   7.8605473  67.1601534  53.9472580
  41.9126368  39.0468287   5.9639162  42.7953053  38.6804676   6.0178834
  41.8269205  39.3320870   5.0542390  60.1571274  57.9913712  32.9144835
  60.4486370  57.1088171  33.1432843  60.9122896  58.3879614  32.4801064
  26.3403392  33.5390973  21.3159227  25.9358335  32.6916575  21.1303067
  25.6016684  34.1316414  21.4555168  52.0876837  39.0114951  53.5670805
  52.7464628  38.4922481  53.1059647  51.3438368  39.0435171  52.9654980
  64.2153978  30.9620380  59.5924950  65.0565386  30.7557917  59.1848421
  64.2523336  30.5338049  60.4477644  39.1487956  82.4399090  53.8529205
  39.5308590  81.9971371  54.6106863  39.5584655  83.3050060  53.8493061
  19.5415485  43.2835770   6.8269932  19.0250707  42.4892187   6.9629198
  20.2703714  43.0035639   6.2732422  32.7948093  72.2769976  12.7174377
  33.0110097  73.2089424  12.6863444  31.8607569  72.2408056  12.5113595
  38.0249739  79.6444607 105.4938754  37.6504374  79.8300695 104.6327695
  37.6524687  80.3148460 106.0666349  41.8687630 106.0137177   6.0503793
  41.5807056 106.0798740   5.1399523  42.4947739 106.7300606   6.1561739
  76.0733509  53.5454178  37.7570796  75.4226112  53.8743114  37.1369195
  76.9154596  53.7313461  37.3417306  39.1632438  76.6246319  43.8682652
  38.5006785  76.6129875  44.5589876  39.8313379  77.2312737  44.1874361
  85.8269215  41.1474133  20.4200196  86.0861969  42.0675659  20.3718281
  86.5363979  40.6755066  19.9839211  77.0695829  48.5610628  26.6568160
  77.6353645  48.1052876  27.2800231  77.6718807  49.0708351  26.1149645
  26.7598104  54.3398666  15.0744557  25.9186959  53.8892269  14.9990761
  27.1790433  53.9387751  15.8357692  54.6330643  48.7900734  98.9601370
  54.5582867  47.8388882  99.0368839  55.1962376  49.0457678  99.6906754
  42.0834589  87.3945236  37.0225453  42.0875025  87.7555561  37.9090381
  42.6042032  86.5940094  37.0875740  14.9001288  63.0884981  23.7217808
  15.6002259  62.6284504  24.1848683  14.9662042  62.7782965  22.8186512
  31.7306495  84.0395260  77.3571444  31.0760665  84.5588875  76.8902159
  31.4666104  83.1315708  77.2083807  80.7857800  59.3748903  11.4974201
  81.1570740  60.0108337  12.1089363  81.5300083  59.0895224  10.9674060
  29.8264551  76.7450333  17.3995292  29.8905635  76.4908171  16.4789343
  30.7339907  76.8685532  17.6776576  70.5774593  59.6762514  10.2516687
  70.5358171  58.7287045  10.1226330  70.5610275  59.7895098  11.2020028
  62.2124624  59.1706085  12.2816849  61.8385649  58.3317995  12.0118189
  61.5671968  59.8208523  12.0041084  43.8234663  18.2720971  44.0759706
  43.2680988  18.8387442  44.6114254  44.2936182  18.8737547  43.4987402
  14.2879009  43.6567879 107.8867173  14.0309584  44.4409370 108.3718171
  13.5503745  43.4849358 107.3012661  40.6107473  99.3955898  45.5410576
  40.8737850  98.8046455  44.8354864  40.0420952 100.0377274  45.1161814
  66.9902754  43.6701488  25.2442265  66.5186214  42.9164553  24.8896623
  67.2787476  43.3858061  26.1115003  32.7267647  91.3527489  23.1972933
  32.2301936  91.6673088  23.9527416  32.1136737  90.7889938  22.7255607
  51.8431950  73.9607763  13.6046124  51.0806370  74.5380926  13.6426544
  52.3280096  74.2548609  12.8334439  28.1450129  76.5028048   6.8910933
  27.8352904  75.8145475   7.4798304  27.7236629  77.3000908   7.2120750
  41.4161110  72.6421833  42.1569300  41.6253424  73.2129574  41.4175606
  40.9367657  73.2044792  42.7654362  73.7757158  64.3661833  10.6439447
  74.0896654  63.4622574  10.6680775  73.0883932  64.3988514  11.3093376
  41.9261885  31.5778542  96.3105234  42.4581099  31.4616561  97.0977911
  41.1522675  32.0534062  96.6124018  57.9969120  67.0721960  28.0078650
  57.9122591  67.9646683  28.3433628  58.7607050  67.1043062  27.4318290
  39.1342235  97.2875690  46.5434217  39.7493792  96.8590450  47.1385574
  39.5796633  98.0917740  46.2768316  70.4578114  32.6370406  25.0603390
  69.9511909  32.9946733  24.3311834  71.2630224  33.1545210  25.0691032
  17.8564155  85.8676147  22.7983713  18.0342197  85.0426769  22.3466039
  16.9655323  86.0979080  22.5346971  28.6003709  74.8583126  28.3615446
  29.3223572  74.3972778  27.9344392  27.8719640  74.2377949  28.3368206
  47.5559807  62.8861475  10.4488766  47.7415180  62.9553747  11.3853681
  47.7251005  63.7635660  10.1057053  38.8702035  65.3013325  51.2541914
  38.6730623  64.7762728  50.4785156  38.0503082  65.3164101  51.7479277
  57.7204227  55.8832073  16.3689101  58.6620045  55.7605267  16.4897537
  57.4632835  56.4749336  17.0759952  62.7872944  79.7104216 109.0015381
  62.0719862  79.5361900 108.3898125  62.4648428  79.3910885 109.8443211
  58.4794998  43.3393812  28.6379981  58.5712147  42.5683928  29.1978168
  59.2818785  43.8398266  28.7862396  16.3626635  58.8598108  24.7995329
  16.1143732  57.9919243  25.1178908  17.2954667  58.9313745  25.0019908
  54.2869902  51.6068172  20.3437972  53.7377691  52.3884439  20.2834201
  55.1416397  51.8888569  20.0178123  62.4434900  50.8486509  50.4958296
  63.0362749  50.9519005  51.2402630  61.9070435  51.6413498  50.5050850
  23.5144210  62.3186779  12.3745418  24.3659043  62.6989508  12.1586776
  23.5610580  62.1450520  13.3147061  19.7136652  29.2450261  63.4419537
  19.6278918  28.8425159  64.3061638  19.7472429  30.1853085  63.6179447
 124.1983494  97.5922680  41.2377501 123.9950919  97.8498936  40.3385592
 123.7802222  98.2618713  41.7790794  28.7915492  99.0801716  17.3813736
  28.7753725  98.5294247  18.1640935  28.6907744  99.9720669  17.7139497
  81.7588139  70.9266376  34.1456723  81.7990208  70.5293512  35.0156021
  81.1484146  70.3737640  33.6578512  55.5070400  54.6865511  43.6878824
  55.4228354  53.8387966  44.1242933  55.3852272  55.3289557  44.3869591
  35.1741076  64.1400576  27.9610014  35.5372357  64.8107052  28.5394478
  34.7466373  64.6334600  27.2609639  48.1564665  80.2318001  19.8842371
  48.4350967  79.3788385  19.5510006  48.9156485  80.7998371  19.7530425
  46.1630487  78.3574295  58.6392546  47.0137167  77.9197025  58.6078215
  46.1636162  78.9369869  57.8774548  48.8580370  44.6895647 106.8761399
  49.3264627  44.4668436 106.0716479  47.9500294  44.4425726 106.7007943
  62.9255152  97.7712345  50.3963566  63.5290813  97.8937817  49.6636057
  63.4771538  97.4509525  51.1100483  37.9998422  34.8161483  22.0943904
  37.7131200  35.4866195  21.4743185  38.8487768  35.1275826  22.4083209
  98.1264687  86.7219353  35.7918286  97.4430943  86.6537285  35.1250577
  97.6677990  87.0273304  36.5745091  43.6942959  81.4494228   9.7976780
  44.2035103  81.4316368   8.9873600  44.3469048  81.3633251  10.4926038
  27.6795912  52.2332573  35.7421160  27.3783731  51.8194723  34.9332428
  27.6334500  51.5379953  36.3984013  58.1553745  17.1959114   3.4090990
  58.0610466  17.7462482   4.1865709  59.0471840  17.3629808   3.1041566
  96.4424419  60.5611277   8.7405390  96.3863850  60.1422358   7.8816909
  96.6797161  61.4685440   8.5494131  39.5754147  36.5338206 107.9559178
  40.0452375  35.7284546 108.1724347  38.6504674  36.2934279 108.0099513
  50.8791304  60.7134628  23.0737233  50.2398300  61.2138605  23.5807967
  50.7689857  61.0249472  22.1753478  71.8603516  52.2350168   2.4547364
  71.3208246  52.0331192   1.6902882  71.5756607  51.6093063   3.1208220
  51.1219692  60.6669807  29.4975853  51.5432596  59.9559450  29.0147090
  50.7459068  61.2275028  28.8188910  97.6679039  39.6312141 100.1862749
  96.9708347  39.2223883  99.6732565  97.2212219  39.9934030 100.9514698
  24.4408035  25.5982542  21.5409422  24.9658060  26.3888478  21.4161873
  23.9250994  25.7748866  22.3277593  19.1908729  24.9506688  18.5911369
  19.7436583  24.7872996  19.3553162  19.3652785  25.8630252  18.3600128
  65.1697206  85.2848053  28.8823581  65.8312464  85.9062386  29.1863823
  65.0954247  84.6474743  29.5926571   9.0449399 105.4319382  16.4219368
   8.6914408 105.3660583  15.5348456   9.7302520 104.7645855  16.4568472
  71.1770010  90.0906181  25.0115991  70.8052826  89.3563747  24.5227861
  70.5331087  90.2732754  25.6959033  76.4453173  29.4608998  13.4725916
  75.9683704  28.9364076  12.8294253  77.2621107  29.6954632  13.0320668
  29.6873236  86.8991756  21.9482803  30.0488997  86.4394379  22.7060008
  30.0018525  86.4014053  21.1936092  29.6576738  62.4869585  37.0130968
  29.4235420  61.6319180  36.6520977  30.3658772  62.7989912  36.4497924
  45.9928179  57.3047400  40.2298355  45.2059937  56.7625809  40.1732254
  46.5107346  57.0559072  39.4642806  53.2045937  65.8709431  45.7239771
  53.7419415  65.9992838  44.9422979  53.2207727  64.9255800  45.8731699
  32.5333309 121.6208839  11.2715936  32.9793477 121.0161114  10.6786788
  32.6732945 122.4843216  10.8828425  34.8305941  63.7720633  91.2696990
  34.8327088  63.0605459  91.9099935  35.7281041  64.1046762  91.2782928
 122.8296956  58.1151915  27.2949457 122.7939875  57.1860170  27.5220919
 123.4435480  58.4923935  27.9251337  39.7709918  42.8234005 109.2386689
  38.8593125  42.5334930 109.2706950  39.7234583  43.7744474 109.3360832
  52.0139647  74.5542336  25.8080792  52.0719671  74.9990988  26.6536331
  52.8780031  74.6748304  25.4142213  17.3837042  60.2907896  35.4148078
  17.8051901  59.5022678  35.7565904  16.5765357  60.3704071  35.9231091
   2.3588316  26.4345074   4.9215168   2.5509977  25.4990125   4.9859661
   2.4823222  26.6411185   3.9950749  85.2156830  61.7798138  22.5705099
  85.6313038  60.9469843  22.3471570  84.4600677  61.8348932  21.9854975
  26.2588620  81.6210461   8.6658484  26.1770892  82.1228409   9.4768679
  26.7696142  82.1854305   8.0854732  45.0426912  68.4853697   7.8387254
  44.5443439  69.2726898   8.0578363  44.6153164  67.7860451   8.3332229
  18.5745764  53.3106852 107.6306691  17.8712046  53.6334419 107.0673522
  19.1899836  54.0415859 107.6880185  43.9134979  67.0472574 103.0718591
  44.8168182  66.7754507 102.9094925  43.8101530  66.9802332 104.0211012
  78.8692331  66.8406153  88.9162239  79.3865061  66.3055849  89.5182260
  79.2537832  67.7147150  88.9818247  56.0170889  74.0666389  87.8471192
  56.3361549  74.3167019  86.9799980  56.6225576  74.4893217  88.4561952
  47.9789639  43.1301403  33.2019949  47.5430727  43.9522648  33.4263659
  47.9014444  42.5946760  33.9916158  65.5701399  57.8807640  37.2451210
  66.4937449  57.7420282  37.0355010  65.5793381  58.5252333  37.9527974
  21.6630936  28.5601306  16.8564677  20.9847569  28.8671064  17.4580109
  22.4128652  29.1291714  17.0304441  53.8445330  46.1810017  12.5174320
  54.5465422  46.7560244  12.8219998  53.0418205  46.6768551  12.6787198
  86.6876316  70.9191084 100.5074325  86.2209988  70.3171873 101.0872438
  87.0764256  70.3548145  99.8391154  46.6870975  54.6770763  92.9586490
  45.8374929  54.3232250  92.6956042  47.2277451  53.9045191  93.1232401
  43.4338570  48.0891132  95.2525779  44.3908453  48.0960560  95.2338895
  43.2078600  47.2398520  95.6319305 122.0197383  93.5406208  28.3525753
 122.7259130  94.1340828  28.6082101 121.9551281  93.6403084  27.4027777
  52.2156096  52.1269512  84.3021353  52.0399046  51.2906551  84.7333702
  53.1589699  52.2545242  84.4022688  44.4449091  65.5620480  30.5376387
  43.6434078  65.2610922  30.1095581  44.1426516  65.9872293  31.3401937
  58.3099461  31.4151454   6.2746537  58.4855032  30.4742980   6.2599832
  59.1419983  31.8100119   6.5354192  31.4150143  67.7881384  24.6027446
  31.9672036  67.5931740  23.8455749  30.9891939  66.9561148  24.8092318
  24.9016547  65.8708668  89.4295105  24.1468859  65.7583618  90.0073489
  25.0419068  66.8172836  89.4002160  44.0460968  99.3978500  12.5315297
  43.1709385  99.0179825  12.4539280  44.0330696  99.8601913  13.3695638
  48.3041000   2.7164444  16.1508214  48.8739061   2.3173979  15.4933167
  48.6029291   2.3478997  16.9821501  26.1918092  58.7221336  19.7223210
  26.2095094  58.0824184  20.4341364  27.1138382  58.9052439  19.5418739
  24.3661809  34.9137020  19.1010308  23.4810567  35.1840496  18.8566971
  24.2909431  33.9751697  19.2734385  32.3731160  33.7972069 109.1034427
  32.0449567  34.2582297 109.8754536  31.5916228  33.4197044 108.6997197
  51.6416168  41.0442972  20.1970291  52.4855375  40.8196926  20.5889297
  51.5849972  41.9962549  20.2795410  27.6826501  76.9024801  99.1924461
  27.6627660  77.8552675  99.2820939  28.4553432  76.6313505  99.6880909
  43.3372831  50.8696461  31.0221910  44.0590620  51.2579584  30.5277467
  43.7113523  50.6793451  31.8824768  31.5147710  71.2429380  22.7521348
  31.9606614  71.9265938  22.2521043  31.7508054  70.4286432  22.3077846
  80.8189297 108.3396435  13.3278930  80.5359936 108.5333920  12.4342275
  81.1307526 107.4354649  13.2896769  79.1581440  82.0469379   5.7526112
  79.4122458  81.1643219   6.0221308  79.9274683  82.3891544   5.2973551
  92.3911762  72.6234388  99.4801935  93.1914616  73.0980349  99.7049817
  91.8380547  72.7050924 100.2571210  45.6863260  56.1598110  10.6310916
  46.1515474  56.9928122  10.5541909  45.5264282  55.8903885   9.7266161
  44.7275496  61.8587017  49.9364758  45.4385948  62.4818420  49.7869825
  43.9587164  62.4062490  50.0955868  36.5808725  52.9165840  43.2077694
  35.8588219  52.2908115  43.2650757  37.3576689  52.3741531  43.0714321
  33.0846095 102.4547005  32.2715187  32.4793458 103.1638145  32.4884343
  33.9494753 102.8645420  32.2880793  21.2581348  34.9350262   1.6232947
  20.6683207  34.1834402   1.5644200  21.4682150  35.1464534   0.7136811
  92.3343563  63.4228992  20.3560162  92.7564716  63.1927490  19.5283186
  92.1543598  62.5813961  20.7751918   4.2621589  75.8454418  11.9379044
   4.7697964  75.9983969  11.1409473   4.0895283  74.9039412  11.9349134
  75.5140543  56.4184570  26.6361070  74.9191141  56.5898132  27.3661160
  75.2048635  55.5925560  26.2639332  44.0818024  54.4770336  41.1506081
  43.3511162  55.0802517  41.0147524  43.9194584  53.7617970  40.5355406
  76.6307211  80.9639645  98.1762429  76.4967871  81.7787552  98.6603995
  76.2592030  80.2860832  98.7407633  53.9233637  57.1254158   2.1415889
  53.3483171  57.7565098   1.7088413  54.6078444  57.6609230   2.5427717
  59.6378899 106.3635445  87.8265461  59.8550224 106.0191822  86.9602331
  58.7225962 106.6341591  87.7542075  38.5541010  53.5983133  17.5668764
  38.4057498  53.3449650  16.6558111  39.0414333  52.8653193  17.9429913
  38.5076332  68.9280415  10.5920231  37.7214479  69.3482780  10.2433836
  38.5765576  68.1070948  10.1046538  51.9289303  66.9163561  93.9221867
  52.5360823  66.5566111  94.5688578  51.9867277  67.8644180  94.0408107
   5.5150306  77.9885244  27.3460603   5.4197115  77.3124266  28.0169082
   6.4430255  77.9651260  27.1125865  69.4200611  43.7701082   2.3983212
  69.9493790  44.5544529   2.2539076  69.3776417  43.3484173   1.5400618
  23.2562041  59.2900562  99.5986124  23.4702063  59.6110487 100.4746261
  22.4635077  59.7682571  99.3553289 122.5498593  40.4900217 106.9080930
 123.1634395  41.1479568 107.2350108 122.1948153  40.0806189 107.6971208
  43.0443335  49.8020697 100.3453859  43.4179544  50.5189037 100.8580121
  42.9544210  49.0823936 100.9700551  37.0440340  61.1545944  98.3641299
  36.1038399  61.1074305  98.5374650  37.3758054  60.2898598  98.6057719
  74.7597742  53.8776970   4.5361233  75.6646919  53.9565182   4.2342302
  74.2380428  54.2633343   3.8323390  28.8942885  67.1527767  21.1184454
  28.3321381  67.9118252  20.9633255  29.2855167  66.9660807  20.2650309
  18.3999777  86.8378735   0.6270142  17.5885224  86.4999294   0.2481139
  19.0564573  86.7071152  -0.0572145  58.6260176 112.7235317   2.8803840
  59.2824793 113.2852173   3.2924661  59.1353655 112.0989227   2.3639973
  44.3568468  67.9542398  14.1115344  44.7473001  68.7973833  14.3415201
  43.4501076  68.0205584  14.4109547  17.7008510  55.8351564  26.2356877
  16.9845784  55.2849293  25.9187794  18.2805228  55.9323549  25.4801989
  38.7369823  74.2933416  97.8920706  37.8195548  74.0609455  98.0354258
  38.9267087  73.9844036  97.0061859  52.4012804  42.1546412   2.0631799
  52.0162439  41.8044662   1.2598407  51.7698622  41.9333029   2.7476853
  18.4182739  52.9234552   1.5320726  18.2099795  53.1776285   0.6330507
  18.0330968  53.6139822   2.0715548  42.3764038  73.1661177   7.5303543
  41.4351177  73.1058788   7.3673034  42.4473906  73.6725044   8.3395296
  62.9268265  49.8839760  16.1059833  62.6369095  49.3758392  15.3483713
  62.1221256  50.0770569  16.5870309  45.8645201  53.4226465  99.2477616
  46.4755726  52.6904821  99.3301424  45.3141356  53.1922150  98.4992846
  54.2712402  32.0122910 100.8654418  55.1704407  31.8831539 100.5637863
  54.3634558  32.4336791 101.7199364  55.8892107  45.6126356   3.0423406
  56.4514351  46.3669538   2.8658903  56.1715651  45.2992487   3.9015824
  79.4607830  41.4901590   8.2999265  80.1622009  41.9010258   7.7945215
  79.1697359  42.1727705   8.9045477  40.2581930  96.9380951  98.8885816
  40.5429029  96.1878681  99.4104274  39.3605900  96.7253399  98.6330982
  55.3440046  78.2968855  26.4360523  54.4726562  77.9282284  26.2908649
  55.9316874  77.7234983  25.9440255  30.0965905  70.8167315  91.9919165
  30.3768969  69.9016571  91.9746824  29.8440146  71.0069180  91.0884424
  58.8889885  63.6151743  36.2108994  59.2856741  63.9674807  35.4141879
  58.2140970  63.0135441  35.8965826  42.9006052  73.0015755   3.6734149
  43.0965424  73.2505512   2.7701697  41.9572067  73.1382895   3.7602696
  39.4990849  77.6118088  37.5448203  39.2112136  77.6374578  38.4573460
  40.4335022  77.4101305  37.5940323  56.5900564  48.1361866  12.1700776
  57.5421429  48.0938959  12.2594023  56.2909985  48.5425901  12.9834867
  63.7784576 106.3199520  35.4969716  63.0955267 106.6637230  36.0728645
  63.7686920 106.9039917  34.7386599  27.3993421  78.8892365  20.1722193
  28.0692387  79.2780876  19.6098447  27.8571033  78.6933565  20.9897256
  62.9646683  46.6469812  20.7277870  63.5822344  46.2505722  20.1132131
  63.1211901  46.1889219  21.5535665  31.9685793  88.2962132  84.2405184
  31.0808468  88.4734631  84.5515569  31.9094396  87.4360085  83.8248452
  15.3867137   7.7814579   0.8543333  14.9582958   8.1076276   0.0629399
  16.1772776   8.3149207   0.9359211  57.9814243  49.6430016  24.6167469
  58.7317514  49.8737812  25.1644516  57.2332716  49.6660805  25.2133751
  33.0797029  51.3656139  30.9204602  32.8608489  50.8306456  30.1574779
  33.0225849  52.2675133  30.6049514  54.6672630  58.2050705  15.9571874
  54.6171856  57.4072409  15.4307008  54.2843676  57.9604959  16.7996883
 102.2079945  66.3955784   1.6335776 101.9717503  67.2505331   1.9934072
 101.3713360  65.9456396   1.5161809 102.8974342  83.0178165   6.8981254
 103.1094360  83.4188557   6.0552406 103.5753155  82.3539829   7.0247644
  43.0929041  37.2357392 101.6716107  42.4531317  37.9469585 101.7046168
  42.9995680  36.8702579 100.7918700  26.4157939  71.3171434 105.0838064
  27.2666144  71.7535543 105.0404500  26.6247511  70.3831244 105.0706234
  35.2493334  51.1653662   0.6511997  34.5134306  50.9611654   0.0741522
  35.2328300  52.1189976   0.7320794  40.0236177  36.8246603   6.9222301
  40.6519127  36.6535640   7.6238054  40.1501226  37.7488565   6.7075461
  41.9418240  99.0084934  99.1852935  41.6981697  99.4027996 100.0227835
  41.2944317  98.3167553  99.0488800  58.8290262  53.0766773  26.9360065
  59.2143679  52.7659559  26.1167383  59.4802666  52.8615808  27.6037288
  44.4147968  85.2402496  10.5304921  44.1456985  84.9776554   9.6502268
  43.6945963  84.9592400  11.0949254  13.5058630 111.0999775  20.2986145
  14.0122831 110.9776402  19.4956172  13.3829927 112.0471191  20.3623319
  69.7501421  76.1753798   4.1081929  69.0604544  75.8359766   4.6786034
  69.7170591  77.1241188   4.2307931  74.5493937  71.3435173  11.9587958
  74.6499920  70.7304621  12.6869941  75.4452419  71.5340757  11.6806328
  74.2567825  20.6515908  94.9530026  74.4016695  20.6293130  95.8989116
  74.2228222  19.7306824  94.6941444  32.0826936  27.0999742  91.9787821
  31.8423796  26.4667630  92.6551875  32.5487709  27.7897835  92.4511882
   9.9527127  69.3925714  17.8529036  10.6056011  68.6948442  17.9089892
   9.7096407  69.4193125  16.9274676  41.1555624  69.1734934  37.4918771
  41.8303967  68.5182762  37.3143339  40.3605461  68.6629820  37.6453710
  24.6353245  53.6771011  83.0653199  25.0659084  53.9765549  83.8660415
  24.9116492  52.7654839  82.9713329  58.2585526  28.8045263  29.8523855
  58.8964558  29.2733145  30.3904819  58.6790419  28.7262177  28.9960623
  40.7188702  50.6774187  99.3153878  40.8585358  51.6134071  99.1716775
  41.5899324  50.3326845  99.5119640  66.8938541  40.6725168   8.8848531
  66.4940405  39.8217392   8.7044156  67.7329063  40.4608965   9.2940474
  44.2242241  84.6861458  51.4955235  44.2787695  84.4212246  50.5773306
  45.0060558  84.3102551  51.9001007  17.4304950  58.0582857 104.9590012
  17.3551500  57.3336887 105.5798983  17.0692587  58.8120031 105.4255288
  10.1427627 112.5132847  17.8779018  10.8466768 113.0390644  18.2577515
  10.1147354 111.7240334  18.4187615  44.6141052  46.9034338   3.2018587
  44.6702528  46.8745899   4.1569752  43.8059473  47.3845005   3.0238596
  53.9744282  98.1210423  21.6625047  54.1389513  97.6249695  22.4644256
  54.7179127  98.7200928  21.5946555  43.7845945  50.9178257  13.0052352
  43.2130671  51.6043949  13.3490539  44.4379616  51.3874292  12.4867654
  77.0505238  52.3794794   6.5568280  76.1382389  52.1085978   6.6597646
  77.1134043  52.6680660   5.6463373  41.6737223  58.4171200  21.2353611
  41.3758469  57.5902271  21.6145062  41.7564249  58.2353449  20.2992249
  36.8333411  59.0122890   8.6714262  37.0361686  58.0776119   8.6330092
  36.3129592  59.1118860   9.4686180  54.1830873  54.9356127  37.9216599
  54.0827322  54.0380907  38.2388544  55.0910330  54.9837780  37.6224208
  72.9133844  58.8195133   4.4465250  72.7767229  58.1113529   5.0758660
  73.5468531  59.3981647   4.8709178  52.6801205  80.0679779  23.5551095
  52.6286888  79.6317148  22.7046585  51.7967224  79.9938345  23.9161396
  47.1756077  74.4489431  10.0185454  47.5146008  73.5568142  10.0921905
  46.2934017  74.3413591   9.6630639  26.8598056  47.6887846  40.9598780
  27.2499895  47.4063158  40.1327133  26.2108636  47.0145559  41.1611700
  29.1006899  85.7638645   4.6089652  28.5310078  85.1097584   4.2041877
  28.5433888  86.5350437   4.7134963  40.6168032  25.1991773   9.6074575
  39.9673676  25.4238343   8.9411300  40.0990486  24.9068880  10.3576088
  18.3692598  45.4287148  95.7855054  18.1607580  45.1695108  96.6830429
  18.2302618  44.6351624  95.2686092  35.4984832  87.1455193 106.8617141
  34.9713516  87.9357052 106.7434704  36.0383368  87.0974636 106.0727408
  62.0371246   7.6861745  44.9512053  61.3313293   7.9235953  44.3497849
  61.8973875   6.7561144  45.1292372  42.0825577  69.6178246 106.8279927
  43.0082798  69.3765450 106.8604191  41.9403315  70.1293659 107.6244419
  51.5010071  38.3647633 101.2591710  51.6120243  39.2616653 100.9437772
  50.5527687  38.2444954 101.3102820  54.1382265  63.7939024  29.3745923
  53.5700130  63.9984703  28.6319518  53.5385227  63.6887789  30.1131940
  40.0846863  59.8255396  12.3958683  39.7675824  59.4653273  13.2240748
  39.8068166  60.7413960  12.4109912   4.3289912  28.8004184  13.2763827
   4.1841403  28.5800815  12.3562181   5.0255287  28.2072854  13.5579145
  31.1274624  56.3638592  21.4547491  31.7660809  56.2517023  22.1588922
  31.6565204  56.5489197  20.6788111  66.9177151  49.3696451   2.2569001
  66.2829494  49.1389227   1.5786147  67.2985840  48.5328102   2.5231239
  55.8468246  54.0611792   4.5693651  55.7732153  54.2871332   3.6421341
  55.5159950  54.8318672   5.0306910  44.7819710  64.9672270  10.0688100
  45.6440592  64.7393179   9.7208232  44.8885632  64.9253273  11.0191333
  36.0935044  54.8125362  25.5244350  36.1705565  54.5510530  24.6068716
  36.3678551  55.7295036  25.5360222  39.7784567  77.1297932  12.7067327
  40.6252527  77.5397682  12.5304031  39.9666142  76.1915350  12.7290165
  21.4024639  70.7238436  42.9387760  22.2260404  70.5788088  42.4730301
  21.3641238  71.6714859  43.0681276  60.6712723  55.5826139  26.7117620
  60.9611750  56.4936638  26.6650701  59.8965406  55.6062794  27.2734237
  49.4866133  70.3828001  89.1339358  49.4293880  70.0044584  90.0113281
  50.4210806  70.5435038  89.0028819  56.8079281  67.5029945  19.2831290
  57.2913980  67.9297495  18.5757613  56.3061285  66.8135309  18.8483107
  52.8981733  70.7280588 103.4907904  52.5351810  71.5412760 103.1398698
  53.7113953  70.9942579 103.9197912   2.9261407  71.1331511 102.9897090
   3.5799655  70.4446650 103.1110969   3.3462265  71.9244909 103.3266648
  35.2745175 124.7480774   0.6238110  34.3771100 124.9380302   0.3502978
  35.3761888 125.2153873   1.4529762  47.5438118  63.5073185  13.1998527
  48.1826639  63.0409670  13.7389421  46.7151785  63.4048653  13.6679304
  55.0456190  87.1530151  96.4010593  55.9728432  87.2392559  96.6225358
  54.7540569  88.0499077  96.2373158  56.6520214  40.3549242 102.5789257
  57.0637369  40.4863310 103.4330054  56.3641024  41.2287617 102.3148378
  10.9465909  43.1328440  89.7439679  11.8757856  43.3608913  89.7152265
  10.5657661  43.5842943  88.9907106  51.8892860  84.6282101 105.2306467
  51.9809961  85.5412865 105.5028995  52.2507286  84.6050167 104.3446144
  34.8490310  77.9863739  95.8608099  34.9207568  78.6592722  95.1838335
  35.5781460  78.1653452  96.4546057  56.0639668  87.1372318  15.9297073
  55.6188536  86.2949276  16.0226774  56.9956207  86.9218445  15.9728336
  70.0028706  84.9113369  16.6307664  69.1585445  85.0271702  16.1949646
  69.8315907  84.2667389  17.3173451  53.1875277  29.9180555   0.5216951
  52.8515244  29.6377444   1.3730237  52.6994991  30.7171392   0.3228903
  42.9543781  67.9351950  21.5102100  42.3952389  67.2214937  21.8171668
  43.4972906  67.5381660  20.8291459  54.1445398  67.8045702 106.3057866
  54.8982859  68.1573582 106.7786869  54.3730783  67.9051065 105.3817227
  65.6672955  64.7342587 106.1214500  65.2465868  64.7453833 105.2617329
  65.5489063  65.6226587 106.4575472  14.6593273  66.4950991  81.7303976
  15.0260532  65.7771349  82.2464093  14.9109280  67.2858524  82.2075185
  40.4884434  18.9591444  17.8181088  39.5560384  19.0708137  18.0035436
  40.5893040  18.0216110  17.6535153  23.2716799  62.3026514  18.1195343
  22.7765942  62.5367975  17.3344898  22.6240706  62.3169661  18.8242531
  39.9419260  62.7360153  18.4855533  39.8301053  62.1063995  19.1978121
  39.1301727  63.2432508  18.4846187  60.8765411  28.7157273 103.0013182
  60.8388281  28.5718083 102.0557513  60.0223255  29.0874338 103.2212743
  76.5799618  78.6050510 107.5603352  77.4281406  78.6140251 107.1167698
  76.7363119  79.0643692 108.3854503 117.4452114  60.9042454  99.9974855
 116.7958546  60.2644491 100.2894076 117.2740936  61.6799450 100.5315622
  62.3479795  58.5470486  99.9327489  62.5310230  59.3434906 100.4311486
  63.1999588  58.1203461  99.8417219  93.0398178  42.6059341  25.2887678
  93.3770561  41.7217398  25.1448822  92.2530937  42.4788761  25.8190060
  36.1830568  81.3051510 106.5307742  36.1168170  82.0227814 105.9008180
  36.3893723  81.7338371 107.3613698 112.4329168  54.5699978 109.1517753
 112.0913572  55.4069519 108.8370091 112.7406294  54.1247368 108.3622893
  30.5712080  63.4917831  57.4411345  30.7735324  62.5562191  57.4448967
  31.4066815  63.9182806  57.6317024  53.8355446  83.1705952   3.1501743
  53.7393236  83.7207127   2.3727816  53.4113693  82.3456955   2.9138464
  79.9100780  84.2831039  16.4712727  79.6340132  83.6041927  17.0869875
  79.3087482  85.0104427  16.6312981   7.3665541  61.8595409  17.8633726
   7.6222861  61.9240618  18.7835193   6.4492285  62.1326113  17.8500152
  42.4243689  68.0881834  16.2112916  41.4963913  68.2985640  16.3153601
  42.8753185  68.6994267  16.7937529  37.2758818  76.1708117  30.4971337
  36.5874100  76.7609596  30.1906037  37.3677850  75.5254698  29.7961903
  61.1761189  51.2378216  22.3773837  60.7023859  50.9973335  21.5811586
  61.7588472  50.4966068  22.5424838  63.6391878  57.4945354  92.5749561
  64.1725779  57.2493362  91.8189105  63.9126587  56.8919325  93.2665595
  60.6467628  89.2146683  85.7450684  60.0468683  89.7437954  86.2707933
  60.1024818  88.8655376  85.0393089  34.1505051  46.4758825  97.2146496
  35.0580955  46.6294765  96.9521209  33.9004898  47.2694635  97.6878890
  55.2989864  66.1281109   5.2088559  54.9268007  65.2946663   5.4970884
  54.6070528  66.7688751   5.3728110  43.4066153  86.8166351 103.9976480
  44.0669918  86.1442947 103.8300475  43.0420589  86.5865135 104.8522683
  41.5054560  30.9154677 106.1727404  41.9678020  31.5495396 106.7208465
  42.1636248  30.6162381 105.5454370  25.9363079  86.3161087  23.1513739
  26.1253595  85.4579544  23.5309291  25.9064150  86.9088459  23.9023781
  74.2079115  12.6690352 101.0212483  73.9054871  12.4440002 101.9010951
  75.0210667  12.1755743 100.9139701  44.1679668  61.9114065  10.1370013
  44.0127516  61.6779613   9.2217731  43.4396696  62.4897814  10.3634894
  31.0492897  18.7884867   6.3163728  31.5560746  18.8177681   7.1278805
  30.4438472  18.0571902   6.4383435  62.8450060  49.5283747  23.4149265
  62.7190495  49.4426775  24.3599248  63.4631300  48.8324738  23.1916022
  34.4932604  86.0419846   5.8871490  35.2739334  85.9425926   5.3422648
  34.0865159  86.8512630   5.5775172  53.9846516  71.3865328  23.5520077
  54.0070581  70.6450129  24.1568804  53.2636070  71.1868906  22.9549503
  24.7508621  38.4244919   2.1638690  24.2475700  37.7532434   2.6246870
  25.4891562  38.6106968   2.7439389   2.7049893  84.4076347  19.8431969
   3.2971847  84.0354538  20.4966617   3.2503626  85.0161743  19.3447101
  44.9404716  66.0657120  94.5024511  45.3455353  65.3604794  93.9976712
  44.9070168  66.8055964  93.8960847  23.4835100  99.1676331  11.4918745
  24.1845465  99.8007393  11.6466308  23.6701775  98.8111115  10.6233799
   8.1442147  50.4467154  97.2591277   8.8049072  49.8717785  97.6453503
   7.9139209  50.0247765  96.4313813  38.6464548  57.5708961  10.9246433
  37.7396941  57.8682852  10.9992945  39.1681981  58.3684349  11.0137784
  54.7536516  78.2397461  94.8791703  54.1691256  77.4961948  94.7319158
  54.9054623  78.2415724  95.8242532  21.9500184  48.5420799  95.8651777
  22.3152733  48.0119085  96.5735158  21.3256168  47.9620600  95.4293641
  74.4595098  63.8942862  15.5175829  73.5932493  64.1710901  15.2189076
  74.4242477  63.9833403  16.4699793  55.8824778  31.1956906   4.9558535
  55.4524899  32.0044088   4.6777874  56.6697836  31.4885926   5.4147553
  66.5617466  44.6941423  95.0759506  66.5894938  45.4388571  94.4752312
  67.3535061  44.1950178  94.8754025  27.3272300 101.6739655  20.2649919
  26.5787125 102.0731831  20.7083646  27.0877051 100.7516956  20.1739541
  35.3896427  41.6246796  20.4200116  36.1758161  41.9398928  20.8658830
  35.1948762  42.3009157  19.7711698  62.8475571  44.1153526  94.2706394
  63.3862782  43.6023617  94.8730183  62.8498888  43.6100817  93.4576702
  44.8304701  72.8769445  22.2386781  43.9572287  72.5004148  22.1295587
  44.6861744  73.8231611  22.2294084  34.2270088  57.6914597 102.1018982
  34.9659300  57.6283979 101.4967155  34.4876242  57.1602154 102.8542900
  32.2136140  64.0846157  82.8498936  31.9973159  63.1582260  82.9559517
  31.4609909  64.5496559  83.2153034  54.5800924  90.3205109 105.2169800
  55.4344654  90.1470375 105.6121826  54.4238853  91.2502289 105.3826618
  64.3265915  14.3223298  95.7219315  64.5098257  14.4692469  94.7939873
  64.1968632  15.1995742  96.0822678  12.2563624  52.6413107  93.3029747
  12.9939568  52.2364521  92.8466034  12.1185970  52.0890808  94.0725803
  40.2131605  73.9840031  99.9453735  40.9208202  73.3653545  99.7644806
  39.7680068  74.0911770  99.1047859  35.4474401  30.0682688  91.5206909
  35.3829050  29.8046112  90.6027889  36.3858509  30.0532055  91.7088127
  59.7755575  43.3059788  87.3118687  58.9425230  43.7418509  87.1321487
  60.0330687  43.6282921  88.1756020  39.4575357  67.5938368  94.7315407
  38.7053514  67.0121956  94.6213436  39.7164631  67.4799061  95.6459808
  44.3842316  69.7474432  17.4638501  44.8228312  70.0469637  16.6675130
  44.2686844  70.5409479  17.9865590  48.8674307  33.3617401 104.4671917
  48.8309669  32.9296756 103.6138248  47.9814053  33.2733703 104.8184490
  43.2035494  29.7558069 104.0081596  42.2751474  29.9066639 103.8305378
  43.4216928  28.9765620 103.4968662  38.8402987  18.4580123 102.2459126
  38.9434075  19.3522942 101.9205475  38.5696530  17.9537117 101.4786625
  44.1084051  27.4419737  12.6979295  43.4619141  27.5234127  11.9967500
  44.7915697  26.8815398  12.3299257  70.4904222  42.0001411   8.9415399
  69.9825811  42.4238443   9.6334974  71.3288212  42.4620104   8.9427224
  51.7956018 135.7587547 104.1279507  52.7449751 135.7407911 104.2487812
  51.5014601 136.5035296 104.6523762  20.5155540  48.6396122   1.4977495
  20.2458310  47.7260303   1.5918390  19.6938741  49.1287088   1.4546815
   8.0534422  74.2516613   3.6442701   8.3500135  75.1137447   3.9359609
   8.1527501  73.6911678   4.4138280  79.4418001  61.4474010   2.4437372
  79.8302507  62.3164034   2.3428956  79.9783897  61.0212755   3.1121103
  62.5153065  26.3816547  82.2555161  62.8037691  26.5274334  81.3545322
  61.9014502  25.6497049  82.1950150  77.4658775  62.1332216  84.0058517
  77.1890831  62.9946327  84.3182468  76.6920042  61.7765474  83.5698032
  62.5296021  52.9551029 103.1472874  63.0231190  52.9522038 103.9674473
  63.1211281  52.5542307 102.5103951 103.0325890  66.2207365  99.8469067
 102.4219322  66.9100618  99.5858192 102.7492714  65.9702349 100.7262325
  32.3890829  60.9952831  73.8317156  32.4230361  61.0663939  74.7856665
  31.5062475  61.2846136  73.6012459  29.5644283  58.3912373  74.4732523
  29.3571591  59.3247318  74.5164204  28.7723041  57.9552364  74.7873783
  65.0497007  39.7499418  86.1712837  64.8300219  39.3490124  85.3303146
  64.9656343  39.0378213  86.8053532  61.6162920  24.7067523   7.0331136
  60.8167124  24.2893457   7.3535482  61.8562555  24.2005134   6.2569848
  76.4257669  54.7388840  23.5306302  75.6250477  54.5879745  24.0329305
  76.1183500  55.0085545  22.6651803 113.4675402  43.4133387  14.5793763
 114.0028567  43.3688021  15.3716508 112.6027340  43.1115770  14.8573724
  53.7883615  54.8288679 108.9188385  54.6331835  55.2715540 108.9996815
  53.4656143  55.0847197 108.0547714  30.4115868  52.6628494  26.2866918
  30.1927471  53.0066538  27.1527997  31.3424587  52.8583813  26.1795751
  45.5508184  24.6956182 104.1563988  45.3130484  25.2017474 104.9332714
  44.9143505  23.9810896 104.1320133  71.9308376  44.9898052 107.6564884
  72.0036983  45.5300093 106.8696594  72.2222662  44.1214132 107.3786449
  58.6963844  59.1442156  42.2419587  59.0797091  58.7005377  41.4853517
  58.2732773  58.4451866  42.7405206  79.0932846  60.4673815  74.6644926
  78.6735868  61.2732124  74.3632889  79.9235821  60.4376411  74.1891479
 119.4408543  20.3032541  80.8833981 119.9462012  19.5474446  80.5840492
 118.5293145  20.0628090  80.7175255  73.9158678  62.3985577   7.5411168
  73.3952475  62.0006418   8.2388631  73.5417175  63.2728195   7.4319593
  17.2613442  70.4429674  82.3470306  17.2195053  71.3636589  82.0885563
  17.9611671  70.4088545  82.9992008  -0.2151216  48.6011839  13.9142457
   0.0018130  49.0909147  14.7075502   0.2526983  49.0581036  13.2152501
  26.1643028  66.7421293  86.7382812  25.6976891  66.5602398  85.9225559
  26.3015223  65.8809090  87.1328735 124.6905265  71.8058825  88.6353874
 123.7826609  71.6390657  88.3820438 124.6871901  71.7474079  89.5907879
   7.1121871  62.3590517   6.6405717   6.4472753  62.1168423   5.9960119
   6.7744112  63.1585264   7.0442811  32.6467061  54.6967125  97.3170567
  32.6300216  53.7412453  97.2619152  32.2969246  54.9913025  96.4761639
  42.2041368  57.0460987  89.9736977  42.4757528  57.9242468  90.2407360
  41.3865805  57.1834183  89.4951820  74.5330858  80.5044079  23.5298864
  75.4087210  80.2320480  23.2554570  74.5057487  80.3135681  24.4674722
  30.9378624  69.7786856 106.7632389  31.2411761  69.8074913 107.6706505
  30.1329565  69.2616940 106.7960453  60.4287386  42.1350956  99.8956490
  59.9003267  42.7150822  99.3473530  59.9303770  41.3186026  99.9303913
  27.7902889  34.4230199 101.5045166  27.7815342  35.0091457 100.7478046
  28.7188172  34.2607832 101.6710854  96.6883373  73.0836821  96.2582397
  96.4041424  73.1563234  95.3470898  97.6206017  72.8739595  96.2023544
  58.2190180  26.0071325  27.3507539  57.6144838  25.2691102  27.4287931
  58.4921312  26.1891389  28.2499257  49.0426826  87.5093269   6.3190690
  49.8710203  87.5595474   6.7961065  48.3736467  87.4819851   7.0030824
  42.1442032  14.2591751 104.3429947  41.4263725  14.8912382 104.3049145
  42.2832584  13.9995050 103.4322453  71.8880510  65.6882238  75.8833742
  71.3978434  66.4300394  76.2378216  71.4408064  64.9170637  76.2319660
   9.4141066  50.3559208 106.4860535   8.7644660  50.6199884 107.1375656
   8.9236569  49.8209572 105.8619499  57.9243517  49.3120098  83.0737209
  57.6797199  50.1517916  82.6849270  57.6451874  49.3803835  83.9867496
  11.8666363  32.7623963   7.9667226  12.1710646  31.8550491   7.9833070
  11.1902070  32.8004766   8.6429063  41.9049454  21.8907118  77.3715401
  41.0224056  22.1729064  77.1312904  41.9081068  20.9478211  77.2066736
  69.8119688  22.3649478  65.7253790  69.2360163  22.4545312  64.9661112
  69.4739437  22.9983258  66.3584709  11.7732835  41.3920164  94.1316223
  11.9629741  41.0410023  93.2615471  11.2502837  42.1761465  93.9647579
  83.5901928  56.4778423 105.1210403  83.5435200  57.0018101 104.3213463
  82.7115917  56.5351582 105.4965496  38.7064147  29.6377635  78.6706114
  38.9838982  28.9340663  78.0840588  37.9507732  29.2782259  79.1353369
  47.5007915  50.1871824  96.3749695  48.3663368  50.1586819  96.7827034
  46.8913698  50.0248432  97.0950317  87.1749592  47.9650784  60.9625673
  88.0904865  47.9143143  60.6878567  86.8261909  47.0892620  60.7966185
  32.3155403  51.7507982  15.7106820  31.6791058  51.8888283  15.0091592
  32.3129010  50.8043432  15.8536569  38.1129193  70.1597118   0.8098451
  37.2220635  70.2594757   1.1454908  38.0187678  70.2193928  -0.1408442
  39.2578888  55.3867388  81.9242287  40.1146412  55.0129175  81.7181587
  39.4293284  56.3188076  82.0587158  26.6679120  52.0809889   1.0442392
  27.4642801  52.4516821   0.6639520  26.9460392  51.2420654   1.4117757
  40.8734655  23.7681699 105.6854439  40.2136421  24.0132928 106.3341236
  40.9933090  24.5565605 105.1560020  23.8410830  82.5652790  91.4318848
  24.0885878  82.8845596  90.5641079  23.7629366  83.3564854  91.9649029
  59.6258259  37.1331382  82.1470165  59.1796207  37.9732037  82.0401573
  59.2274809  36.7479300  82.9275131  34.4603252  33.7713623 100.2787685
  34.8227072  34.0626407 101.1154747  33.8975477  34.4927073  99.9973869
  46.3554764  61.2291479  87.8349590  46.1839485  60.3588295  88.1946087
  45.9962416  61.1969709  86.9483089  40.6188011  27.8181839   6.6898862
  40.2262974  27.6588964   7.5482599  39.8734498  27.9848289   6.1129037
 121.1709011  64.7734928   3.0559675 121.6425217  64.7945786   3.8886491
 120.6145183  65.5521250   3.0760518  38.4376740  75.3146791  85.4923153
  38.5377455  74.7502518  84.7257328  38.9907002  74.9106884  86.1610317
  54.9133348  68.3650446  13.6953584  55.2532864  69.1304398  14.1588632
  54.7822189  68.6678696  12.7968446  63.5686207  47.9821205  99.3427563
  62.9187012  47.2808790  99.2969990  63.5048676  48.4234047  98.4957409
  46.4773655  51.1208200  91.9284058  46.7492104  51.2471485  91.0193539
  45.5382013  51.3057232  91.9254494  58.0915117  37.3848367  90.8155346
  58.0142975  38.3320355  90.9299183  58.2981300  37.0540762  91.6896915
  48.2713318  25.7349873  98.9244747  48.3265877  26.6905546  98.9158916
  48.9699936  25.4599929  99.5181656  27.8886747  97.4000359  53.7070036
  27.9235911  96.5105534  54.0588856  27.3950744  97.8966141  54.3596935
  31.9239402  50.0774288 106.4606476  31.1669827  49.7430658 105.9795570
  32.6432633  49.4988823 106.2074947 122.1380589  32.7406502  95.8895302
 122.4477536  33.6165714  95.6591320 122.0862851  32.7486229  96.8453026
  19.0831232  51.4984560  94.7938156  19.0438139  51.8989992  93.9253330
  18.5815799  50.6878471  94.7066402  66.0469675   5.2734393  69.3763638
  66.5526056   5.3329676  70.1869297  66.5778542   4.7206426  68.8029480
  41.7446613  35.6959367  80.0178432  41.9743633  34.8726773  79.5869064
  41.8879175  36.3648534  79.3483210  47.4978399  53.1206369  43.8967562
  48.3733034  53.4478760  43.6900949  47.6069021  52.1722174  43.9663410
 121.2946031  31.0618854 108.7831116 121.0217828  30.7643294 107.9152012
 121.1251158  32.0039439 108.7775612  48.7744188  68.5931587  94.7792721
  47.8630447  68.6524200  95.0658417  49.2354250  69.2417622  95.3112698
  51.6868448  76.1021900  85.1801682  50.9337044  76.6833258  85.2864265
  51.8959570  76.1492634  84.2472744  29.2600918  55.7900238  13.4214441
  29.4874358  56.1629868  14.2731801  30.0050306  55.2321243  13.1977311
  54.4030857  52.0247984   5.9676687  55.2490330  51.6293335   6.1779443
  54.6250439  52.8436041   5.5243532   8.2044935  47.4071646  10.3873674
   8.6576575  46.6268873  10.0679246   7.6807523  47.0947599  11.1251489
  33.7327480  45.9875345   6.1358110  33.6892009  46.1970568   5.2028409
  32.8521538  46.1700678   6.4636365  44.7095013  49.8058987  85.3231239
  44.7162104  50.5840492  84.7657490  45.3927898  49.9707747  85.9728622
  58.8961267  39.4008374   5.7782880  59.3972301  39.1601610   4.9990503
  58.0621624  39.7232985   5.4365960  39.4904613  76.7022800  75.6887960
  38.7347889  76.5288925  75.1274347  40.0487852  77.2790909  75.1674557
  44.2877054  36.5129948  11.0129968  44.6244860  36.4051342  11.9024793
  43.3551455  36.3090849  11.0836164  19.9070394  63.3114481 108.4103394
  20.5253768  63.5845804 107.7326298  19.2324424  62.8245974 107.9369164
  62.0967722  59.0669680   4.2327253  61.6713905  58.2652140   4.5368139
  62.4364996  58.8439608   3.3660737  40.8385897  72.5316238  70.5647707
  41.6174412  72.5635099  71.1202908  40.1329994  72.8591728  71.1225271
  46.2452793  66.8890858  97.1213245  46.4348936  66.3290644  97.8740883
  45.7923460  66.3149452  96.5037155  56.9262362  43.7485743  88.4937382
  57.4051428  44.1144419  89.2373943  56.2020397  43.2641792  88.8901424
  39.6680808  58.7706566  66.6730165  40.5661201  58.4761095  66.5213680
  39.2666626  58.7725115  65.8040571  66.4684105  50.8635807 103.8024712
  66.1586714  50.5666685 104.6581268  66.1761093  50.1854610 103.1934166
  28.2799792  47.7176380  26.4751092  27.6023006  48.0983734  25.9165231
  28.7769747  48.4703064  26.7956010  48.5091925  71.2996578  25.7577936
  49.0622854  71.7411995  26.4022771  49.0567684  71.2367916  24.9752084
  54.1242456  21.8817663  93.9442444  53.5288715  22.4259138  93.4288120
  53.6241198  21.0863352  94.1269875  65.7308578  53.9054346  -0.1302394
  65.0464010  53.7885809   0.5286256  66.4692307  54.2745495   0.3543130
  54.8396492  38.9672232  97.8491402  53.9990425  39.4246960  97.8309727
  55.4932594  39.6660137  97.8223705  47.7811956  69.5654058 105.9360123
  47.8083658  70.1703644 106.6773033  48.6898804  69.2878151 105.8199692
  45.8716297  22.7730250   0.5544893  45.9267330  21.8714714   0.2376310
  45.2707767  23.2041764  -0.0532302  84.5688534  49.9762344  86.6825867
  85.2185631  49.5643759  87.2522354  84.1036510  50.5880833  87.2530746
  38.1815290  25.5348802  75.5105495  38.5602713  25.8792233  74.7017145
  37.3173833  25.2139378  75.2527189  70.5819607  27.9117632  84.1680622
  70.8371305  28.3799911  83.3731556  69.8032236  27.4162269  83.9146137
  35.5696464  98.2627392  76.7449284  36.5268159  98.2555676  76.7476511
  35.3286815  97.7718544  75.9593058  34.3349624  67.8486967 101.4747715
  34.0858698  67.9897594 100.5613804  35.0380039  68.4791183 101.6314030
  11.4482951  70.8723640   5.4251806  12.2927701  70.4220247   5.4081861
  11.6674888  71.7968607   5.3090326  54.1327810  40.3976488 105.5065918
  54.3074083  40.7019854 104.6160221  54.2233849  39.4460583 105.4566002
  34.4122219  53.5834646  16.6253988  34.1493249  53.7761116  17.5254003
  33.7015867  53.0440998  16.2785379  41.3217211  70.2466345  74.6784258
  40.6142044  69.6021128  74.6941233  41.3296366  70.5717278  73.7781572
  63.9611721  82.2592831  60.2678967  63.7357759  83.0862045  60.6940746
  64.7553682  82.4547863  59.7706413  53.0180168  52.8914833  94.5150375
  53.4756851  53.6703730  94.8314381  53.0917835  52.9409504  93.5619736
  20.6119800  75.2418947  97.1960068  21.2741423  74.9599028  97.8270817
  19.9219036  74.5818233  97.2618389  30.1422000  30.4689765   4.1798154
  30.0227070  29.7908282   4.8446981  29.6546531  30.1488328   3.4208528
  32.5772476  60.8315229  76.5083456  31.6885924  60.6385040  76.8071222
  32.8082418  61.6463041  76.9544506  12.3795891  66.0437632 100.2565575
  12.1010733  65.4118204 100.9193707  12.1474385  66.8959141 100.6255913
  70.5744791  52.3954105  23.0190793  71.4661646  52.6775694  22.8153364
  70.0149202  53.0538988  22.6073495  62.4586821  47.8288698  91.3364697
  62.6937008  47.3960972  92.1572590  63.1461763  47.5689507  90.7232571
  37.1759129  51.0421944  10.4971544  36.6367245  50.9368753   9.7133104
  37.6821733  50.2315760  10.5503122  53.4851456  54.8240137  23.7758581
  54.0180159  54.1545010  24.2048494  52.5822401  54.5712233  23.9684430
  19.6773410  55.8751345 107.1288395  20.0479650  56.1363554 106.2858486
  20.3298354  56.1501980 107.7729034  40.2363205  48.1682158   5.5350820
  39.9337721  47.7805519   4.7138540  39.5565653  47.9438925   6.1705724
  64.1358328  18.5978770  31.2082998  63.3715725  19.0213561  30.8173982
  64.1219854  17.7074778  30.8572522  24.3319845  49.2156315  33.0478135
  23.9330530  49.6494102  33.8020746  25.2740550  49.2831230  33.2033101
  34.4906259  38.9528918  90.5912399  34.8476267  39.8209977  90.4036808
  34.9105000  38.3779049  89.9514484  57.9507113  72.9360723  98.3633327
  57.8891945  73.6108541  99.0394402  57.8268814  73.4093714  97.5405979
   5.6843996  71.3896942   0.6905214   6.5116429  71.8695545   0.6500474
   5.9246653  70.5260277   1.0260526  43.8873959  51.8135738 101.8847370
  43.8965654  52.7681398 101.9550896  44.0240574  51.5060472 102.7808285
  12.7823925  71.2213755   1.8999711  13.0306232  71.4823866   2.7868120
  12.6268935  70.2789545   1.9623510  47.0763636  43.2720852  96.8539906
  47.1296024  43.1477880  95.9063816  47.5408125  42.5197315  97.2207069
  49.3847990  56.0360289   0.8393041  49.8488951  56.5022850   0.1439992
  49.3509674  56.6596794   1.5646592  58.9345694  27.0810509  88.6318493
  58.5397100  27.5194883  89.3855572  58.9672613  26.1576748  88.8819218
  86.6167259  57.3487568  91.8763924  85.9877300  57.5027418  91.1714935
  87.1736622  58.1272507  91.8747330  50.4673862  34.0764213  64.4062901
  50.8647728  34.9376154  64.2772102  50.3831482  33.7167263  63.5232544
  34.3260789  54.0002251  88.6290932  34.9141169  54.3044472  89.3203926
  34.1293001  54.7859621  88.1190586  57.1151876  22.8850269  11.2746850
  56.9252253  23.7131572  10.8338300  56.2571573  22.5498462  11.5348188
  28.9624500  47.9250240  20.8912889  28.7064242  47.5757551  21.7449228
  29.2299557  47.1558571  20.3882448  31.1985207  18.4437704  83.1014538
  30.7950854  17.8254116  83.7106323  31.2767410  17.9558671  82.2816563
  34.6336222  12.4076128  85.8867359  33.7272263  12.3134792  86.1796761
  34.8724031  11.5387690  85.5637360  29.4397044  42.6150465  83.5249233
  29.7362089  42.5818205  82.6154137  28.9908910  41.7806339  83.6611652
   7.5093180  64.1027308  49.3090248   7.1203345  63.4655714  48.7098980
   8.2190359  63.6252880  49.7386503  70.5121803  26.1117077  86.3590622
  70.2963114  26.7370439  87.0508575  70.4376793  26.6157889  85.5487633
  47.5811386  71.9090796  80.6976318  47.6533031  71.2638330  81.4009762
  48.4681845  71.9789982  80.3448009  69.4166565  11.5633845  68.7296438
  68.8543749  11.2654388  69.4446993  69.3385029  12.5172651  68.7450314
  37.6688337  61.1803389  92.1795368  37.9331565  61.6707325  92.9579163
  36.7119932  61.1985731  92.1984291  54.7867680  18.1708562 107.4051857
  54.0657759  17.6248300 107.7186394  54.3576908  18.9207053 106.9930553
  49.3469381  23.1521773  14.3760911  49.2141914  22.9312754  13.4542409
  48.7727737  22.5516200  14.8513833  71.1661768  41.6971636  96.8088818
  71.7010593  40.9430218  96.5610886  71.0392952  41.6010380  97.7527523
  24.4999599  47.8752804 100.0008011  23.6610842  48.1632710  99.6408272
  24.4591427  48.1168938 100.9261036  16.5216327  43.3804369  89.2573833
  16.1895609  43.7766123  88.4517670  17.4171114  43.1181955  89.0438843
  62.0210838  45.0248480  12.6465741  61.2182331  45.4948521  12.8718797
  62.2734165  44.5801830  13.4557954  71.1988020  29.1296172   3.4754316
  71.6456699  28.9247060   2.6541272  70.8717632  30.0210142   3.3542386
  28.0211926  71.4900255   5.4738370  27.8020287  71.4896679   6.4056150
  28.6065078  72.2396660   5.3657476  47.6593590  36.9177866   3.4751169
  48.1391525  37.4255490   4.1294900  46.7757177  37.2855616   3.4872857
  49.5994329  44.5021820  97.5120926  49.4990826  45.1888466  96.8528175
  48.7131977  44.1653872  97.6439571  31.4353824  26.1635590  86.4674759
  32.3432636  25.9269166  86.2777805  31.4751124  27.0878315  86.7131805
  52.8029203  37.8074908  93.8512707  52.2263050  37.3786521  93.2189465
  52.7370214  37.2684431  94.6395111  60.3356838  56.2812328 108.5189724
  60.3674459  56.6908789 107.6544380  60.7072878  55.4093885 108.3846951
  36.9158196  24.7525835  98.0457020  37.6555562  24.4170189  97.5393295
  36.5285444  25.4259944  97.4864483  51.0051489  75.9232473 102.1499062
  50.4299259  76.0011387 102.9110146  51.2966251  76.8185139 101.9773579
  82.7328205  60.0406265  91.5473080  83.0543804  59.1813612  91.8202496
  82.3716831  60.4258823  92.3456764  43.9740372  25.7097864   1.2283746
  44.4038582  26.2749434   0.5864374  43.1916094  25.3894305   0.7795945
  36.9760776  37.4566722  98.9763737  37.0902205  38.3332825  99.3434715
  37.3463631  37.5157285  98.0956745  29.1412234  41.2443447  98.2702827
  28.5071540  41.2424755  97.5532150  29.9748802  41.0264874  97.8534031
  43.1836557  54.3013859  10.1528207  43.6080790  55.1499462  10.0261728
  42.2654152  54.4575596   9.9321882  75.8410358  53.1442404   0.7988492
  76.3152695  52.8778315   1.5864793  75.5858421  52.3207760   0.3828946
  30.5716538  35.5733824  88.0114079  30.1865244  36.2762070  87.4880123
  30.4340482  35.8471107  88.9182472  57.4405289  60.8139133   1.9646875
  57.7797604  60.9677219   2.8464452  57.8358459  61.5041399   1.4321939
  61.0403538  19.5372677  98.9018631  61.6397429  19.0238500  99.4434929
  61.0290956  20.4024673  99.3111706  58.6670637  36.9693041 102.5057697
  59.2324686  37.5617671 102.0102501  58.5072803  37.4257255 103.3318329
 116.2970502  56.2498522  86.3417721 115.6272114  55.8070612  85.8207321
 116.5958507  55.5852365  86.9624519  49.5861673  70.0338745  97.2661400
  48.6959267  69.9007416  97.5916767  50.0184488  70.5426121  97.9521084
  45.9831238  20.8604765 102.9970932  45.6725168  21.0373831 102.1091461
  46.5545368  20.0982642 102.9035473  28.9635706  84.8875141   1.0656587
  29.3085575  83.9965248   1.0077707  28.2101941  84.8150444   1.6516725
  39.5515513  39.4263124 107.4044228  39.8600888  38.5283160 107.2834301
  40.3250694  39.9078727 107.6976776  74.6877956  42.3424482  11.8557588
  74.4890308  42.2677565  10.9224073  75.5914164  42.0364046  11.9334546
  16.0343301  34.5163226  97.8144646  15.9357381  34.2503381  96.9002628
  15.2365971  34.2046881  98.2419395  34.6214700  21.8932629 106.3890839
  34.5959520  21.6808772 105.4560947  33.8089728  21.5286779 106.7400265
  13.8516617   6.3747573  95.4356956  14.2615259   5.5144489  95.3456306
  13.1372917   6.3676000  94.7986221  40.8867407 135.3041346 104.3114281
  41.7842627 135.4563434 104.6072578  40.9545994 135.2505893 103.3581352
  27.5142908  45.9320545  14.7239438  27.8472400  45.2613449  15.3202001
  28.2986045  46.3735533  14.3981115  28.7787127  29.5989132 109.7618389
  28.1746316  28.9834881 109.3464279  29.6456933  29.3179989 109.4691563
  32.9597807  60.3212881  97.3244190  33.5831165  60.5519533  96.6355991
  32.8063917  61.1416531  97.7931595  61.0181665  19.8351204  84.7103977
  61.0613489  19.4990003  83.8151932  60.0831604  19.8535275  84.9144840
  14.3649268  48.6804104   0.1744787  14.4398057  49.4986963   0.6654302
  15.0175178  48.1029081   0.5705205  33.8283682  67.3310137  96.2955952
  34.6789837  66.9145393  96.4342880  33.3001137  67.0515776  97.0433235
  45.0132179  61.0871172  33.3653776  45.1119947  60.2647781  32.8855459
  45.4635811  61.7357016  32.8243200  37.5491977  35.5928636  87.5043869
  37.6731372  34.7830248  87.9993916  36.9680834  36.1213732  88.0513954
  27.5333810  12.6043022  62.4521160  28.1267881  13.3248234  62.2401047
  28.0063295  12.0888507  63.1054640  39.5133543  61.8085003 100.0647831
  38.8795042  61.6579342  99.3634987  39.8159313  60.9330559 100.3061771
  26.5076995  10.2665389 103.5023594  25.7685280  10.0907552 104.0845585
  26.8919992   9.4056910 103.3365726  37.3922133  77.9967690  84.0785408
  38.3151841  77.8198433  83.8967323  37.2290587  77.5747061  84.9220276
   9.5379484   8.6359400  13.4611455  10.0058281   8.3594036  14.2490808
   9.0099901   9.3820095  13.7455217  33.5808706  68.0251455  70.4749346
  33.0796289  67.7087498  69.7233486  32.9182148  68.2405233  71.1312342
  26.7711854  59.2806435  76.0749054  26.9822168  58.3495045  76.0064936
  26.5597177  59.5447159  75.1794815  42.3057842  62.2685003  74.4912910
  41.6212511  62.2179937  75.1584435  42.0131636  61.6719913  73.8022470
  16.6577375  62.4172497  97.5665283  16.1457527  62.9975271  97.0031643
  17.5678504  62.5940561  97.3284817  21.3440824  28.2840157  83.1951332
  22.0533252  27.6483679  83.2908344  20.5516791  27.7934003  83.4133720
  51.2723303  35.1411390  12.7256814  50.4808283  35.0534534  12.1945707
  50.9930468  34.9103498  13.6116639  45.5513287  59.5675516  84.9650383
  45.9845304  58.8607216  85.4435349  44.6299982  59.4961977  85.2146149
  53.7648153  32.0697522  75.8978176  53.5991430  32.9713964  76.1731768
  54.1882706  31.6625047  76.6535044  44.6691465  45.2509689  86.8306541
  43.9338255  45.1861382  87.4400234  45.0509596  46.1108971  87.0066452
  51.1040545  35.8089566  99.6278191  50.5008745  36.5423298  99.7485161
  51.9311714  36.2184072  99.3739319  66.7564201  52.3423576  96.0637188
  66.6310930  51.4640999  96.4231396  67.5244617  52.6818323  96.5231705
  46.2606525  20.1705575  96.9614315  46.2798929  19.4089305  96.3819599
  46.6668367  19.8647857  97.7724457  44.1561079   6.4719319   5.2913419
  44.5087290   6.3046938   4.4173185  43.5445642   7.1979052   5.1680127
  37.3598146  44.5281887  78.7226915  36.7360044  43.8470030  78.9738464
  37.7765822  44.7862196  79.5448542  49.3995571  34.9731278   2.5270215
  48.9283752  35.6682324   2.9864255  50.1142216  35.4245663   2.0779172
  48.7868452   9.5456034  52.3186255  49.3425369   9.3464202  51.5651226
  47.9086876   9.6413094  51.9499588  48.4757042  72.6317644  70.2281284
  47.7506065  72.3002434  69.6984529  48.9706469  71.8498468  70.4728174
  56.4307880  72.4013472  84.6270657  56.7224121  73.2072449  84.2007828
  57.2143126  71.8527412  84.6637535  51.1984539   5.9975523  64.0102816
  50.4031372   5.8859235  64.5310879  51.0620403   5.4421425  63.2427263
  64.4962502  54.9887228 107.3861599  64.9991846  54.8867798 108.1941795
  63.6816740  55.4086924 107.6624203  60.1172018  35.4991794  90.8044147
  59.2883396  35.9778810  90.8123970  60.4250145  35.5682945  89.9007034
  45.0923491  53.1803989  73.4864998  45.7541752  53.1821966  74.1780329
  44.6197939  54.0043259  73.6050940  66.9635105  49.8957062  97.4295998
  67.6741505  49.3711948  97.7985287  66.4343786  49.2689085  96.9362640
  86.3650608  39.9263239  80.9499264  86.8122768  40.0296307  81.7899036
  87.0685673  39.9383831  80.3009605  70.5432892  46.0249090  79.1990137
  71.3667202  45.7684374  78.7837887  69.8653984  45.7127810  78.5996246
  60.9366751  59.1174936  84.5202255  60.2262402  59.7025204  84.7834015
  61.5742445  59.1799068  85.2314472  34.3460894  56.3164186  60.2257252
  34.0724158  55.5371666  59.7418833  33.8138199  57.0237112  59.8614979
  39.4827676  20.4884958   8.7910978  38.8108444  21.0380650   8.3877126
  39.8148894  21.0124636   9.5200673  23.9178991  66.0489511  93.6649990
  23.9806461  65.0947762  93.7079430  24.8261905  66.3466501  93.6138535
  49.8565578  31.0848308  80.6438255  50.7266665  31.4249372  80.4353333
  49.3813848  31.8395305  80.9914970   8.5071069  20.7612181   2.9034463
   9.1593993  20.1806092   2.5114766   8.7154067  20.7593822   3.8377038
  62.5631523  23.3966422  82.0147038  61.6812563  23.7659097  81.9685364
  62.4644613  22.5000477  81.6943741  32.5348043  67.7680254  79.4530773
  32.3995519  68.7142229  79.5045137  33.4677720  67.6494074  79.6312094
  24.9380088  60.0759029 101.8970776  25.1053858  59.3159056 102.4544144
  24.7470784  60.7854080 102.5105762  75.0045061  23.1151366  59.3111277
  75.6208706  22.7610159  58.6700916  75.5568933  23.4241676  60.0291777
  57.2198343  58.7810612  90.9036255  56.9962168  58.2110214  91.6393471
  57.6664734  59.5263529  91.3052177  47.9517031  18.6077833  90.5736351
  48.1444025  17.7064157  90.3154945  48.0287552  18.6053610  91.5277290
  68.3572912  24.6433568  91.2261486  68.6249971  23.8610291  90.7439327
  68.1441116  24.3231940  92.1026611  47.0190763  53.2195902  75.5936432
  47.0111132  53.9755964  76.1806917  47.7721977  52.7024460  75.8793116
  71.3232565  46.5718269  65.2756166  71.7339134  46.6806889  66.1333704
  70.3839445  46.5606594  65.4594564  21.8899369  64.4633341   4.0981237
  21.6046762  64.2166710   3.2183400  22.8453851  64.4826174   4.0435163
  37.3988962  63.2417202  70.2709389  37.8908682  63.3280230  69.4543934
  36.5572977  62.8709650  70.0054502  29.6733809  51.1045694  61.7432261
  29.2152238  51.6844606  61.1349058  29.3752265  51.3822651  62.6093769
  12.7571547  60.5691195  60.9136391  12.8901660  59.7076321  61.3090849
  13.6399698  60.9247684  60.8117342  48.6670113  56.4564276  88.3481884
  48.6459875  57.1089268  89.0482140  49.4809771  55.9744358  88.4943962
  24.1388369  62.6382971  78.4902382  24.3407631  63.1217003  77.6891279
  24.7944069  61.9415188  78.5212088  43.4438181   8.0245924  91.1181450
  42.5738430   7.7006274  91.3514328  43.3060646   8.9469779  90.9026051
   8.1368005  32.0687580   8.3809129   8.5810411  31.5587664   7.7035657
   7.6666623  32.7490473   7.8988305  60.9758377  66.7797613 104.4233799
  60.6667995  67.3585749 103.7264633  61.6317320  66.2251902 104.0009117
  40.9338856  53.5906029  95.6856060  41.3940525  54.1965580  95.1048279
  41.4912653  52.8128242  95.7104874   8.9755791  50.3689909  93.2381916
   9.8408198  50.1602840  93.5903740   9.1459233  51.0116339  92.5495529
  59.4946766  42.5493097  71.9255590  59.7699165  41.7735815  71.4369678
  59.1823673  42.2066021  72.7629662  48.6926079  36.0518551  87.4800491
  49.2157793  35.3895140  87.9315186  48.1049681  35.5492568  86.9158554
  45.1933384  48.7943316 104.1772842  44.8493910  47.9102325 104.3049431
  46.0838318  48.7576294 104.5264435  50.2139759  39.2037749  62.1561909
  50.3138399  40.0163984  61.6603041  50.9607983  38.6674500  61.8900251
  54.6672153  24.6586442  52.8611279  55.3015566  24.9654961  52.2132969
  53.9320707  25.2666926  52.7831936  38.9386702  30.5129838  97.5907612
  38.8162470  30.9356117  96.7406845  38.0520773  30.3010821  97.8827858
  58.6391020  39.7692728  83.1099129  58.0728865  39.7305250  83.8807201
  59.2712545  40.4591703  83.3115387  18.4563231  44.2067242  54.1797018
  17.6015723  44.6258831  54.2793989  18.7992287  44.1469479  55.0713730
  47.1715069 134.8421247  67.8412914  46.4237356 135.3115601  67.4715519
  47.3784161 134.1710443  67.1908522  24.4069076  29.5322943 100.4524517
  24.2035627  28.6062026 100.5837440  24.7216892  29.5827794  99.5499039
  53.6800098  17.3434091  91.9659805  53.2293272  16.5960371  91.5728569
  53.6082554  18.0378807  91.3111591  35.0380349  42.7052307  78.9161253
  34.3716049  42.6552916  78.2308435  34.6287727  42.2959471  79.6785069
  36.1559367  35.0284386  71.5533972  37.0569038  35.0711441  71.8738079
  35.7097626  35.7502604  71.9962692  32.6719379  66.2006235  77.2045517
  32.4525476  66.5259600  78.0776215  33.5974550  66.4181328  77.0934772
  62.6717949  40.8194971  98.5781956  63.6007309  40.5906248  98.6086273
  62.5577402  41.4525318  99.2870522  74.5629406  62.2236681  84.7694969
  74.1165018  62.1736336  83.9242554  74.4824982  63.1415319  85.0288868
  58.6932564  35.4760790  70.6328154  57.7489805  35.3202486  70.6499910
  59.0797567  34.6011686  70.5956697  29.9636197  44.8648834  70.6296206
  29.2882085  44.2218399  70.4138756  29.8817229  45.5350685  69.9511099
  70.2067709  48.2144499 101.0128117  69.7414684  47.3845577 100.9078979
  70.4990482  48.4385252 100.1292992  22.9133081  48.1214905  81.8754864
  23.8113427  48.4491539  81.8264771  22.9724884  47.2146511  81.5748692
  48.6471796  31.8586421  96.1188316  49.5363569  31.5978122  95.8789062
  48.5450602  31.5586567  97.0220566  56.0896254  53.5192108  89.3976307
  56.9024277  53.9713240  89.1714001  56.0615635  53.5412121  90.3541660
  42.6336288  42.5867891  91.4546013  41.9071054  43.0889273  91.8237305
  43.1231070  43.2223320  90.9323692  38.5168028  24.8549938  89.1324139
  38.3786392  25.7757950  88.9104557  39.4677830  24.7464609  89.1230965
  52.3440886  38.9213276  82.5116062  52.3500824  39.7221255  81.9872856
  52.4232149  38.2147956  81.8706894  30.0490141  52.4406338  96.1701298
  29.7561598  52.2349072  95.2823544  29.8404622  51.6570234  96.6787529
  55.2491808  69.1333675  76.1244154  54.6809721  69.7584105  75.6742048
  55.6692934  68.6406946  75.4194307  77.9400492  11.7991388  57.2631359
  77.8445530  12.2375965  56.4176369  78.4584332  12.4066663  57.7907896
   9.8675382  12.0244312  64.2945862   9.1821134  12.2601724  64.9197674
  10.1173234  11.1329985  64.5378685  56.7243385  38.0150318   2.2556917
  57.6101208  37.8306508   1.9432393  56.8125534  38.0697012   3.2072488
 112.5348765  78.7909651  48.8288927 113.2477850  79.1020393  48.2710171
 112.5548322  79.3719816  49.5893240  47.4657536  54.8258829  85.2362251
  47.9005337  54.1831398  85.7966518  47.3437548  55.5906105  85.7988453
  69.8807526   8.1819004  70.2144003  69.8986673   8.0186117  69.2714024
  70.6429338   7.7123684  70.5533028  36.6864657  39.7140241 107.3835182
  37.6366377  39.6273875 107.4603271  36.5549135  40.1911879 106.5642262
  55.5248070  61.5953541  88.0690479  55.2789545  61.9316339  88.9308548
  56.4819813  61.5980625  88.0750275  39.7368073  45.7975483  85.1865482
  39.3675375  45.7146883  84.3073368  40.1154375  46.6764784  85.2054501
  36.5586519  45.4166937  70.7840061  36.4664960  45.7052851  69.8760128
  35.6594038  45.3327894  71.1010981 107.2626019  58.5515451  95.5222893
 107.9402924  59.2205429  95.6192589 106.6014004  58.7841558  96.1741543
  28.0653024  89.9878979  67.0013189  27.1854806  89.8995495  66.6347933
  28.5933065  90.3257751  66.2779379  35.7439995  42.1633625  99.1660213
  35.1107955  41.9441509  99.8495674  35.4200339  42.9834318  98.7935162
  20.0761199  84.0381527  96.7371178  20.5959892  84.7429276  97.1234608
  19.1694677  84.3306828  96.8300819  10.6712687  80.5500984  88.3358574
   9.7583336  80.7378674  88.1178570  10.6257689  80.0632954  89.1587639
  63.9132071  60.0375080  95.6869030  63.6439276  60.8523703  96.1108398
  63.8423967  59.3751431  96.3742733  44.4291496  47.0120907  74.9854279
  44.7136307  46.8889856  75.8910465  43.7326097  47.6663780  75.0400209
  40.1666784  74.4478703  64.2592478  39.3110251  74.5022964  63.8336563
  40.7946396  74.4595718  63.5369205  43.2032061  90.4322529  84.9598408
  42.9843044  89.8677254  85.7012081  42.4384403  90.3818607  84.3864155
  60.3623152   9.5664340  64.9157476  59.5991373   9.2382109  65.3912067
  60.1846743  10.4988420  64.7920942  36.3456631  27.3495269  96.5887260
  35.5423093  27.7687073  96.2802696  36.5684295  27.8204346  97.3917484
  30.4715157  17.3574519  78.5041380  30.2778673  18.1459618  79.0110731
  31.2861252  17.0246136  78.8807821  29.0662241  29.1618609  38.0861512
  29.5008516  28.8184094  38.8667718  29.4882846  28.7069726  37.3573343
  69.5672226  34.5146418  84.6734238  69.5137596  34.7786140  85.5919456
  69.0627003  35.1787019  84.2036152  38.9315510  51.2700319   2.5985662
  38.4660125  51.5924072   1.8268243  38.9664435  52.0226431   3.1889764
  36.1143064  79.6511269  13.5289041  36.6923952  79.0389013  13.9841214
  36.3889551  80.5145264  13.8376752  30.5483174  55.4277658  78.9796448
  31.2741756  55.0100327  78.5161161  30.9233165  56.2333775  79.3354511
  52.0618820  43.8845301  80.6552982  52.8232718  43.5641623  81.1389160
  52.3325109  43.8578939  79.7375393  30.2123761  34.0687656  70.1324129
  31.1654592  33.9864492  70.1654005  29.9095178  33.6752391  70.9507322
  34.4889498  52.3340511 104.9721336  34.7606874  52.6404905 104.1069794
  33.5630727  52.1143961 104.8685169  60.3289843  17.2643340  79.9403620
  59.6805239  16.5640390  80.0132942  60.2499199  17.5708401  79.0370131
  32.7795053  66.6338968  98.8311577  32.0601058  66.9963646  99.3481827
  33.1738758  65.9727383  99.3999958  40.3990221  19.7455263  99.4455528
  41.3083839  19.9710774  99.2495441  40.1714039  20.2971530 100.1939678
  20.2609062  68.1107903  76.3602877  20.2567029  67.2091246  76.0390186
  19.6191859  68.1149912  77.0705032  45.0776100  43.6486721  89.9383354
  45.6788778  43.1781387  90.5156612  44.7915554  42.9916906  89.3036842
  16.3400698  75.4478025  68.8569593  16.9578540  76.0000038  68.3777475
  16.0558867  74.7951794  68.2169914  32.2597218  45.3580618  69.2720366
  32.6756525  46.0690308  69.7596359  31.5764260  45.0332069  69.8583889
  43.3059835  54.1519403  89.5705605  43.4638357  53.4416628  88.9486122
  42.9227018  54.8521185  89.0422821  71.0866785  81.4883232  83.6051559
  71.3627386  81.6936779  84.4983768  70.9551907  80.5401993  83.6071014
  21.2059045  45.9240913  84.1833210  20.5219483  46.0412836  84.8426437
  22.0035219  46.2417603  84.6065617  55.0386810  50.0855207  87.0632935
  54.3253040  50.6875896  86.8515396  54.9760151  49.9636698  88.0106354
  73.7706470  15.7835352 107.9978943  73.7329721  14.9318480 107.5626469
  73.9613533  16.4038575 107.2942829  14.7396481  62.6350832  58.0049658
  15.1994991  62.0974588  57.3601913  13.8746572  62.7810335  57.6219225
  47.9318810  15.9769976  89.6545219  48.0914402  16.0030246  88.7110710
  46.9972372  15.7863975  89.7341919  54.4961166  67.5551939  86.6073895
  54.3510437  68.3138847  86.0420799  55.4088354  67.3120165  86.4523411
  58.5154676  41.5085220  74.4881773  58.3977222  42.0086050  75.2958202
  57.6566744  41.1211252  74.3189859  38.1472111  31.6061926  80.6043434
  38.2674742  31.1298132  79.7828627  37.2232318  31.8561769  80.6031895
  30.5283833  25.8470988 108.8062954  31.2763762  26.1378551 109.3280220
  29.7830939  25.9027648 109.4043541  66.7812538  11.9646251 100.1512432
  67.6913261  11.7174995 100.3153515  66.8359613  12.8414690  99.7712612
  34.1431832  38.5328102  74.5500231  33.5337162  37.7970052  74.4919586
  33.5810852  39.3056154  74.6052361  26.5071464  47.3884583  83.8431454
  26.3317323  47.9239225  84.6169281  26.5475535  46.4920378  84.1763496
   8.1173861  43.6096525  75.2090073   9.0034366  43.3095026  75.0063801
   7.9665440  43.3206320  76.1089754  81.5400505  38.8469625  88.7165356
  80.6983185  38.6510158  88.3050442  81.6318989  39.7961450  88.6337948
  34.2600822  20.1614261  94.6098423  35.2145505  20.2090716  94.5554924
  34.0625501  20.3525901  95.5267239  45.7928801  40.0157022  93.0621910
  45.8760595  39.0626192  93.0314350  45.2053165  40.1811790  93.7994957
  14.9486792 144.2861097  17.8196660  15.2356100 144.0969002  16.9263021
  15.1963127 145.1996482  17.9623452  29.7363591  33.1667137  96.9821453
  29.3634295  33.6288214  96.2314034  29.7257519  33.8113904  97.6896095
  18.6974728  34.0252042  92.0317841  18.1234455  33.2790470  91.8586540
  19.0390670  33.8655210  92.9115868  32.0455194  10.2676392 109.5423603
  32.5709033   9.5950174 109.1090202  31.8625188  10.9083009 108.8551235
  35.6491446   2.1860333  83.1464386  36.3914466   2.5077796  82.6348686
  35.8959103   2.3510394  84.0564442  40.5976534  81.8852329 102.1030807
  40.5919743  82.2058964 101.2012100  40.0133801  82.4805164 102.5726318
  36.9211698  56.4330816  86.8113804  36.6418624  57.3036051  87.0949459
  37.8740692  56.4965391  86.7466640  21.0186625  47.7369404  10.8901922
  21.7753029  47.1518230  10.9271280  21.2961221  48.4513521  10.3167287
  82.4139214  40.3884220  16.3893644  83.0239582  40.2295446  15.6690542
  82.2311115  39.5186090  16.7446653  64.7728109  56.7519188  83.3834648
  65.2788782  56.5551519  84.1717529  64.7008038  55.9123993  82.9293060
  60.8070517  90.9809399  95.4046822  60.4311991  91.8096352  95.7017326
  60.0668430  90.3742599  95.3887939  32.8023410  41.0738993  63.4515333
  32.3671699  41.7305565  62.9077864  33.5586119  40.7974100  62.9339981
  70.1736450  68.3886862  93.5313416  69.6276236  67.9058981  92.9108429
  70.5958319  67.7096939  94.0576077  78.2212782  76.1123610  78.6770916
  78.8886738  75.9668922  78.0065250  77.7388239  75.2866459  78.7179327
  42.2596741  34.7518063 108.6079025  42.4536943  35.1953363 109.4336605
  42.7105665  35.2735806 107.9440689  43.0608511  53.6667109  67.8956556
  42.5113869  53.1098604  68.4472322  42.9182482  53.3394098  67.0075274
  50.4001474  41.6721678   3.8248197  49.7523546  42.3602152   3.9770929
  50.6895685  41.4175510   4.7009698  28.1496119  70.5887651  83.3899307
  27.8110504  71.4110947  83.0358410  27.4081564  69.9851084  83.3444214
  51.4129257  21.7995858  59.8679066  52.2224045  22.2885299  59.7198772
  50.8170700  22.4365473  60.2622032  60.1259613  40.4067564  70.5305338
  59.8107290  39.5484924  70.8137941  60.4781294  40.2550745  69.6534920
  16.7259276  68.8808060  43.9559746  17.0886207  68.1177282  44.4058609
  17.4778605  69.2814445  43.5197210  26.8059397  52.7945852  89.7027016
  26.1555123  53.1826830  89.1174126  26.7704964  53.3348656  90.4920483
  49.1539431  69.8031664 101.8437576  49.5408869  70.6356955 101.5728378
  49.5865297  69.1483831 101.2957096  72.1783209  44.6294022  74.8120928
  71.3488340  44.5495653  75.2830601  71.9801140  44.3286848  73.9252377
  69.3178320  29.5762849  89.7389030  69.2279005  28.6604738  90.0023937
  68.8016367  29.6462607  88.9358616  54.9301434  93.6036110  91.4981842
  54.2599630  93.8710785  90.8692646  55.2992964  92.8016567  91.1282825
  44.0295219  33.3295989  53.0463076  44.3676710  33.9303303  52.3822212
  43.7687159  32.5509858  52.5543976  85.2014160  28.7783194  84.1586113
  84.5184803  29.4460154  84.2220402  85.0377941  28.1970596  84.9013138
  40.2879620  68.3549643   0.9916154  39.5272994  68.9307785   1.0694734
  40.0616550  67.7538157   0.2819387  46.8810415  59.7078419  50.2941608
  46.0654211  60.1400423  50.0407934  46.6267538  59.1092157  50.9964514
  35.6166124  47.7001286  49.0861368  35.8726859  47.7780390  50.0051498
  34.6610451  47.6484251  49.1073132  32.7810478  44.6890545  48.8396692
  32.0479441  44.3486166  48.3269405  33.2967949  45.1961470  48.2126904
  51.7057991  22.6054454  55.2709103  52.3245478  21.9308925  55.5508375
  51.9000387  22.7384710  54.3431139  74.3320656  40.7201290  53.8862896
  75.0379896  40.7654142  53.2414246  74.0792036  41.6322184  54.0290499
  36.5337968  24.6951842  78.3053637  35.9466577  25.2561617  77.7986097
  36.4238811  23.8250637  77.9219007  25.3748441  47.1135283  46.8196917
  24.9463153  46.6680527  46.0888386  24.6652794  47.5714540  47.2703028
  33.0071378  12.2253120  65.4588556  32.6797128  11.6605520  64.7588015
  32.9548669  11.6846240  66.2469912  38.4339666  47.6266241  80.1034737
  37.7988315  47.5060463  79.3975735  37.9204941  47.9800606  80.8298779
  33.8910818 126.2756724  56.9047546  32.9860759 126.0621566  57.1319294
  34.0158772 127.1670432  57.2305107  49.3338776  24.1074467  48.7504673
  49.1610432  23.6327720  49.5635176  49.2925501  23.4371614  48.0683804
  44.7257853  55.2970886  51.9202375  44.6421909  54.9750185  51.0227299
  45.4021072  54.7439337  52.3111820  15.5745983  14.5130897  46.6864586
  15.0188518  15.2891505  46.7579222  15.3814447  14.0067005  47.4754429
  53.7270212  36.5876698  57.0371723  53.3887434  35.6946397  57.1027327
  54.2396736  36.7088747  57.8363752  36.4772201  25.3455281  70.0620890
  37.2052360  25.5022502  70.6634712  36.7089438  24.5331144  69.6120644
  50.5379677  20.2673268  67.2523785  49.8329926  19.7381079  66.8793201
  50.7321739  20.9176421  66.5773916  24.5162773  26.7491651  67.9850864
  24.4732141  26.5866947  67.0427608  23.6033082  26.8578887  68.2513571
  32.2330213  60.0666714  70.1992559  32.7193022  60.8521557  69.9486923
  31.8082213  59.7799110  69.3908358  38.0239034  50.8144855  49.7243309
  38.1585240  51.5698624  50.2966166  37.0802808  50.8003807  49.5643091
  15.8423650  24.2993784  76.7438936  15.5137610  25.1214552  77.1078205
  16.1242259  24.5255518  75.8575344  17.0772803  16.3525844  84.1148567
  17.8278422  15.7841218  83.9424038  16.9141316  16.7934310  83.2810307
  56.3057852  34.0724325  87.6070881  55.8795023  33.4869218  86.9812298
  56.8946075  33.5043144  88.1038380  52.1250296  50.7775974  10.9916043
  51.6907978  50.8535004  11.8412590  51.4093447  50.6645727  10.3661072
  45.9078598  30.6862235  76.5953112  46.6772890  31.2237477  76.7831373
  45.1754713  31.3023186  76.6117811  25.8899641  40.5632830  63.5406017
  26.5089822  40.2014160  64.1747141  26.3686943  41.2769222  63.1189728
  21.9748235  43.4171820  65.4032850  21.3763380  44.1610289  65.4721165
  21.4975238  42.6882696  65.7996464  25.7337928  22.7583313  50.3288651
  25.1556540  22.0087934  50.1868153  26.6120338  22.3795629  50.3670120
  30.6414914  52.5577450  39.8700428  30.6026530  53.4495926  40.2154875
  30.7082844  52.6708412  38.9218974  65.1826763  46.0017252  71.0531092
  65.3309774  46.6789007  71.7131662  64.4067097  46.2972641  70.5769157
  15.0837803  40.0424194  68.0988503  14.4130194  40.2507925  68.7491512
  15.7436228  39.5482111  68.5852671  34.4719458  30.9945631  49.4067430
  33.7153220  30.4321170  49.2411947  34.9584341  30.9903693  48.5824013
  43.5571671  29.0401578  42.4278593  42.9612589  28.2920718  42.4664688
  43.6987257  29.1855764  41.4924192  70.3432083 141.8365214  49.8561478
  70.6893969 141.6246284  48.9892673  69.7688198 142.5876860  49.7076225
  28.1999660  55.2211571  61.5077543  27.8153992  55.7084036  60.7791042
  28.0659986  54.3016005  61.2781906  38.8147378  55.8453035  44.6080732
  39.0867567  56.0001135  45.5126572  38.0080700  55.3357029  44.6844149
 124.3986821  43.0144167  35.1499391 124.2361788  43.6196756  34.4264150
 125.3520244  42.9377317  35.1885343  28.5523367  72.0644426  29.5250344
  28.5927820  71.1110401  29.4500804  29.2713189  72.3785162  28.9767146
  38.7478733  41.8269396  23.7747097  39.0875936  42.7075672  23.9338279
  38.9883447  41.3322830  24.5581126  19.7037530  21.7843366  66.2769127
  19.9076796  22.5791192  65.7839918  18.9359009  21.4198709  65.8366871
  13.5175359  48.2253170  50.9341097  13.6538339  47.3294497  51.2424612
  14.2935705  48.4182119  50.4079962  43.9356422  40.8678007  34.5902610
  44.0711594  41.8078947  34.7089648  43.1315994  40.8049345  34.0747094
  11.1026537  65.1858473  38.4687471  11.1876523  65.8027983  39.1956425
  10.3365302  65.4917812  37.9832697  37.0385027  31.1782575  87.0244980
  36.7717743  30.6636596  87.7862644  36.3593745  31.8471932  86.9376373
  47.8277349  30.1553082  18.7342727  48.4657097  29.5547771  19.1197383
  48.0066490  30.1238990  17.7944660  43.6768246 104.1386127  48.8249540
  43.2164097 104.3726921  49.6308422  42.9800320 103.9870834  48.1863976
  42.5746059  34.9745846  54.8032284  43.2982492  34.4084930  54.5346928
  41.7874622  34.5007229  54.5347309  25.4695010  37.6297402  29.3937850
  24.8531890  38.3059859  29.1125655  25.1868773  36.8408012  28.9312601
  23.9066362  50.4038382  56.2335873  23.8144708  49.9155617  57.0517111
  23.3915520  51.1990309  56.3699245  48.0627537  43.1990337  46.1827612
  47.9151106  43.1342030  47.1262836  48.9443874  42.8493214  46.0537100
  42.6420689  55.3604460  32.0925784  42.5560999  55.5257225  33.0314732
  43.5665035  55.1438427  31.9711757  88.6300373  35.3064561  42.9995775
  87.6999950  35.3803015  42.7855682  88.8586235  34.4065404  42.7669191
  17.4337351  30.2941370  47.1338749  18.1568873  30.8930993  46.9480610
  16.9504011  30.7154131  47.8446102  69.6085358  31.3100600  75.5742359
  69.6146822  31.4745450  76.5171766  68.7108707  31.5025568  75.3033686
  81.2396336  53.8254976  22.5470138  81.8700981  53.3455944  22.0099449
  80.4044247  53.3866453  22.3855734  40.2594376   3.4558368  51.9039583
  39.8643780   3.6616743  51.0567331  40.3364325   2.5017428  51.9068575
  33.8010454 143.7949268  31.8829918  32.9827499 143.5536579  32.3170590
  34.0681267 144.6086008  32.3105812  33.1226826  24.7661877  58.4784031
  32.2702241  24.3315530  58.5037231  33.3798027  24.7356892  57.5568867
  39.2034197  78.7842560  47.7515984  39.3548751  78.9237881  46.8168116
  39.4609356  77.8748369  47.9028320  15.1916635  16.8347049  28.5054088
  15.7835937  17.0856345  29.2145514  14.7689307  16.0348248  28.8180137
  38.4333229  39.7219300  45.0836658  38.4306884  39.6228433  44.1316128
  38.6775398  40.6360245  45.2286577  15.2435994  57.1434402  43.6818075
  14.4159508  57.5045967  43.9992905  15.2872610  57.4147272  42.7648926
  51.1457253  38.9950514  46.7075825  51.3356066  38.8032770  45.7892132
  51.8489933  38.5634756  47.1927500  76.7478800 145.7307394  22.1670580
  75.8777285 145.4138013  21.9249415  76.8222618 145.5361778  23.1013203
  42.0351934  45.1514912  21.0259891  42.9378891  44.9342203  20.7932448
  42.1164846  45.7429028  21.7742229  24.8005891  87.4085999  58.6722517
  24.3861890  86.5472507  58.6214399  24.5222449  87.7587605  59.5185041
  70.0762081  47.8065729  59.6598577  70.0470209  47.0178556  60.2014351
  70.9982681  48.0635452  59.6604681  62.7191639  27.8336334  60.5211163
  62.4156189  27.7968025  61.4281654  62.3846960  28.6672473  60.1902819
  18.5018992  50.5755615  22.1986794  19.3787885  50.2739859  21.9612956
  17.9110992  50.0030851  21.7093349  55.8210135  52.1848536  40.2798557
  56.1548948  51.4266920  40.7593822  56.6040182  52.6135540  39.9343801
  24.9580860  50.6389427  46.4746761  25.7734132  51.1219215  46.6096020
  25.1522446  49.7519016  46.7774820  42.2405577  46.1516285  37.5032830
  42.9369354  45.9600496  38.1314468  42.0650101  45.3127241  37.0770764
  56.3674307  65.6175041  35.4999137  55.8445215  65.0611305  34.9226403
  56.4298820  66.4523602  35.0358534  17.3236370  75.6395006  26.4569807
  17.0821154  74.7411728  26.6826034  17.3744833  75.6409693  25.5011344
  79.8912573  50.1473856  59.2194033  80.1030254  50.1470613  60.1528835
  80.6781292  50.4898739  58.7954140  56.2925196  60.7845783  31.8509603
  55.7517672  60.2243662  31.2942004  57.0528221  60.9976625  31.3098860
  41.6109610  14.8530388  31.4887118  40.8154297  14.3824708  31.2398648
  41.8207788  15.3897107  30.7243872  21.9297624  17.5235915  38.6804938
  21.4481378  16.7029071  38.5768342  22.0009279  17.6415372  39.6277285
  16.4549935  16.3537335  55.5043983  17.1490252  16.9241214  55.1739311
  15.6535029  16.6993940  55.1115084  61.0370684  31.3379478  55.7632542
  61.4182663  30.5682850  56.1857986  60.1294041  31.3529348  56.0668230
  45.0147581  80.1379585  33.7343550  44.4080877  79.7091818  33.1307507
  45.1592922  79.4931984  34.4269085  38.7851071  66.2493658  17.5403166
  39.0858459  66.6248178  16.7127752  39.2858863  65.4387331  17.6315653
  31.1649060  57.0924282  47.3718500  31.1198163  57.4792624  48.2462406
  31.7626190  57.6625967  46.8882370  78.3164978  46.3941097  42.2916842
  78.8976192  45.8050060  41.8105507  78.8060474  47.2141790  42.3553753
  60.0028276  64.8393297  28.1544805  59.1585159  64.4914293  28.4414315
  59.9463320  64.8473120  27.1989822  72.0867109  28.4961390  69.7844696
  72.6549911  28.1485438  69.0971088  71.2540627  28.0407119  69.6599102
  39.5345187  34.9769306  49.7030067  39.8828101  35.3035498  50.5326128
  38.6865640  35.4114938  49.6115637  38.6254930  32.7733660  39.1544104
  38.6233306  32.4926376  38.2393050  38.6264062  33.7296081  39.1115880
  10.2185225  45.0664663  17.2429466  10.2582288  44.8415279  18.1724942
  10.6706285  45.9078598  17.1806026  45.9837675  11.3162231  97.3102474
  45.3576374  10.9821284  96.6679287  46.7835569  10.8160806  97.1476746
  23.6817503  32.2079182  41.8590546  24.6336865  32.1154475  41.8203497
  23.4314466  32.4800420  40.9761477  33.4969354  25.3404617  78.5029984
  33.4003973  25.8197045  79.3259430  33.5283756  24.4200921  78.7640810
  52.7413273  33.4094906  35.6355882  52.9431438  32.5789452  36.0665107
  53.4682894  33.5470724  35.0282741  59.0685558   3.8617626  67.7365541
  59.4621754   3.3134118  67.0578718  58.1866884   4.0466538  67.4135065
  58.7214470  48.4988070  40.7447958  59.1241026  49.3636894  40.6668377
  59.4489288  47.8855991  40.6400490  54.5483303   3.8156766  46.5783548
  53.6360025   3.5278988  46.6112375  54.5121145   4.7503567  46.7815638
  52.2095346  15.2778339  49.1522217  52.9912090  14.7701311  49.3700790
  51.8400049  14.8331273  48.3893919  30.7880592  51.4586258  32.4578524
  31.6942930  51.4074993  32.1539450  30.3482842  52.0074415  31.8085194
  48.3875513  45.4776716  47.9606676  48.6798191  46.0151720  47.2245264
  48.7736750  45.8954716  48.7304640  67.1200180  31.1843896  82.1776390
  66.2831783  30.7286239  82.2682476  67.7344084  30.5043864  81.9013214
  28.1092143  36.3928556  55.4294443  27.3488712  36.6685200  54.9174643
  28.8072205  36.2861848  54.7831917  63.6372900  20.9672928  69.8827600
  62.8156567  20.5222678  70.0903797  63.7071848  21.6599178  70.5397367
  45.3478432  51.6196060  29.4495320  46.1305714  52.1189642  29.2166996
  45.6697989  50.7338381  29.6168303  29.5787239  45.6252146  19.5639288
  28.9208746  45.0853586  19.1257262  30.3357887  45.0477457  19.6619999
  36.9173741  29.0706539  28.2476759  35.9858012  29.1579318  28.4496284
  37.3087120  28.7451434  29.0583110  48.1515837  39.4244599  48.5835934
  47.8329277  39.5205545  49.4810629  48.6218786  40.2394295  48.4078646
  70.6742716  47.0603228  54.4755173  70.8984947  46.1454821  54.3051624
  71.5164232  47.4888659  54.6283627  63.7942314  41.0499144  10.9370351
  63.2979345  40.7195282  10.1881933  63.2203150  40.9022093  11.6887236
  17.3341477   7.9133505  58.0714560  17.0203185   7.0201921  58.2129145
  16.5423894   8.4193087  57.8888130  68.0965185  44.6725035  61.0050869
  68.2173014  45.5858517  61.2647676  68.9155865  44.2430115  61.2518597
  37.7485204  22.4139261 106.5020930  37.9984760  23.2713366 106.8464767
  36.8336391  22.3084354 106.7630454  51.4860582  44.1325951  57.6244688
  51.1358929  43.3615398  57.1782780  50.7252312  44.6976757  57.7588606
  21.7554188  35.8914304  19.3754756  21.7002749  36.5124941  20.1017475
  21.4219689  36.3758516  18.6202407  39.8387718  47.6197195  47.5078630
  39.8197007  48.3102036  48.1705046  40.7167244  47.6741695  47.1304131
  21.3201332  65.4127502  67.4364233  20.4553509  65.7850456  67.2638512
  21.1393905  64.5490074  67.8072500  20.8676577  46.5855360  58.6646414
  20.7862020  47.3810196  59.1907644  20.8988738  45.8760548  59.3064308
  16.8023884  54.5226622  30.3544664  17.6426816  54.6573877  29.9163032
  16.4521003  55.4049635  30.4772210  37.9353118  26.4091420  80.0037479
  37.4564862  25.8791447  79.3665218  37.3524594  27.1454597  80.1890850
  38.7389636  58.9393759  41.5469599  38.0023336  58.3588552  41.3556480
  38.3422208  59.6947479  41.9808292  30.7068348  43.1490517  65.4844856
  31.5047145  42.6624298  65.6914139  30.0961447  42.4838591  65.1669788
  31.6030312  33.6052990  55.7348967  31.4433885  33.6970067  56.6742229
  32.1199942  34.3769026  55.5033541  68.8581514  51.2911797 102.5024548
  69.5034266  50.9083223 103.0968221  68.0507231  51.3254642 103.0154028
  53.5431433  61.5855026  41.7230368  54.0887594  60.7991648  41.7374516
  53.7240124  61.9869757  40.8731318  22.8712249  30.6806874  62.2824764
  23.6133885  30.0777507  62.3259544  23.0717945  31.2544870  61.5430450
  32.5380278  48.6242390  19.1892886  32.2708845  49.3180847  18.5864270
  33.1372190  48.0803251  18.6780560  57.4454403  69.9116564  25.7075739
  56.6947889  69.4004440  25.4052138  57.0583439  70.6555510  26.1691046
  24.7877121  58.6210155  -0.0205835  24.3301654  58.3916092   0.7882780
  25.7153106  58.5997391   0.2146599  52.4118996  99.5116138  73.9579010
  51.4755440  99.6824169  73.8564396  52.4601507  98.5947895  74.2287302
  27.8909445  38.6719871  51.1010742  27.1176004  39.0145564  50.6529474
  27.5505662  38.2967210  51.9131994  45.1383686  22.4520779  58.5996485
  45.7596684  22.3648739  57.8767300  44.3234491  22.0811820  58.2611561
  42.1655464  45.2569246  34.4608665  41.3113356  45.5170059  34.8056984
  42.0290136  45.1788521  33.5166764  53.6764050  58.7873888  33.7844658
  53.7519121  58.8814878  32.8348994  54.0631723  57.9321003  33.9718962
  54.4254017  67.7416849  22.7737427  54.9450970  68.1399632  22.0755124
  53.7414122  67.2540426  22.3148346  78.3064413  55.3295088  25.4688287
  77.6219559  54.8675299  24.9847960  77.8439379  55.7538700  26.1914921
  70.7535172  44.5725584  59.0304661  71.4098930  44.9414301  59.6215105
  70.3071880  43.9068127  59.5537281  82.2215462  32.1940565  57.6232481
  83.1292152  31.9075751  57.5218010  81.9642735  32.4885726  56.7495775
  99.8729700  44.8210526  23.6436033  99.0162820  44.5701075  23.9890647
 100.0342578  45.6900263  24.0111685  25.7945514  10.1057470  43.4811163
  25.0444341  10.6326139  43.7567329  25.9303403  10.3437138  42.5639677
  66.2821770  49.8454523  51.1440659  65.5526876  50.0617218  51.7248487
  66.9639969  49.5147610  51.7288685  42.2339535  36.9661546  41.9974422
  41.7033625  36.2322831  42.3075056  42.7770281  37.2034836  42.7490902
  42.7007246  52.9776335  27.7339315  43.0663729  53.3134794  28.5523105
  41.7707253  53.1998444  27.7781224  38.0371380  44.4908285  33.3938766
  38.5517025  43.6897898  33.2948947  38.6271763  45.1014662  33.8356996
  89.9132824  24.2499685  65.2185917  89.2738628  23.9516139  64.5717907
  90.4564190  23.4808445  65.3908873  48.5867023  50.7146311  36.6706562
  49.4329500  50.2942467  36.8235421  48.3262920  51.0480404  37.5292897
  25.6968045  30.0908947  44.5353985  24.9195457  29.5874834  44.7776318
  25.4914904  30.9887409  44.7960711   4.4457084  65.5060625  69.7698593
   5.2359176  65.3945160  69.2413187   4.4408548  66.4350939  70.0003004
  69.3323326  43.7639713  46.8225765  69.7124481  43.6126709  45.9572124
  69.5882273  44.6595287  47.0433235  39.6094251  31.5237546  41.2281942
  39.2939591  32.0853138  40.5201197  40.5095863  31.8119431  41.3794851
   6.4266372  71.4238167  53.4369946   5.9145427  72.1501398  53.0814028
   6.5855759  70.8524084  52.6856852  30.0884438  64.4357586  39.5446539
  29.2618656  64.1285467  39.1723347  30.2048683  65.3124809  39.1785407
  42.7395010  21.2444830  57.6247168  42.5962925  20.3122854  57.7882051
  41.9352531  21.5390134  57.1973133   5.3209615  50.4706430  28.8520455
   5.3087461  51.2900114  29.3467379   4.4265696  50.1364660  28.9200211
  57.3664522  66.6125441  49.8550987  56.7463779  66.5401459  49.1295004
  58.0327177  65.9513426  49.6676636  10.9555638  47.7732229  59.0379143
  11.4149344  47.7817488  59.8776388  10.0366187  47.6376486  59.2689800
  21.3728285  29.2275786  73.5867596  20.6243539  29.1498685  74.1783524
  21.6814017  30.1255846  73.7075901  23.4636593  11.2236273  76.5190935
  22.5897217  11.1244810  76.1414242  23.4019470  10.8065248  77.3784256
  33.3977842  16.9721961  55.6330395  34.0436459  17.6703405  55.5249214
  33.9179969  16.1702251  55.6825638  42.6756334  35.2744913  72.5861406
  42.3597908  35.3785706  73.4837151  43.5084534  35.7460380  72.5690937
  60.0219440  38.9589000  61.1611891  60.1518345  38.6451435  62.0561314
  60.3462887  39.8593879  61.1736393  58.4994411  35.6524491  35.4916382
  58.4044504  34.7033334  35.4117084  58.8463116  35.7849884  36.3738775
  46.7204428  17.7336478   9.7622418  47.4015236  17.5183010  10.3994143
  46.3802576  16.8848860   9.4792044  32.8556490  49.1749144  82.0526791
  32.9063606  49.2559910  83.0050850  33.4895205  49.8123884  81.7239475
  82.7332783  73.1024837  21.8098950  82.9474831  72.1704531  21.7690587
  83.4061527  73.4782362  22.3775983  61.3092518  65.2292395  46.2942410
  61.6274643  64.5210314  45.7344103  61.4321709  66.0215235  45.7713604
  37.1439457  37.8708839  59.0171337  36.2988520  37.7028155  59.4340324
  37.7903342  37.6375985  59.6834612  38.0776048  21.2842298  46.1537027
  37.2663546  20.8068252  46.3274431  38.7446952  20.8122921  46.6521978
  50.7994366  37.4439764 104.8782154  50.9418964  38.3371735 104.5649483
  49.8587275  37.3971701 105.0488072  38.4319925  39.8792982  89.1716536
  38.4493852  40.7360697  89.5981129  38.2135797  39.2666078  89.8738929
  71.0221910  49.9972010  53.1409216  70.4445219  49.4915104  52.5692558
  71.6339159  49.3516397  53.4948683  65.1453781  27.5533462  44.8271275
  64.4852829  28.1813312  45.1206160  65.5923939  27.9954600  44.1053629
  31.1924791  70.6839514  49.2622185  30.6885886  70.3511429  50.0048923
  31.4519548  71.5669632  49.5252705  58.4459448  22.4192619  34.0075898
  58.3788347  21.7656612  33.3115053  58.5973740  21.9079256  34.8024726
  25.3907275  74.1377020  25.2011752  24.7977972  74.6821308  24.6832347
  26.1197138  74.7183084  25.4195833  50.5434084  41.6475582  46.9780254
  50.8007050  40.7696152  46.6965151  51.1509705  41.8595266  47.6866627
  64.2547560  28.5513592  28.6753631  64.0935850  29.0397716  29.4826460
  63.5246992  27.9349017  28.6185765  52.2774696  31.4883852  58.5513687
  53.0914211  31.2886691  59.0137815  51.9095993  30.6320381  58.3332586
  52.5205994  64.1315365  18.9797044  51.8666267  64.5274401  18.4036720
  52.3212290  63.1955242  18.9607430  43.5547829  65.1941156  34.8441768
  43.0725622  64.3677330  34.8160505  44.4072914  64.9615526  35.2121067
  39.9332285  66.8170691  33.0420971  39.3693042  67.2656965  33.6721444
  40.4057980  66.1680508  33.5633302  59.4876528  34.6946692  25.8476305
  59.1496992  34.5523405  26.7318010  60.0697803  35.4497695  25.9323931
  33.7794662  34.0141511  35.6867218  34.1890216  34.6264243  35.0754762
  33.0838203  33.5973644  35.1781988  56.2423897  58.7080193  36.7364669
  56.7728376  59.0929890  36.0388613  55.5098391  59.3148661  36.8429685
  69.3235302  43.6718893  32.4095607  69.1674232  42.8390694  32.8548408
  70.2744532  43.7151670  32.3090148  66.3291025  54.0420866  54.4305754
  65.4398298  54.0284157  54.7844696  66.7371273  54.8063517  54.8375702
  22.2584105  16.2639618  25.2874756  22.6123214  15.3746772  25.2998734
  21.7930293  16.3481581  26.1196804  35.3228331  62.5267124  47.4041700
  35.4477692  62.4136162  48.3464193  34.4728398  62.9597998  47.3255396
  30.3364468  47.8327322  57.3551512  29.6130967  48.3020449  56.9395256
  31.1243033  48.2287121  56.9827032  68.2660151  40.9190273  45.5600023
  68.2506227  40.5644321  44.6710348  67.9764032  40.1930189  46.1125088
  67.8350830  61.1322546  36.2856674  67.5100899  61.9639111  36.6305709
  67.1721125  60.8607864  35.6508422  46.1608696  27.9520559  50.2068329
  46.8428993  28.3625460  50.7384062  45.8465910  28.6538720  49.6368217
  45.9062243  67.9242754  38.5327291  46.3569784  68.7251616  38.2650924
  46.3864040  67.2214508  38.0948997  70.9681606  17.8178263  22.2501302
  70.1389790  17.3598635  22.1124530  71.4248228  17.7435267  21.4121747
  33.9043808  20.7729220  30.1200032  34.2041802  19.8739958  30.2552152
  33.2937980  20.7137990  29.3852043  39.0703273  49.5119047  34.5586419
  38.5767674  49.0737581  33.8653469  39.3941069  50.3152370  34.1511393
  87.6948261  60.1552296  28.5496593  87.4243164  60.0319195  27.6397967
  87.4987507  59.3195200  28.9731860  35.8247256  23.5036349  32.8178239
  34.9985099  23.7000299  33.2594419  35.5804968  23.3672619  31.9024086
  50.2464819  49.6520138   9.0663791  49.9416256  50.0153923   8.2349658
  50.2617550  48.7057447   8.9229500  52.9078293  14.8976564 103.8434887
  52.1217871  14.4061291 103.6052322  52.8323030  15.0265646 104.7889519
  43.3866549  37.8159666  57.7774525  43.2368994  37.5743103  56.8634462
  42.6217461  37.4777603  58.2430315  29.8559999  34.7118568  44.8858500
  29.9412870  35.5188870  44.3782473  30.7133245  34.2921996  44.8143435
  43.4913731  39.9822664   8.3152097  43.3284426  39.2649150   7.7027631
  43.0505466  40.7362986   7.9236293  23.4830093  45.7585621  68.8600922
  23.2096052  46.4757061  68.2880878  22.6663280  45.3250504  69.1077375
  38.7334824  18.5962594  62.8259420  38.0867577  19.1479731  62.3859501
  38.8168216  17.8279698  62.2611284  59.6196032  30.3217363  45.9927893
  58.9577723  30.7938647  46.4980650  60.2963734  30.9749341  45.8151722
  29.0279865  54.7312021  50.3233576  28.8010859  55.3306055  51.0343170
  28.2487988  54.7128391  49.7676945  76.5416193 128.4947390  58.2560730
  76.5075159 128.0617852  57.4030638  77.2836256 128.0866522  58.7023020
  18.1118810  63.2827282  80.9904003  18.0916762  64.1704655  81.3478184
  18.3878016  63.3969116  80.0809765  22.4925780  67.6790762  32.1640158
  22.7306390  67.1159267  32.9005075  22.7679634  68.5552502  32.4336672
  55.9356022  59.8927736  45.9941101  56.5983582  59.2635345  46.2787962
  55.4728317  60.1328897  46.7968655  20.6598163  51.2886477  46.6796923
  20.4013991  51.1091137  47.5836945  20.3915811  50.5083799  46.1944485
  72.1218204  48.9913750  22.4623656  72.2122526  48.5034370  23.2808828
  71.1778927  49.1110182  22.3578811  63.5988760  16.5424633  36.7069912
  63.0506563  16.4161527  37.4814129  64.4603539  16.7685378  37.0576739
  43.8552904  33.4715319  35.6650686  43.7089300  33.6923051  34.7452497
  44.0863991  34.3039155  36.0773277  57.8975296  31.6934872  47.7904367
  58.3779430  31.8669271  48.5999727  57.3030663  30.9771800  48.0134821
  40.2382994  48.6021376  52.0697498  39.8085976  48.5480642  52.9233694
  41.1286497  48.8924837  52.2677612  64.5120573  30.1158524  56.1338806
  63.5822248  30.1583290  56.3571358  64.7479248  31.0179973  55.9176970
  35.7298017  22.5026608  62.2443914  34.8154569  22.3162723  62.0311689
  36.1030459  22.8354049  61.4281797  55.3561735  36.1368799  54.1279936
  54.8093128  35.6267285  54.7254229  56.1840010  36.2467480  54.5958233
  40.5261087  50.0206852  37.0379424  39.7728825  49.8980284  36.4601541
  40.3133202  50.8035612  37.5459385  72.2090578  47.6412964  62.8802109
  73.1347513  47.4050426  62.8210163  71.9632006  47.4231339  63.7792063
  56.7338943  32.4454236  37.2712994  56.8220425  33.1984591  37.8555918
  56.0210800  31.9307518  37.6497698  82.2402096  41.4571238  56.0894489
  81.8969631  40.8925200  56.7820072  82.6549435  40.8541965  55.4724312
  78.9376688  63.8776207  16.7568552  78.0109978  63.9030027  16.9953394
  79.0299463  64.5506144  16.0824656  33.9042616  35.6643319  17.7419496
  34.1774154  35.2067828  18.5371006  33.7590599  34.9671626  17.1023381
  84.5024490  26.6588116  29.7990966  83.6839581  27.1427512  29.6891212
  84.9120998  27.0529222  30.5692267  32.6592946  34.1589880  44.3403530
  33.5803175  33.9495301  44.1851902  32.5788164  35.0808930  44.0957117
  31.3491726  29.2881942 108.9978664  32.0282125  29.6693587 109.5545088
  31.8177056  28.6682510 108.4389577  73.4062433  25.6413388  45.0659132
  74.1278553  25.7202792  45.6898308  72.6411819  25.4481530  45.6077623
  39.8217893  52.0653200  33.4551692  40.7367373  51.8186712  33.5903168
  39.8347592  52.6127577  32.6700735  48.6415386  16.8233085   6.7097938
  48.1119299  16.9828534   7.4910045  49.3017244  16.1907446   6.9930756
  30.1894951 146.2279265  51.2191105  30.7289028 146.9304659  50.8561897
  29.4978857 146.0974708  50.5703497  56.4143848  88.2871819  39.7035575
  56.0386705  88.7623978  40.4446697  55.9616995  88.6408901  38.9379191
  72.8891993 112.4379063  16.2421834  72.1681690 113.0493832  16.0923493
  72.5815439 111.6098595  15.8735168  36.4891672  65.3063440  24.3935609
  37.1710396  65.9469223  24.5958948  35.7104158  65.6356764  24.8422480
  65.4682779  53.8482904  41.0070133  65.5387115  54.7891378  41.1685133
  64.7605419  53.5587645  41.5827942  28.4004736  22.8776503  43.8686705
  28.9371324  23.2088256  43.1485653  28.2880354  23.6302376  44.4493628
  17.8456521   8.8219482   8.9763618  17.0340872   9.3118250   8.8436437
  18.3802187   9.3898869   9.5312643   2.7372906  73.3835173  54.8527145
   2.1742111  74.1532326  54.9346495   3.5550028  73.7226200  54.4885874
  49.1242695  49.6337461  24.9724388  48.9790154  50.5615616  25.1576304
  48.8022518  49.5145750  24.0789437  53.6074400  59.4642591  38.6380434
  53.4054470  58.5399437  38.7832022  54.0349054  59.7458982  39.4468617
  39.9800253  21.8378282  16.7293608  39.6211958  22.6023078  16.2787580
  39.2177534  21.4101315  17.1195531  40.8933830  70.3272152  60.7541847
  40.6680107  70.9754515  60.0869274  41.4165115  69.6752930  60.2877426
  61.9643450  59.6822166  43.7207127  61.4582777  60.3682804  43.2854605
  62.0703411  59.9959898  44.6187878  71.8656015  40.3227139 106.9015469
  71.2257671  40.4709816 107.5978666  71.9716692  39.3718600 106.8722286
  64.0942860  44.9620962  22.5046372  64.3977785  44.3643904  21.8213558
  64.8131609  45.5843878  22.6151109  78.4558582  45.5093384  46.2342310
  78.0093861  44.6781778  46.3956738  79.1426659  45.2936983  45.6033421
  36.9724607  33.1331897  93.3523365  37.5466776  32.4635458  93.7239369
  37.5058651  33.9279413  93.3433219  43.6714840  26.8813467  50.1949835
  44.5905733  27.0448542  49.9833965  43.6466694  26.8565106  51.1515379
  64.1287231  22.6732564   2.7307594  63.7907124  22.4253416   1.8702272
  63.6926746  22.0775771   3.3400691  22.7142715  47.8960609  67.0306253
  22.9097676  48.8083696  67.2444010  23.3904243  47.6475716  66.4003086
  40.4721498  43.1880999  57.7534485  40.7977581  42.6314354  58.4607935
  39.8399830  43.7686396  58.1772089  82.4079609  36.6542864   5.4257721
  82.7200699  35.9867167   4.8148960  82.5472069  37.4827099   4.9669054
  44.0011406  39.9206424  48.0166817  43.3283567  39.3588567  47.6319933
  44.7731733  39.7793722  47.4687386  60.3537369  38.8779664  36.5365195
  59.8851585  39.7122550  36.5114570  59.8289728  38.2920504  35.9910297
  59.0580511  78.9360523  18.7192535  58.6477852  79.8005819  18.7416494
  59.9965572  79.1147041  18.7786043  55.4897642  85.0849533  79.9483308
  56.3343620  85.4242706  79.6521076  55.4775143  84.1765594  79.6468099
  44.6106482  59.8785067   2.0262398  44.3782425  58.9562750   1.9180052
  45.5294514  59.8641062   2.2942379  61.5422297  53.1681108  27.9790521
  62.3392820  52.7847433  27.6130295  61.3928986  53.9554501  27.4555755
  10.5986416  53.9252901  35.8232641  11.2241292  53.3716631  35.3558326
  10.9644473  54.8074532  35.7583952  46.6520119  45.2655506  45.3314257
  47.1900272  44.5014191  45.5384731  46.7192936  45.3553820  44.3808270
  48.7649679  39.1955233  26.3375449  48.2459497  38.8901377  25.5935073
  49.6461916  38.8626742  26.1675787  60.0038290  82.0235157  52.8441381
  60.1027918  82.0718670  53.7949800  59.6598053  82.8813648  52.5952101
  36.7284155  57.2505140  41.0360193  36.0567713  57.4672365  40.3893661
  36.8669462  56.3092089  40.9311962  52.8257465  48.4545135  18.5013056
  52.4227381  48.8173580  17.7125371  52.1074581  48.0157280  18.9571142
  46.5052319  21.8792081  36.7487359  45.8917618  22.4216318  37.2443795
  45.9482098  21.3364387  36.1907411  25.9122491  54.1021204  40.2036095
  26.6041660  53.7177467  40.7418823  26.0709119  55.0450754  40.2470922
  14.7253919  73.2978916  46.6124392  14.3530858  72.5123930  46.2116814
  14.9135911  73.8772583  45.8740997  64.4248295  47.4446201  16.4479971
  64.2843819  48.3821774  16.5802610  63.5476923  47.0887518  16.3057983
  24.6533823  60.4930592  14.3885708  25.1887298  60.0156593  13.7547529
  24.6168137  59.9177551  15.1527190  39.1041636  34.4995046  25.9908843
  38.4858465  33.8037181  26.2140369  39.6424103  34.1267395  25.2926254
  36.1688375  66.4225054  30.1558566  36.4742637  67.2047997  30.6151605
  35.4019022  66.1372662  30.6525254  46.7219305  53.3692884  36.8352842
  47.1044970  52.8108978  37.5120974  47.0209980  52.9855824  36.0109305
  64.5521116  17.7855170  71.8600178  64.9468613  17.4923348  71.0387707
  64.0429735  17.0336568  72.1628618  62.5853872  48.4125042  10.9410834
  62.0313597  47.8161430  10.4374552  63.1760883  48.7957430  10.2926803
  41.0513449  53.3967733  98.4686645  41.9901562  53.3079720  98.3044096
  40.6723595  53.5669470  97.6063164   9.0437651  49.0723705  17.7528298
   9.8433274  48.6969280  18.1215763   9.1224968  48.9249849  16.8103266
  43.5030413  82.2360706  34.8163533  43.8126230  81.3556480  34.6036315
  42.5635767  82.2099876  34.6348023  59.5502472  72.6173735   1.8747672
  59.6239662  72.5610733   2.8274626  59.1060591  73.4505987   1.7177308
  39.9766517  51.9597578  25.1146579  39.5119262  51.1235428  25.1462913
  39.6866179  52.4247932  25.8994246  38.0791879  23.5635495  52.7297354
  37.5407648  23.7224936  53.5050201  37.6359701  24.0408945  52.0283556
  64.5268869  18.8403106  58.4260654  65.0536442  19.4119811  57.8675365
  63.6826086  18.7804592  57.9790211  33.7633586   4.6591467  37.4140501
  33.2244253   4.2777285  38.1070900  33.4595799   4.2330945  36.6125345
  26.8834162  54.2626524  10.8206546  27.2287583  53.5616302  11.3734078
  26.0123706  53.9590454  10.5650485  80.2639484  41.3811064  13.0868196
  81.1443329  41.4156103  12.7127123  80.3197765  40.7123184  13.7693453
  42.1101522  44.9990940  12.4550736  41.7782593  44.4764519  13.1850898
  41.9397163  44.4636297  11.6801798  71.0513687  32.3109508  29.4575119
  71.0418606  33.1030750  29.9948049  71.9783926  32.0857048  29.3792963
  26.9310379  42.8473330  34.5947981  27.2901917  42.0392323  34.2284441
  26.4513350  42.5648260  35.3734565   5.8504528  10.3153861  49.4091606
   6.7553800  10.0875163  49.6222639   5.5832773   9.6588629  48.7658691
   7.4132586  39.4739699  37.7979684   8.1476212  38.8609838  37.8325295
   7.7042419  40.2256823  38.3141923  56.3215351   8.0655265  43.6423206
  55.7720280   8.6863613  43.1639528  55.7002544   7.4827790  44.0789509
  51.7567348  38.0674839  26.8191934  52.5963783  38.2097411  26.3821673
  51.5502501  37.1486354  26.6479802 112.0253152  58.6112738  39.5735478
 112.8339619  58.0991364  39.5671725 111.3779957  58.0318308  39.9753618
  37.6881790  50.2575827  21.0310984  38.0822635  51.0995436  21.2592101
  38.2109690  49.9400711  20.2948189  47.8108788  33.9910579  21.7667699
  47.4399948  33.2798505  22.2891331  48.4304094  33.5586572  21.1790276
  30.1016235  55.8449936   3.5199085  30.6202793  56.2390900   2.8185433
  30.2491450  54.9038029   3.4270215  45.2927351  60.1163101  23.3143568
  46.0639238  60.3373861  23.8364911  45.3675508  60.6639767  22.5328875
  54.7049236  25.7463312  37.3403311  54.3566227  25.1795125  38.0285430
  54.2919493  25.4293132  36.5370989  39.1421080  66.7689466  23.4183812
  39.9676919  66.4173174  23.7515450  39.1429734  66.5419149  22.4884963
  63.4543514  86.0950470  25.7952476  63.2751083  85.1558018  25.8390379
  63.0390453  86.3804531  24.9814320  25.3813052  67.3256969   6.1897570
  24.8121428  66.8696928   6.8097132  26.0870123  67.6816559   6.7296654
  72.7592182  18.0117667  79.7441435  72.8673792  18.0210865  80.6951714
  71.8587923  17.7167583  79.6083736  51.8407488  25.2687144  56.6962385
  51.7749596  25.1040864  57.6368809  51.5647125  24.4473934  56.2894583
  22.5363040  59.5500326  58.3167553  23.1053138  60.2967453  58.1299877
  22.6906776  58.9440966  57.5920200  36.6135931 136.6576124  40.9145117
  36.7436886 137.2446150  41.6593170  37.4654198 136.2400419  40.7870102
  45.8717823  40.2384758  32.4811053  45.2892590  40.4116678  33.2206368
  46.7388153  40.1454115  32.8758478  26.9862676  44.6034575  28.0772257
  26.5017700  43.7984610  28.2602024  27.8806973  44.3103552  27.9031110
  58.9433956  37.4674153  15.1307464  59.1324043  37.3875046  16.0656905
  57.9975796  37.3354959  15.0654638  34.1840553  45.1207209  24.9678493
  34.7535181  44.6343899  24.3716764  33.4258223  45.3584719  24.4341946
  44.5307875  66.5232229  19.5670092  44.3829060  66.2859392  18.6515546
  45.1158762  67.2797251  19.5268428  23.0147481  83.4225750  95.3516444
  23.6512709  83.6615086  94.6778628  22.2403312  83.9462376  95.1460143
  49.9902678  67.7228212  15.9976113  50.9430838  67.6558495  15.9352303
  49.7001839  67.8590918  15.0956619  23.1293631  42.1353531 105.4713296
  22.6325822  42.6642752 104.8470857  23.0104995  41.2346315 105.1699983
  36.0163593  50.5410719   8.1681693  35.5772090  49.7020340   8.0289096
  36.6249180  50.6177616   7.4333185  33.6754370  37.3536301  26.7187715
  33.7435222  36.7316389  25.9943914  33.2339382  38.1141567  26.3407397
  49.1944313  41.3197470  31.0906744  48.4546995  41.3866425  30.4868913
  48.8868284  40.7339001  31.7823386  35.5279803  23.5809016  59.5989704
  34.6006012  23.7694073  59.4552088  35.9321427  24.4409060  59.7141933
  57.1948338  31.7887688  28.0456567  56.3311434  31.5285420  28.3659053
  57.2272444  32.7350521  28.1861186  24.0387654  47.9503155  52.4614620
  24.3532991  48.7336636  52.9127598  23.2491755  47.6987076  52.9404926
  72.8207731  31.1588192  35.5636501  72.7958775  31.6361284  36.3929772
  71.9371939  31.2514520  35.2073669  53.2029247  60.9858322  46.1820269
  53.1780434  60.5213976  47.0186329  53.8711977  60.5268955  45.6730890
  37.1544075  18.3915114  14.9390888  36.4878345  18.9702344  15.3092146
  37.5448227  18.8997543  14.2281067  30.6817126  44.8487234  81.0798645
  30.4466867  43.9248657  81.1663532  31.6196752  44.8759604  81.2688541
  95.7058907  76.3079214  39.2764902  96.0356712  76.8006945  38.5250568
  95.6255436  75.4092073  38.9569712  34.8794293  53.8160372   0.3907063
  33.9281225  53.7278271   0.3318456  35.1772213  53.8105249  -0.5189759
  64.1358662  49.7530174  20.2865672  64.3135929  50.5187511  20.8327341
  63.9913225  49.0419197  20.9108090  68.8837147  46.6697598  66.5018853
  68.0037403  46.7080069  66.1271676  68.7392235  46.5715742  67.4430093
  15.6111717  51.8312263 105.5710631  15.7956362  51.7419386 104.6360590
  15.5365360  50.9309340 105.8875074  66.0208273  53.5144806  30.3464627
  66.1556196  53.2111406  29.4486594  66.4028549  52.8266335  30.8915782
  24.8376060  38.2151508 102.3913600  25.3812695  38.9462876 102.6847871
  25.0187016  37.5151801 103.0186375  32.0565200  10.5337787  27.5407505
  31.7493892   9.8771214  26.9156861  32.8949428  10.1935267  27.8530145
   7.2211248  54.6420097  44.3893766   7.8650689  54.2424297  43.8046503
   7.3264390  54.1736555  45.2174997  24.3323708  51.9089413  41.0058260
  24.9874115  51.2359381  41.1908245  24.8262072  52.7289009  41.0009098
  13.2184875  63.2838869  96.8387028  13.5901797  63.8707352  97.4972495
  13.5875607  62.4256325  97.0470759  73.7793589  35.5836391  19.4897592
  73.5425043  34.8680401  18.8998032  74.3736744  36.1306977  18.9761925
  60.7869959  45.2090120  46.9859648  61.3726044  45.0892687  47.7335978
  61.3403797  45.5966997  46.3079548  40.6710672  55.4730272  17.1059179
  39.7303391  55.3617334  17.2433102  41.0301161  54.5887613  17.1793795
  22.9688048  56.3615179   6.7478746  22.0984077  56.7597389   6.7556292
  23.0121756  55.8968735   5.9121364  23.0386257  60.9356213   9.5973444
  23.8481998  60.4251242   9.6120375  23.0916095  61.4911222  10.3750598
  61.4718533  44.2932510   9.1099447  62.3769331  43.9818096   9.1179883
  61.0407639  43.7945080   9.8039550  68.5226345  51.7639160  49.7510910
  68.5857964  51.6750956  50.7020664  68.6019516  52.7045631  49.5925999
  33.3477306  72.6035976  31.3120556  34.1801262  72.4263000  30.8739734
  33.2100058  73.5433722  31.1933517  46.7068815  20.6691051  23.9227080
  47.3852348  20.3136778  24.4969416  47.1349716  21.3932276  23.4659600
  68.1072235  58.8255072  18.9941359  68.2328224  59.5708132  19.5814836
  68.9416122  58.7408876  18.5327578  36.5131426  31.8363833  32.2461009
  36.5941381  32.3895597  31.4691424  36.6385722  32.4362850  32.9813671
  40.1840734  31.3421679  25.7540202  40.7073832  31.6586971  26.4903545
  40.3244925  31.9906521  25.0641060  19.3293309  62.6758099  13.2185984
  19.1605914  62.0277309  13.9025235  18.5508859  63.2328129  13.2191360
  21.2891793  73.5067177   4.5077625  20.5842972  73.0659103   4.9821737
  21.9687724  72.8391886   4.4140086  43.7965441  74.2010260  25.1354933
  43.1789970  73.6175632  25.5764461  43.2479286  74.7547817  24.5799661
  14.7998917  47.0387411  63.6448717  13.8559699  46.8827677  63.6146164
  15.0366008  46.8982458  64.5616388  54.8462200  74.4679976  54.0134478
  53.9950228  74.3798637  53.5845804  54.8683310  73.7542105  54.6508217
  46.4749813  71.4867687  20.4903483  46.2446165  70.5836916  20.2721548
  45.7734060  71.7790079  21.0722566  51.3634014  61.6179657  34.9782658
  51.7080021  61.6470671  35.8708096  51.2199831  60.6871748  34.8071265
  33.2446122  15.3358769  48.9047527  32.9245067  16.1686039  48.5578680
  32.8734946  14.6745801  48.3206367  24.6355414  31.1936736   9.4312966
  24.2807102  30.4576612   9.9299061  24.6699667  30.8770609   8.5286319
 108.5386986  32.2546124  12.6659858 109.0854437  32.8084564  13.2232630
 109.0634365  32.1160007  11.8775272  22.3078012  19.6323478  18.7408149
  22.8238726  19.7751594  17.9474008  21.9950032  18.7309611  18.6640656
  70.6969070  15.3425884  55.4294777  71.6438055  15.3427398  55.2894497
  70.3330088  15.0184023  54.6056318   8.0751091  27.2733545  17.1361303
   7.5578988  27.4599385  17.9196548   8.5964423  26.5055585  17.3705018
  71.0434771  41.2490940  45.8418083  71.1584806  42.1924305  45.7272577
  70.1406622  41.0831785  45.5704641  35.6550574  81.9720364  19.0026009
  34.7790241  82.3427105  19.1093719  36.1760426  82.3867416  19.6902251
  52.8586054  66.9437218  26.1684608  52.0615530  67.2752142  26.5820432
  52.5463152  66.3252592  25.5079961  17.9442179  38.8891602  18.6911750
  17.0671558  38.9033818  18.3080387  18.4031868  39.6134686  18.2657850
  28.2301712  60.6385899  88.2669195  27.6410365  60.1380014  88.8313349
  28.8066959  61.1025763  88.8740190  45.2793360  56.5650749  48.7809277
  45.3994799  57.4720812  48.4996223  44.8586226  56.1368084  48.0353928
  79.2456341  55.1126671  46.2706232  79.2871046  54.1815758  46.0524845
  79.5296431  55.1576471  47.1836090  35.5121946  61.6455889  15.0275600
  35.2539253  61.8316603  14.1248381  35.1236534  62.3553228  15.5389786
  35.6475115  13.2843435  52.8364706  35.6485653  13.9137554  53.5576344
  36.1566019  12.5431776  53.1646967   3.2368252  55.5024815   4.3936482
   2.6239833  55.7560253   3.7034512   3.6367664  56.3259649   4.6732068
  36.5046787  41.8461227  34.6247458  35.7897687  41.4463329  34.1294646
  36.9320869  41.1109447  35.0641346  93.2871056  54.1502428   1.8014076
  93.2927322  53.7967825   0.9118760  93.2375336  53.3784914   2.3654832
  17.2471642   6.9737697  38.9864254  17.1430480   7.9077888  39.1680837
  16.6772521   6.5411270  39.6222353  12.7421367  64.5567513  26.0855603
  12.8562820  63.6427450  26.3459325  12.4853432  65.0050592  26.8913555
  35.0819087  38.0659986  54.8426628  36.0278416  38.1948709  54.9122000
  34.7444463  38.2970619  55.7080841  66.4001656  84.2021942  33.3940673
  65.5127335  83.8557625  33.4872174  66.2998056  85.1485920  33.4964919
  44.6043062  25.4648566  18.5308945  45.0286102  25.9407806  19.2448223
  45.0590324  24.6231103  18.5006404  57.3130894   8.8287163   5.9531176
  56.4281034   8.5405076   5.7295698  57.1979952   9.7181594   6.2875968
   9.3196803  37.8148293  33.3331513  10.0805867  38.2824492  33.6775088
   8.6891639  37.8201842  34.0533257  31.9984984  37.6724148  22.8606009
  31.9175601  38.3994055  23.4779882  31.1938882  37.1674752  22.9783559
  61.6189146  52.9955196  37.7605534  61.1789989  52.3252678  37.2376180
  62.5430202  52.9154110  37.5242472  37.0082521   7.7454454  29.6231675
  37.9188466   7.5966293  29.3684101  36.5734410   6.9089353  29.4575667
  50.3758764  42.1364880  35.4715967  50.6849194  41.6857433  34.6857500
  49.5770788  41.6696405  35.7169700  14.4047499  76.9267559  12.8586519
  15.1846814  77.1990919  12.3751521  14.6866274  76.9010735  13.7730467
  36.8313098  36.3415504  39.6690035  36.5892887  35.6178808  39.0911102
  36.1815214  36.3148022  40.3713512  74.7047663  87.9030037  21.9661164
  74.0754986  87.2933960  22.3516464  74.3884802  88.0409145  21.0732698
  55.4266024  61.5800858  28.2057619  55.8866119  61.2988234  28.9966559
  55.2407551  62.5073338  28.3537364  60.2651930  71.0014296  34.3016052
  59.4811440  71.1554766  34.8286438  60.8960485  71.6491508  34.6157789
  45.1832867  37.6415515  39.7660804  46.0700846  37.8482938  40.0611687
  44.6285486  38.2871222  40.2039623  65.4402494   0.2627369  24.7298884
  65.8939409   0.3843507  23.8958573  64.5242119   0.4609040  24.5353675
  35.2544546  12.3843312  36.9980550  35.5515885  11.4802933  37.1012998
  34.5798254  12.4927509  37.6683927  43.7042809  25.5517578  85.1356602
  43.7254524  24.5951009  85.1113701  44.3329859  25.7880044  85.8176804
  77.5199175 133.9226396 102.3760303  77.3235416 133.8015647 103.3050134
  78.4169531 134.2563600 102.3623582  19.1040957  60.6600666   2.8936452
  18.6926067  59.9799633   3.4269080  18.7022877  61.4754391   3.1935638
  37.9222226  62.7493906  31.8216085  38.2834864  63.6255550  31.6872334
  37.1859622  62.6978254  31.2121058  47.5662136  41.1887407  11.8135524
  47.9762316  41.5667772  11.0356009  47.9642057  41.6586637  12.5463617
  65.1518154  63.1664181  17.9963315  64.2185783  63.3401394  18.1193221
  65.2299070  62.2151423  18.0685043  22.6838493  34.9981737  40.8238935
  21.8947816  34.8072934  41.3310099  22.3567128  35.3051424  39.9783278
 123.6617111  20.1035523  16.6432488 123.0554993  20.8354616  16.7574835
 123.1353303  19.3255866  16.8274355  45.0086308  50.8644629   2.0107037
  45.3218937  51.6344309   1.5361062  44.4187689  51.2173176   2.6768818
  72.8925228  37.3977494  33.7712193  72.6710463  37.7849650  34.6181202
  72.2115707  37.7143550  33.1776762  56.5653133  23.7956095   5.0846016
  56.9422531  24.2497015   4.3309790  55.7115507  24.2094970   5.2111727
  31.4196801  31.1195230  96.6037556  30.6391978  31.6018319  96.8766197
  32.0392704  31.2396765  97.3234101  54.6584845  69.8753452  11.2255490
  54.3921232  70.7910824  11.1436391  54.5445824  69.5132589  10.3468275
  49.9809456  62.3902655  27.5464201  49.1260433  61.9621611  27.5005817
  49.8444986  63.2425690  27.1326590  69.7599411  31.6661263  40.5484056
  69.4661903  31.5392470  41.4505386  69.7439909  32.6148772  40.4225111
  36.7858553  46.7593861 109.0010549  36.8910313  47.6023817 109.4421110
  35.8892512  46.4929247 109.2043479  72.5085402  55.7226944  30.2567005
  72.1591234  55.5784416  31.1360908  73.1765699  56.3984299  30.3722787
  57.5910902   5.4363233  84.7323092  57.3245525   4.6846119  85.2615722
  58.2810259   5.0957590  84.1628917 123.5675507  49.1594553 107.2253480
 123.9921599  49.1747046 108.0830812 122.8338522  49.7682858 107.3104430
  56.9410753  41.3394308  41.2220907  56.3726807  42.1092224  41.1979294
  57.6025534  41.5089750  40.5513191  74.5443583  37.8731847  47.4503994
  73.7241316  37.7444434  46.9740772  74.5574045  38.8078117  47.6566362
  14.8779035  77.4631262  25.1628494  14.7430444  77.2312689  26.0817003
  13.9941478  77.5564384  24.8071790  40.8816433  28.6190844  49.3194962
  40.1698685  28.9017701  49.8936939  41.5430450  29.3061042  49.4018650
  39.3396926 138.5388131  17.9703951  39.8478842 137.7767671  18.2483530
  38.9828467 138.8979901  18.7827289  52.7838659  45.1730108  37.4012160
  52.1361065  45.7482386  36.9940877  53.5350704  45.2009726  36.8086457
  20.2862620  43.8684273  70.3213596  20.4986668  43.1012630  70.8529329
  19.9192810  44.4966555  70.9433603  25.9602070  66.0317755  13.0033922
  25.9617710  65.2888060  12.3998821  26.8624234  66.0863352  13.3184457
  16.3017654  25.9219527  46.1587524  17.1357059  26.1502862  46.5694094
  15.8004248  26.7373347  46.1651993  38.1130600  62.8427505   7.0643926
  38.7853360  62.1827698   6.8949789  38.5819793  63.5570240   7.4958575
  57.6521444  39.8508620  85.7447919  57.1063137  40.6123304  85.9409150
  57.0334768  39.1235280  85.6779727  94.4863147  36.3077426  40.5604506
  94.9945015  36.8566608  41.1576653  93.9396042  36.9250584  40.0743818
  38.8388443  62.2508860  35.7108641  38.0202222  61.9076586  35.3526950
  39.0477657  61.6630077  36.4368010  50.0742626  54.0312767  39.8409057
  50.7496500  53.4753942  40.2295971  49.2487764  53.6206770  40.0982285
  53.3006048  34.2527819  60.6408262  53.9379358  34.9064779  60.9284401
  52.4569416  34.7020411  60.6921291  54.8260832  43.3220911  27.2646642
  53.9099836  43.3057690  27.5416636  55.2858067  42.8061628  27.9270124
  74.8204851  40.5766249  33.1281209  75.2460098  39.7625780  33.3973646
  74.0306520  40.2930975  32.6676750  31.7657495  20.1554394  28.1494951
  30.8367515  20.3277230  28.3028388  31.7751169  19.4684196  27.4830484
  57.2154331  36.1871481  25.1003098  56.9835377  36.2045002  24.1717863
  57.9522848  35.5783558  25.1518178  13.6935234  14.6862960  28.9697170
  13.2498646  14.4740605  29.7909069  13.0033243  14.6475422  28.3076334
  70.9909439  28.6357522   8.8161594  71.6022253  28.1116772   9.3337601
  70.1834774  28.6390591   9.3301839  75.0599289  55.3422928  58.4303904
  75.1294422  55.9092569  57.6623106  75.1030445  54.4537926  58.0769300
  41.2762785  43.9092541  26.7804885  41.9723034  44.4874334  26.4682508
  41.7378330  43.1893110  27.2104716   9.9870765  29.9227667  30.6159329
  10.7289171  30.3762484  30.2156091  10.2009678  29.8904395  31.5483689
  39.3906045  24.3872690  15.6306684  38.5643792  24.8035049  15.3850460
  40.0488949  25.0714540  15.5091143  51.3550329  77.1058512  45.6836796
  51.2806702  78.0358839  45.4697990  50.7984924  76.9920206  46.4540958
  50.4287291  46.5987873 101.8567308  50.6810427  46.6737795 102.7770277
  49.4995928  46.8284845 101.8436327  42.1388674  35.9552002   4.2927945
  41.9847965  35.1754475   4.8261613  41.4543819  36.5680981   4.5612565
  32.5720477  74.8288727  25.5795527  32.7360630  73.8961506  25.4404259
  33.0904317  75.2665472  24.9043083  26.2727785  62.6798201  35.1034141
  26.3282394  61.8192291  35.5187869  27.1207380  62.7936983  34.6741962
  72.7223539  56.2373400  43.8272667  73.0471087  55.5882978  44.4513750
  71.7790604  56.0798502  43.7869835  41.4367056  45.2460432  29.7045302
  40.5003595  45.2902603  29.8982859  41.5039635  44.6113920  28.9911413
  30.4434681  70.1499033  33.4712505  30.5037546  70.3614807  34.4028258
  30.5890107  70.9847212  33.0261302  61.1080265  67.4552631  24.9324512
  60.1577711  67.4759626  24.8192310  61.4338207  68.1398535  24.3481326
  24.8318267  57.1344662   2.8028795  25.7575488  57.0831013   3.0408457
  24.7306180  56.4974117   2.0956652  88.7492657  48.4738779  14.4842172
  88.3021832  48.0140018  13.7736809  89.0856266  49.2727661  14.0781713
  30.9295702  41.8910027  59.4333506  30.7193446  40.9670162  59.5685863
  31.1523056  41.9524956  58.5044575  15.2553689  23.5550499  98.1415399
  15.7003987  22.7148867  98.2524654  15.2338696  23.9326334  99.0208586
  37.4866772  39.4275761  23.3041167  37.1279621  39.4252849  22.4166751
  37.9864478  40.2421427  23.3583379  39.5295572  69.9564600  98.2607242
  40.1005220  70.6184864  98.6505302  38.9713907  69.6666670  98.9823230
  65.2241516  48.6255217  29.0196347  65.7507467  48.0090046  29.5283961
  64.9168253  49.2650604  29.6621084  54.8177433  49.7114325 105.2405804
  55.6471300  50.0406170 105.5869734  54.7153664  50.1575422 104.3999042
  44.3203068  44.6428871  14.7853065  45.2190113  44.4455004  15.0491238
  44.1069460  43.9695263  14.1393220  39.4778466  47.2683096  89.6942457
  39.2917418  46.9681740  88.8045748  39.6966219  46.4702702  90.1753946
  39.1700101  39.0869689  16.3132477  38.3738327  39.4616580  15.9364998
  39.3806648  39.6622348  17.0487237  29.4518709   5.4208791 105.1120704
  29.0659475   4.6110275 104.7782507  28.7202024   5.8849132 105.5189677
  44.2732811  65.8920765  16.8611395  45.0240564  66.1319113  16.3179529
  43.5782242  66.4902067  16.5866172  55.6791639  76.3192368 107.2729301
  56.1938715  77.0700693 106.9770264  54.7695160  76.5824366 107.1332791
  75.1980352  30.2250123 105.9844872  75.9674740  30.7727671 106.1399283
  74.4542694  30.8018160 106.1586746  48.3885670  47.0031881  20.8560014
  48.7741280  46.5313244  21.5941882  47.4625635  46.7615366  20.8746123
  30.4994822 102.2565079 101.4028993  31.2947989 101.9821072 100.9463783
  29.7859979 101.8749237 100.8914634  34.5170856  27.3504400 100.2887675
  33.6472988  26.9676161 100.1740857  34.4224381  27.9403090 101.0366508
  57.8569031  10.9343839  21.1905050  58.5477066  10.8021569  20.5412412
  58.0160522  11.8135822  21.5338898  70.5202961  60.3275728  35.0244117
  69.8968458  60.2935934  35.7499385  70.3185368  61.1474228  34.5734453
  32.9153776  63.9554405   1.0876408  32.9799986  63.1696987   1.6304737
  33.6344337  63.8735437   0.4611572  44.9933147  41.7649555  41.8218708
  45.5704737  42.1094608  41.1403751  44.3123531  42.4307346  41.9181299
  68.9878273  25.6387711   7.3235583  69.8637247  25.9669113   7.1201968
  68.4040213  26.1526632   6.7656016  32.6734829  61.7887545  99.5733460
  32.9359770  61.3323689 100.3727456  31.7589521  62.0281506  99.7235271
  18.4434724  84.0725136  13.9279342  18.4209931  84.9135017  14.3845141
  18.2202256  83.4288788  14.6003425  64.5220280  51.8895483 101.7795708
  65.0183821  51.8485928 100.9621414  65.1528215  52.2038126 102.4273136
  41.2113762  37.9271412  97.9706260  40.3749084  37.7126360  97.5576671
  41.5365219  38.6796021  97.4763402  68.1438303  65.8081388  14.1899395
  68.6063337  65.7930374  13.3520293  67.2378635  65.5938768  13.9673424
  42.9384995  35.5258775  95.9082946  43.5132122  35.2023125  96.6020127
  42.0597458  35.4817128  96.2852212  38.6658502  52.7556133  21.1765265
  38.7787795  52.5722504  22.1091866  38.8648319  53.6878872  21.0899091
  50.5043364  16.5798593  43.7402439  50.2245569  15.9610581  43.0656767
  50.9391165  16.0369253  44.3978310  77.3168182  53.0383539  19.9870646
  77.8339434  53.5297203  19.3488073  77.0998859  52.2199821  19.5404756
  43.3551836   3.0051729  93.2016250  42.7189875   3.5215053  92.7067646
  44.1868067   3.4608215  93.0711850 114.0326185  15.1170313  30.4240823
 113.1843669  14.6737611  30.4386759 114.5509142  14.6643162  31.0894036
  45.6416607  20.3501797   6.5044588  46.3582802  19.8669517   6.0931396
  44.8688126  20.1158810   5.9906113  41.5808201  66.3090658  39.8166466
  41.6476250  66.3423395  38.8623619  40.6793880  66.0341597  39.9842024
  57.7470064  75.2539492   1.8757175  56.8157053  75.3127909   2.0888971
  57.8139448  75.6169128   0.9925363  25.0446773  72.5113964   7.2474658
  25.2719522  72.9082584   6.4065856  24.3668532  71.8700600   7.0342225
  70.6658220  55.5090046 109.5390918  71.3662958  55.6261396 110.1808438
  70.6581736  56.3263702 109.0410101  46.3126850  37.8415728   0.6298153
  47.2026968  38.1733084   0.5112360  46.0195732  38.2312894   1.4534894
  54.8709488  51.4050055 102.8941711  55.7495928  51.7172718 102.6780500
  54.3772697  52.1997881 103.0962642  42.2833776  42.4357653  97.9330786
  43.1290293  42.8276920  97.7151354  42.3493767  41.5338850  97.6192506
  67.8058481  40.1600599   4.1231465  68.1165123  40.9233665   4.6100536
  67.2110367  40.5210972   3.4658182  36.0053992  39.2960072  15.0530767
  35.5436039  38.9313269  15.8080494  36.6290545  38.6147261  14.8017955
  21.5336704  48.3301830  88.7563618  21.6956949  47.5058699  88.2975706
  21.9975519  48.2364035  89.5883783  71.5532827  65.4784966  11.9306350
  71.7070246  66.3924742  11.6913867  70.6324291  65.3268623  11.7178702
  41.7207623  41.2324333 108.3988649  42.2440577  41.7778397 107.8115624
  40.9898663  41.7932129 108.6587683  44.7760296  50.7007027  19.9535537
  44.8946142  50.8586311  20.8901596  45.0049067  51.5328121  19.5394921
  56.1427689  48.1905365  93.8549443  55.2519655  48.4080410  94.1295167
  56.3862514  47.4435139  94.4016679  51.0062408  51.2064695  20.3335953
  51.9616747  51.2558126  20.3028512  50.7908297  50.4194212  19.8332095
  66.9646597  75.4143190   8.6391115  66.6269875  75.9652090   7.9329056
  66.6634417  75.8414888   9.4410002  41.7802048  33.6542606  42.7797413
  42.1232843  33.5297084  43.6646223  40.8879900  33.9748454  42.9117012
   5.3577256  58.8843346  18.3976340   6.0520136  58.2853127  18.6721754
   5.4169172  59.6167898  19.0110159 107.1458930  18.8786352  33.4461164
 107.7462489  18.5381341  32.7828932 107.4499339  18.4902120  34.2664337
  29.7665286  62.4527407 100.3412994  28.8836837  62.0913982 100.4203501
  29.9701929  62.7811909 101.2170126  27.7312469  34.9857664  26.6567111
  28.0881810  34.1739130  26.2965369  26.9578838  34.7098899  27.1486807
  56.1468506  31.9133544  23.1912398  55.8583689  31.3586235  23.9160061
  56.9707823  31.5209270  22.9025054  13.0573392  10.0940466  18.9370430
  12.4109352   9.7359687  18.3286238  12.6925457  10.9374499  19.2050493
  68.0377436  48.7398195  10.8601129  68.0612230  49.5812798  10.4044497
  68.8748026  48.3279562  10.6458032   6.5259331  26.7527604   4.7994378
   6.0124332  26.2748027   5.4506719   7.4363542  26.5940952   5.0488186
  37.8840709  71.6921568 105.7845619  37.7941418  71.9423628 106.7040952
  37.8579640  72.5213385 105.3070637  79.3070459  73.2647943   5.4549980
  79.3740225  72.5890064   6.1295772  79.5595169  74.0736008   5.9003305
  31.7036390  30.3438497  12.5966668  31.8435454  30.9909678  11.9053650
  31.8170142  29.4992900  12.1606660  10.9736896  36.5125942   7.0749354
  11.0005891  36.3028908   8.0084944  11.6668510  35.9769940   6.6890740
  27.0757556 125.2589197  33.4737754  26.2136364 125.6539912  33.3437634
  27.3312664 124.9501342  32.6045251  24.5434976  25.8258748   3.5637209
  24.3039274  25.6594014   2.6520607  24.5435810  24.9606657   3.9731660
  46.7632103  48.1546926   7.2263980  47.5878286  47.8633595   6.8373466
  46.9929266  48.9499283   7.7070868  55.8936977  33.4951878  25.6598139
  56.6730976  33.3820677  26.2038493  56.0709953  32.9748392  24.8762083
  53.9010286  74.9098682  18.0795455  53.4598255  74.3192863  18.6901081
  53.9909983  74.3991041  17.2750211  55.7918167  43.4745073  31.7433548
  55.1662827  43.9173317  32.3168039  56.5394878  44.0705347  31.6988873
  45.8120298  30.0384212  48.5947752  45.5277491  30.3163242  47.7240372
  46.7130470  30.3538871  48.6645889  70.4576206  48.3985329  17.8810203
  69.9730444  47.5862122  18.0278397  71.0941505  48.4301329  18.5952067
  23.8548017 131.6161842  11.3077950  24.3317509 131.5305407  10.4823160
  23.0202007 132.0151980  11.0619080  29.4035554  69.5097113  23.0708861
  30.0268030  70.2335596  23.0089426  29.9282503  68.7667322  23.3690715
  50.7954693  35.6087756  15.5356443  51.6778660  35.9744883  15.5978084
  50.3420877  35.9443498  16.3089931  23.4338355  20.7803988  12.4936831
  23.8378167  20.0566077  12.9723859  22.5010133  20.5663037  12.4782729
  36.3185525  37.0101810  93.3846399  35.8588147  37.2012448  94.2021784
  35.6649566  36.5729666  92.8388461  49.9114227  48.4697342  19.2309451
  49.2062473  48.1154871  19.7726727  49.5491505  49.2758512  18.8633025
  54.8266840   3.2454386  11.3016248  55.1670599   4.1292486  11.1628604
  54.0715408   3.3672148  11.8770885  61.5667963  42.5846958  19.9802804
  62.4569798  42.8651142  20.1928234  61.2552738  43.2339907  19.3497241
  38.4369636  13.9987099   2.2877383  38.0376768  14.8046219   1.9601606
  37.7266073  13.5478055   2.7441469  93.1387043  43.3151865  15.2802563
  94.0484810  43.2013464  15.0053465  92.8339958  42.4284840  15.4729939
  54.6876621  36.1654258   3.1285208  55.2662373  36.8234873   2.7432477
  54.7865963  35.3992033   2.5634131  33.3857632  48.3840895 102.0594605
  33.0898499  49.2542362 101.7920496  33.6521673  47.9604530 101.2434986
  38.7143779  62.3001003  94.4952711  38.4145808  62.5605059  95.3662141
  39.4451213  61.7046404  94.6616145  30.6188750 133.0891366   3.9328641
  30.7183838 133.7339122   4.6332884  31.0377908 132.2987897   4.2735866
  34.4632125  58.6268711  22.8563499  34.8984504  58.8895512  23.6673999
  34.0706754  57.7777863  23.0593276  54.4959736  33.7412095  82.9997619
  54.8234844  34.5230532  82.5551375  53.7369776  33.4717607  82.4825057
  66.0945177  63.3828163 108.4089247  65.6877518  64.1917944 108.7192939
  66.3403845  63.5705757 107.5030958  38.7828064  57.4719810  24.6844339
  39.4072199  57.1697187  25.3439617  38.6140776  56.7007780  24.1431260
  44.0911150  62.4796534   7.0030534  43.7778425  61.5834713   6.8807888
  43.2979488  63.0151844   6.9850951  53.9230824  63.2790899  39.0254259
  53.7399864  64.2172384  38.9745784  54.8777580  63.2191324  38.9903498
  43.1311226  49.9461842  15.8167768  43.5379457  50.0247478  14.9538994
  42.2238493  50.2186632  15.6795263  37.4533725  22.9054070   0.0712454
  37.4185276  23.8619614   0.0664424  38.3577156  22.6998663   0.3081993
  59.3229103  19.6761310  32.7047682  58.4078360  19.8068833  32.4562192
  59.5490885  18.8190389  32.3435664  27.5779605 144.5693409   9.1836321
  28.4890556 144.8157265   9.3431067  27.1378016 145.3955978   8.9841551
  76.6645956  43.8018417   8.0982715  76.4015913  44.6125031   8.5340345
  77.5582886  43.9696789   7.7993202  40.7547617  43.5312510  16.9371009
  41.2139559  42.7400637  16.6553223  41.3857508  44.2372179  16.7967594
  35.5278373  33.1816411  45.9792805  35.3658628  33.5664034  45.1179123
  34.7518134  33.4073496  46.4921904  41.2883997  41.1326885  88.6675318
  40.4164457  41.3803339  88.9751085  41.2564468  41.2702656  87.7208098
  59.4006252  48.9657021  79.8227080  59.4655991  49.3047333  80.7154950
  60.1685476  49.3209505  79.3751272   9.4769222  55.9776735  19.0079713
   9.4696498  55.0960159  19.3806112   9.9214989  56.5121365  19.6659458
  48.6013126  64.8929310  27.3090601  48.3355093  64.7074413  28.2097125
  47.8190136  64.7149515  26.7869806  24.6247959  11.9864416  24.6051168
  24.7886252  11.2084150  25.1380944  25.4624224  12.4495602  24.5935369
  18.8540101  40.0962734  13.3103359  18.0199170  40.4448462  12.9956698
  19.5075905  40.7237339  13.0015373  22.0657063  63.2996750   6.9118965
  22.2510314  63.8739109   6.1688316  22.5929737  62.5178385   6.7477375
  34.4060612  27.7428436  17.3791015  34.0991855  27.8474116  18.2797265
  35.3492880  27.6026678  17.4622107  41.6205835  33.4351969 100.5580708
  41.8365860  33.6649227 101.4618411  40.8533716  33.9692044 100.3520271
  34.6169233  71.9914246 109.1104668  35.0141692  71.4358187 109.7810869
  35.2547884  71.9987249 108.3968093  62.4075985  40.3031158  13.5346091
  61.4695168  40.2303171  13.3587372  62.5208664  39.9062777  14.3982780
  52.1202087  55.9665155  82.3820170  51.4894533  56.6357183  82.6476201
  51.7260027  55.5583096  81.6111764  58.8661623  65.2805996 104.9858313
  58.7960434  65.2986240 105.9402894  59.7280550  65.6541538 104.8018959
  91.2477589  25.8933401  44.6651840  91.7370033  25.3123403  44.0826845
  91.9165516  26.2952161  45.2196550  42.5437832 145.5543418  86.8385323
  42.7019882 146.0223110  87.6584157  41.5957308 145.4242500  86.8160947
 109.0671331  34.7599196   4.5518020 109.5963318  34.2748380   5.1849514
 109.7032005  35.2638221   4.0441281  29.1398072  42.2429323 102.4745705
  28.4823561  42.8575659 102.8004708  28.6878181  41.7492914 101.7902770
  41.5785027  25.1814151  13.8727081  42.0376730  25.1748538  14.7125590
  41.4988995  24.2573571  13.6360335  42.5286102  52.9484844  14.1326308
  41.7227554  52.9131985  13.6172807  42.8420496  53.8465881  14.0258706
  45.9566784  42.7177286  39.1977620  45.4395580  42.2929907  38.5133529
  46.7858458  42.2395182  39.2030168  24.1418195  27.4884343  71.6055012
  24.6628666  28.0318642  72.1966219  24.5286441  26.6159511  71.6787815
  22.3054099 144.6378216  27.9199696  22.6899695 145.4976148  27.7493787
  22.9149055 144.0188129  27.5180078  29.9226809  60.3407907   4.5251000
  29.9150586  60.1341629   3.5904998  29.4129658  61.1478710   4.5961240
  32.6642013  46.9392109  84.5142158  32.6324701  45.9825563  84.5076307
  32.0044208  47.2051477  83.8737496  40.7595634  28.0710053  15.6774366
  41.3000250  27.7332592  14.9632514  41.3879776  28.3311391  16.3509798
  58.4684563  53.8377762  82.4023923  59.4050741  53.8023853  82.5966128
  58.3897209  54.5083094  81.7238506  29.4469404  81.4326096  21.2269235
  29.0867376  81.2402153  20.3612041  28.6789489  81.5252304  21.7907000
  47.8087091  40.9432745 108.3773904  46.9150782  40.8319235 108.7018284
  47.7256441  40.8940840 107.4250712  25.9614992  15.3991735  10.7033193
  26.6342998  14.8647785  11.1252117  25.3712583  15.6469154  11.4149868
 107.5093848  50.1993942   0.2739220 108.0036575  50.7079554  -0.3689587
 107.9000003  50.4333162   1.1159031  38.6673856  21.7649388  54.5635891
  38.4661555  22.0648503  53.6771393  39.3743253  21.1302161  54.4469929
  21.9660783  40.3640318  25.6674838  21.2886214  40.9736538  25.9601355
  21.8484569  39.5917225  26.2206006  50.5550385  48.4022522  37.1464396
  50.5156708  47.7984333  37.8881192  50.6109047  47.8343391  36.3779449
  54.4549894  37.2600389  21.1801195  54.3182230  38.1265974  21.5630078
  53.5721445  36.9293737  21.0143685  33.1743193  41.3919353   8.1231588
  32.5025225  41.7505884   8.7030625  33.4747100  42.1429443   7.6113224
  50.4313993  59.9211073   3.2766587  51.2997484  60.1229763   2.9281577
  50.4847050  59.0007496   3.5342112  35.6200147 144.8792187   4.5925677
  35.4608440 144.2072732   3.9297059  34.8966217 144.7810323   5.2116722
  28.7349606  55.7347202  19.9078059  29.0975833  56.3747215  20.5202866
  27.8647542  55.5377817  20.2544880  52.7550697  53.1765175  91.7620310
  53.3505917  53.9257336  91.7457517  52.5086355  53.0465031  90.8462819
  12.8964949  62.5355911   0.8556613  13.4638572  63.2647562   1.1059627
  12.7155447  62.6807547  -0.0730022  44.5360470  29.2453694  45.0296593
  44.6582937  28.3629394  45.3798151  43.7809277  29.1691208  44.4463873
  75.5024529  33.9918923   3.4706187  75.5512953  34.9372435   3.3286494
  76.1945391  33.6304641   2.9168937  27.8228402  61.2781954 102.9335203
  28.4992695  61.8243980 103.3339407  27.9767156  60.4044580 103.2928743
  45.3983736  24.9559855  21.2599707  46.1676073  24.7860456  20.7162523
  44.8581076  24.1718864  21.1623430  27.2411871  59.2848587  93.5998484
  26.8377519  59.6645069  94.3804511  27.6085973  60.0344419  93.1314799
  59.5799160  58.9964819  77.8377827  59.7746563  59.0945530  78.7698182
  58.6528969  58.7595987  77.8104218  74.4671154  76.6719770  76.9894203
  74.9642849  76.8738985  77.7820619  74.6679926  77.3914623  76.3909014
  42.8550243  61.9480467  34.6894383  42.3286629  61.1539984  34.5963740
  43.6879635  61.7338753  34.2692351  72.9315424  33.0994463   3.8648176
  73.8747072  33.2608652   3.8401237  72.6462173  33.4737992   4.6982950
  46.5536451  58.9304733 107.2628664  46.0910273  58.1546640 106.9461047
  47.4709320  58.6606646 107.3077799  23.5215902  37.8542018 108.9652392
  23.3651876  38.6333752 109.4987708  24.4308972  37.9388404 108.6784863
  46.4853287  51.9553185  79.0097507  45.9654808  51.5841722  78.2968434
  46.5374327  51.2535906  79.6586689  67.2177267  56.4063454   1.5828973
  67.8093672  55.7437325   1.2263300  67.7404451  57.2079468   1.6035597
  61.9499922  49.3929577 104.4554969  62.5261164  49.1245317 103.7397715
  61.1993694  49.7969532 104.0200874  15.0070894  12.8580666  11.9577539
  15.1359391  11.9291031  11.7662942  14.5771837  12.8689814  12.8129113
 114.2238397  77.6737976   1.9934024 114.3803126  76.7715359   1.7147027
 114.4899315  77.6900673   2.9127297  11.2123084  36.5109396   2.4548306
  10.2569711  36.5288615   2.3978892  11.4771581  37.4214339   2.3241204
  79.5145369  57.2185516  10.0878561  79.3179846  57.6736784   9.2690420
  79.9007273  57.8910589  10.6489480 121.0420660  69.5964098   4.8397914
 121.9837195  69.7653961   4.8087335 120.8170668  69.6640491   5.7677096
  48.5728312  10.3291476  40.7595015  49.2087221   9.8969454  40.1893473
  49.0238380  11.1145735  41.0692263  39.1233444   9.8637140 109.3590628
  39.8244882   9.2237097 109.2364875  39.2950392  10.2451324 110.2200345
  67.8478956  43.9893246  14.1541541  68.2916069  44.7204161  14.5841014
  67.3522854  44.3949032  13.4427416  34.4026995  28.0699492  21.8468165
  34.8959899  28.0770588  22.6670861  33.5184288  28.3379412  22.0967770
   0.0680391  54.2280531   6.6778326  -0.6910460  54.0169716   6.1342645
   0.7786890  53.7016678   6.3115984  76.3109398  16.2059486   4.2930543
  75.4597616  16.4435804   4.6608353  76.1404133  16.0736752   3.3605003
  58.1013346  65.4989576 102.4559321  57.2003603  65.8201313 102.4195012
  58.2664394  65.3539801 103.3875718  62.4665499  64.4856882   5.9077793
  63.1863403  63.9027643   6.1493045  62.2774315  64.2673492   4.9952030
  25.2539206  26.4325452  76.7184647  25.7663155  25.6363726  76.8591531
  25.3361487  26.9184232  77.5390705  44.9538612  49.6041822   5.1859939
  45.1494360  49.3752909   4.2773733  45.0697660  48.7861443   5.6693298
  67.2157717  28.2943010  96.9296189  66.9870138  28.7715435  97.7272030
  66.8515873  28.8242912  96.2205967  45.6221819  49.5126915  98.5397800
  44.9311018  49.9212265  99.0610727  45.2030230  48.7492990  98.1425747
  53.4535360   4.3758073  97.7038058  54.3879366   4.5327264  97.5677653
  53.2056046   4.9901330  98.3947214  44.9522257  44.6950722  18.8568759
  45.4337931  44.7559309  19.6818721  45.0263691  43.7749767  18.6035812
  15.4664457  11.8308973  28.6706424  15.0665843  12.6810408  28.8539433
  16.3685405  12.0381212  28.4266853  38.1346059   9.3033350  25.6903386
  38.9622736   9.4115168  25.2218366  37.4721146   9.2651671  25.0004959
  39.0304828  48.2410812  22.3464060  38.4160018  48.7918234  21.8613005
  39.8531103  48.3167458  21.8628836 118.8286353  67.6468897  19.9989665
 118.5922868  67.5097513  20.9163332 118.3963854  68.4669018  19.7602761
  55.9125757  91.6866684  37.5463939  56.2908220  92.0922947  38.3265376
  56.6198111  91.1499023  37.1887159  28.6518764  15.9624600  12.3009706
  29.1346884  16.5164244  11.6875792  28.6573482  16.4535677  13.1225634
  35.6389236  46.2733793  92.4777659  34.7601390  46.5448952  92.2127184
  36.0004663  47.0375061  92.9267963  34.1729426  64.3825245   4.2958662
  34.0736079  63.5986185   4.8360991  34.6850920  64.0904236   3.5418037
  37.2411561  14.7404289 102.9601058  37.6239991  13.9822078 103.4014227
  36.9432855  15.3067458 103.6719980  17.6238501  52.0260334 103.3726361
  18.1150734  52.6747704 103.8766965  17.5275826  52.4194193 102.5053337
  89.0207767  66.3088369  14.3690431  88.8085556  66.5989637  15.2561855
  88.4415245  66.8208170  13.8046169   3.3011305  25.3716326   8.3397824
   3.8558173  25.1012659   7.6080334   3.9125592  25.5237079   9.0603793
  29.2597413  24.7569919  27.5752473  29.7679019  24.1806245  27.0044541
  29.8834682  25.4265666  27.8560734  54.9235439  41.2986422   3.0521283
  55.0513744  40.7047892   2.3123789  54.1296577  41.7865372   2.8331858
  84.5496559  30.1986432   7.3432893  84.5988560  29.2452359   7.4127537
  83.8799095  30.4508615   7.9789513  43.6495399  54.2370415 105.6109270
  43.7363720  53.7225866 104.8084127  43.5240555  53.5854101 106.3007572
  33.4563971  37.1515846   0.5630938  34.0245652  37.8474021   0.2325572
  32.7336836  37.1146035  -0.0634437  14.3076384  65.3671741  98.3292946
  13.7990570  65.1103640  99.0984675  14.6904099  66.2118769  98.5663518
  20.6709599  34.9301672  97.8382095  20.1506877  34.1412878  97.6858457
  20.9581089  34.8556376  98.7482759  51.2836933   7.1430659  30.0824142
  51.7435455   6.4700592  29.5805883  50.3682899   6.8633914  30.0755024
  68.1154776  58.6918402  37.1942830  68.6026812  58.9635658  37.9721165
  67.8636694  59.5124006  36.7706060  34.1663098  21.6173601  19.3412232
  34.2304230  20.6826591  19.1451168  34.9157381  22.0082831  18.8920367
  57.5162315  50.0607014  18.3360147  57.0211363  49.4834805  18.9173317
  56.9383812  50.1974392  17.5852680  38.9249372  61.3211107   9.8313290
  38.1394434  60.8776712   9.5110279  38.6529827  61.7243719  10.6557381
  75.5747128  37.8827286  33.5093045  75.9505606  37.2390246  34.1098189
  74.6330070  37.7131867  33.5351896  61.7308044  85.1845169  96.4723869
  61.5796614  84.8448181  95.5903503  60.9763718  85.7479095  96.6446027
  77.5087547  36.4421797  84.3657017  77.6109743  35.7064104  84.9693775
  76.5992260  36.3868999  84.0725613  49.3217564  64.8197842  21.1812536
  48.7348700  64.9144650  21.9314710  48.8117886  65.1383924  20.4365102
  40.8151531  14.7229707  93.3219147  41.3070250  14.1867542  92.7000141
  41.3622618  15.4968691  93.4560108  45.3169346  27.2675276 109.4530678
  45.6378651  27.3525596 108.5552883  45.8597469  27.8716111 109.9596882
  55.7994556  43.7544727  73.3719635  55.8964682  42.8268051  73.5870314
  54.8724508  43.9395475  73.5224199  64.5749140  44.7506809 102.7821922
  65.2369976  45.2458525 102.2998142  63.8838053  44.5866919 102.1405411
  12.9841053  11.1490715  13.4834901  13.0972719  11.5145493  14.3609086
  12.3088980  11.6957009  13.0815927  30.3860569  48.8097429 109.6267223
  30.5602670  47.8821659 109.4670677  29.7236729  49.0443659 108.9767742
  17.2910655  15.0277233  78.8599014  17.2608125  14.5621550  79.6957016
  17.6503599  15.8877861  79.0776873  31.6145229  27.5783324   2.2869817
  32.3529363  27.4374032   1.6944352  32.0193934  27.7658033   3.1338445
  58.0360413  10.7672513  10.1150552  58.1841469  10.0088966  10.6800309
  57.1143293  10.7031977   9.8649064  29.7971487 139.5575047  26.6491834
  29.8696399 139.5108099  25.6958715  29.5629287 140.4683644  26.8272439
  47.6338625  15.4414546  33.1316900  48.4687710  15.1267576  32.7850986
  47.0295334  15.3815269  32.3918056   9.3619436  52.2813702   2.6114312
   8.5881960  52.4091578   2.0626012  10.0298095  51.9508600   2.0106450
  38.2381177  50.4516840   5.6978360  37.8768468  51.1292839   5.1263658
  38.8849258  50.0006008   5.1552526  60.7395792   0.3079248  13.1801263
  61.6578293   0.4745322  13.3929387  60.5839252  -0.5888217  13.4765188
  87.3503113  18.3035111  93.1761551  87.8955269  18.9270961  92.6964569
  86.5712643  18.8038361  93.4190273  40.1735735  49.3351126  85.3704643
  40.7968426  49.6918726  84.7376156  39.4014168  49.1161966  84.8488522
  21.9068599  62.7052641  15.8152238  21.4516115  61.9883680  15.3735868
  22.2016144  63.2753754  15.1050607  75.1254129 134.7157044   0.5967752
  74.2764139 135.1440985   0.4876367  75.6164026 134.9531979  -0.1898345
  58.5625792   8.0961460 100.9197426  57.8898764   7.8788489 101.5650940
  58.9155388   8.9354682 101.2150192  72.1585369  42.2694540  15.1754037
  72.4224949  41.3934326  15.4567186  71.2544394  42.3558187  15.4776994
 124.1746972  17.3101306  90.3179646 123.4386090  17.0056403  89.7872162
 123.9129045  18.1824315  90.6125546  92.8763294 146.1714594 100.1691914
  92.9629803 145.7446709 101.0215855  92.5507927 145.4834023  99.5888138
  36.2231278  23.9214540  88.0396652  37.0729327  24.2053413  88.3765221
  35.8665085  23.3623505  88.7299252  26.6111231  45.6756067  79.9299526
  27.0715594  46.2378502  80.5529404  27.0420480  45.8435488  79.0918970
  29.6579218  29.6149135  50.8600140  29.4554305  29.7147775  49.9298239
  29.7939610  28.6745453  50.9759140  75.7231903  50.0227308  34.7702638
  75.6679201  49.5837593  33.9214555  76.0436630  49.3477631  35.3685609
  22.4377704   6.9511741   9.9344674  22.9314089   6.8962198  10.7527200
  21.7830896   6.2562001  10.0025693  71.6679096  28.0204487  92.9540920
  71.1393881  28.7894201  92.7405834  72.4717951  28.3791947  93.3299923
  28.4902167  19.9630356  88.1493092  27.7305722  19.4809699  87.8225327
  28.3721352  19.9809039  89.0990353  46.9655657  11.6885829 102.3750877
  47.7934170  12.1369839 102.2023582  46.4805317  11.7559624 101.5526295
   6.3489282 114.5387692  14.9324170   7.1795779 114.8950119  14.6172277
   6.4541757 114.4904775  15.8825818  32.5743532   3.7432337 103.5953999
  31.7980909   3.8856786 104.1370201  32.5141859   4.4093996 102.9106808
  36.5078688   4.9915850 104.1366196  37.3717093   4.9227226 104.5431519
  36.0986662   4.1414788 104.2981911  82.8116798  60.4859066   7.4492112
  82.0429325  61.0513067   7.5239698  82.7925873  59.9496508   8.2418577
  56.1704063 131.2464697  19.1307298  56.6201019 130.6807596  19.7584001
  56.2310266 130.7768948  18.2988302  15.3470731  60.7452631  15.2089731
  15.8793068  61.3909388  15.6738035  15.6945515  59.8996353  15.4925290
  27.1467853   6.6160023 105.8144665  26.2018347   6.5157908 105.6993294
  27.2514105   7.4928707 106.1837769   2.8005564  11.2572837  19.4377271
   2.9288319  11.6552019  20.2987996   2.7404490  12.0001793  18.8371221
   0.2761531  30.4108405   2.3326055   0.6379852  29.8975730   1.6102067
  -0.5088560  30.8186746   1.9670049  42.4698114  63.1649113  84.3744755
  42.1015596  63.4986162  83.5563850  43.1941509  62.6028681  84.0993977
  46.9734287  30.6172371  15.9912626  47.3445988  31.1739063  15.3067342
  46.7875099  29.7879076  15.5509511  59.6998549  14.5445788 104.8579216
  59.7339821  15.3995740 104.4289112  58.9673233  14.6129274 105.4702568
  26.1703920   5.4338175  69.0288353  25.5458307   4.7189260  68.9060163
  26.8585300   5.2638394  68.3855581  44.3714619 127.1011860  43.4852926
  44.1545439 127.3015244  42.5747720  43.5231066 127.0085520  43.9188043
  40.0046968  22.2095180   0.7676927  40.5312920  22.0587635  -0.0172957
  40.6466484  22.3232746   1.4685384  69.9852705  54.1327953  13.4716932
  69.8146772  54.2871714  12.5425569  69.7949934  54.9711323  13.8926641
  32.3488474  14.6054769  70.0717068  32.9452944  13.9184666  69.7742128
  31.4900327  14.3338084  69.7478771  83.9290619 122.7445383  70.2300739
  84.2620277 123.6188216  70.4325342  84.4279289 122.1601338  70.8008957
  41.6492367  35.4871154  11.6751520  41.8350029  34.6929884  12.1762315
  41.6983175  36.1936164  12.3191110  69.9668646  52.9745483  25.7767717
  70.3111458  52.6625919  24.9398748  69.0250921  53.0630636  25.6302873
  53.8390779  54.9500418  96.0632610  53.8339901  55.9041405  96.1400890
  53.2664871  54.6498585  96.7691422  58.2712984  11.9259000  86.3402939
  58.3935022  10.9876776  86.1952496  59.1128159  12.2268784  86.6830635
  65.4662848  10.7637322 102.1652222  66.3261795  10.3728616 102.3202610
  65.5661488  11.2439108 101.3432217  47.0036221  24.9635577   5.0151101
  47.0010185  24.9167156   5.9711591  46.7321873  24.0904665   4.7317926
  44.0628958  42.7270889 102.5067711  44.2896175  42.4194813 101.6291618
  44.7939157  43.2911301 102.7591610  38.4999585  12.8851306 104.4122410
  39.2085218  12.9539907 105.0521088  38.0461621  12.0747352 104.6436691
  52.4912643  18.4990966   5.9592191  52.6096678  17.7886975   6.5897313
  51.7071676  18.2547617   5.4675714  22.7333117  19.7801816  93.6467838
  23.1260777  19.9142015  92.7842236  22.9788470  20.5594540  94.1454601
  42.3190594 120.2368707   0.2309743  41.4761066 120.1746912   0.6801931
  42.9338121 119.7891469   0.8122197  31.3754201  16.6539466  87.4297142
  32.2051454  16.9605732  87.0639706  31.3722062  15.7119966  87.2595596
  61.9841146  38.2033730  15.5508748  61.5276432  37.3886633  15.3408376
  62.7510786  37.9258919  16.0518781  69.7221422  22.2517657  84.5296574
  69.3042231  21.4545774  84.8553467  70.6075144  22.2233748  84.8923492
  59.9596071 133.5733039  10.7840673  60.4077196 132.7374310  10.6546823
  59.0507507 133.3981032  10.5401174  22.1884775  12.9163432  10.2547208
  21.9067383  13.0443692   9.3489305  22.7380013  13.6767924  10.4443876
  35.3801036  18.4354520  11.3752786  36.2284875  18.0086875  11.4950601
  34.8954558  17.8468001  10.7966272  55.2714300  35.8654165   7.6120225
  56.0891628  36.3415098   7.7565233  54.6453142  36.2788939   8.2063714
  56.8283844  41.8974733 105.4969025  56.0946560  41.4688110 105.9375000
  56.6487932  42.8332567 105.5879307  58.7042093  13.8346088  98.0190182
  58.6175203  13.9033020  98.9698124  58.7524843  14.7415519  97.7167702
  47.1681166  11.4968705  26.1465684  47.7736092  11.2971187  25.4326288
  47.4040222  10.8808005  26.8401376  14.3451512  42.0592594   3.7397138
  14.0321076  41.2807274   3.2791463  13.9872611  42.7931595   3.2401697
  71.0740280 144.4222541  89.3313980  71.1241865 143.7386573  88.6632633
  70.1549006 144.6895308  89.3320656  25.3199530  46.3296509   9.1649190
  25.5812454  47.1587086   8.7641374  25.8617997  46.2624168   9.9511186
  49.3098259  17.8803766  60.9448576  49.7457457  17.0289660  60.9810400
  49.9674892  18.4707439  60.5771923  41.2189245 143.1527082  82.2674370
  41.3695383 142.4917180  82.9431915  41.5569496 143.9640693  82.6464748
  50.4787016   5.7629818  91.2882900  50.5821943   5.4043019  90.4068851
  49.7325277   6.3584459  91.2184715  38.6523962  16.8834782  95.2976894
  38.3586383  16.4380574  96.0923862  39.6023345  16.7658305  95.2944088
  42.0321989  21.9628334  86.1260700  42.5412941  22.3348236  85.4058838
  41.2217999  21.6610718  85.7156754  24.5720243  73.7772846  84.8567677
  24.8327518  73.3582449  85.6769180  25.2948046  74.3698740  84.6502304
  49.8120117  22.2327185  90.2198410  48.8639975  22.1932936  90.3461266
  49.9809837  23.1369376  89.9551392  40.9959793  45.5843401 106.0924911
  40.1791668  45.0853014 106.0891247  41.6404343  44.9863625 106.4710903
  32.5436020  42.9374933  93.4627247  33.3015776  42.4090290  93.7125778
  32.0770144  43.0905676  94.2843628  83.3695316 138.2374711  20.0147764
  83.9224529 137.6714755  19.4761125  82.4958611 138.1522877  19.6330968
  46.5996456  28.1662440   2.4254648  46.3434935  28.7596583   1.7194406
  45.7839775  27.9820180   2.8912774  33.5926461  40.6808376  14.8501245
  34.4109488  40.2659893  14.5771543  33.8634157  41.5145063  15.2347223
  64.0789843 146.7384257  98.4807968  64.7846556 146.4408144  97.9066181
  63.6262226 145.9357868  98.7396622  24.4908023  13.1086516  28.9623586
  24.6079493  13.7697566  29.6445981  24.8626566  12.3099053  29.3364755
  27.6884985  20.3662324  13.7343160  27.6258183  21.2215757  14.1593973
  27.2767425  19.7613502  14.3514100  74.8220921  31.8426704  94.5710468
  74.6412468  32.7796721  94.6455669  75.6101751  31.7082310  95.0974274
  66.1403608  46.8486786 100.6627178  65.6548691  46.8793917  99.8383522
  66.3383102  47.7645206 100.8583736  59.8424768 144.7780734  14.7655145
  59.1488743 145.0879993  15.3478376  59.4205856 144.1105085  14.2245904
  45.6993294 131.8580527  17.6858369  46.2916899 131.2899143  18.1783334
  45.4989147 132.5746174  18.2879964  64.1291809  40.0603247   3.8263170
  64.1473341  39.1684175   4.1733114  64.4605207  40.6025982   4.5421258
   4.0055835   4.9571612 100.7846737   3.9407951   5.7449561 101.3245010
   4.4495535   4.3195516 101.3437653  41.7702579  26.6609406 106.6680050
  41.1966610  27.1732855 107.2378445  41.3478613  26.6951656 105.8097267
  57.4598885  40.7229948  16.8047849  58.3316183  40.8620787  16.4346830
  57.6233053  40.3222275  17.6585428  55.3889179  36.2208271  93.3668900
  54.8001003  36.9752932  93.3842754  55.3325939  35.8936930  92.4690914
  44.8019218  30.9706879  89.7004890  44.7787428  31.3900781  88.8403702
  43.8839245  30.9192514  89.9666977  42.9783630   9.7465688  79.5166397
  43.2895899   9.6864903  78.6134434  43.7427521   9.5252693  80.0485897
  25.8064103  49.4858122 102.2172928  25.8865762  49.3846416 103.1657505
  26.6899419  49.7094679 101.9247532  22.8411674  23.9214206  75.8758974
  23.6171436  24.3698454  75.5397272  22.5799108  24.4351625  76.6401243
  70.4861259 131.3080628  10.4925958  70.4929638 130.5473489   9.9116460
  69.5578146 131.4838965  10.6460515  46.8635893  25.9740329  12.2806875
  46.3321114  25.4322743  11.6973630  47.7580976  25.8684802  11.9567338
  58.2657480  28.1316590  97.2061539  58.1258821  27.2572088  97.5694752
  58.5696936  27.9738426  96.3123226  33.7790775  33.8693118  68.9693260
  33.3720851  34.2785931  69.7329235  33.3570504  33.0127120  68.9032793
  53.4797668  63.3356571  76.6936255  53.2685995  63.8815403  75.9362268
  54.0166187  62.6281118  76.3366890 113.1800062  16.7890990  81.8289852
 113.5413868  15.9443092  81.5607166 112.2314186  16.6663015  81.7924404
  14.4329464 128.9650387  86.7175770  14.1869032 128.5482568  87.5434017
  15.0717795 129.6327097  86.9672585  37.3826313  47.5103331  72.4056864
  37.1038437  46.7988491  71.8292284  36.9557023  48.2891178  72.0486641
  31.2647605  46.1796188  90.4858685  30.5039501  46.6867781  90.2026844
  31.7403793  45.9895563  89.6772289  74.2924690  30.9264755   4.2882959
  73.7366390  30.3500509   4.8127214  73.6787796  31.5100384   3.8421193
  65.9561443  24.8861670   1.1679403  65.5571461  24.3161869   1.8253270
  66.8788481  24.9314833   1.4185182  25.6557965  42.8359938   9.6824876
  26.4849448  42.9576874  10.1450197  25.3296709  43.7242079   9.5377485
  23.9764762  91.7932815   7.5879232  23.5798621  90.9868116   7.2584668
  23.8541389  91.7503042   8.5362951  48.4491587   7.6873869  91.1273956
  48.6239338   8.2956517  91.8455124  48.0367231   8.2261240  90.4521942
  43.3742952  60.3572893 106.7825794  44.0434027  59.6769619 106.7072201
  43.8687897  61.1656427 106.9177532  32.5200152  35.3544784  93.7271118
  31.6583085  34.9691963  93.8860226  33.1387544  34.6648717  93.9675999
   6.5482390  43.4247255  96.7143536   5.6894660  43.0145073  96.8166256
   7.1194535  42.9354000  97.3063850  32.3312140  30.5063772  89.8030853
  31.6289330  30.9349227  90.2923489  31.8812561  29.8752403  89.2414570
  48.8530350 145.2568933   3.9999429  48.0499172 145.2113515   3.4811441
  49.5537472 145.0781202   3.3728257  39.8960066 129.7822554  -0.2997073
  40.7789660 130.1300044  -0.1744708  39.6804190 129.3692584   0.5364744
  44.2703104  33.7387490  91.5102196  44.2513227  33.3382916  92.3794174
  43.4288883  33.5030341  91.1194801  69.8000050  46.8941927  41.2988416
  69.6148539  47.7897978  41.5814153  69.2555046  46.7709589  40.5213109
  25.4496288  56.8886995  81.4497185  26.3514209  57.0340157  81.1635590
  25.3809953  57.3656511  82.2767830  15.4673326  19.9558866  80.0816250
  15.8639181  19.4251966  79.3907404  15.4356599  20.8400059  79.7161627
  12.0486188  49.5897532  85.2813053  12.4862409  49.5118093  84.4335747
  12.7524793  49.4982243  85.9235191  15.4812896  49.2540169 107.1259022
  15.7712770  49.9928284 107.6609707  15.8689678  48.4867048 107.5468159
  22.2381115  30.9217715  82.7809143  22.8305697  31.1800218  83.4869766
  21.7889333  30.1461172  83.1168175  37.7842450  25.4628134   0.4788343
  38.4069109  25.8953476   1.0631601  37.0857358  26.1054707   0.3551046
  41.7590904  62.9733372  10.2205697  41.1011648  63.3762455  10.7871667
  41.2552023  62.4176693   9.6259633  80.1988411   3.9184326   1.4207498
  80.9226036   4.4783679   1.1399213  79.9352646   4.2751169   2.2690049
  52.4327850  16.5912414  66.7881870  53.2485723  16.3661265  66.3409233
  52.0088577  17.2244108  66.2088680  60.9452152  12.3674011  86.3303947
  61.6665506  12.9801679  86.4732933  61.1430597  11.9566250  85.4887581
  52.6199627 145.7438994  22.0835153  53.4031630 146.2808607  21.9631139
  52.6379871 145.4980482  23.0084363  48.6428738   6.2226290   1.5933362
  48.6810875   5.2662009   1.5975229  48.2017708   6.4411163   0.7724038
  26.8975449  26.9131303 100.7688713  26.3554239  26.1833715 101.0685158
  27.3123670  26.5906072  99.9687862   9.2746496  45.8197021  22.4321500
  10.0413835  46.2930202  22.7551309   8.8290703  46.4462328  21.8619291
  52.2162676 143.3048851  93.9463329  51.4904547 142.9401884  94.4527245
  52.0417404 144.2457000  93.9210224  37.7526021  46.4442730  10.9987489
  38.0984020  45.5662346  10.8384172  37.9967809  46.6362143  11.9041578
  30.3742409  47.2261143  69.4703102  30.1523161  47.3908663  68.5538816
  31.2488627  47.6004219  69.5759678  55.3770590  29.0103769  29.3458120
  55.1367664  29.7210932  29.9402658  56.3149595  28.8844872  29.4897691
  55.7399464   1.2784000   4.0871373  56.5039968   0.7734935   3.8087026
  55.6781912   1.1195766   5.0290529  27.7010560  24.1393304 104.8563194
  27.2627425  24.9900913 104.8385048  28.4899163  24.2871976 105.3779221
  37.7396989  11.0636699  49.4877434  37.1768355  11.2454128  48.7351608
  37.3897672  10.2535093  49.8584461  38.1690264  29.9696565  91.7532825
  38.8379598  29.6847367  92.3758411  38.6580253  30.1900935  90.9604836
  46.9522095 136.6196234  22.2119085  46.9228315 137.3417200  22.8395597
  46.6227865 135.8647687  22.6996557  55.1854467  33.7697196   2.0061437
  56.0019732  33.2940865   1.8535272  54.6014166  33.4730697   1.3081876
  46.1529732  47.6997948  81.6075706  46.6217327  46.9083261  81.8722820
  45.3143883  47.3811388  81.2737179 113.3001704  26.2511778 109.8421955
 113.1699616  26.5989327 108.9599514 112.6309461  25.5729175 109.9334717
  35.5225420   0.3764443  93.9369678  34.7833300   0.0461411  94.4475555
  35.2468252   0.2787330  93.0255604  63.0831194  12.9767931  20.6740705
  62.8656340  13.6263680  21.3426343  62.7411509  13.3469522  19.8602716
  51.0718298 133.7436850  68.6756945  51.4890671 133.4681375  67.8594732
  51.5745211 134.5087917  68.9552450  43.2264566  27.1571994  96.6873646
  42.9274368  26.3735938  97.1486378  43.9383507  27.4972081  97.2294331
  59.8346996 145.8309300  79.0360880  60.4361725 145.5604718  78.3423233
  60.4021931 146.0313494  79.7804117  51.8393755  20.0026965  71.2792015
  51.0008717  20.4404068  71.4259958  52.3540831  20.2027154  72.0610571
  51.4040518  23.3143473  96.3170815  51.1059475  23.1710958  95.4188347
  51.3630342  24.2634225  96.4345646 113.7734127 141.1114968  85.8461666
 113.1648159 141.2101854  86.5783596 113.2767963 140.6289352  85.1853085
  31.6356421  37.1244931  74.7815895  30.9160185  37.1103811  75.4126024
  31.2193894  37.3457313  73.9485121  45.9478664  32.5057220   3.9714280
  45.3679943  31.9179749   4.4557134  45.9951639  33.2943821   4.5118085
  58.9610720 143.4928558  25.1777974  59.9080086 143.3742995  25.2518503
  58.8502073 144.0683878  24.4210283  43.5403299  23.1352258  84.2053890
  43.5224438  22.3401999  83.6726189  44.0848207  23.7450147  83.7074757
  15.3129780  28.3921599 105.1130009  15.2916336  29.2944765 104.7942543
  15.6439757  27.8842402 104.3722725  61.9052649  -0.3047339   9.9529306
  61.3669014   0.4784222   9.8386327  62.5892496  -0.0376671  10.5669919
 120.8276779  20.6773162  17.2865335 119.9039096  20.6945515  17.0363656
 121.2571949  21.2562990  16.6568319  63.1339359  35.5867434  82.3413181
  62.5856447  34.9073029  82.7337074  62.5451374  36.3325143  82.2256565
  30.1270461   9.8621029  89.9719906  30.1819134   9.3061978  90.7492924
  29.8523617  10.7156920  90.3069019  66.2603426  38.2224321   4.8128454
  66.7941284  38.9776731   4.5660440  66.8954086  37.5543427   5.0708715
 114.3599839  22.5880718 108.9077377 114.0739722  22.6516390 107.9964828
 113.6247487  22.9333043 109.4141769  57.5939608 139.3332572  93.4544563
  56.9713926 140.0365997  93.2702065  57.4035645 138.6660309  92.7950668
  60.6864357   2.3887935 103.0815411  60.0500870   2.0747487 102.4391460
  61.5239382   2.0355298 102.7814960 121.0724614   6.1478645  11.4785043
 120.6012872   5.3212649  11.5831891 121.5219862   6.2747985  12.3139898
  75.2652884  28.8723135  91.6925716  74.6596861  29.2092204  92.3528576
  75.5878639  29.6532369  91.2427521  19.9294901  22.7645206  86.2997246
  20.1232529  22.7282071  85.3630447  20.4285860  23.5165000  86.6185760
  51.1056757 142.5083227   4.2743341  51.4061117 141.7068491   4.7028295
  50.1773214 142.5670386   4.5000402   3.0484387   7.3286104  65.5881357
   3.9471358   7.0039237  65.6442976   2.6260686   6.7550313  64.9487257
  68.7305450  51.9513941  84.7515106  68.8949919  51.2554979  84.1151810
  67.7808666  52.0701838  84.7364616  52.9016352  27.9114532  13.6334077
  52.0466375  28.1064653  13.2497636  52.8493071  28.2584047  14.5239774
  32.7074027  24.2999125   6.0049669  31.9412041  24.1492653   6.5585653
  33.2850718  23.5591364   6.1887685  56.9786024  14.5097840   3.3379880
  56.1226797  14.7274649   2.9688875  57.4183369  15.3541696   3.4373895
  47.3477173 135.2011389 102.7754402  47.0724010 134.5144612 103.3828068
  47.1372604 134.8530037 101.9089794  58.7240601  27.0674515  59.9618856
  58.6023474  26.2770629  60.4879133  58.1093407  27.6998186  60.3339902
  19.0187383 133.1445176  79.8296404  18.5480618 133.0691201  78.9995718
  19.1421521 134.0860231  79.9503374  46.0521173  12.9742527  77.6457500
  46.5895176  12.1860504  77.5672245  45.6069803  13.0457437  76.8013763
  37.0521116  30.3671122  36.2382737  36.1852956  30.1383805  35.9027997
  37.6077652  29.6284437  35.9895746  54.9423265  13.6490393 109.2292404
  55.0955248  14.5242810 108.8732719  54.3259430  13.7874639 109.9483681
  65.6869221  35.7712293  12.4077455  64.8371553  35.7725883  12.8483430
  66.3161564  35.9726620  13.1003610  47.4506378  23.5393119  83.0868149
  46.5759087  23.8355613  82.8351879  47.2934723  22.8434372  83.7250042
  66.6058969  35.5506301  21.1792795  66.9821787  34.7393870  21.5206376
  67.3370934  36.1682725  21.1694948  44.8900414  15.7578361   3.0440847
  44.8719454  16.3111651   2.2632352  43.9697123  15.6553686   3.2864038
  37.7874923  15.2885330  71.2393332  38.2977748  15.8691823  71.8038559
  38.4438181  14.7975016  70.7450104  11.6502655  37.9460025  19.7125379
  11.8426859  37.4765229  18.9008752  11.6333139  37.2649384  20.3849164
  68.1268740   2.7487537   2.8389493  69.0648794   2.8965700   2.7184144
  67.9169369   2.0369762   2.2343484 122.8349788  12.5769138   0.7218305
 123.6859855  12.2243214   0.9820215 122.3312107  11.8100369   0.4491559
  30.6367922  10.9051180  56.5067482  30.7203484  11.1954188  57.4150276
  31.4939070  11.0818613  56.1189985  28.6585474  31.9748950   8.9834539
  27.8872180  32.4784374   8.7232152  29.4001842  32.5221872   8.7252275
  51.6570711 128.6868806  10.7135907  52.0310116 129.5467729  10.5212728
  52.0623350 128.1010348  10.0742379  38.6258793  42.8372765  90.5710697
  37.8400874  43.2186222  90.9626484  39.1285205  43.5904598  90.2607536
  26.1487913  12.0171440   6.8417302  25.9078360  12.4832022   6.0411302
  25.3178501  11.8738329   7.2947542  39.7284007  21.3703656  84.5050240
  39.1948986  20.6494260  84.8394680  39.1345692  21.8663883  83.9414978
  64.1361475  34.8253489  96.9021893  63.2230806  34.5583391  97.0082283
  64.3779564  35.1944208  97.7516365  52.8188944  33.5502076  90.5676746
  53.0907822  34.1019797  89.8342800  52.1085835  33.0147743  90.2141094
  59.7407293   5.2740002  92.4336624  59.7715330   5.5181360  93.3586979
  59.3923235   6.0489637  91.9928932  76.3244295 142.1117390  63.4879732
  75.9311771 141.3803167  63.9640045  75.5891466 142.6918123  63.2902241
  58.6881256  35.8640003  46.6893387  58.5342598  36.6097951  46.1093855
  57.8126478  35.5372691  46.8967533  43.8013887  54.4713879 102.7218056
  44.7250605  54.5889997 102.9436874  43.3964682  55.3139591 102.9275799
  24.3110156  33.9681602  64.4395733  24.6992898  34.7571445  64.8177004
  24.3576908  33.3184671  65.1409674  45.6860256  40.1034307  81.1945534
  45.3702402  40.3656626  82.0592785  44.9562120  40.2938175  80.6051826
  38.8542819  45.9178829  74.4364691  38.3731651  46.7149067  74.2139721
  39.7004128  46.0193110  74.0005732  52.3251867  56.8801498  30.6320238
  52.4337387  57.5822020  29.9904847  53.1653786  56.4215612  30.6297040
   9.6085203  14.5935667  76.8586302  10.0131261  14.9777055  76.0808372
   9.0516973  15.2896082  77.2074938  56.8772316  40.2920866  78.2587004
  57.1466351  39.4328260  77.9341650  56.4972639  40.1147747  79.1191769
  35.5530715   2.6609236  72.6533842  36.0621667   3.4491211  72.8425884
  34.6408820   2.9429850  72.7210903  52.4840975   3.2753477  83.3255386
  51.8757868   3.0121401  82.6349545  53.1184769   2.5600186  83.3713531
  67.9107618  56.3927794   7.5143567  67.0524645  56.7037439   7.2265092
  68.5357237  56.9357491   7.0338956  49.4784975  38.6480618  64.8170233
  48.6497593  38.1821203  64.9280310  49.4679022  38.9419198  63.9061069
  52.2202063  26.7938066  98.9064217  52.2715187  26.2421036  98.1258869
  51.7195845  27.5598621  98.6257553  47.2373962  23.6316919  87.8661251
  47.9583454  24.0716600  88.3165550  47.3605394  22.7038074  88.0663776
  25.3493261  18.8811862  96.3805676  25.6656957  19.7039711  96.0075092
  24.6759176  19.1456473  97.0073128  48.2349491 146.0358440  72.9783535
  47.9482555 146.8250331  72.5187683  47.5501108 145.3917606  72.7983999
  18.4251952 140.5353499  92.3833084  18.9488983 140.5617608  91.5825176
  18.7800837 139.7962678  92.8773117  53.8492489 145.8021828  52.9317236
  53.1396103 145.2112053  53.1834984  53.8368177 145.7972879  51.9746161
  78.2313251  51.8669415  79.5217180  77.5134516  52.2070551  78.9876652
  78.4752512  51.0436201  79.0987873  37.6807117  27.6614380 105.2251625
  37.4184847  26.8049693 105.5626965  38.1813288  27.4638867 104.4335938
  51.0008764 138.3529193 105.5539703  50.0569057 138.4923572 105.6294823
  51.3277245 139.1487134 105.1343155  28.2093596  33.8778615  46.7510080
  27.4791121  34.4948053  46.7994785  28.8101792  34.2673230  46.1157370
  44.2956638 144.2536231  10.4621068  43.4020710 144.2143648  10.8029596
  44.3524790 145.1093684  10.0370160  81.6276455  43.8092995  52.9495907
  81.9183636  42.9206514  52.7445984  80.8693218  43.9499807  52.3826694
  95.1541042 138.3526278   4.4856778  94.2108250 138.3314598   4.6469060
  95.3120518 137.6190073   3.8914625  69.6250248  28.6080599  76.3007927
  70.1016235  29.3632126  75.9560776  68.7912273  28.6161256  75.8307457
  84.4265842  21.7574596  93.2809925  84.3129730  21.3409472  92.4266815
  84.0349293  22.6248407  93.1785488  77.9034281   9.5672184  89.8517227
  78.8083696   9.6887314  90.1390457  77.4787283   9.1169256  90.5818653
  43.4035635  25.6696105  72.3856020  44.2921686  25.3267145  72.4806452
  42.9648590  25.0420952  71.8111467  18.9395022 145.8059383  58.3729124
  19.7678173 145.3391183  58.2624340  18.2690001 145.1289553  58.2815170
  69.3818808  14.9545693  92.0260620  69.5146847  14.0968442  92.4296761
  69.9883080  14.9673057  91.2855721  17.5063443  25.1835942  86.2319183
  17.3887193  24.2648363  85.9905052  16.6539061  25.5859733  86.0655594
  38.0091310  31.7834091  74.0757370  38.6458135  31.0762477  74.1796112
  37.1650672  31.3374114  74.0059233  51.2477636  45.8495140   6.6307489
  51.6674805  46.6404057   6.9692270  51.7364359  45.6410646   5.8345262
  32.8325725  35.5436373  61.7674065  33.0158305  34.6102142  61.8740463
  32.3269963  35.7788730  62.5454092  61.2291861  29.4636035   0.8775750
  61.4395237  29.2659402  -0.0350722  61.6326952  28.7527895   1.3757268
  59.3448591  20.3690004  64.2106915  60.2782011  20.5279970  64.0699100
  59.0973520  20.9880972  64.8974895  56.3959980  18.1859171  89.2037392
  55.7260704  17.5329542  89.0010834  56.1305380  18.9623511  88.7108803
  30.9018970  46.7206192 100.1012516  30.0714397  46.5327740  99.6638870
  31.0586905  47.6490402  99.9289703  33.7929678  19.1909766   1.4068929
  33.8284874  18.8770437   2.3104516  34.6879911  19.0900135   1.0829011
  62.2119570   7.9273295  77.2324848  62.0016193   7.3532820  76.4959669
  61.9111347   7.4471301  78.0039454  50.5025864  24.7316742  85.5541039
  50.9315920  24.8917365  86.3946724  51.2225199  24.5654345  84.9455833
  50.0522995  63.4918976 105.1044464  50.5044270  64.2290735 104.6941090
  49.2286491  63.8625097 105.4214287  37.0499802  22.1554780  83.2618904
  36.3325906  22.0419812  83.8853455  36.8319368  22.9589581  82.7895451
  23.7031960  12.0666122   2.9538289  24.0785885  12.5544643   3.6868421
  24.2774653  11.3075984   2.8521196  54.1067696  14.4456279  51.9888926
  53.3766174  13.8734198  51.7529154  54.8881102  13.9197981  51.8178844
  53.4652472  65.4432821 107.4723053  53.5789061  66.3413906 107.1613216
  52.9080200  65.5264854 108.2461357  69.6765566  23.5943460   9.1313306
  70.3447199  23.8184214   9.7790853  69.5618105  24.3946505   8.6189119
  26.9754887  27.9205370  40.9181547  26.8423223  28.8065600  40.5813169
  26.1756945  27.7275586  41.4073610  30.2941108  31.2252259  91.4942551
  30.7456374  31.1819506  92.3371506  29.3662071  31.2821817  91.7222500
  29.9031544  21.3325286 103.2960129  30.3422904  20.8341026 103.9851856
  29.4613671  20.6695771 102.7653980  34.2942452  43.8955259  71.4422560
  34.9027848  43.6085272  72.1230936  34.5980453  43.4553289  70.6484222
  36.6535902  35.1372123  17.1065751  36.3908935  36.0481310  16.9744626
  36.3634920  34.6868300  16.3133279  22.5205374  59.1687059   2.5962011
  21.7717886  59.0609932   3.1827203  23.1752539  58.5544777   2.9283277
  25.4647040  58.4774446  83.5296726  25.3168154  57.9541397  84.3173981
  26.1764836  59.0717793  83.7670898   3.6519739  27.4654984 100.3116322
   3.9586496  28.3606458 100.4561806   3.2023889  27.4997544  99.4672775
  33.3551693  41.2089062 100.7497406  33.7695479  40.5067825 101.2512779
  32.9754376  41.7851400 101.4130592  32.7109861 127.8441686  68.1820488
  32.9157352 128.0247481  69.0994883  31.7671847 127.9886872  68.1143427
  57.3504543 128.0528671  79.1796303  57.1216774 127.2046084  79.5595694
  57.4135685 128.6426217  79.9309206  62.5058746 132.0212693  96.7752838
  62.4296522 132.6275463  97.5120640  61.7784023 132.2531874  96.1980247
   2.2419988 145.3591675  52.4150562   2.6397693 145.1152561  53.2508326
   2.1321738 144.5293092  51.9508314  49.9988222  39.6054792  91.5731430
  50.0623369  40.3895712  92.1184826  49.6775913  39.9254370  90.7301331
  56.9364262  19.2979348 103.9978218  56.0721922  19.1350222 103.6199379
  56.7976046  20.0199389 104.6107388 114.3052644  51.2631655 105.3129482
 114.2763013  51.7703581 106.1242199 113.4250898  51.3473606 104.9462986
  65.9808588  68.0365658  75.8848906  66.1137390  68.0051899  74.9374819
  66.8651676  68.0690241  76.2498331  72.3039293  14.8075593  80.8843040
  72.2392130  15.2057111  80.0162506  71.4528465  14.9754822  81.2888908
   3.6198711  37.1981049  14.1474763   3.8672701  37.4475765  15.0378648
   3.1724572  36.3580990  14.2496625  27.5897193   1.2551624  99.9273682
  27.0172238   1.2603682 100.6944752  26.9966602   1.1286306  99.1867638
  36.3931084  14.1385090  77.3281813  37.1612501  14.0361881  77.8900766
  36.6754580  14.7464716  76.6448879  79.4424343  46.2424755  96.5487385
  79.2315006  47.1646833  96.6946030  79.5300198  46.1641645  95.5987740
  63.6219358  38.4271216  69.8278093  64.0309906  38.9389372  69.1299915
  63.3292675  39.0800190  70.4636574  29.5427418 138.3773811   8.9267579
  30.2348280 138.9718456   9.2163507  29.2688465 137.9225928   9.7232381
  43.8429070  24.8670983  76.5508652  44.6806479  24.6712375  76.1312628
  43.1911230  24.4389534  75.9957933  30.2314329   5.8382100  92.8282547
  29.9092078   5.8492959  93.7295246  30.1484323   4.9244729  92.5554466
  57.7775240  20.2953696  71.2434721  57.8391457  20.1298428  72.1842337
  58.4312201  20.9743452  71.0764217  54.6978045  29.3621778  84.5627117
  55.2730227  28.8717318  85.1499271  53.9083052  28.8249612  84.4969749
  16.7897868  40.1423407 101.5432262  16.4259505  40.3423977 100.6807709
  16.6195452  40.9278393 102.0630741  63.1083393  10.2144897  89.4543076
  63.8615274  10.7679176  89.2477703  63.1600428   9.4950342  88.8250732
  70.8978748  67.3118591 104.9526215  71.7594719  67.7063799 104.8175907
  70.4680300  67.8863478 105.5862045  49.6429396  52.5348806  76.8119001
  49.8673773  51.7020130  76.3969469  50.3866482  52.7257967  77.3834610
  28.4113288   6.3077736  73.8748121  27.8272367   5.8447158  73.2742739
  27.9469943   6.3030499  74.7118330  70.5348015 143.2523058  83.6968803
  70.3017378 143.9209411  84.3409634  69.7037649 143.0174381  83.2840347
  46.2340355  33.0754042   7.5868264  46.4317036  33.8767791   7.1021024
  46.3880825  33.3055377   8.5030881  98.8806534  18.8857734  90.5294991
  98.6607742  19.2878461  89.6891308  98.7192917  17.9515457  90.3975582
  64.4903469  40.7143164  64.4440413  64.5435524  41.3186026  65.1844740
  64.7462320  39.8667026  64.8077822  27.0478749 142.1473096  71.5290689
  26.3695168 142.7598084  71.2446308  26.5928984 141.3097037  71.6164923
  37.2638178  63.2549381  82.3869038  37.7401972  63.1966925  81.5587139
  36.3771868  63.5136461  82.1355343  46.9716358  24.9526238  92.4199390
  46.4988518  24.5669031  91.6824341  47.5696373  25.5827022  92.0179176
  67.5362539 131.1282141  85.5586338  67.8741693 130.8729381  84.7002220
  67.1413708 131.9881756  85.4145336  42.0326424  14.9204087  87.5371552
  41.8966770  13.9761734  87.4586391  41.7543697  15.1291263  88.4289074
  55.6282568  32.1549416  84.9966335  55.2016640  32.6373029  84.2884064
  55.3963614  31.2400913  84.8369312  63.2522202  59.1183710  88.9724827
  62.3860788  58.8167906  89.2464733  63.7943363  59.0342665  89.7568703
  75.2934408  44.6808052   0.2831594  75.3429222  43.7769222   0.5942575
  76.1530542  45.0507307   0.4843084  52.5628567  23.1042600 102.2576332
  53.5167885  23.0282235 102.2360992  52.3509121  23.1972742 103.1864357
  16.7141223  37.6410270  84.0884781  17.2333062  38.4255147  83.9116764
  16.6620600  37.5984311  85.0433159   5.5542630 135.0830419  62.0269012
   5.1630461 135.8890135  61.6898680   5.0549537 134.8878235  62.8198814
  25.5444384  36.0267782 107.7813339  24.9222517  35.7091522 108.4357262
  25.6780529  35.2811766 107.1961308  68.1483650  23.6159992   4.8856012
  68.0600643  23.4856915   5.8297674  67.6674747  22.8852868   4.4969598
   1.3830480 139.4287951  74.1876888   2.0132099 140.1061059  73.9419746
   1.5923357 139.2263944  75.0995398  30.8117199   5.3775269  79.2445087
  30.0302196   5.3528792  78.6923504  31.3037467   6.1357492  78.9294815
  39.8091006  25.6555533  61.0154152  40.6866980  25.3808308  61.2810850
  39.5641947  25.0397801  60.3247118  35.7860494  32.7582598  90.9695339
  35.4536128  31.9108677  91.2655830  36.1486864  33.1620097  91.7580223
   4.7389436  78.6401701  71.0317564   4.4292608  79.5109272  71.2809896
   5.6356227  78.6005831  71.3643694  11.9651937   2.9220340  83.8832951
  12.8787792   2.6551175  83.9850235  11.4686918   2.2700967  84.3779659
  83.2993317   4.1725767  52.9765511  83.8099098   4.6348315  52.3118210
  83.1516266   4.8247072  53.6614895  40.1893950  35.6960416  64.4414520
  39.4805193  35.5148578  65.0586224  39.8267102  35.4662514  63.5859489
  15.6839955   2.0947015  64.2538881  15.5284619   3.0388263  64.2280102
  16.1219478   1.9013008  63.4250212  33.2467151  20.7315397  58.3719730
  33.1703234  21.0201883  59.2814112  34.0657020  20.2367640  58.3457136
  12.0000958   9.4552356  46.8227530  11.3206458   8.7849689  46.7498016
  12.5735617   9.1399312  47.5212860  36.2286878  21.6680741  69.4595909
  35.3484058  21.5941525  69.0909815  36.7192507  22.1706867  68.8092375
  65.6786823  34.7170544  86.0457039  65.0699043  34.0583682  86.3799953
  65.6522179  34.6071815  85.0951958  42.2747755  26.7455506   3.3791486
  43.1631374  26.7448068   3.0227224  42.3862791  26.5122199   4.3007604
  59.1611052  34.0982223  10.1264516  59.8308277  34.0106487  10.8047048
  58.6470890  34.8599696  10.3943387  76.0669088  34.8937249  67.8183937
  75.2830887  34.3637300  67.6736164  75.7463789  35.6792617  68.2615900
   4.6134591  15.4422486  71.8875217   4.2318988  14.5664227  71.9473076
   5.3376579  15.3462923  71.2690115  56.6745758 134.7652049  90.4537296
  57.4596167 134.8466713  89.9121475  56.7252350 135.5029876  91.0614586
  52.7997351  29.0228653  75.7108307  53.1928635  29.8359418  75.3936672
  53.1357527  28.9260077  76.6018677  52.6756954  15.0265038  84.2202759
  52.6205826  14.4945920  85.0141716  51.8384123  14.8849392  83.7785149
  41.3797140  15.1983905  61.3439178  40.8928728  14.3751538  61.3051891
  42.2476482  14.9486840  61.6610479  36.9234943  32.2323298  76.8862724
  37.2826147  31.8682694  76.0771179  37.6734638  32.2850871  77.4787235
  32.2547507  41.0201836  70.2143621  31.8900919  40.8467340  69.3465042
  33.1986237  41.0849762  70.0689840  26.4534378  21.1710405  72.9998016
  27.4033260  21.1933184  72.8838301  26.2879348  20.3500986  73.4633684
  42.5750446  68.7145758  64.1402006  42.4077892  69.2241383  64.9330473
  41.8026733  68.8608885  63.5940695  56.1908913  27.2767520  98.8035583
  56.6347456  27.9986811  99.2485905  56.1821270  27.5330615  97.8813553
  32.5162649  50.8842564  95.0212574  32.0705748  51.7009783  94.7964096
  33.1135273  50.7280874  94.2897320  22.2255945  41.0634851  87.1446609
  21.9590855  40.3594637  86.5534306  21.6855788  41.8104315  86.8864155
  26.4370584  32.4134326  89.2915630  26.3221979  33.2609439  89.7214031
  25.5477309  32.0748878  89.1880608  79.2249441   6.9494760  69.0086651
  79.8781824   7.6263767  68.8316870  78.7343836   6.8702972  68.1905508
  46.1573982  17.5736225  95.6408787  45.2616835  17.7535415  95.9264565
  46.1166286  16.6947031  95.2639580  84.8499107  26.3428736  63.0849981
  84.1233444  26.6032004  63.6511850  85.6345081  26.6070867  63.5654306
   2.6661128 136.5035755  81.0830498   2.9196215 136.9886012  81.8683624
   3.4872559 136.3666649  80.6105995  27.3850894  28.5744047  73.9295053
  27.5083709  28.9238977  73.0469608  28.1342959  27.9940605  74.0641165
  44.0777588  38.6039519  76.8408298  44.1925097  38.3554697  75.9235954
  43.2067728  38.2795525  77.0696974  52.0934248  38.8115144  90.0945187
  51.3495398  39.1320658  90.6045341  51.9638252  39.1835308  89.2221451
  59.3897724  22.3528624  59.3938589  58.8756371  21.5657949  59.5739269
  60.2773333  22.0291591  59.2399788  36.1560893  32.1504116  63.3717346
  35.9402108  32.0428014  64.2980433  36.2406564  33.0965543  63.2538605
  10.5855501  73.8473845  80.9539509  11.3268697  73.3035803  80.6875801
   9.9011618  73.2208395  81.1890697  58.1503534  18.0172324  96.1912918
  57.9158211  17.6414835  95.3427410  58.0885887  18.9633167  96.0596085
  60.9411955  75.7410860  78.8878155  61.1875391  74.8738098  79.2093468
  61.7596769  76.1183643  78.5653496  54.0468502  26.5665746  81.1498737
  54.8636055  27.0569301  81.0566616  53.3613634  27.2335744  81.1117935
  78.4555387  39.1337395 108.4286785  78.0358410  39.9667454 108.2137680
  78.4050989  39.0793180 109.3830013  29.6694636  33.6849976  93.8588619
  29.1154528  33.4628272  93.1105709  29.2058349  34.3989587  94.2965221
  29.0046310  42.0364094  93.2115841  29.6906853  42.2711325  92.5867081
  28.4252501  42.7981567  93.2285023  76.0951090  30.3101492  30.8206487
  75.1584959  30.1258636  30.8915734  76.2055969  30.6510472  29.9330616
  50.0556898  10.2460408  77.0865583  50.2414417  11.0118103  77.6300001
  49.1230154  10.3171122  76.8833351  34.7601867  53.3319950  70.5859375
  34.7488189  52.6991272  69.8678970  35.0106764  54.1583681  70.1729059
  17.2836411  43.3648109  10.2758924  17.2060728  43.2920170  11.2271634
  18.1096995  43.8282394  10.1377050  49.6549559  16.2533653  95.4173374
  49.7475719  17.0812976  95.8887005  50.5322218  16.0695922  95.0813770
 116.7098618 139.5459909  45.7105923 116.7538357 138.8300211  45.0768042
 116.6653347 139.1101164  46.5616274  20.7270122  49.1113710  64.5854473
  20.5988860  48.3869171  63.9730883  21.6608572  49.3129396  64.5259809
  32.0271206  40.7848215   3.4279481  32.9236531  40.5273342   3.6428014
  31.7246866  41.2652397   4.1986409  67.2049141  41.1016417  16.5852205
  66.8680096  40.4410505  15.9799615  68.0620766  41.3369513  16.2300626
  32.0349646  11.6897297  86.8942261  31.2619185  11.6242218  86.3335609
  31.8745303  12.4638355  87.4339008  51.8413782  45.6440783  78.3807898
  51.5615749  45.8803892  77.4964237  51.1248493  45.1102591  78.7240887
  44.1824627  57.0380497  97.7891636  43.3986950  56.9951200  97.2413540
  43.9287853  56.6055250  98.6045170  19.8935008  27.6731467  45.9826088
  20.2283001  26.9932747  45.3978729  19.1400385  27.2691107  46.4130497
  41.4571190  21.4359236  95.6929588  41.8078947  21.1445642  94.8513603
  42.2193861  21.7653823  96.1690235  87.5118446  53.5914087  78.5998774
  87.8055859  53.9371586  79.4427299  88.1023502  53.9880133  77.9593801
  32.1454382  59.7672367 104.4082165  32.5869608  60.2656937 105.0958443
  31.8514538  58.9670801 104.8436069  28.9619660   7.7672434  79.7399092
  28.0212831   7.6069677  79.8151255  29.0573168   8.2538009  78.9211273
  35.6312919  20.1826739  81.5856934  34.7265244  20.4868960  81.5144539
  36.0621524  20.8387709  82.1335316  67.9900312  42.0574951  95.9403706
  67.8833866  42.3474884  95.0344181  68.9121866  42.2218323  96.1374855
  20.1817346  39.8253584  69.3065310  20.7378936  39.4261169  68.6375570
  20.7742572  39.9996662  70.0378084  61.3564873  29.5086026  75.9292841
  60.9506559  29.4042635  75.0686741  61.5619707  30.4417872  75.9856415
  24.1331506 135.6335778  63.8267469  23.1813216 135.7038409  63.7538242
  24.4608426 135.9277649  62.9768658  68.3799839  28.9455867  81.6050243
  68.0742216  29.0876555  80.7091618  68.3124542  27.9995155  81.7339516
  39.3149829   8.1638980  85.9401035  40.0063324   8.0159760  85.2948189
  39.0636182   7.2860825  86.2273121  39.5381188  19.4701743  87.6885223
  39.7155237  18.9102137  88.4442997  39.8007298  20.3458095  87.9722977
  63.4648800 142.7346645  24.5721761  63.5286474 143.3753152  23.8638440
  64.2146730 142.9253537  25.1358072  25.8581114  32.0770907  67.7790213
  25.1904106  31.3913608  67.7925205  26.1675239  32.0923162  66.8733406
  68.7096167  37.6023149  60.1116180  68.7384653  36.6457415  60.0925303
  68.4403276  37.8160381  61.0049486  35.0060201  41.5509796  81.8265724
  35.6885409  42.1345186  82.1580505  34.3268490  41.5694618  82.5008202
  36.1821294  39.6270275  76.7130375  37.0251226  39.3317866  76.3689137
  35.6314588  39.7350764  75.9375906  37.9802394 121.7559786  62.1847343
  38.3806109 122.5835414  61.9181347  37.3077416 121.5913672  61.5237665
  30.1873493  23.5361862  85.5342960  30.6149244  24.3177390  85.8844185
  30.7062578  23.3039474  84.7642040  57.5047064 145.7848889  70.2678013
  56.8946266 146.5110801  70.3969431  58.2405043 146.1717286  69.7932625
  40.5405331   7.6067126  93.7593365  40.4740381   6.7479002  94.1767693
  41.1201954   8.1076854  94.3331432  60.9246206   0.6906494  95.3968716
  61.3559771   1.4842212  95.7137394  61.6292048   0.1758587  95.0034428
  42.6876307  10.1425350  84.6879578  43.3476591   9.4679475  84.5282078
  43.1929922  10.9421384  84.8345089  55.3186893  16.7178452  78.7980747
  54.5150375  16.2370420  78.6000681  55.9323740  16.0462976  79.0958118
  28.7097239  19.9328530  76.5608501  28.8848233  20.8610773  76.4060163
  28.2598352  19.9116182  77.4054670  39.2513490  23.1276846  74.1082621
  39.2270780  23.0184579  73.1576252  39.9370170  23.7787867  74.2571115
   5.1237684  40.6654263  83.1442451   5.6920761  40.0634336  82.6637650
   4.3557215  40.7695103  82.5825500  25.9512711  82.1190929  80.0986958
  25.6941915  81.3568020  80.6174088  26.9082165  82.1111393  80.1192951
  43.2341290  18.3406937  85.9539795  43.7734222  19.1167808  85.8020496
  43.8526583  17.6739001  86.2523842  24.2812252 144.8678554   1.8946496
  24.6979642 144.3057592   1.2414972  23.4722066 144.4102160   2.1233121
  49.2938471  90.3808784 100.5326271  48.9768934  90.2596664 101.4276600
  50.2466297  90.4139137 100.6183624  18.1307077  29.5765638 103.3907604
  18.6976564  28.8145494 103.5096550  17.4745250  29.2900920 102.7554703
  27.3078489  40.6528330  66.0901642  27.8684258  40.8144712  66.8490171
  26.4244294  40.8565569  66.3972473  79.0155172  43.2286692  95.4247284
  79.1143847  42.8938007  94.5334816  78.6060429  44.0867662  95.3141308
  56.7297792  33.1048536  77.7844715  57.3309898  33.4275866  78.4557533
  57.0356083  32.2177196  77.5955486  92.6621246  28.1168866  79.8460340
  93.0801296  27.3805594  79.3995810  93.1980419  28.8745809  79.6116734
  64.7947788  21.8660116  84.7002411  63.9062023  22.1894479  84.8487377
  65.2911997  22.1726108  85.4590511  33.5209417  29.1481996  76.2351704
  33.0911899  29.7896481  76.8009377  33.4242487  29.5048261  75.3521681
  41.3515043  32.5415611  87.4731731  41.4476824  33.2832980  86.8758392
  41.1331320  31.8030238  86.9047451  66.3562250  35.0895834  76.1835432
  66.1880779  34.1855288  76.4493275  66.5700483  35.5431199  76.9989061
  46.0362291 137.1127577  64.1930103  46.8617058 136.6876222  64.4255590
  45.7420826 136.6513027  63.4076643  38.8201880 119.5341034  45.7389975
  37.9961967 119.5172162  45.2521849  39.4750667 119.7971887  45.0923491
  31.7482185 142.2719259  51.0305643  31.7142534 141.4707238  51.5532064
  30.8369160 142.4404944  50.7910967  38.1221008 137.1585418   2.5240842
  37.2511363 136.7774452   2.6355211  38.6738896 136.6799504   3.1427232
  50.2659512  15.8571935  64.0855932  50.7774782  16.6240633  64.3434286
  49.3623161  16.1713946  64.0546513  26.4202619   8.6291379  83.7977695
  25.9293795   8.3204180  83.0362225  27.3245764   8.3699173  83.6209965
  30.9962440   2.2362530 105.4534721  30.7378960   1.3834387 105.1039124
  31.5047145   2.0296025 106.2376881  11.1709726  30.8990693  58.9944124
  11.6195261  31.3703084  58.2922983  10.2557492  30.8685136  58.7157345
   6.8251842  31.9994044  94.4508457   6.7426783  31.9642949  93.4978580
   6.8403471  32.9343104  94.6556664   6.2156528 142.5404043  69.5332384
   7.0909613 142.7127261  69.1862965   6.3656235 141.9776929  70.2929115
  25.7048965  24.4290805  86.2728786  24.9640894  23.8681388  86.0431480
  26.4724517  23.9553428  85.9524632  47.5761747  61.2879181 100.9449482
  46.7967319  61.8423653 100.9809113  47.2454929  60.4259586 100.6921387
  37.6963162  -0.0711606  59.5211411  38.4871960   0.3021931  59.1321087
  37.1024299   0.6733057  59.6175766  37.4760723  16.5238225  68.7203503
  37.6853585  16.3069046  69.6288538  36.5282607  16.4054704  68.6580849
  55.2170324  45.6397772  81.4215183  54.9583912  46.0055256  80.5756092
  54.4147396  45.2506924  81.7696095  34.8718429 123.8115687  97.2684383
  35.6333923 123.2359571  97.3387718  34.7357893 123.9147801  96.3265991
  17.2474229  59.5450926  97.5860500  18.1736624  59.3866682  97.4038029
  17.1707022  60.4983997  97.6254177  46.8411112 141.1536885  37.6324725
  47.0978975 140.3016747  37.2798204  46.4489174 140.9528495  38.4822249
  18.8713610  27.1498322  78.8184786  18.0704689  27.4354887  78.3789301
  19.0068913  26.2536550  78.5106945  47.1565294   4.2082009  71.0442591
  47.3534727   5.1162994  71.2740517  46.2578392   4.2337704  70.7157326
  65.3171635  23.6664987  82.3358250  65.4673338  23.1605148  83.1343651
  64.3794155  23.8582063  82.3465443  46.0885286  21.0482025  71.2548447
  46.2178087  20.4386044  71.9814157  45.7162905  20.5114198  70.5551767
   0.1409894  35.3847933  46.3832426   0.6304917  35.7006407  45.6237268
  -0.1670901  34.5160246  46.1252546  62.9386950  32.3388195  80.2458572
  63.0706453  32.0284271  79.3500423  63.3263826  33.2139397  80.2556610
   6.4506882  26.9235182  74.8303413   6.7571461  27.1197224  75.7156801
   6.8814301  27.5756979  74.2777538  54.8710299  41.5755892  76.3302088
  54.9448824  41.3189840  75.4110098  55.7595444  41.4882898  76.6753817
  49.8326874  11.2326396  90.0058460  49.1433764  11.1722791  90.6672287
  50.0570726  10.3229439  89.8100471  40.9027529  18.3685040  57.8454351
  39.9505305  18.3530855  57.7491951  41.1488914  17.4483061  57.9397011
  63.6571884  19.3391073  47.7707624  64.4845581  19.7893727  47.6006126
  63.9152431  18.4995437  48.1512547  51.0234118  34.7895265  72.0272207
  51.3236761  35.5695391  71.5606880  51.8282366  34.3477845  72.2980595
  46.5898657  20.6146693  49.2740393  46.2686110  20.0784659  48.5491133
  45.9597111  21.3322663  49.3387651  39.9139309  14.8186994  46.1092567
  40.2215290  14.0320599  45.6589079  39.0489745  14.5807779  46.4431334
 116.3611591 101.9096632  95.1317501 116.8069733 101.0673446  95.0424099
 115.5198712 101.7831010  94.6930599  71.7132092  15.8831608  48.6825323
  72.6557350  15.8133435  48.8341856  71.5502071  16.8241024  48.6170197
  29.4294548  13.5292780  68.6135244  29.3212628  14.3461907  68.1265163
  28.6562896  13.4814465  69.1758060  59.1012526  27.2553372  64.8164606
  58.6202574  27.7519774  65.4784441  59.6464252  27.9077864  64.3767691
   1.0748187  21.4640450  65.4705667   1.6300526  20.7323599  65.2011490
   0.4485141  21.0769010  66.0821962  19.7747850 139.2496622  68.0006409
  19.6639705 139.7236068  67.1764278  19.7892106 138.3269853  67.7462959
  21.9376421  52.3117018  62.8760576  21.6994548  52.1569967  61.9619656
  21.1588883  52.0598888  63.3724070  20.6340313  42.8819418  85.8618164
  20.0555992  43.6054134  86.1031437  20.7456779  42.9700661  84.9152374
  45.6022453  34.2751479  59.7480726  45.0455713  33.8188291  60.3790379
  46.0820770  33.5766888  59.3029261  19.9258101  14.3436539  61.7587662
  20.2706623  14.3019736  60.8668137  19.0059114  14.0937364  61.6718197
  67.6698208  56.2982273  19.7290301  67.6818657  57.2231436  19.4828176
  67.9295397  55.8349848  18.9326739  25.2852559  43.7468815  47.9025984
  25.3081489  44.4395161  48.5628748  26.1973739  43.4705496  47.8136253
  58.9875937  24.5277357  68.1241417  59.8294640  24.6737766  67.6926804
  58.5679293  25.3880262  68.1278372  49.1088724  52.9085732  10.3481793
  48.6062574  52.0956469  10.2956402  48.4585381  53.5791874  10.5569232
  35.4147863   6.7269713  95.5527496  34.5036340   6.8196845  95.8310223
  35.9085846   6.6552848  96.3696098  54.3979931   6.2570930  47.5339842
  54.3647766   6.3031501  48.4894991  54.2614365   7.1596080  47.2458029
  36.8696046  54.3838263  47.1133852  36.5527487  53.4946299  46.9547462
  37.8216720  54.2947102  47.1564674  18.4358549  17.2635984  80.2065563
  18.4940970  18.2181454  80.2475357  19.2937803  16.9848156  79.8864365
  33.4243393  30.3502131  73.6226463  32.6557541  29.7945976  73.4930372
  33.0674791  31.1870503  73.9202833  27.2137523  10.1243091  52.9894829
  27.4762201   9.3064415  52.5670719  27.6923537  10.1300848  53.8184214
  34.1626763  27.4791384  82.8628826  33.9940405  28.4134769  82.9845715
  34.2161036  27.1276665  83.7516212  12.1053708  35.2154994  35.3860307
  11.9510031  35.4426384  36.3029861  12.9036796  35.6894517  35.1529980
  41.7932510 139.2149312  67.6236010  42.7247095 139.2602737  67.4078178
  41.7079258 138.4205813  68.1508207  28.0519128   6.0692888  31.6301537
  28.5172510   6.5100008  32.3411155  28.7423468   5.7902229  31.0287762
  32.9700685  27.5262380  68.4030342  32.2535968  27.6110268  69.0320921
  32.6630688  27.9933047  67.6259708  70.0829315  30.9738660  80.2906704
  70.3295469  31.5192056  81.0376740  69.8490286  30.1299405  80.6770802
  34.9872875 140.1101030  62.8610420  34.9543190 140.9364749  62.3791122
  35.9052873 140.0180108  63.1160450  10.7763088  35.6695127  65.3081560
  10.2936399  36.4680290  65.5217791  10.7997286  35.1770616  66.1286259
  37.5364017  57.0401144  89.8758030  37.8771949  57.1979904  90.7562447
  36.6316104  57.3506308  89.9099541  66.0572243 142.1927748  50.3593779
  66.1169291 142.3362357  51.3038778  65.8587551 141.2605763  50.2707815
  21.8495536  37.5072455 107.0631313  21.5074563  38.3936238 107.1794701
  22.5572538  37.4376345 107.7038765  66.0096312  26.0035419  96.3644886
  66.5396976  26.6104770  96.8811035  65.1385927  26.0511231  96.7585278
 119.2144776  64.2206430  47.9920244 119.4278575  63.6663866  47.2413588
 118.2684446  64.1232061  48.1004667  48.5382938  41.3460016  50.7331467
  47.9804802  41.4032459  51.5089083  49.4269371  41.2754583  51.0818100
  32.4007559  13.9903235  88.2039070  32.3310137  13.7779188  89.1346264
  33.3344793  14.1473007  88.0633736  60.3045845  39.0633559  51.2042236
  59.7887945  38.8614845  50.4235554  60.6661272  38.2201076  51.4770794
  67.7691841  23.7213707 100.7315350  66.8608093  23.8751197 100.9912491
  67.7115536  23.0690837 100.0333691  28.9399695  25.7287693  78.6752653
  28.5564685  25.3763199  79.4783449  28.6033392  26.6232133  78.6215830
  16.3152432  36.8211913  14.0715925  15.5684853  37.4166369  14.0080968
  15.9964800  36.0933113  14.6052781  48.9833498 134.1603179  79.2794228
  49.0729856 133.2380767  79.5195675  49.2736912 134.6392555  80.0556660
  29.6502233   5.7019579  48.6915731  29.6486139   4.7671884  48.4855747
  29.7633433   5.7377070  49.6413946  39.5553088   3.4965041  71.6448545
  39.7280574   2.6441723  71.2449551  40.4106569   3.9251792  71.6739845
  28.1431174  22.3023677  47.9013824  27.9626441  22.8972244  47.1735048
  29.0210056  22.5442767  48.1963825  36.1230350  17.8460097  89.6534729
  35.5043411  17.5350714  90.3143501  35.6263018  18.4847069  89.1420460
  35.3777862  42.0092392  49.5800638  35.8654737  42.7615786  49.2448378
  34.9425387  42.3372602  50.3669500  28.8183427  23.7512279  51.4508104
  29.3470454  23.2431221  50.8355570  29.1903067  24.6324849  51.4152956
  49.5494509  13.0317438  62.7952194  48.9725494  12.8428662  62.0551205
  50.2179575  12.3476529  62.7584839  27.6730156  27.6968813  93.5003090
  27.8100944  28.6177492  93.7226582  28.1630754  27.5711751  92.6877308
  55.4599190  11.1629272  39.8212457  54.9415827  11.6623914  39.1902971
  56.3505745  11.1862350  39.4713640  54.2657566  48.0944252  23.5827351
  54.4764233  49.0268183  23.5327363  53.8661051  47.9851103  24.4456124
  24.4754434  34.6313286  43.2361269  23.8069224  34.2505836  42.6666164
  24.5980763  35.5194998  42.9009438  52.1084023  26.2148285  77.0370388
  52.7708149  26.6297817  77.5895357  51.3649511  26.8172741  77.0609713
  32.0226455  39.1374588  38.5956430  31.8539953  39.3966460  37.6897693
  31.2363267  38.6589217  38.8581991  50.1680899  22.0364070  64.9739075
  50.8072805  22.6980376  65.2383137  50.4738808  21.7365813  64.1178513
  13.2050133  41.1456251  35.8469319  12.2665572  41.0826683  35.6692576
  13.3269620  40.6626606  36.6643071  81.3764572  26.6274214  30.1755476
  81.4569759  27.2926831  30.8590508  81.6869164  25.8213973  30.5880642
  65.9425640   8.9027101  53.5713100  65.0466633   8.8286126  53.9000940
  66.4569950   8.3385420  54.1486359  43.4389114  22.9762530  79.3100405
  42.9789019  22.5734019  78.5736084  43.1307220  23.8824463  79.3181467
  23.0656791  15.9634078  77.6443100  23.5390687  16.0995913  76.8235874
  23.3699441  15.1117253  77.9578257  60.2496958  10.7264805  41.7703477
  60.8451605  11.4076412  42.0828763  60.3935289  10.6981695  40.8244363
  23.5335875  32.3624349  60.3141975  24.0346360  32.5170445  59.5133972
  23.1590128  33.2162142  60.5309582  53.3220816 137.4727840  61.9953632
  54.0981102 137.7501530  62.4822712  52.6521349 138.1165356  62.2255468
  59.6370029  52.2996044  24.2887616  58.9570904  52.7235270  23.7650847
  60.2440023  51.9359922  23.6441088  43.3389711  37.7251291  70.5221415
  42.4950218  37.8844476  70.9447527  43.9404583  38.3335090  70.9514666
  19.9781072  41.4684153  65.8473206  19.2422187  41.4932775  66.4589405
  19.6090567  41.7674494  65.0162888  33.3199215  34.9240518  75.2335072
  33.0662370  34.2877388  75.9020758  32.6488686  35.6047750  75.2838516
 120.8021698  39.4682074  58.9110804 121.6551451  39.8992586  58.9645624
 120.8764068  38.7164950  59.4989967   2.2864373  32.1783733  80.4199600
   2.7285823  33.0040336  80.6175137   1.5739304  32.4234939  79.8296404
  22.5488973  13.6298561  24.8031569  21.7995381  13.7897158  24.2294526
  23.1602192  13.1276619  24.2643428  46.0316324  24.7110772  68.5123301
  45.7914972  23.8025331  68.6943054  46.9089413  24.8058295  68.8832521
  23.6244130   8.5797662  63.2052660  23.8064671   9.2792886  63.8327646
  23.9592814   7.7877265  63.6257076  47.5357151  42.1254635  55.5795050
  47.0155525  41.3279676  55.6778145  47.0560360  42.6464224  54.9355030
  39.2395234  15.2536833  52.9709673  39.4668460  16.1404002  53.2507706
  38.5098195  15.3739607  52.3632717  72.2889709  11.6686332  57.9031181
  72.5435781  12.1387994  57.1091747  73.0209970  11.8015766  58.5053587
  43.0064774  29.6542692  79.2289162  42.6887703  29.3013048  80.0600052
  43.2496977  28.8821530  78.7181187  43.0383492  48.7973022  37.3378634
  42.7364445  47.8936195  37.4297762  42.2378397  49.3213272  37.3663259
  13.4440863  29.5748186  59.3812323  12.5327170  29.7772646  59.1699171
  13.7473464  30.3314042  59.8830748  59.8852682  51.6081047  80.5970097
  60.1209450  52.0256710  79.7685671  58.9500093  51.7855787  80.6971455
  71.9410133  40.0577784  51.7865610  71.8156528  39.1382575  51.5520525
  72.7547789  40.3077745  51.3489342  54.2687035  20.6132364  61.6745377
  54.4516087  19.9399936  61.0191584  55.0797176  20.6839943  62.1780062
  69.6057558  47.7433729  51.8997431  69.8112392  47.1358013  52.6102829
  69.7955608  47.2509718  51.1011505  14.7327745   9.3423295  43.9879227
  13.9150333   9.8367196  44.0436888  14.4606411   8.4251153  44.0177917
   7.8157008   3.3213142  61.2572336   8.5518843   3.9234486  61.3653994
   7.2533023   3.7446854  60.6086206  42.6477671  34.0499473  45.5797148
  43.4573364  34.5138025  45.7933950  41.9627142  34.5436954  46.0304308
  52.4580526  62.3220921  79.1131115  51.8448877  61.6929102  78.7331295
  52.7788544  62.8256655  78.3649588   1.0560693  12.0210338  75.8548021
   1.3342345  12.3441947  74.9978209   1.7418909  12.3133528  76.4551640
  59.9897623  11.0769737  46.6198254  59.2822647  10.9777188  45.9827805
  60.7491875  11.3329804  46.0964060  20.5152225  32.5878835  70.0339174
  20.3407454  32.0406199  70.7996178  19.6749628  33.0033016  69.8399496
  28.9862847  34.6616817  74.9232578  28.6552501  34.1865659  75.6854343
  29.0776491  35.5653238  75.2254438  24.3309355  37.5500226  13.7227193
  23.8224697  36.7682505  13.5070173  23.7275243  38.0969596  14.2256967
  24.3931317  55.0702143  52.4202394  23.8244128  54.7960901  53.1397200
  24.1598010  55.9856224  52.2659254  53.6058474  16.8009698  85.9019184
  53.5754871  17.6690185  85.4996777  53.2393265  16.2165427  85.2383423
  21.2217832  23.7289739  58.3659887  20.7271814  23.1925154  58.9855146
  21.1059260  24.6257567  58.6799765  25.5165434  40.2954149  50.9747028
  25.3911996  39.7573256  50.1930523  25.1505399  39.7715497  51.6873312
  22.2579360  14.6583819  59.2752934  21.8766165  14.4582212  58.4204483
  22.8442168  13.9231730  59.4541073  59.2691374  18.4393549  49.9092674
  60.0214863  18.1326604  50.4153776  59.1416693  19.3442535  50.1941204
  51.4956045  27.9527617  87.5106335  50.6333208  28.3649039  87.4573898
  52.0988703  28.6790156  87.6682949  39.1419578   5.8417004  70.0665569
  38.5683393   6.2033159  70.7421494  39.3678236   4.9682808  70.3864861
   5.6178623  20.2476239  47.0904779   5.3855795  20.6972528  47.9029465
   4.9077284  19.6208870  46.9521141  46.8045950  32.1493602  64.6210384
  46.7776728  31.1949921  64.6895170  47.7050400  32.3805451  64.8490334
  44.9171543  22.8223705  49.4598866  45.5033588  23.4952998  49.8059607
  44.1676855  22.8283644  50.0552797  67.8368235   0.6945220  63.7372494
  68.0948496   0.1838103  64.5046043  68.5214043   0.5192115  63.0916119
  33.8797760  41.5002823  74.6364117  33.9577985  42.4441242  74.4974756
  34.6682191  41.1333323  74.2364836  28.0048609  45.8334112  61.7947292
  28.4303498  46.6908455  61.7957163  28.5689759  45.2867222  61.2477922
  30.1960993  34.1335320 102.8361320  30.9196091  34.6825409 103.1383801
  30.5956435  33.2791018 102.6732063  55.2377605  39.5295739  91.5055370
  55.1585340  40.0959969  90.7379913  54.8999262  38.6827040  91.2141418
  14.2086446  54.2968702  65.4997158  13.7706578  54.8919010  66.1082697
  15.1269293  54.3116188  65.7694674  41.5141869  15.8726645  58.4690714
  41.5303707  15.4062903  59.3048143  42.4352694  16.0428405  58.2718801
  20.6265593  49.8282242  53.4791279  20.5944037  48.8850832  53.6393833
  19.9476182  50.1911116  54.0479708  19.4897962  13.7871242   5.1270008
  19.9251175  14.2855966   4.4354427  19.2499197  12.9592133   4.7107622
  22.0298529 142.5360126  36.2202597  22.2073817 141.6404737  35.9326386
  22.0285869 143.0509193  35.4133511  62.7452707  40.2283382  79.3953133
  62.7971458  40.4996872  78.4788465  61.8086910  40.1194763  79.5602274
  54.7740841   4.8644736  85.1055336  55.5383444   5.3472161  84.7907352
  55.1143360   3.9991757  85.3329468  46.1647749  24.6769547  50.6891060
  46.9649553  24.1820836  50.8653164  45.6519842  24.5974755  51.4934492
  50.3769445  32.0431328  60.4741669  50.8126974  31.7753768  59.6650600
  50.0787926  32.9361582  60.3014183  67.6835442  22.6442838  77.7181053
  67.5260353  23.0077696  78.5894823  66.9749689  22.0136189  77.5899935
  39.0873337 134.8584039  48.3845520  39.4318175 134.2046709  48.9929867
  38.1566501 134.9191065  48.5999012  33.9173841  31.7763734  56.1649323
  33.1338310  32.1395779  55.7521820  34.6452928  32.1573257  55.6737566
  14.8681521  37.3534369 100.8357811  14.5909965  37.7828598 100.0264549
  15.8171976  37.4759293 100.8590508  57.9403591  23.0963373  82.3320770
  57.3940039  23.7369132  82.7874756  57.3638773  22.3447394  82.1942425
  22.3566842 143.1500269  44.6798944  22.5848341 144.0275378  44.9867392
  21.4350724 143.0456547  44.9164724  11.6246033   8.6563021  75.2589083
  10.8656168   8.8948357  75.7911444  12.3706949   8.7463361  75.8517599
  55.8991432  28.9465332  77.4853086  55.1383543  29.0457249  78.0576658
  56.2910748  28.1143141  77.7499437  53.6291265  25.7627702 103.9689255
  52.6908398  25.7550430 104.1580963  54.0304708  26.1176467 104.7621536
  12.1045852  43.2470322  57.2864676  11.7399931  43.2125711  58.1708431
  12.6352131  44.0436363  57.2770309  91.5703583  37.9084778  25.0470757
  91.3997650  37.4011135  24.2535329  90.7076073  38.2166982  25.3243899
  24.2211413   7.2352928 100.5083466  23.7419176   7.5340474  99.7354794
  24.2006207   6.2801856 100.4485035  55.5444098  41.0074997  25.1710916
  54.9377346  41.4352894  25.7753873  55.5582571  41.5774059  24.4021654
  33.1056857   4.3470985  66.0775995  32.4576044   3.8682109  66.5942144
  33.4887362   4.9718007  66.6934347  29.5378375  11.8664813  64.5668888
  30.3770328  11.5185940  64.2653036  29.6671534  12.8145373  64.5933056
  35.3479123  22.5753951  22.1967435  34.6060634  22.8921580  22.7120638
  35.0727248  21.7129326  21.8858409  63.4492064  39.8162365  90.8462811
  63.2515669  39.9465632  89.9188137  63.1993628  38.9085340  91.0191536
  12.9864287  46.4063406  70.0084591  12.3363817  46.3097429  70.7044077
  12.7839005  47.2514343  69.6071672  22.8832364  20.8897591  69.3819189
  23.2338405  20.5256510  68.5690594  23.6491823  20.9985971  69.9455786
  50.7614660  41.0595226  40.9030724  50.2055740  41.6088629  40.3504038
  50.1845264  40.7690525  41.6094732  69.3509007  40.1195908  61.3102865
  69.8501253  39.4784045  60.8044338  70.0087118  40.5742550  61.8364000
  23.4689879  56.3412333  69.5663643  22.8383374  55.7580185  69.9887085
  24.3237853  55.9805536  69.8018646  80.4940796   4.8571318  86.6459751
  79.9770212   5.5052298  87.1243668  80.1135254   4.0151873  86.8960571
  71.5308380  47.0722246  70.9692001  71.8658352  46.2039948  70.7451773
  70.5793142  46.9829845  70.9155750  87.1126652  32.1449518  32.7589893
  88.0589771  32.0009875  32.7617431  87.0135689  33.0884814  32.8861308
  58.9774275  25.5023026  97.7993679  59.8058605  25.2868891  97.3709583
  59.1898775  25.5281687  98.7323284  42.3868561   9.9518156  75.0155210
  43.0255318   9.9615270  74.3026161  41.5845346  10.2959812  74.6230125
  31.8826175  36.8822408  83.6250114  31.0258579  36.7705178  83.2130432
  32.4189281  37.3019052  82.9523468  38.3759856  23.8397050 103.8460541
  37.9124331  23.1144142 104.2647457  38.7120318  24.3616366 104.5746803
  20.1263547  37.0086741  89.8874760  20.0824189  37.1049666  90.8388138
  19.7021961  36.1687350  89.7119141 116.3864840   1.1328217 101.5802193
 116.3734705   1.9869706 101.1483765 117.0076574   0.6149809 101.0681534
  48.9912176  22.2101307  99.0195370  49.3370390  22.5237417  98.1838989
  49.7496557  21.8348026  99.4669056  53.8656473  33.9122057  55.0786543
  53.3255339  33.8129711  55.8626604  53.3238173  33.5667157  54.3692255
  35.6224895  44.4702625  34.2811322  35.6618810  43.5445499  34.5214105
  36.4995480  44.6703529  33.9540839  27.1181512   5.0483841  71.7421293
  27.4651337   4.1609550  71.8332577  26.7163372   5.0604111  70.8734369
  39.3965960  24.8117018  64.1428375  38.6801362  24.2866206  64.4994974
  39.5411897  24.4555688  63.2662010  39.5469093  31.2963271  52.5608873
  38.8996840  31.8395901  52.1112251  39.6612477  30.5372524  51.9890833
  67.9206467   2.6514637  46.3476419  68.4303045   1.8523666  46.2137651
  67.3174286   2.6780698  45.6049109  88.9060020  15.3498089  58.1858873
  89.3000603  14.6105385  57.7228260  87.9800987  15.1190734  58.2614183
  64.0408373  48.6769199  66.7091131  63.3498478  48.6738825  66.0467243
  63.6123228  49.0023661  67.5007534 118.0664582  11.8030083  68.1794214
 117.8042508  11.5852225  69.0738773 117.2959865  11.6018248  67.6482630
  64.6917582   3.4737024  84.6244144  64.8717976   2.5698939  84.8831654
  65.4249859   3.9754057  84.9806499  47.1213245  43.6234856  93.9308357
  47.8436899  44.2511177  93.9085770  46.3429165  44.1594839  94.0825653
  34.0002871  18.0189955  63.1692123  33.6026120  17.1555209  63.2810020
  33.3281565  18.5366678  62.7259445  62.9016495  27.9336524  84.5921612
  63.6660242  28.5077834  84.5437908  62.8733730  27.5001264  83.7392330
  34.7568321  64.2435360  74.5069838  35.5173206  64.4067955  75.0648689
  34.6081686  65.0744009  74.0555477  12.7789986  16.3188183  52.3912430
  13.1341136  16.3978195  53.2766151  13.3783054  15.7203007  51.9453287
  42.8623772 115.9461136  60.1549578  42.1790838 116.5270633  59.8205376
  43.3834457 115.7207174  59.3842983  49.8787737  43.4225273  43.2079697
  49.4690943  42.5940275  42.9590130  50.6194210  43.1676769  43.7581730
  66.7232609  45.7992458  58.8802767  67.4366283  46.4327908  58.9574623
  67.0276403  45.0350142  59.3696976  55.5115366   3.3492398  61.5675068
  55.4367399   3.9522624  62.3071051  56.4229822   3.0575261  61.5875435
  49.0467739  21.6014600  47.3342896  48.2887745  21.4769864  47.9054022
  49.7032166  20.9917068  47.6712179  52.5240421   1.6557688  66.3692522
  52.3813915   1.2130505  67.2058439  51.6564751   1.9684467  66.1127472
 115.0782890 146.4686241  51.2130117 114.2507309 146.1631141  50.8414698
 115.7315237 146.2628015  50.5443144   7.9019415  14.1238868  48.0955887
   8.0193579  13.1817770  48.2175541   8.7921476  14.4700861  48.0330515
  35.6972837  13.1413662  50.1685047  36.6385603  13.2011533  50.0052452
  35.6161118  13.1862652  51.1212015  55.8317852  18.1053841  63.4002590
  55.3741360  17.4469614  62.8775024  56.5409803  17.6231372  63.8253546
  83.9869976 145.6261890  91.7409706  83.9747429 145.1176743  90.9301186
  84.8229313 146.0919915  91.7189598  43.6632490  32.2438192  68.8457203
  43.7411022  32.1305013  69.7929955  44.5626640  32.1875811  68.5230494
  40.5876732  26.2396216  80.7557869  39.6382236  26.3544464  80.7158184
  40.8183479  25.8558655  79.9097681   9.2583948  10.5181253  46.7874813
   8.5897106   9.9805081  46.3631487   9.9394965  10.6218994  46.1229801
 120.7994491  11.8086076  56.9180346 120.5191646  11.5973544  57.8085661
 121.2809578  11.0337210  56.6283226  31.5744352 126.0950155  77.4037123
  31.2684560 126.2655563  78.2945108  31.9953156 125.2368564  77.4552059
  62.6073647  17.7284670  56.3114738  62.9725218  17.9599249  55.4574728
  61.6914177  17.5170529  56.1309862  42.3426437  34.3151736  29.9392462
  42.7538157  34.1255331  30.7825756  41.7858934  35.0749183  30.1096869
  21.5455818  23.8758755  11.8864099  22.4233007  23.8149381  11.5094129
  21.5831971  24.6426249  12.4581662  53.7403393  24.4485068  39.9889708
  53.6696243  25.0133944  40.7584715  53.8753176  23.5712767  40.3474092
  42.5544453  44.6353626  56.8309021  41.7892408  44.0618515  56.8731070
  43.3004999  44.0368843  56.7926788  49.4062805  17.0713377  39.1665053
  49.1680241  16.7914224  38.2826972  50.1598310  16.5271616  39.3951154
  50.3521299  31.1614037   5.1282406  50.5310297  31.2115598   6.0672361
  49.4266796  30.9232092   5.0731230  18.7140930  65.1628304  30.1734376
  18.1151772  65.5472708  29.5333314  19.1926563  65.9099865  30.5325627
  29.2423224  22.8262305  76.9096470  29.7787356  22.9966450  77.6838875
  29.8718691  22.7623057  76.1914396  44.1633415  45.0081635  39.5718646
  44.7118855  44.2805243  39.2788339  44.7508049  45.7638693  39.5774412
  40.0399399  24.6958447  42.2993708  40.2832651  23.8433933  42.6604128
  39.1801715  24.8796725  42.6778412  45.7225323  35.2980208  57.2248936
  45.4070425  35.0616121  58.0971384  45.6103325  34.5017576  56.7056561
  43.5908413  40.8183622  43.9459896  44.1740608  41.2745237  44.5526218
  43.9694500  40.9807301  43.0819750   4.0990460  29.4249821   3.4179053
   3.9168072  28.5301876   3.1309143   3.2394296  29.7876716   3.6317942
  25.2773523 136.1691863  23.8088846  25.2202392 137.1201915  23.7163734
  24.3869686 135.8586509  23.6445141  36.6430426  21.1229968  72.0957422
  36.2962532  21.9666886  72.3858356  36.5196323  21.1269069  71.1465406
  35.8974242   3.5343504  56.5508795  35.6037617   3.5425472  57.4618816
  36.7595172   3.1194660  56.5808487   1.7404227  21.3208795  98.9421558
   1.5122120  22.1282268  99.4029617   0.9062422  20.8649588  98.8302994
  28.5024738  17.8822041  73.3097219  27.7909207  18.2295120  73.8475895
  28.9133739  18.6572134  72.9266405  25.1100850 143.0951957  68.3820772
  25.1554418 143.5762800  67.5557995  26.0030961 142.7822206  68.5263348
  44.1117907   5.1732916  43.5590458  43.8067389   4.3387204  43.2031441
  43.3099222   5.6454098  43.7834215  48.1461191   6.9903558  39.9587798
  47.7357721   6.1315572  40.0603199  47.5628948   7.4660605  39.3673515
 100.9871674 135.7480938  13.8944292 101.7545986 135.6325431  13.3341455
 100.2538300 135.8226115  13.2837760  24.6126723  33.0892563  72.5123453
  24.0320444  33.8089919  72.7594995  24.0375900  32.4525118  72.0879984
  12.6297152  21.4858961  56.8353462  13.2849181  20.9902954  57.3265886
  13.1079555  21.8354702  56.0834694  27.5514913  75.6152725  25.1929426
  27.5130868  75.8498812  24.2657328  27.9723287  76.3656044  25.6126237
  50.1587868  34.6146822  56.4840698  51.1094093  34.5032668  56.4954853
  50.0184727  35.5075240  56.7993116  33.3989787 146.3529675  57.1518183
  33.1229973 145.9457630  57.9729462  32.6863050 146.1665125  56.5406179
  24.7915649  24.2040849  61.8710470  25.2702379  24.7845149  62.4628258
  23.9141631  24.1469526  62.2493744  53.0672455  32.8604960  32.0789766
  52.1717167  33.1174660  31.8593669  53.4114361  33.5981798  32.5825500
  36.0739732  40.9355402  63.3441257  35.9896946  41.1495781  64.2732763
  35.6324601  40.0912762  63.2518196  38.4804058   6.7472404  45.0597811
  39.1865325   7.1702677  45.5483150  38.7650800   6.7846191  44.1466570
  40.2982378  12.7929318  62.1346807  40.4148340  11.8476081  62.2295523
  40.0219631  13.0884409  63.0021954  28.0229092  42.1344709  48.2586145
  28.3210325  42.0448923  49.1637802  27.6716089  41.2724113  48.0357265
  64.7588873  47.6438522  50.5748510  65.3203201  47.3870230  49.8433685
  65.1925898  48.4090471  50.9524870  41.4727116  37.4751949  39.4505143
  42.1097088  38.1420612  39.1940832  41.7527819  37.1994948  40.3233147
  70.0888300  12.7756035  53.9629412  69.2986202  12.2409773  54.0402317
  70.4335213  12.8238702  54.8546171   5.4391986  60.0775242  60.7940722
   5.6534272  59.1549063  60.9323263   4.4823554  60.1029253  60.7879829
  79.8811769  42.4031496  28.4194732  80.5188847  41.9791889  27.8451705
  79.6928453  41.7490196  29.0924358  16.4021778  37.3317933  39.3153763
  15.4826999  37.5062656  39.5162511  16.7173934  36.8207264  40.0608158
  62.4555874  46.2145138  45.1859188  63.4054327  46.1242247  45.2625942
  62.3080111  47.1589613  45.1362038  52.3289251  57.7500057  42.4869585
  51.5067053  58.1135607  42.1582937  52.5351095  57.0381117  41.8812180
  65.2803659  20.5758572  20.0318623  65.6434822  20.9307218  19.2204142
  65.4579639  21.2493777  20.6884146  33.1308222  50.5650473  38.2812119
  33.2446027  51.4280796  37.8831410  34.0008044  50.3352785  38.6076617
  42.6547718  60.7764149  57.0290375  42.7978992  60.3121805  57.8537989
  41.7026424  60.8295631  56.9462109  34.0450430  24.2229128  86.3936234
  34.6839786  24.3389010  87.0968533  33.4011459  23.6127663  86.7532730
  26.3687539 129.8556394  55.6401157  27.0808935 129.5734269  56.2140894
  26.0279441 130.6488354  56.0535383  23.1478000  20.6483889  62.0479345
  22.9532003  21.0774589  62.8811598  22.3202515  20.6717682  61.5674734
  77.0504093  24.6090031  80.2496338  76.2339878  25.0318694  80.5158615
  76.8154955  24.1029859  79.4718218  34.7658014  52.1340275  56.7260885
  33.9878726  52.1546650  56.1687422  34.6786761  51.3243008  57.2290564
  54.4156027  38.7857556  45.7911062  53.8576508  38.5004592  45.0675535
  54.0362215  38.3690357  46.5648270  57.9454088  10.6590390  23.8564777
  57.9754210  10.4204500  22.9299760  57.4611139   9.9455553  24.2719698
  55.2224159  40.9248734  30.0060511  56.0367537  40.4218817  29.9969864
  55.4140377  41.6809082  30.5609584  35.6627703   1.3853569  50.7846451
  36.2692475   2.0041069  51.1915445  36.1835504   0.5938270  50.6486320
  47.1950483  30.0474930  43.5439587  46.6857910  29.3780184  44.0007877
  46.5919828  30.4033589  42.8913450  30.2772689  44.1975737  32.1891594
  30.8479238  43.8207388  32.8589201  30.8784533  44.5740938  31.5464759
  52.7836084  49.3140984  31.2071490  52.9857874  49.2215681  32.1381664
  53.1332397  50.1731205  30.9703541  25.9380102 120.3008957  68.7197351
  25.8857846 119.4435424  69.1421700  25.0742197 120.4275222  68.3272266
  10.7025039  46.9445896  61.9209576  10.7944405  46.0394478  62.2184420
  11.5769863  47.1864653  61.6159868  57.3983145 140.3114415  28.3213043
  57.1504211 141.2325979  28.2422280  58.1969833 140.2327020  27.7996182
  35.9037161 138.5571129  26.7450547  35.0692415 139.0131290  26.6358161
  35.8149934 137.7650327  26.2149882  25.4525065   1.9577104  55.0920296
  25.5657673   2.8982484  55.2291107  24.7505569   1.7107305  55.6941080
  32.2637367  13.3434093  18.0976868  31.4859986  13.3561933  17.5398409
  31.9742131  12.9135776  18.9024556  54.6375084  38.0174923  14.1717625
  54.6842432  37.1678042  13.7334931  55.2834129  38.5576582  13.7165046
  52.9056120  40.4720068  42.6337719  52.3120928  40.7908201  41.9538260
  52.9927492  41.2077379  43.2398558   4.4939500  60.1361227  53.7174988
   4.6761638  60.4506969  52.8320217   5.3431571  59.8413849  54.0464497
  22.7713490  45.5515814  57.0573664  23.5959435  45.8339214  57.4530458
  22.0964813  46.0135317  57.5547504  27.9905629  37.3421335  88.7077427
  28.7359691  37.4802470  89.2921448  27.5743628  38.2016897  88.6431694
  49.9785566  24.9483824  33.0277991  49.3944740  25.5048251  32.5125813
  49.4314671  24.2099643  33.2954979  49.3856335  47.2962761  49.9419403
  48.8018084  47.9243851  50.3672171  50.1503086  47.8134155  49.6888256
  49.9135065   8.1918013  46.6789770  50.5514717   8.0323255  47.3745346
  49.4653797   7.3532754  46.5681410  44.2590666 144.7904240  40.0740814
  44.1592455 144.3438781  39.2333269  43.4844160 144.5344394  40.5746984
  30.6171846  31.8085599  54.0428352  30.9926009  32.5698900  54.4851828
  30.4659462  31.1746597  54.7439241 113.7665314  56.5206194  30.6650829
 114.6340341  56.1661482  30.4700875 113.3800334  56.6937256  29.8066640
  69.7768354  16.5318274  70.7895994  69.8702288  16.4254010  71.7362690
  69.0911913  17.1921802  70.6893015  24.8086071  15.3473675  30.3738856
  24.2185998  16.0984635  30.3108215  25.6859732  15.7293296  30.3500748
  38.0954409  19.5134807  41.1005068  37.2382975  19.4121897  41.5143681
  38.3178782  18.6350048  40.7922316  36.6214991 136.8453295  61.3124466
  35.7588816 136.8518544  60.8976173  36.9998932 137.6963837  61.0916376
  66.7386818  35.1535654  32.2578979  66.9467926  34.2820573  31.9211602
  65.8306026  35.0857925  32.5529146   2.9853478  34.8562193  81.2377071
   3.1607911  35.5805182  80.6370068   3.8524979  34.5436716  81.4957714
   2.5961903  30.4948068  42.5626898   2.8923348  29.8940253  41.8788862
   3.2800528  30.4527116  43.2311153  58.4187460  27.5324345  39.6258163
  57.7750826  27.0588803  39.0988684  58.4612370  27.0440030  40.4479265
   9.9669135  34.2374039  38.4973931   9.5952600  35.0313997  38.1131029
  10.8875203  34.4522619  38.6475658  34.0254402  39.3908548  25.0435638
  33.9428711  40.0839901  24.3886018  34.9571848  39.1715765  25.0440788
  49.9094200  16.8286538  57.8567362  50.2519131  17.4088705  58.5366488
  50.6553698  16.2816739  57.6105642  39.4077516  22.3115873  66.2929344
  38.5282254  21.9524479  66.1759520  39.8669004  22.0893264  65.4829836
  41.8400669 145.1969350  41.4881659  41.2079477 145.6852608  40.9607267
  42.4049234 145.8695619  41.8686152  73.5207224  66.9566059  22.5298047
  73.4279633  66.0356283  22.7735829  72.8973484  67.4170351  23.0916309
  21.7391706  26.3845277  73.4844542  21.8222022  27.3025632  73.2264853
  22.6112938  26.1437297  73.7969446  40.7629013  19.3737650  66.4272690
  40.5899000  19.7044683  65.5458307  40.3331900  18.5187674  66.4509296
  30.3129411  36.1707783  57.2728157  29.6607256  36.1424446  57.9728460
  29.8072505  36.3568878  56.4816952  35.0905204  15.3328609  30.5765939
  34.1491795  15.2219141  30.7100034  35.1592016  15.8568287  29.7784877
  14.1331184  39.8509717  47.5422478  13.9949405  39.6964288  48.4767294
  13.8702929  39.0318060  47.1225786  45.0226402   5.6040412  56.6242647
  45.1349306   4.7516650  57.0450687  45.8694458   5.7826763  56.2153149
  14.4128656  44.7830772  15.4502678  14.1848826  43.8823462  15.2201855
  15.0920510  44.6948814  16.1189687  63.2745171  31.7212868  18.0941558
  63.8692617  32.4705815  18.0615366  62.5380898  31.9756436  17.5380898
  57.4905205  43.8419199  56.4889860  57.4847698  44.7340488  56.1421442
  58.3772850  43.7228966  56.8291426  37.7822995  32.8395891  51.0923529
  37.1767497  33.5700560  50.9660101  38.2168841  32.7395105  50.2453852
  61.7541122  59.1566706  50.8737993  62.1850681  59.8178005  51.4154768
  60.8973360  59.0335560  51.2824631  36.2309861  35.1565981  24.3516016
  36.4969397  34.6091032  23.6128521  35.6139660  35.7839632  23.9748621
  14.1945457  38.8981891  44.0018940  14.9411213  39.4953489  44.0493917
  13.6961627  39.1978264  43.2415867  42.6789808   1.1632200  48.7491751
  43.5334349   1.1799684  48.3180618  42.4380970   0.2370084  48.7675524
  50.2934265  28.0268812  29.6428061  51.0269499  28.4645677  29.2108250
  50.3323984  28.3322859  30.5491400  60.3828335  19.2406285  54.3677902
  60.3415632  18.5351288  55.0133896  59.6121550  19.1059899  53.8162804
  73.7589407  47.3814869  35.0786281  73.5465622  46.9811535  35.9217548
  73.6499929  48.3210707  35.2254033  60.9316635  55.2368879  48.8804722
  61.5964556  55.5528259  49.4924068  60.7304049  55.9956360  48.3327246
  39.1050768  48.1715775  54.4413185  38.2319975  48.5021257  54.6527576
  39.2845559  47.5190496  55.1182413  63.6563110  23.9502668  57.9420090
  64.1929626  23.6595941  58.6793947  63.1557608  23.1744146  57.6895523
  30.8458304  29.1352248  59.2503071  31.7157698  29.2160916  58.8592815
  30.8262730  29.8068857  59.9320126  35.8139467  51.8562841  46.3721561
  36.2912488  51.2341356  45.8232069  35.0537348  52.1053410  45.8465290
  69.3066883  11.3040173  48.7241554  68.9246798  11.1217046  49.5826817
  69.5028353  12.2407103  48.7433052  67.1494293  41.6922665  51.0815191
  67.5390720  42.2794199  50.4337120  67.4740458  42.0142126  51.9224739
  17.4850655  48.0487490   4.3380222  18.0506051  47.4984837   4.8798758
  16.5984797  47.8520966   4.6405545  41.2277603  27.3403358  41.9350958
  40.7123375  28.0889702  41.6348982  40.6045914  26.6141272  41.9577169
  50.1071596 129.3146248  60.8752537  50.0050354 130.2153403  61.1826801
  50.2866173 128.8097210  61.6684103  60.9253359  27.7979445  47.3052597
  60.3975201  28.1255293  48.0334997  60.3049469  27.7060580  46.5821362
  39.9813557  33.2432103  17.4879920  39.1637588  33.0947447  17.9630935
  40.4737329  32.4298429  17.5985932  63.9697981  59.3459368  34.0886378
  63.8634062  58.4558582  33.7529755  63.8235664  59.2655420  35.0311804
  49.6021891  27.6812291  67.1452427  49.4087601  28.2590604  67.8834343
  49.3300676  28.1786251  66.3740206  27.5013423  43.9757538 106.6362970
  26.7789125  43.5962343 107.1365883  28.2600856  43.8979244 107.2146430
  39.0287137  19.5897794  72.1775198  38.1029034  19.8318648  72.1551085
  39.4749188  20.3075910  71.7282057  42.2586346  16.3708818  51.5354156
  42.7406359  16.5386903  52.3451996  42.1739912  15.4180837  51.5001345
  55.3258610  57.6150036  25.1598620  55.1721573  56.9313002  25.8119035
  54.8831892  58.3866978  25.5130768  31.8137622 145.6223181  54.9965048
  32.4595833 146.0809522  54.4590998  31.3473797 145.0573305  54.3804598
  40.4198313  21.2183952  31.3911366  39.5236945  20.9208536  31.5481138
  40.6244469  20.9073997  30.5092931  41.5429878  30.5561304  68.1044531
  42.1879911  31.2105751  68.3726025  41.9156456  29.7217751  68.3894205
  36.9434023  18.1127453  26.0604596  37.0254207  17.7937078  26.9591928
  37.6183414  18.7870681  25.9831452   1.1593865  85.2012062  40.8401346
   2.0857385  85.2557468  40.6053352   1.1369027  85.4048634  41.7751455
  56.3571167  11.6252935  31.6768575  56.4543056  11.4418006  30.7424521
  55.7567978  12.3699439  31.7135406  33.1588411  60.0799656  27.1501088
  33.2225251  60.8535194  26.5899396  32.4072242  60.2554369  27.7162480
  49.8816299  39.5266104  38.1942415  49.7865105  38.7155414  37.6948905
  50.7638884  39.4790959  38.5624743  41.9108677  24.3103600  62.1435452
  42.6632166  24.6070576  61.6315174  42.0595360  23.3727980  62.2664642
  47.5006676   9.1503841  65.9356546  48.2403231   9.3451393  65.3601456
  47.6180601   9.7365248  66.6832447  38.1811953  38.3752227  67.0497417
  38.2666564  39.3284774  67.0344877  37.2651267  38.2132387  66.8243217
  42.6192760 127.6420934  53.7940741  43.0467558 127.3353762  54.5937109
  42.1465874 126.8768937  53.4665585  49.4409037  45.4055929  23.1427503
  49.2370415  46.0063505  23.8595200  49.9315548  44.6959019  23.5572743
  51.7619133  10.7248640  27.1489811  51.0337782  10.9634411  27.7226806
  52.1463680  11.5620697  26.8891549   4.9906671 137.7338404  32.8265548
   4.5895514 137.1424521  33.4634209   5.7797766 138.0556578  33.2624125
  32.4491358  16.5954733  43.2382536  32.7180195  17.2837901  42.6298523
  31.5840721  16.3268411  42.9288435  55.4848003  37.2943425  58.9047956
  55.3873110  36.7036581  59.6516705  56.1007214  37.9621220  59.2063618
  -0.1419014  29.1448379  35.2094340   0.1055213  28.2532358  34.9643612
   0.0631308  29.2023587  36.1426449  43.6394596  22.0812559  61.2666655
  43.9867067  22.2266912  60.3866100  44.0106535  21.2406659  61.5347242
  63.0421448 141.4908261  67.0958567  62.6369381 142.3570887  67.1361876
  63.8271189 141.6181586  66.5630960  70.4723358  48.4657764  85.4901123
  70.2942419  47.9109335  84.7307301  71.4240456  48.5680771  85.4940701
   2.2375995  11.1913621  59.2378664   2.6500341  10.3298891  59.3010664
   2.2613399  11.4003503  58.3040619  30.7414675  23.0639648  58.4169769
  30.1556826  22.3634005  58.1301069  30.3756857  23.3550262  59.2522764
  37.0159745  15.8562040  51.3078070  36.0846400  15.6353784  51.2988377
  37.2139311  16.0962880  50.4025984  47.8394318   9.7273219  45.3527641
  47.3264790   8.9625418  45.6139517  48.1978607  10.0667667  46.1728477
  52.8925800  38.0631804  29.4547415  52.8628254  39.0112114  29.5835257
  52.3629665  37.9110527  28.6720538  33.9987493  25.5113220  26.2399626
  33.5083938  24.7158766  26.4474511  33.4719825  25.9500027  25.5718994
  48.7750483  20.7375765  37.5487232  48.0544853  21.3303423  37.3350668
  49.5370245  21.3097596  37.6394248  17.2627664  42.1054935  33.8432646
  17.8393650  42.8686666  33.8067317  17.4913073  41.6717768  34.6653891
  72.6229477   0.9756069  75.7363272  71.6856861   1.1699244  75.7331085
  72.8738928   0.9908523  74.8127317  31.8967247 141.8926556  24.6171975
  31.6253948 141.7204834  23.7155509  32.5410414 141.2109114  24.8077559
  54.6861506  14.9219871  16.8786991  53.7330627  14.8387790  16.9092572
  54.9998236  14.3379068  17.5691271  63.4476089  43.5779190  42.9129887
  62.6219177  43.4291792  42.4521828  63.5697412  44.5268917  42.8853512
  46.1173344  53.0808640  18.7608290  46.3129568  52.5550222  17.9852951
  46.9488430  53.1307745  19.2323482   1.9714591  33.0640221  38.8582420
   2.5444892  33.8210773  38.9796329   2.5630006  32.3529315  38.6119461
  46.2002850  64.9843550  46.1294794  46.2931776  64.1477251  45.6737947
  46.7967796  65.5750799  45.6696177  24.4658947  75.6711006  45.8122063
  25.0929880  76.1915255  46.3143444  24.9924350  74.9746037  45.4199314
  58.0713654   3.9281884  29.2266345  58.2860088   3.2485050  29.8655319
  58.7344646   3.8323033  28.5430121  38.5282111  27.6600337  64.5452309
  39.0491939  28.1673765  65.1676559  38.8895130  26.7750835  64.5958090
  56.9788122   9.5991403  15.0343478  56.8334675  10.5391264  15.1417422
  56.8305588   9.2327172  15.9061193  62.3728800  11.2385619  36.4257050
  63.1101799  11.5623009  36.9432163  62.7544498  11.0208416  35.5752754
  62.7481079  32.6363993  43.8079214  62.0918083  32.6357937  44.5047045
  63.0948353  31.7442107  43.8047028  57.8410339  51.4414692  51.8589640
  56.9716787  51.5234041  52.2510529  57.7416229  50.7574797  51.1967611
  57.1711206  43.4940100  37.4342585  56.9379997  42.5703716  37.5279593
  56.5100479  43.8487720  36.8398261  14.6392727  42.0554972  73.6925507
  14.2608273  41.3081264  73.2294559  15.4332232  41.7082834  74.0991402
  60.7824135  60.5548573  29.1123843  61.2322426  59.7217703  29.2532873
  59.8845720  60.3077936  28.8908577  35.1738548 133.5207195  53.3544302
  34.9602342 133.6446650  54.2792177  34.6203709 134.1515917  52.8941154
  26.9369888  19.6972597  37.4444747  27.8227639  19.8264158  37.1054244
  26.3653445  20.0427580  36.7588472   7.7096599  86.8131065  47.8903818
   7.6036143  87.6990986  48.2367802   7.6828313  86.9227505  46.9398642
  25.2105427  44.9443007  55.2899122  25.7723570  44.5044136  55.9279537
  24.5068550  44.3184090  55.1186991   1.0334277   8.7474602  69.7049809
   1.8218562   8.9665723  69.2083883   1.0345472   9.3614304  70.4393291
  54.9493170  20.4819727  48.4089231  55.7694960  19.9958694  48.3237982
  54.6366072  20.2718878  49.2888689  24.7418690 132.9131395  47.4170637
  25.3005290 132.1408040  47.5044107  24.4080281 132.8671772  46.5211487
   6.9004029  44.1327572  65.0533867   6.5764338  43.4515572  65.6426620
   7.4084610  44.7157097  65.6175375  43.8952494   9.5997411  37.3523331
  44.7318125   9.8921883  36.9905782  43.6527252  10.2828372  37.9774690
  26.3116360  26.1571908  63.3644009  26.3580441  27.1124816  63.4030962
  27.1984720  25.8655524  63.5758305  34.2882466  26.2310529  76.0311365
  33.8377142  25.9893441  76.8403530  34.2417574  27.1868300  76.0074329
  66.5202999 145.0547614  36.4461040  66.3416290 145.4759505  35.6053257
  67.4208069 145.3049880  36.6527677  22.1274972   0.6531299  37.1691370
  21.8448448   0.7708479  36.2622285  21.8519402  -0.2359422  37.3924088
  48.3237886 114.2275090  47.7630663  48.3241796 114.3241472  48.7153769
  48.1372166 115.1064939  47.4332047  48.8930035  24.5392251  10.7259977
  48.2303095  23.9358091  11.0620868  49.6723175  23.9965177  10.6061161
  58.2304049  11.0732782  39.1454005  58.2381248  10.2171004  39.5733404
  59.1244745  11.1881900  38.8234377  56.4916420 136.4102573  41.1830854
  57.3349237 136.4712090  40.7343197  56.6836596 135.9322805  41.9898701
  71.6993999  34.7903705  15.6386089  72.4712467  35.1602101  15.2100062
  72.0212364  33.9988828  16.0701191  32.2096443  59.7586250  30.0447774
  32.5512552  59.2005587  30.7434130  32.3227024  60.6504011  30.3736901
  34.2672276  53.5699034  27.4349689  33.5251498  53.4685183  26.8389177
  34.8769116  54.1379213  26.9639349  13.5671079  26.6327667  88.8275814
  13.4191787  26.4945364  89.7631264  12.9890347  27.3605394  88.5986519
  28.8565493  20.8259392  54.2691612  28.6308455  19.9564755  53.9385223
  28.1764412  21.4000940  53.9169788  38.0492353 145.3148992  78.4940195
  37.4218702 145.9412631  78.8550091  38.6826944 145.8553995  78.0219793
  14.7133219  31.1175752  51.9647551  13.8405168  31.4274120  51.7230034
  15.2193904  31.9168878  52.1104383  29.4636083   9.7187388  77.4529314
  29.4827318   9.6674436  76.4972973  30.3554034   9.9660563  77.6974058
   7.9224271  47.3500490  62.5358963   7.9735440  47.9688883  63.2643604
   8.8348579  47.1482515  62.3285818  10.6126714   2.6636732  70.3651953
  11.1630678   2.3591910  71.0867119  11.1111093   2.4491151  69.5766783
  26.6722727  25.8030558  69.4977808  25.9232020  26.3988853  69.4873238
  26.8625641  25.6412959  68.5737371  58.8807201  88.7421322  14.9269867
  58.3670187  88.0966949  14.4414330  59.6827316  88.8444805  14.4146001
  18.1777620  39.6475410  49.1775560  17.7463686  40.0240517  48.4105015
  18.1540143  38.7027097  49.0260220   3.2831308  25.1332474  33.6119270
   3.0487388  24.3653059  34.1330409   3.7785581  24.7793603  32.8733158
  47.7966595  50.0197315  44.0272903  48.4086752  49.8821115  44.7502851
  48.3476448  50.3033972  43.2977819   9.9138999  33.6467886  30.8529711
   9.7839987  32.9776287  31.5249705  10.0984681  34.4471598  31.3444757
  67.9797029  19.6554041  59.8635387  68.3311319  20.5165100  60.0898695
  67.4212360  19.4221640  60.6051207   8.4569114   5.9986317  53.0358934
   8.7044072   5.9300435  53.9579964   9.1620660   6.5075076  52.6358509
  20.5055451  46.1936283  44.5760632  20.4139400  46.1651659  43.6236858
  19.8883748  45.5355310  44.8958206   7.7344054   4.3999216   1.8213359
   7.3296404   4.9846166   2.4620610   7.1836334   4.4799340   1.0425673
  43.6301470 138.4844590  48.6535120  43.0968857 137.8309626  48.2009506
  44.3595314 137.9854453  49.0212297  74.2821026  38.2038212   3.8922632
  74.2762423  37.6118731   4.6444571  74.8550177  38.9231181   4.1579965
  45.7149029  48.9372444  26.7845988  46.6539478  49.0149546  26.9530869
  45.3843117  48.4080458  27.5104690  26.1524773  50.1011658  42.0364857
  26.3628387  49.3015623  41.5541887  27.0030379  50.4541779  42.2975683
  26.8696213  18.8708901  25.8258677  26.9777656  18.4187305  24.9891543
  26.6456604  18.1769276  26.4459395  44.6503353  31.3622546  46.4011526
  45.1336813  31.8746710  45.7530499  44.2827177  30.6319904  45.9033585
  56.0710812  49.3062258  41.1517811  56.9122696  49.0474033  40.7754230
  55.9523201  48.7196922  41.8988466  42.5693655  22.1706295  17.3309600
  42.7522898  21.5513420  18.0375385  41.6268492  22.0934319  17.1828413
  26.8642545  13.2894397  44.9514723  26.3307858  13.9897728  45.3272057
  26.3826537  13.0136383  44.1715860  46.9072866  14.3108368  68.8530684
  47.4536991  14.0353262  68.1170273  46.8642902  15.2639484  68.7758684
  55.1802254 146.2383333  67.6923704  54.9525976 146.7436229  68.4728193
  54.9445534 145.3372778  67.9132557  71.6584635 143.9057980  32.5791597
  71.0720348 144.3933799  33.1576014  72.3960400 144.4977746  32.4315906
  67.6964855  46.6503859  45.6726217  68.5776138  46.5413952  45.3148985
  67.3613834  47.4398565  45.2475643   7.3908269  44.1326189 107.6600159
   7.4649346  44.9456787 108.1596951   8.2533693  44.0169954 107.2614136
  15.9726834  16.8510294  63.3398819  15.0496960  16.6068387  63.2713461
  16.4458799  16.0223603  63.2648802  51.2488890  11.0763741  17.1395743
  51.9944286  11.4191663  17.6324165  50.7326508  11.8509686  16.9165623
  36.3827300   6.3139588  54.7658777  37.2838116   5.9986007  54.6963596
  35.8508205   5.5974388  54.4196081 118.7232507  15.7059479  40.3389502
 118.3762164  15.4846632  39.4747567 118.0530662  16.2665856  40.7298088
  20.0012112  15.5703449  38.4326005  19.5590949  15.8623779  39.2297721
  19.5186794  15.9934378  37.7223992   0.4929743  30.8884907  14.6460104
   1.3613254  30.4923701  14.7187185  -0.0991308  30.1466084  14.5224977
  51.9905758   7.9137605  48.9246035  52.5038195   7.2648704  49.4060135
  52.6441002   8.4908539  48.5295010  30.9892797   9.2451930  25.0537586
  30.5543756  10.0259554  24.7109771  30.2930498   8.5913223  25.1165938
  56.4788342 141.8387506  33.9992714  55.9202957 141.8725882  34.7758794
  56.6104650 140.9042121  33.8394523  74.2004871  29.5426130  18.3439207
  73.5775614  29.3560600  17.6415026  74.8921108  30.0520921  17.9216421
  28.3986616  52.7817774  12.7657413  29.2310572  53.2051802  12.5557840
  28.0639386  53.2710314  13.5172856  60.9095430  56.4147043   4.7313115
  60.3327894  55.7856941   4.2977926  60.3848314  56.7637444   5.4517817
  41.9642401   9.8047453  49.4074965  41.8179226   8.8895279  49.6466637
  41.5030861  10.3049278  50.0808382  41.6811848  11.9392359  43.5128546
  42.4704361  12.3784184  43.8297606  41.2579250  12.5856018  42.9477930
  84.3115902  28.2412958  10.2163672  83.6835480  27.6107693   9.8638988
  85.1125717  27.7338529  10.3473496  20.1093435 127.3746450  38.5378623
  19.8723006 127.3683233  39.4652247  20.2121520 126.4505119  38.3106232
  47.8506422 143.7434609  28.9186263  47.9823303 143.1613041  29.6669459
  48.0794621 143.2103569  28.1572628  18.5552800   1.6783002  39.7692680
  18.2661235   2.1452391  38.9853120  18.0500150   2.0702532  40.4815245
  42.5639868  10.3355289   0.6037408  42.9713917  11.1110461   0.2179615
  42.6881599   9.6487832  -0.0513882  44.7185135  10.1318789  48.3007097
  44.0404940  10.1809371  48.9745903  44.3513632   9.5522416  47.6332855
  26.4702392   0.8420066  23.5989761  26.4773846   1.0993131  24.5209169
  25.5578518   0.6136599  23.4211040  68.3590412  15.2384806  25.5437231
  67.6373434  14.7510433  25.9409499  68.5080910  15.9731722  26.1389065
  35.4187894   3.3979824  25.7400227  34.7615552   3.8797483  26.2421966
  36.0455656   3.0932364  26.3961577  39.3274045 125.0007481  39.9625206
  39.2081022 124.8500867  40.9002304  38.5186720 125.4305405  39.6841931
  59.1449642 143.1839568  28.1426263  59.6171141 142.8596888  27.3757100
  58.2276583 142.9764021  27.9645872  60.7879972  20.6610632   6.6407168
  60.8436441  19.9932945   5.9571820  60.8699465  21.4913988   6.1716104
  45.5830765  72.3632526   4.8640057  45.5080938  72.0382357   5.7612103
  44.6837044  72.5663853   4.6069035  49.6395731  26.9145441  27.1900320
  50.3790617  26.3708949  26.9183016  49.8011017  27.0928955  28.1164932
  26.2451148  22.7586651   8.5658771  25.4263663  22.3113251   8.3519346
  26.1750865  22.9522586   9.5006758  69.1359806 137.1943588  11.3699222
  69.0799427 137.4009175  12.3028874  68.9796352 136.2511487  11.3236248
  90.9827137  10.4047096  25.7426715  91.3717842  11.0290205  25.1302266
  91.7162800   9.8597467  26.0275054  72.5538015  29.5452499  20.9418344
  72.6687384  29.2825222  20.0286007  71.6476059  29.8495483  20.9912801
  37.9507637 143.5195539  63.9123249  37.8859305 142.5718010  63.7948799
  37.8413820 143.8780774  63.0315685  34.1779971  29.9508095   5.0077331
  34.5145202  29.0581298   5.0858700  33.6113143  30.0608373   5.7712758
  89.1719151  20.8100486  23.8688278  89.3292522  19.9331892  24.2189598
  88.2831955  21.0250950  24.1519594  22.6990747  24.5908046  34.9535728
  22.5794101  25.4191566  34.4890857  21.8733382  24.4553876  35.4183865
  19.7566915  35.9518671  27.6383948  19.6183038  35.9746838  28.5852647
  19.0410650  36.4762473  27.2790432  27.1422982  26.8786931  45.4331017
  26.1954451  26.9917464  45.5162811  27.2844338  26.7288828  44.4984436
  41.7571497  35.4626274  22.0731354  41.2725830  36.2881088  22.0705771
  41.7127037  35.1560044  21.1674643  15.0236058  16.7814243  35.6586647
  14.2044532  17.2665334  35.7581091  15.2863181  16.9383669  34.7517014
  40.3893089  25.5093479  27.8953052  39.5839310  25.8061004  28.3190203
  40.8715963  25.0572443  28.5875750  14.4171858  14.0199912  32.4451900
  15.0504529  13.4445143  32.8741765  14.3231177  14.7610331  33.0437207
  71.3252592  20.5333447  43.7741804  71.5955067  21.1616468  43.1045294
  71.8850470  20.7286239  44.5256710  35.4472327 140.5553682  50.9851027
  35.3270340 140.1066453  50.1481867  35.4497147 139.8529071  51.6353130
  48.8813925  29.3704104   3.1991488  48.5318422  30.2541614   3.3133090
  48.1107330  28.8277149   3.0324039 121.4813051  48.6710882   9.3614262
 120.9666420  47.8939772   9.1435856 122.1786854  48.6879826   8.7059820
  39.7286034 139.2991365   8.0146533  38.7743568 139.3621672   7.9737818
  40.0331974 140.1994056   7.9007697  74.1963482  38.8499355  61.5162945
  74.7784662  38.3123255  62.0532751  73.3649778  38.3755374  61.5156507
  79.8826170  20.5570054   1.1653265  79.8525333  19.6627104   1.5052718
  79.3374252  20.5327749   0.3789329  55.9043217  34.5943260  47.7948523
  55.3617954  33.8727307  48.1129646  56.2985802  34.9639130  48.5849094
  43.2627439  54.0824223   1.9655579  43.0077696  55.0035858   2.0173255
  43.0202484  53.7185669   2.8170502  66.2578869  10.8733308  14.0270269
  66.6651964  11.7374909  14.0866852  65.3277683  11.0556579  13.8933647
  64.3245697  15.8821058  93.0214473  63.4166145  15.9635270  92.7295145
  64.7619295  16.6538382  92.6617547  91.0279465  18.5667598  38.8721013
  91.6977406  18.8762164  38.2623148  90.3915596  18.1135559  38.3190656
  52.9287720  36.5495849   9.2580843  52.3290539  36.8810916   9.9264234
  52.7762604  35.6046796   9.2468876  62.0653248  22.9436326  19.3866956
  62.6028299  23.6276126  19.7860575  62.5394154  22.7001214  18.5916030
  24.6481848  31.4027023 108.4008195  25.1971769  31.4394665 107.6175644
  24.4677520  32.3191571 108.6100692  46.2367249  25.0426912  59.3007421
  46.2598801  25.0981784  60.2560520  45.6791401  24.2863774  59.1181993
  45.4050684  35.9183526  66.9376564  46.1287880  35.5303168  67.4294806
  44.6596813  35.8784294  67.5368595  51.4289093  18.6820364  32.0159912
  51.8337345  18.7180519  32.8826237  50.5052042  18.5015845  32.1904349
  39.6332264 136.8035496  14.4136882  40.1863575 136.9665475  13.6496770
  40.0300789 136.0433192  14.8388839  33.1545854  24.5335984  19.0914893
  33.9627790  24.9594021  19.3773949  33.0055547  23.8438177  19.7381914
  41.5161467  54.9772072  47.7308941  42.4304962  55.0715351  47.9979134
  41.0830402  55.7560539  48.0802441  37.2753620  15.8386350  75.2527571
  37.8975224  16.5655935  75.2787924  36.6930580  16.0477853  74.5224047
  43.2313776   2.0215487 109.4714345  43.1574726   2.8073344 108.9298529
  42.6512718   1.3861263 109.0519742  48.2258892  13.8164508  39.3500066
  48.2646751  13.3256149  38.5291505  47.3366117  13.6722839  39.6734858
  47.3648739 145.6495723  52.2714520  46.5312052 145.9758942  51.9327259
  47.8323364 146.4353479  52.5547695  22.8269410   3.4813595  18.3769739
  23.4817910   4.1233054  18.1025481  22.1071339   4.0074271  18.7253451
  42.6464701  47.1353436  46.5350389  42.4663639  47.4339056  45.6436062
  43.4929800  46.6928434  46.4729881  42.1693945  33.2396221  27.4545264
  42.2935343  33.9301324  26.8033624  41.9239950  33.7055206  28.2538700
  49.6578169  29.3906593  55.2402210  49.3428850  28.9617896  56.0359097
  50.2313900  28.7432718  54.8301744  37.6144195  35.4866385   7.0385706
  38.4769917  35.8897448   6.9400537  37.3936319  35.1757765   6.1605906
  40.8894825  33.0228806  23.7182021  41.7178679  32.5495076  23.7951660
  41.0353851  33.6469269  23.0072093  16.6382563 146.5593461  41.1544514
  17.0400393 146.8560532  40.3378916  16.8544078 145.6281462  41.2032080
  59.4942093  43.4433126 106.0552710  60.0386620  43.2705498 105.2871858
  59.1028595  44.2998409 105.8836912  79.7515488 136.9047732  33.3099318
  80.2049541 136.0841734  33.5029936  78.8345098 136.6522408  33.2027221
  60.7150364  42.8956604  41.7854834  60.1498508  42.6194048  42.5069284
  60.9163952  42.0864201  41.3155699  58.0222130  61.2448120  26.7959690
  57.1447372  61.5390587  27.0402694  58.1686735  61.6224766  25.9287047
  66.6155434  19.0696657   2.9755074  65.9990978  18.3386040   3.0176178
  67.4785995  18.6557174   2.9790163  63.1333256  29.2392564  45.3639841
  62.3597050  28.7456489  45.6361914  63.1647825  29.9849319  45.9633303
  38.8547945  65.4584169  39.9869204  38.1559277  65.9287834  40.4414225
  38.7702250  65.7288313  39.0726137  38.7599301  19.8220706  20.4277086
  38.8040280  19.8174036  21.3838816  38.0711317  20.4543638  20.2227926
  25.1249886  10.4677927 108.0360652  24.2380953  10.8134103 107.9350635
  25.4187036  10.8054352 108.8822101  24.5213175  30.8199692  38.7284207
  24.4286895  29.9527979  39.1229653  25.3989577  31.1059022  38.9818406
  40.5839300  24.8653531  47.0750237  40.8237028  25.1051807  46.1799097
  39.6690917  25.1343989  47.1581793  44.8282290  34.2674637  50.5916309
  44.3187284  34.1630697  49.7880507  45.7393312  34.2751503  50.2982569
  39.3932891  46.5447712  50.2889776  39.7564697  47.3583984  50.6387568
  39.1067147  46.7712736  49.4042158  35.0873876  13.6422169  26.5624714
  35.4122663  13.7198329  25.6654406  34.1356087  13.6993313  26.4782834
  36.8799448  31.1348391  47.4416876  37.6442242  31.5398383  47.8516674
  36.4547992  31.8500781  46.9684887   5.2068639  43.8799477   9.4401050
   5.1634896  43.6651373   8.5083294   4.6242967  43.2465982   9.8592848
  54.9613905  30.6012678  43.2606459  55.1711130  29.7915173  42.7952909
  54.0181112  30.7097435  43.1394434  23.1590366  22.0685053  29.0187120
  22.9149652  21.1948371  28.7131476  22.9943871  22.0472097  29.9614024
  43.0322313  25.3353691  11.4400446  42.4337149  25.4006791  10.6959021
  42.4660921  25.4000688  12.2091556  59.3521929  34.0987968 105.6182566
  59.4860697  33.3262157 106.1672824  59.0607452  34.7776031 106.2269535
  52.1421576  28.8278913  48.0745983  52.2063875  27.8952503  48.2802296
  53.0174828  29.0667605  47.7696705 120.8222095  31.1345410  19.9246049
 121.7696682  31.0187793  19.8528206 120.5923656  30.7185817  20.7554984
  84.7512245  69.0560818  29.3902612  84.6678066  69.0421724  30.3437185
  85.6479836  68.7655354  29.2240262  35.0315547  41.5506887  95.6981345
  34.9512005  41.0024977  94.9175807  35.5879259  41.0444641  96.2900981
  41.7310381 121.2485761  22.3587203  41.5679312 120.3463549  22.6337290
  42.6379108 121.4167614  22.6146960  27.7521181  29.3608093  34.4974661
  27.7463365  28.9315629  33.6419272  26.9769788  29.0182996  34.9425244
  59.9988937  26.6596437  10.5135214  59.1789579  26.2492466  10.2387345
  60.1951790  27.2901106   9.8205447  36.1455798  39.1550589  49.0150023
  36.7595291  39.0934658  49.7467852  35.3197527  39.4242549  49.4172192
   2.2388424   0.3681633  26.2753177   3.0066207  -0.1809917  26.4339900
   2.4314414   0.8170687  25.4521394  50.8288527   9.2016047  55.7401943
  50.8220530   9.9401164  55.1312733  50.2818918   8.5386705  55.3187895
  51.8909168 138.5543741  11.8295109  51.5190983 138.2869072  10.9890079
  51.1919308 138.3923037  12.4630630  47.2805500  30.2497721   8.1516874
  46.6252613  30.9380794   8.0374146  48.1133938  30.6759906   7.9493469
  66.0142946  51.7779016  67.6448393  65.1557922  51.7699099  67.2215891
  65.8783865  51.3138771  68.4709358   3.9982191  22.3274946  25.1755214
   4.9341747  22.3025155  25.3745079   3.5919070  21.8080783  25.8693171
  42.7274704  33.1741571   8.9214677  42.0552063  33.7020516   9.3523079
  42.3733425  33.0007458   8.0492556  35.8156061  37.3508453  46.9183540
  35.9785700  37.8689361  47.7065516  36.5396571  36.7254567  46.8888617
  55.7338476 141.5503950  43.7446260  55.1253462 141.1293990  44.3518496
  56.4816475 140.9543199  43.7031794  39.8031521  64.9903345  10.9656203
  39.0770745  65.2637386  11.5262413  40.5790186  65.0763512  11.5195763
  52.1745014  51.4440393  27.2891593  53.0747032  51.7479658  27.1729684
  52.2593451  50.6250000  27.7772212  23.8868809   4.0047517   9.9567348
  23.6788487   3.0907887   9.7627574  23.0966544   4.3467167  10.3748679
  75.4885435  35.9252620  29.0941548  75.9983110  35.6743264  29.8644805
  76.1088324  35.8679581  28.3673906  47.9028559  10.1342618  58.8468504
  47.4608421   9.2927301  58.9594650  48.7869787   9.9872851  59.1829395
  50.5326557 135.6345839  32.5422215  50.9660625 136.4816160  32.6467586
  50.2972603 135.5987866  31.6151071  52.2214317  32.4471211   0.7564747
  52.4265909  33.2954264   0.3633866  51.5829039  32.6483059   1.4406081
  68.8245487  33.9869189  22.9276299  69.0553474  34.8935533  22.7252007
  68.5446596  33.6182308  22.0897961  40.4635143 132.9780979  41.2209082
  40.7928514 132.7808077  42.0977497  40.7929087 132.2640938  40.6750774
  30.4266143  62.5661707  13.3232284  29.7553110  62.2616911  12.7125943
  30.9283447  63.2115746  12.8252792  44.2577887 138.3080108   7.9542869
  44.9902964 137.8256036   8.3376241  43.7629986 137.6470751   7.4699569
  24.9738336  67.2961426  30.1575708  24.8479652  66.9588852  29.2706394
  24.1285467  67.6805544  30.3898430  13.7985778   3.9182654  44.5897102
  13.4743249   3.5239208  43.7800264  13.1790829   3.6314091  45.2606583
  46.3715982  27.4163055  15.4644537  46.4098406  26.5963340  15.9568143
  46.4912319  27.1534944  14.5518470  43.1923580   3.8461596  11.9513583
  42.5033665   3.6985213  11.3034940  42.7594423   3.7165287  12.7951670
  39.6949434  13.3972716  34.3232560  39.6946692  13.9949405  33.5755777
  39.5001292  12.5399792  33.9446688  54.3667650  38.5330558  26.0675168
  55.0052500  39.1915226  25.7936764  54.7465277  37.7002096  25.7875562
  50.8319950  14.7385895  36.7540836  51.4240932  14.9853253  37.4645591
  49.9789715  15.0786173  37.0242047  33.0714607  31.8826580  31.4473987
  32.3940825  32.3368168  30.9462714  33.8854074  32.3240209  31.2046623
  23.8265371   9.1519904  12.6691496  24.3995070   9.2387915  11.9073081
  24.3150449   8.5934770  13.2738447  10.1176345  42.6872873  55.3173971
  10.9183729  42.6284552  55.8385420  10.2887046  43.3935308  54.6943569
  51.7580032  25.6242180   8.6291480  51.9635916  24.7468209   8.3064413
  52.1439123  26.2141109   7.9815900  35.3770614   1.8688968  13.9838040
  34.7014499   1.8100314  14.6593165  35.5272865   2.8081262  13.8765109
  43.4011269  13.7614417  24.0571380  44.0645742  14.4358718  23.9114881
  43.9016819  12.9791570  24.2888880 123.0282953   7.3826158  13.4682465
 123.7601520   6.7656738  13.4680438 123.4126162   8.2100350  13.7579131
  37.4816847   2.7195004  98.8045236  36.7857790   2.4420214  99.4003042
  38.1904554   3.0054811  99.3807956  35.0711465 139.7066898  34.5513058
  35.1052785 138.7621851  34.7028875  34.2434072 139.8456521  34.0911198
  39.3391657  14.6463335  26.0485744  38.5388541  14.4118309  26.5184093
  39.2634940  14.1963649  25.2071285  20.2503467  37.6539040  17.8975642
  19.6484482  37.4137616  17.1930909  19.7045660  38.1211805  18.5300255
  21.1325049  31.7249084  63.8329601  20.6905460  32.0366621  63.0432034
  21.8762875  31.2181902  63.5069942   8.0468071  29.6560764  33.0949664
   7.7885687  28.8517404  32.6448679   7.2795928  30.2245855  33.0285645
  24.3070722   5.2963436  17.1719193  24.4485688   6.1915755  17.4797678
  25.1336098   5.0529921  16.7549706  51.0742331  37.7143788  11.1210477
  50.2744436  38.2402349  11.1280382  51.6200829  38.0994844  11.8065929
  50.2408504  21.3501596  51.0524368  50.7376909  21.5001726  50.2481461
  49.8289013  20.4957914  50.9236526  16.5334249  21.0551524  17.9841185
  16.2792099  20.1483059  17.8131461  15.9709322  21.3290668  18.7085533
  31.0565686  26.8259001  28.0781531  30.5415797  27.6304793  28.1387711
  31.8102694  26.9804764  28.6476016  60.6321049  18.9382267  11.2692404
  60.1396418  18.9822900  10.4496264  60.1901293  19.5595264  11.8479240
  65.0603056   3.2319587  14.5954311  64.8632908   2.4305880  15.0804281
  64.9714041   3.9315850  15.2426183  42.5468874   8.2267457 104.1929486
  43.4819269   8.0288726 104.2456677  42.1712446   7.4842435 103.7198588
  14.0797842  19.8345149  42.6140165  14.5876002  19.2939031  42.0089626
  13.3889115  19.2534435  42.9322672  78.3432436  48.4733629  51.3963509
  78.4593153  47.6343441  51.8422318  77.4487925  48.7374163  51.6119051
  86.2257385  44.3026924  26.5544605  85.5951786  44.8983288  26.1496687
  87.0455456  44.4695950  26.0893869  67.3660278  31.5777159  15.2572095
  68.0642748  30.9246635  15.2101958  67.6186085  32.2447896  14.6188939
  26.6900110  29.7939730  19.8385561  27.0322657  29.4132352  19.0297711
  25.8303475  30.1381731  19.5962000  39.1344213   5.3569251  39.7273779
  39.5763588   5.5093461  40.5626583  38.5068941   6.0759622  39.6537161
  24.6500540   9.1249484  34.4411850  24.3449259   8.2252604  34.5581913
  23.8507342   9.6515346  34.4463730  43.2147455  69.1309595  11.0513091
  44.0507221  69.5896053  11.1351109  42.7261162  69.6399164  10.4044414
  38.9585400  19.7911823  52.1804571  38.9050436  20.2923107  51.3666773
  39.8879290  19.5810843  52.2717047  64.5120859  44.8729992  33.4602499
  65.1727486  44.2959690  33.8433862  63.7233067  44.3331575  33.4089613
  37.2954369  14.0917087  32.2042179  38.1175923  14.0941620  31.7140269
  36.6520405  14.4531703  31.5946126  24.1416955  32.1698833  18.9709318
  24.0273619  31.4863825  18.3106387  24.0297270  31.7167330  19.8066056
  29.7013426   2.8421172  49.0375376  29.2161751   2.2526275  48.4601736
  30.5336213   2.3951249  49.1916275  43.2891273  12.9359603 109.1571216
  43.0148649  12.8713787 108.2423320  42.9302883  13.7713850 109.4563422
  64.8851919  16.8947923   3.1665209  64.6704865  16.4187372   2.3643339
  65.1257658  16.2122285   3.7929910  48.2689381  19.0752232  14.3011999
  47.6426697  19.1282189  15.0231516  47.8600454  19.5719659  13.5924792
  54.7921181  43.0148983   8.3794606  54.7826624  43.2684755   7.4565089
  55.1376677  42.1222448   8.3790666  48.0670977  34.1167688  27.6629114
  47.9137659  35.0532937  27.5378442  49.0046310  34.0496397  27.8439116
  67.3306847  46.1169529  52.8882265  67.6797724  46.9077587  52.4771309
  66.8518353  46.4360666  53.6531448  85.3765488  25.8977699  56.3958645
  84.4195271  25.8832049  56.4068365  85.6009865  26.2394476  55.5303431
  30.4185224  24.7168326  31.5610719  30.1996112  25.5546117  31.1531091
  31.2703848  24.4854975  31.1908746   4.6531245  13.0853581  32.1721435
   4.4457516  14.0012741  31.9868755   4.2504969  12.9161835  33.0239081
  40.6786585 146.2784236  34.1442442  41.4370346 145.8551594  33.7418222
  40.1880026 146.6418274  33.4070706  61.8593311  18.6086166  60.4921675
  61.4842987  18.1978226  61.2711620  61.8309832  17.9243851  59.8233938
  46.6681290  28.2796931  29.3795013  46.4425516  27.4724531  29.8417902
  47.2445536  27.9962182  28.6698484  39.0847731  12.5827241 109.0296053
  39.0662646  11.6269481 108.9808039  39.7721934  12.8406394 108.4154681
  89.6860695  22.9003310  13.8704038  90.4783726  23.3231974  14.2015648
  89.4658184  23.3909607  13.0785692  57.4049902 137.5645358  29.5322990
  57.4918556 138.3493067  28.9911699  58.2426596 137.4954946  29.9903107
  51.2567854  71.2712765  14.3334150  51.4153862  72.1594048  14.0135515
  51.9304276  71.1326122  14.9991548  46.8315506   3.9265582  32.1638393
  45.9912872   4.3750706  32.0688462  46.6016006   3.0497146  32.4712491
  52.5552893  16.4806545  96.7839237  52.2790098  16.8566751  97.6196929
  52.5640869  15.5359077  96.9375738  59.0390539  33.3283687  45.3997278
  58.8121653  34.1474271  45.8400631  58.7674856  32.6442504  46.0116625
  49.5204496  15.9091127 102.2402968  49.7634411  15.8381248 103.1634160
  49.1147327  15.0670564 102.0339843  55.3931332  22.0714879  52.1547461
  55.2014780  22.9656553  52.4375296  55.8301163  21.6710544  52.9063654
  50.1286125  34.5274091  51.0105562  49.9631643  35.4700279  51.0287380
  50.5045557  34.3336153  51.8692398  55.3634882  55.9299421  14.6967566
  56.1243153  55.8104086  15.2651620  55.6972551  56.4297724  13.9517736
  34.9800491  27.3918438  37.4919438  34.8779416  28.1500721  36.9167089
  34.5089722  27.6314878  38.2899976  50.4668617  29.6615791  50.1927853
  51.0639524  29.3253064  49.5244789  50.6636572  30.5970931  50.2409363
  56.5493584  36.3398361  22.4576187  55.6706047  36.6466308  22.2342253
  57.0423174  36.4092374  21.6400599  59.1976595  34.4182229   5.2371418
  58.2833815  34.2156029   5.4353130  59.2919731  34.2141414   4.3067184
  18.0939150  50.3434324   6.2043709  17.7755964  49.7779083   5.5007470
  19.0468454  50.2626562   6.1640197  45.3039980  34.8569989  45.4654837
  45.6848478  35.5840540  44.9729633  45.6269121  34.0723729  45.0224066
   7.5883865   0.8126190  18.8795853   6.7003894   0.7488352  18.5279834
   7.8835773  -0.0951395  18.9507806  70.1285410  34.9292541  48.0057812
  70.3150845  35.5228615  47.2784138  70.8307600  35.0935602  48.6351585
  61.1106110 121.9017715  46.6055298  60.2485657 121.4920468  46.5332031
  60.9774637 122.7966447  46.2929535  10.0165319  57.7386618  41.2799644
   9.7894359  58.3639050  41.9682455  10.2804208  56.9486332  41.7516136
  63.8459730  40.5854034  15.9758842  63.8245821  40.0442219  16.7651224
  63.3198977  41.3536358  16.1979198  41.7196846  41.5891600  51.2666082
  40.9453773  41.3520670  50.7562447  41.7300653  42.5462389  51.2554598
  27.6274467  29.0989757  25.9306788  28.2875967  29.6116877  26.3971162
  27.4107456  28.3851743  26.5304780  68.5910702  29.8814106  50.3340149
  68.6133146  28.9662123  50.6135654  68.5182238  30.3789330  51.1485052
  49.7741413  87.0540524  88.7838372  50.4895353  86.5597439  88.3837041
  49.9504709  87.9646206  88.5471758  50.5538511 132.9805548  23.9877748
  50.7137442 132.0374102  23.9539194  50.8340931 133.3019073  23.1307864
  49.9293709  14.9790025  16.7038834  49.1045427  14.5968020  16.4042008
  50.0842714  15.7118511  16.1079204  30.2889442  28.9558935  19.9526751
  30.0705051  29.6950030  20.5203342  29.5606613  28.9059949  19.3335235
 120.1293180  19.0137148  46.9454145 119.2082680  19.2730486  46.9200134
 120.1080263  18.0690134  47.0981121 115.8356596  22.4405646  26.0923195
 116.1183519  22.0081544  26.8981361 116.2222845  23.3148360  26.1413217
  37.1180868  41.9927979 108.9656641  37.2737169  41.8921089 109.9047450
  36.9513822  41.1033201 108.6537865  33.2927966   6.0681891  31.5760279
  33.3557892   6.7890239  32.2026539  33.8445973   6.3395965  30.8424830
  41.5899754  48.8612080  32.3530579  42.1648836  49.4485092  31.8623614
  41.0930634  48.3953619  31.6805267  32.6927996 140.1154424  33.2905722
  31.8767524 139.6342725  33.4275794  32.5032878 141.0013235  33.5996556
  45.8643579   9.1216242  61.4969826  45.5950403   8.8442248  60.6213379
  45.2761030   9.8459888  61.7102528  71.0412073  27.8547668  27.1899009
  71.2214088  28.7940073  27.1500468  70.4919529  27.6835942  26.4248824
  47.0658255  13.5794222  22.1469259  46.1914015  13.5773206  21.7575502
  47.0460129  12.8653550  22.7840662  68.7784576  31.7871213  43.1413126
  67.9071569  32.0393825  43.4469795  69.2590380  31.5701985  43.9402008
  24.1950393   3.9415455  51.2381220  24.9269772   3.5445604  51.7102480
  23.4730673   3.3234876  51.3521147  72.1933556  27.5574613  13.6097348
  72.2781992  28.1091452  12.8321230  71.5988398  26.8565202  13.3424067
  53.1512594  67.7910280   6.4466411  53.4543657  68.6890936   6.5801871
  52.3635101  67.7214241   6.9859385  29.2030287   3.3396330  34.3858671
  28.3154821   3.6619696  34.2290401  29.7460556   3.8192478  33.7603092
  46.7849874  30.2503753  99.0625437  47.3172045  31.0120964  99.2922422
  46.3309383  30.0220442  99.8736765   7.7241355  11.3396382   5.1860774
   7.8517765  10.4011738   5.3247327   7.8332001  11.7270792   6.0545391
  38.8290882  22.8099322  43.9447737  39.0279913  22.1875715  44.6442986
  37.9842806  22.5207400  43.5999584  25.8531785  25.6250119  18.9594686
  26.3066196  25.7298279  19.7959113  25.2233720  24.9211740  19.1149986
  63.8424444  46.8999147  63.6002874  63.4987116  47.7932692  63.5998869
  63.2317543  46.4085579  64.1497040  75.2098179  53.0325985  12.6956105
  74.7968817  53.8941860  12.7538168  75.5696869  52.9988623  11.8092775
  61.9177294  38.6975598 100.8310177  62.8335333  38.7361073 100.5552384
  61.7870426  39.4975090 101.3401666  73.7652779 141.4384432   7.9768908
  74.2256594 140.8051283   7.4262607  73.3047771 140.9035386   8.6234558
  62.8696442  27.9473424  23.9989066  63.1194210  27.1047306  24.3781805
  62.5320864  28.4523463  24.7386765  44.5686007  46.0108948   9.5294964
  44.8821831  46.9003963   9.6928406  45.0089169  45.4765558  10.1904333
  45.7085752 139.1646851  23.7619042  45.0055552 138.6099828  23.4238148
  45.2569199 139.8514290  24.2524362  40.0461483  49.7516632 108.5723363
  39.3850017  50.4423809 108.5272607  40.7418299  50.0473213 107.9851031
  68.1392908  46.2697935  32.7766848  68.4843493  45.5370331  32.2665596
  68.4073353  46.0825920  33.6763191  53.5140038  34.4776034  17.6997924
  53.8169765  33.7120485  18.1880164  52.5683928  34.4967508  17.8470564
  58.2868147  39.9249053   9.4544089  57.5181913  39.6161842   8.9746791
  58.7701559  39.1275930   9.6709841  34.3270516  32.1115398 103.7286403
  34.6907997  32.8522539 104.2136785  35.0372267  31.8313694 103.1512418
  52.0139027  22.2476578 104.8750281  51.0598707  22.2540069 104.7974896
  52.2067022  22.9322433 105.5156540  77.4813032  39.4771528  15.8468103
  77.1208715  40.3238201  15.5832314  76.8640947  38.8346672  15.4968131
  43.7850809  30.1362205  29.2736459  44.3019247  29.3414092  29.4054794
  44.4333887  30.8391380  29.2308235  35.3229237  14.9410570   8.8285971
  35.5152321  15.8766651   8.8909578  36.0921097  14.5128679   9.2044181
  72.1872473  15.5510259  24.1335893  71.7192984  16.1558509  23.5578799
  72.0408726  14.6886671  23.7448168  62.6160622   3.5642171  10.6994653
  63.1889391   4.0131378  11.3211632  61.9347143   3.1694028  11.2436354
  29.7037172 144.1823783   6.7325091  29.8810530 143.5636372   7.4409890
  28.7486386 144.2239142   6.6842479  43.6523485  21.7758727  10.4646599
  44.0305471  21.7504382  11.3436079  44.1309166  21.1044383   9.9784714
  70.0612307  38.5502076  15.5009377  70.4764652  38.3358169  14.6655631
  69.3620491  39.1621017  15.2708030  48.9348793  40.1252031  18.4531116
  48.8382912  39.2894125  18.9095747  49.8537350  40.3620529  18.5789669
  47.0984745  37.5049996   6.6866237  47.4568844  37.2877479   7.5471914
  47.8282785  37.9108191   6.2187207  50.4358101  36.1376667   6.1842853
  51.3837719  36.2393284   6.2695450  50.1574707  35.7732797   7.0245111
  70.0215864  51.0018778  37.6648927  69.7741508  50.0773096  37.6513171
  69.9225521  51.2896729  36.7573714  16.6927493  17.1688128  33.5651422
  16.7637503  16.3047743  33.1593990  16.0453057  17.6309633  33.0327272
  74.2505550   4.8211941   1.2428399  74.7637653   5.3574860   0.6384942
  73.6135101   5.4280961   1.6197726 111.2557668  47.5978470  12.3542070
 111.3535840  48.3106375  11.7228639 110.3962011  47.2234011  12.1614122
  34.1756248 123.1282801  18.7109995  34.7990060 123.8426132  18.5792553
  34.5403552 122.6230545  19.4376016  77.0700312  16.2911367  92.3840555
  77.9672384  16.1271739  92.6745280  77.0036602  17.2449303  92.3381897
  29.7604299  61.7735767 104.6613070  29.8096633  62.3793125 105.4008272
  30.4758501  61.1553001 104.8100927  81.8435192  42.2280073  20.5706620
  82.4833298  42.5543594  19.9379158  81.3962460  43.0134106  20.8858132
  21.7179680  18.0650175   4.6732441  20.9144497  17.7593958   5.0941789
  22.2743535  18.3504772   5.3979361  54.8610878  29.5453024   8.8407981
  55.3688765  29.1503429   9.5495927  55.1852512  29.1188860   8.0475020
  36.2826943  17.5313997   8.4681886  35.9954071  17.8158832   7.6005673
  36.9330692  18.1828189   8.7306684  39.7801518  35.3796196  35.8609676
  40.2045345  34.6051288  35.4917860  39.3606949  35.0642085  36.6614699
  22.9012156  24.6204877  19.1225493  22.9988480  24.6770692  20.0730753
  21.9652820  24.4732451  18.9862537  68.1140137  62.6537609  16.6460884
  67.1837521  62.6274586  16.8700445  68.3208323  63.5867262  16.5910554
   8.5739511  12.8387392  13.6184835   9.1561395  12.3899090  14.2315423
   7.6944351  12.5668228  13.8806760   7.8106701  36.1808681  35.5799103
   7.5832373  35.5853057  34.8658991   6.9707423  36.4088464  35.9783792
  27.2615385  40.7710028  14.3777144  27.4718714  40.8847427  15.3045666
  27.8601623  40.0866461  14.0784931  52.1904230  41.5241671  17.0314980
  51.5422153  42.2026730  17.2204030  52.8752756  41.6581345  17.6866794
  14.1079748  48.0355549   3.9219177  14.0576553  48.5296059   3.1036198
  14.3081880  47.1401453   3.6491665  30.2471328  33.3361650  86.4288124
  30.5001020  33.9005995  87.1593269  30.8856225  33.5314989  85.7429513
  79.1484737  51.0815287  89.6055993  78.6184931  51.3617373  88.8593825
  79.4969654  51.8948364  89.9707266  17.7990651  67.5451803   3.0416992
  16.9454694  67.1183729   3.1154996  17.9350424  67.9578638   3.8945967
  36.7838192 144.2891135  91.0518273  37.7114344 144.1961541  90.8347639
  36.5572262 143.4692416  91.4908012  13.5360563  52.1739912   8.9519697
  13.1813407  52.1212626   9.8394543  14.4471610  51.8944216   9.0411890
  46.1812973  25.3575444  97.1800073  46.8978930  25.3654695  97.8145620
  45.4351807  25.0059056  97.6656898  40.1737356 145.5812454  16.5697622
  40.7826757 144.9426667  16.9407594  40.6490660 146.4115084  16.6007054
  71.6762686  20.4619813  74.8143768  70.9686995  20.8915281  74.3336773
  71.7226076  20.9346342  75.6454515  40.5108309   7.9296267  46.3251114
  40.4372215   8.8814878  46.3942051  41.2316513   7.7018917  46.9122982
  20.7076716  21.4740443  23.4492064  21.2150764  22.2831130  23.5138583
  19.7999239  21.7665076  23.3674002  26.9881821  20.4590130  40.4255152
  26.0577464  20.6597042  40.5267239  27.0938969  20.2777457  39.4915962
  32.1321058  54.4219828 109.5612422  31.3647938  53.8516665 109.5143034
  31.9367361  55.0280046 110.2759469  28.5573506  11.0538244  24.2188430
  28.3859849  10.6148160  25.0519919  27.9791951  11.8166518  24.2267060
  37.8070450  26.7228603  42.8479671  36.9880104  26.2562871  42.6814651
  38.0566120  27.0802474  41.9957781  32.0379472 126.8499000  43.7366009
  31.8219900 125.9193535  43.6759663  31.1927295 127.2851820  43.8478088
  76.4485407   8.7971872  91.9985446  76.9064474   7.9877740  92.2252639
  76.8367243   9.4600159  92.5696870  75.1910734  54.9109411  92.0688482
  74.2768478  55.0905609  91.8493994  75.2788353  55.1934671  92.9791816
  18.3094251  45.8070040   6.0759598  18.4571743  44.9405384   6.4549613
  19.1847134  46.1862898   5.9969509  80.3275394  15.6889272  14.9088550
  80.5583954  14.8164904  15.2278996  80.5143452  15.6580174  13.9705706
  45.5461454  36.2142944  76.9564375  44.8971128  35.5221772  76.8301042
  45.0327969  36.9797730  77.2147926  49.1514063  31.9501114 107.4386101
  48.6631060  32.7115226 107.1254858  50.0621796  32.1408081 107.2141930
  52.7347279  43.1216478  10.2013707  53.5304737  43.0296993   9.6773827
  52.0770597  43.4418201   9.5839602  61.5688467  15.5644882  99.4026490
  61.1656427  16.0512352  98.6838051  61.9265175  14.7788703  98.9889988
  58.5818291   1.0560388  94.0000185  58.5670328   1.6962531  93.2885846
  59.5103645   0.9484088  94.2061027  33.3370137  13.1008601   4.1520193
  32.8254700  12.5986981   3.5176781  33.6703229  12.4447131   4.7640726
  56.1681843  62.7774334  84.3349918  55.2187109  62.6696825  84.2791184
  56.5219069  61.9328737  84.0560111  30.1539707  19.3478954  12.8067195
  30.4775333  20.2453041  12.7279890  29.2113280  19.4441938  12.9423094
  10.8744788  45.0323343 107.3876234  10.7874453  45.9853506 107.4080481
  10.8685315  44.7714901 108.3085778  37.2618008  53.0031109  28.2991600
  36.5644813  53.3032751  27.7161646  36.8391156  52.3576021  28.8656282
  28.2829857  18.2233024  31.4260626  28.2463479  19.0313423  31.9378853
  29.2159295  18.0859017  31.2618327  27.4506474  65.2790451   4.7201538
  27.9003334  65.0125694   5.5220300  27.3073339  66.2193918   4.8271060
  31.1280084  12.9931688  28.6733961  32.0591545  13.0999267  28.8678217
  31.0760522  12.1636951  28.1985211  49.6712017  30.6210113  42.2940636
  48.9026117  30.7460642  42.8507185  49.3722773  30.0311899  41.6019773
  29.6803474   7.7686113  36.4333892  30.4464602   8.2750523  36.7032385
  29.4004941   7.3154742  37.2287393  70.7827473  33.2959104 107.6326411
  71.4088202  32.6588011 107.2886136  70.8329010  33.1919384 108.5828552
  54.3225622  40.4512644  21.4892316  54.7021532  40.9114552  22.2378087
  55.0411320  40.3830099  20.8605576  41.0476017  33.7620163   5.7312858
  40.1341724  33.8930130   5.4768914  41.2260437  32.8456593   5.5199069
  60.3876495  19.7412479  21.6111970  59.9000454  20.2659917  22.2461104
  61.3070822  19.9011230  21.8240833  32.0404840   6.8533474  59.3956804
  31.6870213   7.4778473  58.7622023  32.4641919   7.3985231  60.0586176
  60.5787373  48.6245203  97.3606714  60.7442093  47.9892731  96.6640278
  59.6527195  48.8477039  97.2662934  83.9167595  11.3285601   0.2497010
  82.9782200  11.3371539   0.0617917  84.1070461  10.4186022   0.4777301
  33.2799077  58.8642979   3.6379817  32.9120016  58.5305929   4.4562221
  33.4209776  58.0833721   3.1027374  59.7744417  38.3728671  23.3723307
  60.6730127  38.6889267  23.4667397  59.8605299  37.5427675  22.9035497
  81.7612743  49.6302795  19.3574166  81.2103081  50.2090120  19.8844182
  81.1580944  48.9691830  19.0177679  48.4766293  56.7913914   6.1946744
  48.4905863  56.3810205   7.0593315  47.7955103  56.3187551   5.7162088
  13.9224029  16.1395395  13.8023305  13.3608031  16.8531358  14.1050160
  14.1073465  15.6293559  14.5908356  73.7072039  19.8478091 100.4097267
  74.2173767  19.3235910 101.0270973  73.7084007  20.7283497 100.7850667
  36.0143375  34.9708176 102.5854948  35.6655216  35.1041460 103.4668478
  35.7830143  35.7704043 102.1128609  59.1895485  36.7681956   1.4568146
  59.5499182  36.5592790   2.3186255  59.9388313  37.0897985   0.9554379
  27.4835157   0.1853743  33.1107378  27.8864837   0.2853851  33.9732027
  26.6453815  -0.2424138  33.2861209  46.1069727  11.4433146   5.0006443
  45.5776882  12.2376621   5.0720859  46.9667530  11.6974223   5.3359610
  32.8273082  21.7482924   0.3937538  31.9431090  21.6373610   0.7432045
  33.2932043  20.9575176   0.6655044  50.4474783  57.0779371  15.2157080
  50.6360292  57.3058128  14.3053496  49.8624277  57.7717209  15.5200338
  37.1637177  64.7897577   4.9970871  36.2948823  65.0955534   5.2575588
  37.4215412  64.1821146   5.6902897  53.7233973  12.9819167  56.3466263
  54.1993046  12.2732151  55.9136343  52.8203535  12.6684678  56.3966036
  58.0623674  64.5548964  81.7136367  58.1540680  64.2495537  82.6161822
  57.3263931  64.0523195  81.3643678  19.8009384  30.0810432  68.1653317
  20.2437115  29.6455550  68.8937100  19.9646187  31.0132289  68.3084210
  87.1370411  28.3690333 104.5207819  86.4652157  28.0425858 105.1193663
  87.4010944  29.2104340 104.8930102  54.8633862   8.5962957  99.7403594
  54.5897818   8.5619515 100.6569787  55.3005791   7.7582681  99.5893439
  33.1436825  49.9082279 109.1705491  32.7710772  50.2232885 108.3470599
  32.6434708  49.1175842 109.3727891  68.5163021  47.3420763  29.2766857
  69.4589949  47.2208929  29.1632366  68.1714392  47.3861265  28.3848548
  59.3343449   3.2147163  17.9933310  60.1865959   3.1529871  17.5619459
  59.5393801   3.2259655  18.9282453  52.2811890   0.9890158  11.2262404
  52.4915886   0.3116970  10.5834317  52.6079273   0.6414255  12.0560932
  27.6318479  31.1465168  11.6172731  28.0225301  31.3552022  10.7687151
  27.6897740  30.1931095  11.6796482  61.4587307  30.4747152  40.7442617
  60.6539583  30.2963233  41.2308311  62.1218204  29.9319601  41.1708260
  53.7575197  31.0127997  36.5139842  53.9781189  30.9423542  35.5852199
  53.8313913  30.1181579  36.8462324  20.7798839  20.9481692 109.4610028
  20.8758116  21.7201757 108.9032989  20.0255704  21.1459374 110.0160983
  65.4818106  23.8864398  59.9770355  65.1934052  24.7095346  60.3714561
  66.3176060  24.0996265  59.5620346   8.6149973  56.8680000  96.2012657
   7.8963435  56.6526079  95.6068119   9.0380532  56.0281324  96.3798019
  39.3910670  58.9874601  96.2887093  39.9400973  59.2799044  95.5611976
  39.4786692  58.0342770  96.2867900  18.9567173  32.5794101  24.1021299
  18.4812009  31.7626619  23.9503455  18.2883155  33.2614446  24.0365481
  60.8517075  28.4990835  12.8667915  60.0120068  28.9304614  12.7085114
  60.9326124  27.8640151  12.1551931  34.3478084 145.3354866  22.9807734
  34.5344591 146.2092675  23.3241367  33.7097383 144.9688687  23.5928917
  62.4781990  54.1852140   8.4121269  62.1165180  55.0030661   8.7534958
  61.7733765  53.8150072   7.8807104  48.9179516  31.5271592  66.7565680
  48.9199400  31.2494421  67.6725960  48.5820341  32.4232078  66.7786837
  39.2257833  38.4165692  11.6637778  39.8919582  38.1136775  12.2807860
  38.7347388  37.6274157  11.4349854  32.2423029  36.4564037 104.1464307
  32.4034858  36.4338446 103.2031693  32.9395771  35.9184742 104.5214965
  65.8422995  42.8330374  34.5842695  66.6366434  43.0013323  35.0911498
  65.1473093  42.7761316  35.2399993  51.7841911  41.4599895  14.2974126
  51.9131994  41.4314508  15.2454495  52.3124552  42.2031546  14.0060723
  62.2627687 143.4624303  33.5576844  62.2901917 143.7584344  34.4675541
  61.3605404 143.6223949  33.2808661  17.4999487  15.2699113  23.9388061
  17.0445812  14.4306755  23.8713193  17.9647982  15.2236795  24.7742772
  24.2395186  31.5044713  21.6625977  24.6307707  31.2597466  22.5012064
  23.3373094  31.1895871  21.7182493  48.0093861  21.6753244  16.3634169
  47.0668507  21.6727352  16.5303004  48.4047651  21.5144348  17.2201693
  32.3892450  17.7363324  16.4424133  31.9956779  17.8270316  17.3102319
  32.6103759  18.6313510  16.1849761  53.2589722  39.5871067   8.6754751
  52.6370382  39.8418880   9.3570304  53.1520844  38.6392283   8.5958987
  32.9140353  47.2322989  34.3508840  33.4863925  47.2860670  33.5855436
  32.3040462  47.9624033  34.2455530  31.0666943   7.9077065  28.0659366
  30.2548695   8.3180100  28.3639693  31.7608190   8.4401423  28.4544420
  26.0411191  58.1657934  26.4618373  26.5564919  58.3494949  27.2472525
  26.6922402  58.0490017  25.7700038  55.8701515  33.3443689  16.5096724
  56.3485289  33.2546878  17.3338950  55.0642681  33.8020587  16.7490530
  67.8340292  74.3395567  15.7645774  68.7410498  74.0523911  15.8698332
  67.3113585  73.5713387  15.9945607  41.8460703   5.1652390  28.2972264
  41.8616533   4.6760312  29.1198230  42.4940491   4.7269776  27.7456093
  61.1798334  63.9719296  15.4129994  60.3648043  63.8180494  15.8907902
  60.9362030  64.5769978  14.7124469  62.0547581  46.1056471  81.2809690
  62.3766899  45.9098482  82.1608862  61.8440294  47.0390463  81.3052186
  26.4264441  43.1966782  21.8279791  27.1050096  42.5444031  22.0020962
  26.2730575  43.6147594  22.6752758  44.8975134  60.4677629  17.9760706
  45.2371073  60.6117296  17.0927930  45.0974607  59.5505285  18.1629980
  42.7662563  22.6612234   2.1245122  42.5818634  22.3269796   3.0023009
  43.1461048  23.5272098   2.2728746  28.3196902  26.1276722  29.9925709
  28.3731222  25.7935119  29.0971851  28.3149171  25.3432369  30.5410862
  15.5109763 137.0274706   3.5397819  15.9477329 136.2502415   3.1913701
  14.7957563 136.6812826   4.0734926  72.2967291   7.9707438  94.5400664
  72.1178770   8.6101675  95.2295455  71.4346361   7.7536654  94.1852435
  42.8415537  15.2931881  96.3073679  43.5146999  14.7003555  96.6415139
  42.0175171  14.9218631  96.6225120  57.0453739  13.3382273  92.8515407
  56.2034225  13.7738311  92.9842039  57.1405315  13.2854724  91.9005450
  42.8774166  45.3003788  17.0029116  43.2608795  44.9610424  16.1941838
  43.6087465  45.3325987  17.6196384  94.2564678  49.3937731 100.2071335
  94.8104191  49.6511459  99.4701561  94.6797180  49.7831202 100.9723159
  45.6702995 145.2104417  30.0503302  46.4556074 144.9742706  29.5566273
  45.5331039 144.4754981  30.6480479  74.6898746 144.8099924 102.9368075
  74.4040918 145.6777562 103.2223716  74.8636866 144.3355105 103.7497576
  24.4020605  58.7583637  40.1298857  23.9016509  59.5056772  39.8022509
  24.9091315  59.1115999  40.8608675  45.2317142  18.5764837  29.7023964
  46.1717033  18.5819995  29.8830128  44.9975920  19.5012331  29.6232986
 113.1364281  38.8284135  25.7692742 113.0331940  38.7821960  26.7197680
 114.0466554  39.0948296  25.6398869  32.0672703  15.8901548  20.4449034
  32.8032970  15.2985275  20.2884722  31.6389680  15.5384696  21.2253571
  79.2051172   4.9146870  83.8336548  79.9224520   5.0744694  84.4469508
  79.6076822   4.9924672  82.9687151  64.6265316 145.3012822  50.5400658
  64.2927361 145.8860795  51.2203789  65.4500771 144.9664980  50.8949280
  36.1489630  33.5182500  12.5449097  36.8726873  33.2074785  12.0009673
  35.4851460  33.8065648  11.9184482  60.3499222  51.0053825  11.0784245
  59.7887611  51.1564636  10.3178298  61.2298250  50.9147215  10.7126546
  49.3697882  34.3135023   8.5365230  49.3708038  34.7849941   9.3695462
  49.9027777  33.5356092   8.7009460  29.5022821   7.7770317  99.0070292
  29.4628191   6.8246198  98.9199301  28.7480140   7.9990774  99.5529314
  51.5055084  15.5653405   6.8284672  51.6864395  15.9203196   7.6988041
  50.8966732  14.8437095   6.9859457  33.0546975  46.5585852  74.1788896
  33.3074379  47.0454264  74.9633249  33.0901146  47.2051382  73.4739455
  80.1148987  86.8682575  31.7608976  80.7105923  86.6272640  31.0514569
  79.2505693  86.5993881  31.4496469 103.6346430 144.3751925  22.3332572
 103.6503453 144.6384581  21.4131069 103.8638586 145.1706008  22.8138995
  47.8457642  41.4882565  24.1209292  48.7690496  41.2498331  24.0376830
  47.6777411  42.0605612  23.3722854  47.3932409  20.8153009  19.5031762
  46.5132666  20.4389453  19.5184672  47.9297590  20.1897883  19.9901199
 112.0251656 134.9526007  33.5579395 111.0688496 134.9827344  33.5299158
 112.2833443 135.8222193  33.8634491  75.9116459  20.3587937   6.3044959
  76.2815428  20.7320547   5.5044430  76.6068935  19.8000097   6.6517973
  29.3576360  53.0373478  20.2275586  29.1688991  53.9673233  20.1020384
  29.6749067  52.7401161  19.3747842  29.0869093  17.2022676   0.9506871
  29.8759460  17.5669670   0.5498794  28.4021735  17.8425574   0.7573067
  82.0183563  37.6859975  16.3475072  82.0725441  36.8298483  16.7721319
  82.7624798  37.7023768  15.7456470  88.0076504  26.5450668   7.1739233
  88.5509968  25.9207344   6.6930771  87.4168110  25.9988117   7.6923305
  49.5749426   6.7751169  36.1800122  49.9724483   6.2877637  35.4584122
  49.4583988   6.1248565  36.8726969  46.2323666   7.0536160  45.1346874
  47.1485472   6.9234687  44.8899221  45.7631445   6.3473600  44.6905422
  51.0141706  38.9488387  15.6625831  51.5530396  38.1858730  15.4534531
  50.7264662  38.7992692  16.5631878  35.7046962   7.0562953  26.4880657
  36.1974835   7.7694297  26.0820723  36.3741493   6.4944535  26.8784451
  56.4579296   8.8967246  25.4474473  55.6116343   8.5176319  25.2101707
  56.5275717   8.7551045  26.3915491  48.7345505  17.5826001  11.8361795
  49.2235708  16.7666507  11.9425690  48.6927032  17.9534268  12.7176368
  24.2366123  32.6571798 100.8567437  24.5599699  31.7989206 100.5827703
  24.5427227  32.7517009 101.7587384  36.0562396  24.8558140  16.2278092
  35.3063607  25.2776098  15.8082867  36.2989473  25.4500341  16.9378984
  40.8612680  52.5925255   9.2010063  40.0243235  52.9705238   9.4709569
  40.6610250  51.6750526   9.0155941  35.9391618  44.0377855   9.1374338
  36.8345475  44.3156433   8.9442652  36.0374403  43.3629656   9.8091435
  35.9736156  35.1144838   1.0501482  35.2852798  35.7792497   1.0727628
  35.6878686  34.4523191   1.6795285  58.1895399   2.8691015   5.4638594
  58.9984035   3.1731051   5.0520933  57.5760221   2.7626729   4.7368786
  58.2612276 132.1441824  74.1251668  58.3034039 133.1004376  74.1197904
  59.1641998 131.8637688  73.9760288  39.6419525  28.1218100 103.0678406
  40.1885366  28.9074135 103.0853286  39.0809679  28.2373595 102.3009136
  49.3478537   0.2335438  10.7429719  48.9654589   0.6276798  11.5269756
  50.2109575   0.6403778  10.6670010  30.6482100   2.0986538   1.6019771
  30.8631229   2.4312849   2.4734128  30.9881806   2.7622610   1.0017468
  62.3359537  52.1692801   6.0893655  62.4827623  51.2818193   5.7621127
  63.2083559  52.4851704   6.3246542  65.5591965  12.1768451  20.7657838
  65.6384706  11.7811918  21.6337729  64.6161652  12.2200227  20.6074643
  34.8565698  11.1052489   1.8126661  33.9274573  11.3128829   1.9120231
  34.8683262  10.1944113   1.5186095   8.9714235  72.7542114  94.6627613
   8.9045644  71.9154072  95.1190146   9.3034905  72.5284386  93.7938603
  41.5979004  39.4534421  10.0879955  42.2647667  39.5846772   9.4139755
  40.8295631  39.1446805   9.6078354  42.4478960  26.1292100   5.9981388
  41.8088388  26.8126678   6.1999321  43.0933952  26.1894107   6.7023653
  54.1787815  23.6574006   9.0163094  53.5493565  23.1530857   8.5008299
  54.5169306  24.3132138   8.4065580  36.3974667  46.3151360   5.7647077
  36.3119149  47.1228075   5.2581731  35.5261159  46.1702585   6.1334745
  62.7023458 136.2997586  28.4153405  62.1166611 135.7726712  28.9588300
  62.1158838 136.8291242  27.8749124  59.5282078   6.6144562  13.9370672
  59.7891188   6.1120403  13.1652299  60.3534937   6.9160795  14.3167440
  81.5567589 144.1249190  97.4229336  82.1656704 144.6154627  96.8708229
  81.7664433 143.2064814  97.2534084  38.0812836 137.6211894  97.4723625
  37.7381516 136.8350084  97.0476151  38.7990880 137.9052723  96.9064236
  33.5512400 138.0446477   1.7685834  33.7269235 137.1407689   1.5071050
  34.1715741 138.5661966   1.2592641  24.7210217 119.4776673 109.3649483
  25.4071093 119.6453137 110.0110245  23.9034057 119.5754046 109.8529911
  24.5571589  22.5285506   2.0289079  24.2185664  23.0527711   1.3031141
  24.1354942  21.6754937   1.9253579  49.4662857 141.5470410  32.7195398
  48.9529705 140.9646101  33.2794610  48.8137531 142.0142491  32.1978608
  11.1696255  -0.1788359  81.8402100  11.1859059   0.7366359  82.1192741
  12.0910311  -0.4363505  81.8097019  54.1518641 144.5230284 100.9186745
  53.4794331 145.1147173 101.2562656  54.5509624 145.0031077 100.1930904
  31.8512535 143.7190033  28.9354173  32.7214432 143.3226193  28.9787618
  31.9670868 144.4911219  28.3816663  32.8218031 124.1421885  81.5043545
  32.7535939 123.2172651  81.2674999  33.2710791 124.1404862  82.3495579
  15.8787501 128.5440237  91.8156719  16.5026915 129.2618985  91.7080498
  15.1527011 128.7684543  91.2336826  37.9035163  16.3859308 100.8216476
  37.8679633  15.9118629 101.6524410  37.1081114  16.1203349 100.3600979
  72.0329237 103.6595363   2.2007982  71.4457798 104.0244646   2.8628579
  72.9067087 103.7455578   2.5820199  36.9162202  11.0379493  92.9431438
  37.0225382  10.5991530  92.0991135  36.3310623  10.4651499  93.4388447
  28.1949973  61.9818544  85.6443596  28.2813287  61.5226221  86.4797497
  28.4348297  61.3293028  84.9864197  40.9257984   8.3740294  11.6462556
  40.6607437   7.5123185  11.9678632  41.7952538   8.2328260  11.2716333
  31.6884136 140.0780625  52.6119748  30.8950210 139.8070312  53.0738202
  32.4043989 139.8075528  53.1867925  62.6770592   1.0130875  20.9014741
  63.4640980   0.6756656  20.4737512  61.9703054   0.4547436  20.5774633
  57.8034306  12.6949644  95.5524731  58.4911442  13.1691563  96.0198307
  57.8276062  13.0515826  94.6645164  20.3943706  37.9172850  11.9841710
  20.0983310  38.5927725  12.5943414  19.6211672  37.3728132  11.8360559
  62.1326399   7.2423506  14.4202844  62.2711897   6.7365927  15.2210656
  62.8457260   7.8808594  14.4138852  50.0592327  37.8146172  22.4155847
  50.0429678  38.4141707  23.1615774  49.6915150  36.9989681  22.7557794
  40.1121140   2.6226026  96.8187046  39.3850160   3.2394695  96.9025707
  40.0611925   2.3139083  95.9140778  51.2151098  11.4925027  83.6036682
  52.1614885  11.4845216  83.7469578  50.8654881  10.9129691  84.2805290
  53.1593704  23.7322426  78.8439178  52.3331213  24.1660762  78.6310005
  53.1986189  22.9853654  78.2465363  63.5072756 131.3323290 108.3209515
  63.0375671 130.5705995 108.6606216  64.3803644 131.2674756 108.7079048
  18.1884944   2.3165798  82.2693634  17.8241038   3.1343573  82.6080227
  19.0653265   2.2691643  82.6503468  20.1160908   7.3552483  13.9234296
  20.6088710   6.8597704  14.5775644  20.7815027   7.8542006  13.4496061
  63.9805174   1.8600227   1.4426080  64.0314913   2.5743726   0.8075181
  64.3947792   1.1179685   1.0021821  59.8491907   9.0721786  88.8066196
  60.2066946   9.9524188  88.9232349  60.0126886   8.6346322  89.6421146
  41.1337662   4.4238120  54.1097641  40.6377840   4.1792721  53.3284664
  41.9318199   3.8975105  54.0613079  35.2968025  15.3025162   3.7987558
  35.3580546  14.3476117   3.8239805  34.5672679  15.5112255   4.3822328
  48.4976864   2.9563364  21.8187276  49.3641567   2.8025356  22.1952955
  48.2389116   2.1079570  21.4588395  30.6936598   8.2928872  92.0826435
  30.4365921   7.3973215  92.3019791  31.6491151   8.2625818  92.0334721
  67.4388266  10.7286322   7.9425374  67.8313589   9.8594111   7.8612748
  67.0128822  10.7198906   8.7996999  35.1101923   2.6347154   0.0515500
  34.7921681   3.5050860   0.2914468  35.1784229   2.1668512   0.8838216
  28.1716824 123.3397383  96.4366627  27.7032447 123.7615556  97.1569920
  27.5549841 123.3609719  95.7049084  43.0556297 118.9103312   5.5309621
  42.2283459 119.3625517   5.6962720  42.8870678 118.0026169   5.7836858
  51.6810989 146.0927207  27.1492330  50.7885075 146.3183296  27.4111692
  52.1774197 146.9025700  27.2677366  39.6136045  35.2153659 100.0765419
  39.0278149  35.9264517 100.3362370  39.2410469  34.8845243  99.2592525
  81.4104748  28.7876081  79.0525961  81.1474133  28.2928991  78.2765150
  81.8137741  29.5828080  78.7044048  29.7146583  29.7074175 106.2197399
  29.7710729  28.7550092 106.2969875  30.5628395  30.0236130 106.5309334
  66.1153746  22.9879403  93.1948090  66.9781971  22.8586888  92.8010273
  65.6003380  22.2391796  92.8942585  62.6216793 143.4954710  83.2822990
  62.5070381 144.4299891  83.1097794  62.8027534 143.1137885  82.4233723
  10.3657222   2.9441389  81.4898014  10.5653882   3.3053362  80.6261444
  11.0055447   3.3516279  82.0735931  24.3858051  28.3035517  89.5566177
  25.2606845  28.4938931  89.2181015  23.8834476  29.0996575  89.3831730
  46.5141487 130.8685512  87.9507160  46.6317320 131.5550310  88.6073303
  47.3926973 130.7176811  87.6019669  32.6834726  12.6063383  83.1656933
  32.4073124  13.4350431  83.5571194  33.4318876  12.8387094  82.6160431
  38.2714987   4.4099411   5.0614682  37.4495053   4.5944381   4.6070234
  38.8247037   5.1680386   4.8730985  45.8381319  21.3441658 105.8368587
  45.1343346  20.7260752 106.0340118  45.8543205  21.3917518 104.8809814
  75.6474495 127.9628081  14.5770112  74.7476673 128.2846791  14.5220414
  75.9033585 128.1210978  15.4856817  29.0313339  21.4499116 106.9807816
  28.3857632  21.8047285 107.5919914  29.3975377  22.2197843 106.5455532
  44.5962334 139.4268746  63.9306831  45.2021933 138.7127031  64.1281748
  43.9070845 139.0183086  63.4068727  20.3923321 116.9551224  10.0991193
  20.4054976 116.4134497   9.3100396  20.4653263 117.8527112   9.7747175
  82.3257351   1.1837213 107.4224281  82.1118450   0.3242901 107.0592976
  82.8117466   1.6241062 106.7252350  80.3668690   8.4613711  95.1238155
  80.3002262   8.3211792  96.0683441  80.2849960   7.5859749  94.7453880
  18.0272651  11.3867307  63.8333702  17.6130843  11.1959350  62.9917717
  17.4309862  11.0151720  64.4834661  43.5381460 134.7576267   2.7378312
  44.2923689 134.4724853   2.2220174  42.8229570 134.8159451   2.1043245
  16.6655695  13.6334836  91.1296177  16.8400097  13.5487020  92.0669651
  16.1999333  14.4656992  91.0469627  70.8413744  12.6293993  75.3828764
  69.9625921  12.6037991  75.7614470  70.9886026  11.7407882  75.0589514
  93.9597893   5.9031355 109.5510292  93.2563496   5.9591872 110.1977634
  94.2265606   4.9839884 109.5663643  86.2397957 126.5346915  12.8167001
  85.4368114 127.0096774  12.6025811  86.3538933 126.6690249  13.7575284
  72.0528221 125.2837796   4.4747487  71.6189480 126.1269421   4.6053640
  71.3412952 124.6777291   4.2682115  53.8639259  15.8159614 101.4286900
  53.6154318  15.7638490 102.3516083  54.1929865  14.9417770 101.2195206
 106.2385363  10.2864754  74.0272188 106.3594634  11.2221813  73.8657808
 106.9588692   9.8671639  73.5565519  65.9158516 141.1761321  83.8369274
  65.5271196 140.3093941  83.7191010  66.1016321 141.2298734  84.7743893
  47.3949766 142.2951520  31.0855810  46.9719934 141.5620066  30.6385747
  46.6741896 142.8776366  31.3251725  19.6299291 144.8794510  94.0010452
  20.3965211 144.6525607  94.5274353  19.9437273 145.5547470  93.3995914
  33.9780712  12.5757265  29.2492811  34.5358467  11.8010974  29.3204633
  34.5697427  13.2713771  28.9625303  45.8289957 129.5776052 107.1452141
  46.7855358 129.5892317 107.1115208  45.5822325 128.7840969 106.6701508
  26.6126800   2.1097477  77.6644278  25.9027386   1.5890688  77.2887850
  27.3735881   1.5294887  77.6409674  37.1518087 144.5620170  12.2081319
  37.8207064 144.5546032  12.8927938  36.3795114 144.9365179  12.6318494
  22.1610284   0.5186192  89.6191025  22.8850436  -0.1037949  89.5510101
  22.1392632   0.9548235  88.7673473  11.0271287  21.4443636   5.9671727
  11.3022459  21.5060949   5.0524370  11.1523700  22.3272681   6.3150541
  28.2382369   6.6400743  88.8857269  27.7405167   7.2691286  88.3634281
  28.9510083   7.1543425  89.2648315  77.1572924 137.0869262 105.4634285
  77.1579361 137.8385038 104.8706722  76.2506819 137.0188172 105.7628536
  41.8554211   1.1233671  10.5499307  41.0499287   0.6786507  10.8138219
  41.5759420   2.0101678  10.3225366  78.2289839 129.1922195 100.1257992
  79.1783667 129.3123014 100.1477432  77.9904318 129.0031631 101.0333157
  40.9882689  26.1081123 104.1271114  40.5354071  26.7346478 103.5626602
  41.6626883  25.7245922 103.5664749  31.6387415   2.7547157  94.4638252
  30.8730173   3.2237011  94.7954082  32.1560168   2.5582153  95.2448750
  66.5574551 115.1692409  10.2064935  67.0810032 114.3970651  10.4206792
  66.3494253 115.5604453  11.0549775   1.9509989   6.0729969   2.2815553
   2.2802785   5.6728131   1.4767782   2.6590800   5.9551150   2.9147664
  56.0182047 115.1970668   7.6950303  55.3338289 115.4825229   8.3003274
  56.7689991 115.7532496   7.9028741 110.6671709  14.6455610  77.6762962
 110.8639271  15.3175449  77.0236444 109.9965221  15.0413513  78.2329035
  62.0960903  30.7606030   9.4714681  61.7678547  29.8855138   9.6781484
  62.9901934  30.6142783   9.1626016  40.0677776 144.7767336  87.4103069
  40.0679731 143.8385550  87.2204304  40.1597834 144.8285783  88.3616638
  42.5483227   2.5114673  17.6250020  41.8640947   2.9583061  17.1266118
  42.4947357   2.8934523  18.5010473  97.3522854  35.9325767  64.9933290
  96.9120789  36.5907025  64.4554472  97.4624252  36.3543701  65.8454990
  81.0599232  25.6526804   6.4301626  81.7284107  25.0044584   6.2084428
  80.5833149  25.7946062   5.6122724  60.2663088  32.0931101   7.9635373
  59.8577261  32.7517414   8.5252324  60.8606577  31.6182780   8.5444967
  12.4213791   8.2487077  63.1148195  11.5842199   8.0312473  62.7048111
  12.7151394   7.4276936  63.5096264  24.6156907 142.8390268  12.0652620
  24.9746943 142.7396778  11.1835138  25.2795792 142.4561031  12.6387159
  35.4153895  25.9811878  20.2703515  35.8678675  25.5094504  20.9696142
  35.1124287  26.7895484  20.6838743  46.4184904 113.2554121  92.2782516
  47.3297977 113.4223122  92.0376396  46.0262156 114.1256685  92.3489952
  69.9159479 135.5466587  15.2290002  69.3913126 135.0656910  14.5889512
  69.3829584 135.5466468  16.0240880  29.2991018  27.3108149  91.2273407
  29.0605927  26.4820647  90.8119869  30.2407646  27.2383785  91.3830948
  26.2818384  32.2492290 105.2412987  26.8027306  31.4537621 105.3514481
  26.5285158  32.8016782 105.9830379  40.5691528 120.4658956  66.3360262
  41.4919043 120.3390474  66.1153936  40.1107550 120.3950185  65.4987240
  61.3049459  28.4631467  21.6821901  60.7928944  29.2100596  21.9922773
  61.7627239  28.1466985  22.4609891  68.9439583  60.3222990  15.2262536
  68.7794018  61.1895084  15.5965177  68.6919880  60.4028893  14.3063299
 123.8759113  17.2819662  48.4322110 123.3103637  17.1762240  47.6672212
 124.3013916  18.1291866  48.3002416  55.3546095 127.8597147  98.5678673
  55.6519508 128.7695415  98.5737610  54.5525122 127.8664834  99.0901947
  43.2621956 142.3925046 109.2986298  42.9914236 143.0622239 109.9266338
  42.8952789 142.6843707 108.4641171  61.3999510  32.8546000  20.6738225
  60.7928610  33.4845591  20.2854577  62.1774912  32.8968000  20.1171533
  60.5944395   9.5831639  84.4314766  59.7971058   9.0976751  84.6431255
  60.9325838   9.1567612  83.6440277 124.0806480  11.7407405  89.9517918
 123.9458396  10.8387220  90.2423382 124.6246698  11.6612089  89.1682434
  36.4262748  11.4162898  76.3028860  36.3572812  10.4665077  76.3997650
  36.1584353  11.7639017  77.1535683  64.8969507  28.5418487 103.8893032
  65.1052761  28.8251209 102.9990292  65.7269955  28.2161617 104.2374229
  72.5988007 103.1568117  79.0329933  72.4509287 104.0513391  79.3399000
  72.0500183 103.0774994  78.2527542  64.5294809  34.6255612  80.2113438
  64.4047451  35.2131438  80.9566116  64.7923708  35.2016377  79.4935322
  34.3403292  32.2021008  87.6400566  34.0863442  31.7141604  86.8566990
  33.9926267  31.6856766  88.3671284  47.9446745  36.8812513 104.8901749
  47.2715521  36.2230182 104.7173595  48.2786274  36.6598177 105.7594681
  76.1407375 141.9069905  20.3343526  75.5665302 141.3369549  19.8229066
  76.4718008 142.5438649  19.7010843  61.9811392 143.1583382  92.9763603
  61.1039734 143.2078255  93.3563042  62.2413826 142.2445805  93.0927753
  87.3373508 109.3947262   3.3753244  87.0794773 110.2486224   3.7225763
  87.1760941 108.7847871   4.0951864  59.0692663  42.2339058  95.3042316
  58.6806965  41.4448595  94.9265385  59.9606323  41.9740772  95.5370045
  32.0926666   9.4386590   4.6357766  32.3209476   9.3280011   3.7128011
  31.3244891   8.8814694   4.7609750  35.4104495   6.5293664  85.4145336
  36.1715627   6.4414179  84.8407745  35.0014114   5.6640273  85.4041481
  42.8711987  64.8859739  79.8685122  43.3002663  64.5186806  79.0957069
  43.4482241  65.5968475  80.1476765  51.4162922 135.2877111  26.0048524
  51.0078859 135.1035065  26.8507234  51.0704803 134.6134598  25.4200116
  60.3402424  16.7926335 102.9085064  60.8003616  17.6317334 102.8877068
  59.8826504  16.7495179 102.0688725  42.8404808 129.0919788  41.4317552
  42.6378965 129.7565586  40.7733289  43.1035900 129.5924289  42.2041265
  29.7818732  24.8806095  72.7493429  30.0682259  25.6080580  73.3016539
  29.8396111  25.2206564  71.8564415  52.0569181   6.7907000   9.2765561
  51.3860559   7.4726963   9.2439977  52.0866919   6.5277350  10.1964418
  22.9363132  20.1185036  90.2775574  23.2284760  19.7501934  89.4437504
  23.5516071  20.8302712  90.4537010  62.5707006  90.1177377 101.1679077
  63.2027149  90.2430792 101.8757725  63.0642796  90.3067894 100.3698635
  61.1928558  18.7387729  75.4367733  61.0987806  19.6660018  75.6550169
  61.6192818  18.7364829  74.5798111  35.7248998  23.3201075  93.7920666
  35.1756620  22.8644776  93.1541157  36.6205478  23.0909681  93.5439873
  61.2217617 144.3359173  88.0633640  61.4454460 143.7490706  87.3410034
  61.4829445 145.2040955  87.7563095  65.4860497 134.4231839 108.4321117
  66.0189390 134.0230293 107.7449894  64.6781921 134.6818406 107.9885960
  41.2800789  23.0708647  99.3728447  41.4307880  23.0408573 100.3176308
  40.5160284  23.6382246  99.2700863  35.4951048   3.0719921  94.8379612
  35.5841541   2.2722498  94.3195820  35.4786181   2.7684960  95.7456207
  19.3745899  23.7272024   9.6539441  18.6917686  23.1645823  10.0192491
  19.9083602  23.9766860  10.4083196  30.7440352  22.1400499  35.0408593
  30.3108263  22.2374201  35.8888475  30.0644469  22.3475266  34.3994943
  63.8321257  42.1703053  86.1410904  64.1350698  41.2635136  86.1878109
  64.3174171  42.6208830  86.8322468  67.5209904  42.2723484  90.6834030
  67.7790976  42.2565031  89.7618008  66.9154978  41.5367031  90.7752419
  25.3033614  19.9954104 104.2644501  24.4426703  19.8625290 104.6616745
  25.9208989  19.8794031 104.9865532  37.9098034  14.4240642  10.4149000
  38.6849356  14.7479546   9.9560968  38.2283115  13.6820257  10.9288637
  33.8557935  18.9854753 105.0568962  32.9224801  19.1266561 105.2157116
  34.1123605  19.7056448 104.4809055  67.6494503 120.8659596  16.3187352
  67.5559473 119.9956913  15.9312764  66.7527151 121.1921687  16.3941423
  47.1132469 136.4026422  87.4069214  46.5236807 135.6486792  87.3934746
  46.8106890 136.9561494  86.6869831  38.3006644   2.0015891  87.2592068
  38.6598158   1.2438262  87.7207661  38.4950328   2.7444035  87.8307629
  11.1493874  48.3353949  92.5054932  10.2615774  48.0565405  92.2812939
  11.5145266  47.5997400  92.9971409  37.3168325   8.3448905  61.1559772
  37.3914504   9.1337192  60.6189394  36.7114806   7.7825230  60.6727362
  46.7591572  42.0118332  91.6274166  46.9628334  42.4529791  92.4521160
  46.3820791  41.1725950  91.8914700  79.6632290 100.9376449  93.0008507
  80.5487061 100.9238405  92.6375771  79.0912628 100.8210725  92.2422314
  46.7601490  16.8035316  85.8328819  45.8655882  16.7547405  86.1699486
  46.7344713  17.5092673  85.1867294  44.7152185   6.5146190  75.8249617
  45.4781103   7.0896810  75.7655621  44.7087955   6.2184858  76.7351818
  27.5819612  10.9362340  20.1498929  27.8347087  11.2451375  19.2798749
  28.0253291  10.0930119  20.2428190  44.5508528  11.6318178  25.1897947
  45.2039337  11.7182851  25.8842317  44.7395515  10.7838750  24.7877828
  44.9866486   4.9378157  20.8611909  45.7065296   4.7534770  21.4645330
  44.6300173   4.0765965  20.6436006  33.7485147 131.7608602 109.6602249
  33.9030504 132.6108272 109.2480278  32.9968882 131.9064171 110.2347660
  36.4077711  40.6575108  25.9631769  37.1610594  41.1047983  26.3488237
  36.4644313  40.8554983  25.0283853  64.1815138  51.2744522  91.0499954
  63.3081293  51.4402390  90.6951046  64.5256758  50.5592775  90.5149174
  61.9797516   5.0716794  88.3214378  61.1507702   4.8122561  88.7235832
  62.0456886   4.5278862  87.5364685  36.7741036 127.1555311  94.3322086
  36.8397260 128.0534584  94.6572495  37.4941325 126.6925485  94.7605038
  59.5787716  23.6785078  16.9764081  60.1550198  23.0251718  16.5797654
  59.9249983  23.7979054  17.8607694  53.2013416  43.0223989  95.1449776
  53.4498072  42.2006369  95.5683041  52.7461910  43.5154200  95.8276176
  29.3739247  36.5538621  82.5641251  28.7242699  35.8698630  82.7263832
  29.1769505  36.8666720  81.6811848  45.4391479 134.5582587  30.6589547
  44.8376036 133.8357896  30.4789201  46.2829208 134.2570002  30.3220216
  31.5991473 122.7730412  17.3587076  31.4241934 123.3719392  16.6327993
  32.4791765 123.0059356  17.6545755  26.6663504 127.6730270  12.3738328
  26.0370517 128.3821149  12.2419015  26.1544847 126.9697911  12.7734414
  42.6283264   9.4593167  32.9172555  43.1256151   9.6658051  33.7086526
  43.0992079   9.9075788  32.2147123  89.1161633 120.0344486  88.9526939
  88.5319805 120.5025000  88.3561325  89.7988892 119.6748371  88.3863068
  57.1219015  44.1853905  96.5114117  56.7403030  44.7588730  95.8467865
  57.7443314  43.6410093  96.0292625  30.2373338  13.1617785  41.6425840
  29.9751353  13.6965454  42.3919240  30.6788564  13.7741423  41.0541097
  75.8930206  17.9606950  84.4968796  76.6286373  17.4390984  84.8178768
  76.2611151  18.8331020  84.3567181  78.7791920 141.7392758 105.9062767
  78.3724165 142.0720399 105.1062489  78.5071898 140.8225704 105.9498405
 124.6559954 120.6946177  99.7372818 124.8233079 121.3013119  99.0160561
 124.2459302 119.9359913  99.3218708  48.9608479  29.7099543  87.0969391
  48.6546803  30.3938484  87.6925850  48.2100916  29.1243720  86.9985008
  72.1083879 119.1724033 101.3144493  71.5786505 119.6285243 101.9683361
  71.4812660 118.9041705 100.6428814  51.9700193   8.0954891  26.6457502
  51.0901403   7.8160059  26.8985978  52.0357084   8.9961433  26.9631425
  18.3587205 122.8441281  74.6667671  18.0566525 123.0689568  73.7867451
  19.3087590 122.9548998  74.6294832  48.8308144  42.4435759  15.5963746
  49.2747450  42.9410458  14.9095861  48.8768864  41.5341711  15.3012601
  54.7734785 123.9416761  20.2510587  54.8025846 122.9905743  20.1472036
  53.9898968 124.2110748  19.7718374  26.5161896   7.9811484  78.8343620
  25.9555411   8.6315411  78.4114027  26.5508842   7.2542149  78.2125950
  19.7993624 128.2999606   8.7801877  19.6894455 127.7427311   8.0097047
  19.3234599 127.8447623   9.4748441  54.9135780  16.8224967  20.2562181
  54.0125751  16.5163088  20.1529065  55.4498053  16.1122799  19.9036733
  48.4100866  41.2294340  97.6105690  47.9887915  40.3974819  97.3947144
  49.2184877  41.2286186  97.0980167  52.6322365  30.4029202  10.5650083
  52.9791355  30.2552581  11.4448396  53.3324862  30.1140213   9.9798528
  52.1248055  33.0709291  99.4005871  52.9093933  32.6953506  99.8000717
  52.0386982  33.9334249  99.8066807  61.8394232   7.8897488   8.1069223
  60.8847237   7.8317457   8.0693570  62.1149588   7.0578003   8.4918538
 106.4588737 143.3139468  94.5366192 107.2957039 142.8977484  94.7433376
 106.4373779 144.0957037  95.0885487  46.9627714   8.2524532  73.7590361
  46.5590239   8.7499267  74.4701862  47.7947760   8.6974150  73.5977554
  38.0571961  29.5779061  85.1002312  37.5970244  29.8982525  85.8760166
  37.6878190  30.0840402  84.3766117  22.7087688 146.5758409  65.4558134
  21.8952513 146.2072703  65.1114655  23.0697322 145.8836448  66.0097122
  54.5095921  26.8335772 106.3249588  55.1845169  27.5055504 106.2292290
  54.2718649  26.8631935 107.2516918  29.2566943 107.2290535 108.7610626
  30.0910425 107.0217867 108.3401871  28.6640763 106.5348048 108.4728718
  13.3878505  12.9821062  90.2312756  13.1775475  13.7842476  90.7093716
  13.6368036  12.3562181  90.9113693  53.7912321  14.1178107  77.2302341
  54.6718884  14.0572107  76.8600941  53.2486868  13.5888231  76.6453886
  47.2073507 137.5455917  81.7131233  48.0205011 137.7970524  82.1510601
  47.0499611 138.2458372  81.0797882  48.0497122   5.1052415   5.5746881
  48.2057095   6.0412896   5.7000295  48.8676310   4.6878260   5.8448831
   4.7652534 145.1550723  81.3536263   4.5819753 146.0941533  81.3813305
   5.1349044 145.0087760  80.4828835  62.8307533 141.6424454 108.1674767
  61.9475174 141.3140173 107.9993820  62.7006197 142.5504158 108.4411335
  51.9586372  12.5781941  89.1139984  51.3535643  11.8980074  89.4097424
  51.3920784  13.2780445  88.7892532  62.3068762   6.6263813  72.3821259
  62.5717211   6.6751426  71.4635897  62.2226286   5.6891960  72.5576782
 101.9661946 140.3752364  77.2465801 101.5418262 140.0164861  76.4671946
 101.5077133 141.1992289  77.4110889  50.1072168   5.5306286  56.0937023
  49.3847466   4.9139434  56.2118912  49.9630404   5.9047204  55.2245092
  73.1847239 130.7745392  66.7769527  72.7307987 131.5812893  67.0205402
  72.5288534 130.2650149  66.3010788  48.2304287  23.1634140  34.8890305
  47.7302647  22.5384307  35.4138780  47.5767517  23.7859201  34.5705581
  36.7612600   2.7642703  78.4385443  36.0022569   3.3319101  78.5724497
  37.4130821   3.3296883  78.0242205  56.6754818  58.5944653  77.3899460
  56.2900352  57.7839231  77.7226305  55.9988976  59.2567921  77.5306082
  46.4017200  24.9448347  80.0515842  47.0783138  24.6168160  80.6439114
  46.7659760  24.8141599  79.1760969 117.0663816 130.7608170  71.9847298
 117.5116826 130.5830187  71.1562824 116.1437190 130.8505768  71.7462587
  54.3804693 136.7335487  89.7765541  53.6896515 137.3908074  89.8602772
  54.9641943 137.0839758  89.1037273 122.1749771  36.7161870  92.4944115
 122.0167819  37.5718856  92.8931522 123.0672347  36.7725587  92.1524620
  63.7407112 146.0571324  65.9721994  64.4992352 146.2747491  66.5139723
  63.5044050 145.1681484  66.2369633  76.4518929  33.2169557  75.6237793
  76.0226107  32.7232695  74.9250507  76.3035822  32.6946187  76.4120674
  17.5331187 144.0103842  99.0536213  17.5125992 143.0876548  98.7998867
  18.0958092 144.4259939  98.4002590  59.0805006   7.8234273  91.4426231
  58.2140255   8.0224985  91.0879040  59.3610144   8.6375654  91.8606186
  35.9344506  12.3325419  94.8710632  36.4507580  11.9373834  94.1685581
  35.0711417  11.9269121  94.7910881  59.3966532  17.7074718  77.3497629
  58.8043499  18.3545113  77.7328396  59.8323107  18.1741858  76.6365910
 109.5721764   4.0276062  90.8187008 110.1263136   4.2086339  91.5779018
 109.8855466   4.6302757  90.1442909  49.0052700  31.4876747  74.2973757
  49.3323755  30.6270933  74.5593548  49.5621538  32.1086836  74.7669077
  30.4735804 138.2808686  97.1517849  29.9557114 138.1130923  97.9391193
  30.8286428 139.1602589  97.2815418  56.2691355 137.5762374   1.2040178
  56.8978930 138.2100088   0.8587209  55.5418062 137.5972349   0.5820981
  61.6082859   3.4457651 109.7939587  60.8322668   3.8537338 109.4097805
  61.6649866   2.5904787 109.3679237  43.3317661  32.7509379  94.0705872
  42.7819967  32.5102592  94.8162842  43.9641476  32.0359945  93.9986134
  40.2020502  32.7133846  71.3971519  40.6926394  32.0104289  71.8230724
  39.5093942  32.2631717  70.9136534  23.3278060 134.5854182 107.0734024
  23.0502605 134.9508793 107.9134274  23.7965727 135.3010459 106.6440201
  23.8023424  40.3902578  95.8212185  23.0514812  40.6788206  95.3024101
  23.6069989  40.6860733  96.7103577  66.6798687 123.1115074  83.3641624
  67.2909546 123.3230395  84.0699005  66.2272835 123.9355321  83.1842136
  55.3958893  19.9734652  92.2807121  55.2206135  20.7741189  92.7751446
  54.5810604  19.7997880  91.8094063  61.0680532  37.8816390  63.5550594
  60.7851362  37.7655530  64.4620943  61.9599056  38.2223320  63.6240864
  75.9762669  39.2473340  74.4067669  75.6050825  38.4610009  74.0066004
  76.5187693  38.9181185  75.1233816  60.1376438   9.8745161 107.4554253
  59.9551249   9.0255207 107.8580666  60.4300165  10.4258990 108.1811810
  61.5291691  49.2375469  77.8907728  60.9989071  49.9038982  77.4537039
  62.1697807  48.9708138  77.2314501  17.2631252  18.0158675  86.6078472
  18.1112111  18.4583604  86.6422176  17.1413183  17.8030753  85.6825829
  84.2102718  19.5952427  20.0292341  83.4847641  20.0791335  20.4238454
  84.2613506  19.9285817  19.1334096  70.0272322 141.4716686  80.6560135
  69.9097586 141.2339033  81.5757465  69.9735546 140.6401486  80.1849270
  67.4436140   0.0561226  49.2153978  67.9560328   0.8566014  49.1018486
  66.6996670   0.1618407  48.6224413  27.9408479  45.4631138  77.5966120
  27.3158360  45.3247643  76.8849611  28.6930943  45.8805370  77.1769524
  52.1916151 125.3853221   1.6761819  52.3576307 124.4426293   1.6743413
  51.2925720 125.4708094   1.3589422  12.0262742 140.6799806  55.4322147
  11.2389529 140.6522787  55.9758949  12.3965251 139.8000402  55.5018663
  28.4526014 142.7100829  77.2944069  28.3174944 141.8459637  76.9054651
  27.6210546 143.1651885  77.1615934  30.2765560   1.4333822  60.1230288
  30.0133228   2.2352371  59.6713972  29.7538018   0.7446176  59.7124672
  36.2000346 105.6113500   0.8118383  35.5576134 105.6903238   0.1066438
  35.6840777 105.3643865   1.5793172  41.6965294 138.6902780  63.0851173
  41.6243982 137.7466834  62.9413843  40.7904911 138.9943708  63.1385183
  63.9230490 132.7244587  82.2508335  62.9757500 132.6469929  82.3642254
  64.2840910 131.9853408  82.7403069  53.9615726 123.5230059  85.3949070
  54.4436789 124.1124744  85.9748459  53.0932236 123.4539027  85.7916832
  68.6278296 120.0222463  82.8604889  67.9319954 119.3764562  82.9829693
  68.3768368 120.7544894  83.4235668  51.5288210  32.9647255  79.5868826
  51.2272787  33.2838774  78.7363291  52.4730682  32.8508186  79.4789219
  47.7441359  21.0179949  63.8414621  48.6155033  21.2071872  64.1895437
  47.2032833  20.8699775  64.6172190  38.3240104  27.7732897 100.3048038
  39.1447163  28.0960107  99.9326134  37.6433897  28.2700682  99.8507118
  52.0363474  58.4874868   1.0346643  51.6588116  57.8252029   0.4558030
  51.4583015  59.2447138   0.9413663  51.7560482  50.4344940  90.7377434
  52.1070242  51.1503267  90.2079964  51.7983198  50.7591486  91.6372108
  78.7824106   9.6524495   1.8214456  78.3205128  10.3898799   2.2202913
  79.0481091   9.9739611   0.9598962  20.9657621 123.5523266  76.0464191
  21.8570423 123.3101530  75.7950163  20.9498930 123.4524746  76.9982672
  43.2385683  22.8410673 104.5857048  43.1292772  21.8919396 104.6443653
  42.4379492  23.1985426 104.9697018  43.4350824  43.8905621  84.7233677
  43.6922073  44.5360327  85.3817654  44.0671587  43.1790733  84.8258305
  44.2306328 106.0937614  51.5791845  43.8628006 106.3910312  50.7469797
  44.9000502 106.7442817  51.7911673  37.2488999  14.4247246  96.4628029
  36.4737296  14.3102348  95.9130478  36.9963884  14.0612817  97.3115540
  49.7045994   1.8985239  74.5662451  49.9558210   2.1408877  73.6749649
  49.3526459   1.0122533  74.4832659  42.7330351  34.3382573  85.8880043
  41.8567181  34.7180223  85.9518719  42.7789354  33.9902472  84.9974918
  62.8041983  26.5340447  79.1140413  62.5342560  27.3006773  79.6196508
  62.8587246  26.8492031  78.2118607  35.6916571   8.6520034  21.3617173
  36.3828158   7.9986620  21.2536565  35.1584768   8.5696387  20.5710355
  39.6421051  26.5844870   2.5599710  39.4844055  27.4783278   2.8639642
  40.5951595  26.5150857   2.5042764  41.8489313  21.3220954  90.9562016
  41.1997318  21.7135334  90.3717899  41.5925360  20.4018760  91.0169601
  24.6825027 113.3292908   1.1715547  25.2319908 113.5547871   0.4209272
  24.0754223 112.6703758   0.8346311  74.2858791 130.6181438  53.5012007
  74.8376131 129.8715884  53.7346029  73.3925200 130.2763290  53.5374069
  52.0881081  15.7502043  90.3272820  51.3283920  15.9702587  90.8663845
  51.7155218  15.3646016  89.5343590  26.3883686  38.4885263  72.8724241
  25.6738925  38.5225606  73.5085011  27.1815610  38.5968900  73.3971500
  32.5349593   8.4704232  72.8750658  31.6638398   8.3882982  73.2631826
  32.6621079   9.4132203  72.7692413  35.4261160  36.2979555  37.2738504
  34.8130131  35.5655026  37.2117901  35.3341007  36.6117573  38.1734562
  62.1358442 113.7236161  48.6924505  62.8844786 114.1520257  49.1074705
  61.3957834 114.3014903  48.8784885  58.3452845  10.7446134 104.1490746
  57.8293371   9.9383861 104.1439056  58.1791115  11.1298132 105.0094414
  63.7829161 137.0733000  92.5612640  63.8991499 136.1580093  92.3063850
  64.4778252 137.5410194  92.0980358  70.0559807  25.0760698 100.8777809
  70.7145071  24.7056890 100.2900791  69.2445374  24.6263838 100.6420422
  32.5434351  14.7887921  94.8068237  32.5143242  14.9501538  93.8637733
  32.6051903  13.8368022  94.8851299 120.5372114  26.5598273  57.2140026
 120.7821802  26.9528580  58.0517054 121.3554675  26.5220594  56.7187643
  50.1501942   2.4038649  65.2141237  49.5206785   1.7160994  64.9975109
  50.1304388   2.9928505  64.4598436  42.1178007 142.2986353 103.5697746
  42.9303408 141.8507985 103.3343029  41.8740559 141.9234011 104.4159508
  35.9548259   3.1831846  91.8386173  35.4865456   2.3737043  92.0427895
  36.0135317   3.6435935  92.6757526  32.0031023  26.3796234  50.4048109
  32.0143652  25.9764528  49.5367336  32.6913285  25.9239221  50.8894873
  40.6239462  26.0644078  68.9079857  39.8081779  26.5651584  68.9099598
  40.8229351  25.9270883  69.8341465  26.0256934  13.0656219 100.4297256
  25.7162929  13.1174219 101.3340569  26.6595006  12.3483348 100.4341412
  15.3808212 144.5373359  77.7813244  14.9137104 145.2041609  77.2779512
  15.0450206 143.7057469  77.4467659  36.9106197  33.0531120   7.9525033
  37.4650955  32.4868846   7.4156896  37.1190286  33.9401245   7.6592389
  16.6914165   8.1659329  61.5265608  17.5364375   7.8221798  61.2367296
  16.7030239   8.0594152  62.4777460  55.9398842  11.2540579   7.1428338
  56.2665796  12.1429789   7.2818223  55.7270336  10.9371305   8.0206052
  81.1168957 142.3545397  86.3070965  81.0487747 141.5914519  86.8809319
  80.9980488 143.1041724  86.8903255  28.3744884 133.5140533  13.1311647
  28.0228233 134.3427093  13.4565679  27.6008153 132.9983945  12.9036561
  35.4331350   4.5973742  23.1953526  34.5792150   5.0044698  23.3413768
  35.6895542   4.2636892  24.0550804  72.4055815   6.9366443  87.7681828
  72.3945570   6.3647658  88.5356903  73.2722664   7.3426276  87.7844238
 107.5173187  22.7028823  91.5642643 108.3328342  23.0768943  91.2306786
 107.0175457  22.4793291  90.7791042  36.5862489   3.7040022  85.7284164
  35.6851959   3.7154964  86.0512161  37.0030141   2.9874483  86.2070465
  28.3901000  31.3371348  52.7878094  29.1889167  31.5024352  53.2886076
  28.6729980  30.7800364  52.0626593  28.6751413  33.0815125  81.3484669
  29.4554758  33.0634952  81.9025326  28.1917882  33.8543534  81.6405678
  39.3079853 139.7779656  74.4969225  38.4148073 140.0615347  74.3018484
  39.2059684 139.1235740  75.1880074  45.2419710 133.8386745  69.6733713
  44.8694038 132.9610974  69.5880318  45.9213734 133.8769502  69.0001869
  63.2543039  14.0743494  85.9117413  63.9855051  14.3499148  86.4645863
  62.8574610  14.8929107  85.6139088 121.4845199  17.4331117   1.2102262
 121.3490576  16.5608549   1.5804330 122.3301531  17.3758352   0.7654229
  12.3946428 138.7724120  67.4129677  12.9320228 138.6390621  68.1937790
  12.1750879 137.8881771  67.1194410  49.9899101  13.5482383  81.8883038
  49.9342203  14.1076076  82.6630497  50.1893950  12.6784921  82.2346878
  80.8082581 121.8595905  97.2308350  80.6326389 120.9240288  97.1302891
  81.6743183 121.8984575  97.6366138  19.0874755  42.3356009  89.5034695
  19.9751008  42.3371506  89.8617268  18.9662075  41.4474154  89.1678333
   4.2751902  15.4132175  74.7397280   5.1431060  15.0365877  74.8850012
   4.2996204  15.7299495  73.8367796   5.8770007 141.3494361  92.2394943
   6.3062340 140.7799400  91.6010094   6.4948070 141.3999070  92.9688740
  63.7120676  45.3922176  61.1487007  63.5395050  44.5571184  61.5835142
  63.6749744  46.0405588  61.8519163  34.3303847 136.0024364  92.6315880
  34.1164398 135.7543368  93.5309792  33.9134765 135.3305430  92.0921612
  51.7176151 139.9628193   5.0655881  51.1563683 139.7667355   5.8157770
  52.5991297 139.7329480   5.3593961  90.5027294  28.0567074  93.6885452
  90.1776981  28.9336324  93.4846115  91.4391136  28.0971289  93.4941387
  39.1609573 131.3271267  56.1301804  39.4922447 130.5478079  55.6839275
  39.9373293 131.8675573  56.2765026  35.2098131 142.8051899  93.2373905
  35.0060964 141.8729288  93.3123589  35.1027513 143.1459186  94.1254616
  73.9298105 128.8798077  69.1982079  73.9562511 129.6877367  68.6855888
  74.8413515 128.7222833  69.4441891  83.0185413  10.4479611  56.5386534
  83.5977554  10.7540226  55.8407497  83.3909225  10.8186316  57.3387575
  47.8142309   6.9505620  97.0654297  48.5770273   6.4116365  97.2750187
  47.0635271   6.3998407  97.2876549  62.7141476   3.8820910 101.2139034
  62.2488308   3.3372304 100.5792046  63.6122751   3.9190808 100.8849144
  52.3299646 129.1788764   3.1036702  51.7957973 128.8017983   2.4045888
  53.2054758 128.8214857   2.9554120  25.7526016 132.0442493  69.3014669
  25.7929707 131.9409675  70.2522182  25.3040838 132.8796012  69.1701174
  47.2460270  14.0092003  36.6400290  47.7430964  14.8165739  36.7715597
  46.3306952  14.2739093  36.7313027  43.2409000  32.1957970  71.7390490
  42.8768396  33.0802035  71.7779970  44.1890907  32.3267698  71.7417765
  49.4081640  52.8421259   6.6426412  49.9500370  52.6652765   7.4116174
  50.0268650  52.8592539   5.9124700  55.2255821   4.4620836  70.5795622
  56.0344696   4.4173071  71.0893917  55.5176497   4.4817847  69.6682215
  91.0435290  38.4839487  94.1087341  90.9517354  38.8074470  95.0049305
  91.7660803  38.9940810  93.7427902  61.2162304 145.8343888  83.2022572
  61.0435581 146.2480142  84.0480328  60.5191708 145.1854480  83.1062412
   2.2770639   3.0652195  61.6366673   2.6596200   2.7385736  62.4510288
   2.6487401   3.9410633  61.5318537  17.1276367  31.2825584  33.5733294
  16.3676882  31.5184450  33.0412889  17.1003318  30.3268623  33.6195183
  15.5814600   3.2953331 100.8390141  16.5330100   3.3932635 100.8735657
  15.3857982   2.6246062 101.4932823  30.5990553   4.2623550  73.5995531
  29.9461746   4.7927564  73.1427717  30.1458216   3.4428799  73.7977219
  57.8041410 140.8084173  99.7818851  57.0724154 140.2951379 100.1244640
  58.4473038 140.1548679  99.5072174  75.1720238  18.1904972  76.3755465
  75.1595974  17.4769235  75.7376671  74.4838095  17.9644465  77.0012426
  39.7460485 139.2488671  95.6451797  40.6095266 139.4810797  95.9868145
  39.2344928 140.0544859  95.7194710  25.6869125 140.3609235 107.4466133
  25.9511423 139.4445569 107.3648357  25.6685972 140.5216409 108.3900452
  35.6911945   7.5103456  66.6580009  35.1514983   6.9537491  67.2193909
  35.4326963   8.4032369  66.8863773  44.9587727   8.3920002  84.5554352
  45.5259895   8.8935202  85.1410770  45.4732037   8.2877702  83.7549782
  55.8082199 133.3561499  78.9247084  55.6234217 132.4199898  78.8492918
  54.9904919 133.7830491  78.6691380  90.7055950  29.4660974  67.6289034
  90.5501747  29.6318269  66.6990566  90.2318478  30.1653576  68.0792761
   8.2126141   2.9365209  65.8362770   8.7893325   3.6481366  66.1141825
   8.7190676   2.4610907  65.1777172  41.9262838 144.3788905  75.6343603
  42.4970245 144.1595542  74.8978996  41.4606524 143.5651074  75.8271694
   4.1270965 146.0968258  89.6968651   4.9135464 145.5612943  89.8014259
   3.7151074 145.7641997  88.8994598  42.6823902  49.4332647  75.2120543
  43.5763550  49.3933249  74.8722601  42.1780872  49.8467588  74.5113850
  43.2183075   0.2151949  95.1557922  42.5023222  -0.0215901  95.7453156
  42.9267883   1.0257826  94.7384262  76.8396044   6.1832821  82.4573708
  76.3380384   6.8475878  82.9299831  77.6654434   6.1203194  82.9372215
  97.9455323  23.9512515  73.0026245  97.4764437  24.5908284  73.5384703
  97.2646946  23.3556485  72.6896572  44.5481348 128.7324280  89.6694374
  45.1567125 129.1709025  89.0747929  43.8921022 129.3985350  89.8747444
  38.9670682  47.3506117  94.7642136  38.8080621  47.9941273  94.0736866
  39.7856474  46.9242859  94.5104313  71.3538837 111.8765778   2.3327867
  71.8477964 111.0831756   2.5396386  70.4375744 111.6254778   2.4492494
  24.5307612  23.6708975  69.6449947  25.1469731  24.3888640  69.7900391
  25.0792313  22.8870082  69.6144772  36.0163903  30.0600052  94.3595600
  35.3071094  29.5339727  94.7289371  35.9938240  29.8679686  93.4220886
  37.0497704   7.6651359   6.2433187  37.1051240   8.4220678   6.8266050
  37.9186058   7.6047391   5.8461992  49.0401363  41.3449240 103.3047962
  49.7515106  41.2648916 103.9402294  48.9788055  40.4780817 102.9034901
  35.5041385  18.8890266 107.5403214  35.2730370  19.6064019 108.1304073
  34.9202442  18.9986837 106.7898083  59.7314310   7.3635483 108.9373875
  60.6362772   7.2006446 108.6710358  59.4603157   6.5548062 109.3717480
  39.5335197  10.8469808  77.8515673  40.1591253  11.2255657  78.4692430
  39.5518231  11.4385486  77.0992756  64.9621582  44.6005154  68.4732533
  65.3373241  45.1655436  69.1486979  64.2224312  44.1716290  68.9034748
  39.4865704 134.9379427  85.6149769  39.2590904 135.4837818  86.3676739
  39.0964413 135.3883428  84.8658657  40.3980112  16.9732118  71.8127823
  40.0272703  17.8413975  71.6545582  41.2776041  17.0164037  71.4377069
  67.0846701 136.7635436  67.1945524  66.2104893 136.8057234  67.5821972
  67.5412798 137.5261004  67.5498629  68.8337660  12.1880698 108.6942959
  68.7167597  11.5850842 109.4284248  69.7501993  12.4586999 108.7503529
  48.9263439  26.5763712  53.5208797  48.1991196  26.6267419  54.1412354
  48.8032341  27.3314977  52.9456806  10.6050527  27.5194073  13.6853257
   9.7387505  27.9102159  13.7994329  10.5691743  26.7061973  14.1889421
  74.3777609  48.6596918  74.2337322  74.3621874  48.3250999  73.3370495
  75.0780773  48.1666899  74.6612072  42.2885656  14.7763085  84.7474957
  41.4611340  14.4706225  84.3758106  42.0500231  15.1302052  85.6042862
  21.0249019 137.1786357  78.4380293  21.1269212 137.9562003  77.8891993
  21.7923164 137.1868754  79.0100813  36.3319135 144.6011257  66.1430120
  36.8726778 144.6000002  65.3531981  35.8489943 145.4265323  66.1014652
  59.4129896  15.8284891  91.6188622  58.9414215  16.6548777  91.5142822
  58.8084698  15.1642191  91.2879086  56.0245991 146.4273147  94.8488808
  56.4044905 145.5717415  95.0486565  56.7725563 146.9682082  94.5954514
  39.0806937  37.6658368  69.7401428  39.4824147  36.8013000  69.8263168
  38.7280393  37.6784635  68.8503647  41.3972473  35.7390976  47.6086140
  41.1623669  35.5917001  48.5247660  40.5659962  35.9365177  47.1770144
  28.8313031  16.3411796  57.6795340  29.5787787  16.5293372  57.1119881
  28.7975574  17.0820630  58.2846689  50.3293896 141.2189860  71.9763851
  50.8006287 141.0258073  71.1659241  49.5787334 141.7435078  71.6977739
  18.0620408  13.3159506  49.4574738  18.7677252  12.8878033  48.9727736
  18.4311450  13.4766638  50.3258991  27.0489311 136.2243004 105.2432919
  26.8961501 135.4684372 104.6762276  26.2292409 136.7175467 105.2109623
  24.8627305  31.1938500   1.7832319  24.4347143  31.9912648   2.0949403
  24.3688345  30.9468722   1.0013810  45.1258707   4.8455009  61.1974335
  45.3451777   5.5267036  61.8331242  45.8078623   4.1834998  61.3109016
  39.8579836  16.6401756  77.6006842  39.9369097  15.7635498  77.2244787
  40.4352140  16.6260409  78.3641195  43.5373259  17.1070766  74.5496416
  43.0421352  17.7580500  74.0523958  43.5247660  17.4327922  75.4496336
   1.5015832 126.0537190  98.7701321   1.3558462 126.9995935  98.7523937
   2.4356319 125.9518261  98.5873699  96.3226218 140.5968089  73.0374765
  95.6717414 141.2932146  73.1246996  96.3231105 140.1612998  73.8898659
  43.6773014 142.0738677  86.7494774  43.3859921 142.3003212  87.6327038
  42.9112148 142.2299285  86.1972141  38.0537009 128.6256153 107.6904869
  38.8692498 128.8188512 108.1528378  37.7737451 127.7803404 108.0417252
  49.4457960 103.8598413  68.1397009  48.8413763 103.1260223  68.2511377
  49.7156239 104.0852136  69.0300035  47.8546810  13.7927258  60.5872917
  47.8463459  14.3608367  59.8169613  47.3899317  14.2924690  61.2584877
  77.4807978 146.2213232  54.1109562  76.9396353 146.0323096  54.8775387
  77.4804688 147.1763937  54.0471458  50.2326584 123.5332150   4.7218076
  49.3571138 123.5412783   4.3350354  50.6661367 122.7815742   4.3176118
  52.2885990 145.4271787  17.3229448  53.0342674 144.8372809  17.2123376
  52.5820780 146.2572353  16.9473020   7.7699828  17.3214436  39.6159021
   6.8414146  17.1232724  39.7372381   7.8379476  17.6008844  38.7029210
  47.3594427  14.7361302  79.2016220  46.6954517  14.2127740  78.7527943
  46.8667793  15.2515507  79.8402548  39.2044139  41.4145184  17.8678552
  38.3218956  41.7733908  17.7750913  39.7838306  42.1421194  17.6417962
  23.8605690  24.8638129  82.1368027  22.9593992  25.1174617  81.9373417
  24.3123579  24.9021602  81.2938023  73.8196850 132.7956361  87.8551483
  73.8735867 132.3121125  88.6794853  73.5223103 132.1476955  87.2164249
  45.8609247  25.6127739  74.4714022  46.0194159  25.0775433  73.6938190
  45.5107594  26.4351225  74.1288280  47.2676420  32.9795647  73.0117273
  47.8705406  32.5358486  73.6082697  46.8032026  33.6081600  73.5643530
  75.6743097 141.4870644 104.3189907  76.3972664 142.0813177 104.1179276
  76.0789108 140.6202091 104.3520164  85.9985733  42.5465488  11.0166684
  85.3350925  43.2354736  10.9792272  85.5278587  41.7475462  10.7794992
  41.7745209  17.6212835   4.8299066  41.5123940  16.7761827   4.4647733
  41.2715864  18.2644391   4.3302766  29.2622304 146.1352629  57.9287815
  28.3749819 146.4924819  57.9664230  29.3193293 145.7262904  57.0652342
  73.6899757  27.4088788  83.5761833  73.4247923  28.3009076  83.3521557
  73.8958311  27.4476385  84.5101833  40.8275080  22.9343128  51.8742657
  40.1147652  23.4866786  52.1953917  41.1367178  23.3775496  51.0842276
  35.9291339 145.5392132  54.2062378  35.3341770 144.9513275  54.6716881
  36.7701936 145.0822433  54.2115831  47.8733253  16.2804508  46.4339256
  47.5686932  15.6346357  47.0713902  47.0974398  16.4870620  45.9128237
  55.9280396 130.6575210  64.3605185  55.0920773 130.2204926  64.1980314
  55.8704948 130.9545357  65.2686501  56.5149164  25.0758433  84.0550232
  56.7535734  25.8929443  83.6172771  55.5601072  25.1064539  84.1153240
 108.3901596 133.4189911  99.0043068 107.6861954 132.7884109  99.1560650
 108.2220364 134.1214175  99.6324539  28.5465431  16.9338512  54.2277241
  29.0282750  17.3639166  54.9342728  27.6258492  17.0360458  54.4687796
  60.5064487  10.2118647  11.0010186  60.0367498   9.4129384  10.7615796
  59.9736691  10.9203124  10.6397954  61.5958023 143.2448787  79.4186401
  61.6122580 143.9052058  78.7258720  62.4048758 143.3916027  79.9086475
  31.9926023  24.2426729   2.8670827  32.6167679  23.6578012   3.2967035
  32.4555039  25.0776124   2.7975885  91.8169117  25.4285097  75.4055166
  91.6454601  24.5033836  75.5815315  92.0600033  25.4552031  74.4800854
  61.9868469  41.5609026  92.2140503  62.5415039  41.1854696  91.5302181
  61.9882822  40.9045744  92.9108047  68.1722212  25.2872038   2.6014081
  68.1612587  24.7413564   3.3876363  68.2208061  26.1838269   2.9329816
  30.1582623 127.3537094  46.8727541  29.4510484 127.4477751  47.5109005
  29.7840786 126.8108601  46.1788321  42.9513502   2.7459902  33.5623550
  42.5859213   3.1132221  34.3672371  43.8076830   2.4057670  33.8215351
  24.4158506   7.7627283  60.6709909  25.3350997   7.9816234  60.8236217
  23.9329863   8.3134520  61.2872505  25.7413507 135.8525378  73.6725140
  25.5125546 134.9231655  73.6847830  26.5615821 135.8908016  73.1805944
  13.9349735   8.8251853  77.0201683  14.7201443   8.2825446  76.9474936
  14.1415083   9.6137232  76.5183926  13.6705804 127.3768253  62.8221321
  12.9352081 127.5634641  63.4057617  14.1948962 126.7314834  63.2963228
  31.2014461  30.8903718  47.7986956  31.7833614  30.1843023  48.0798912
  31.6921782  31.3475275  47.1157455  44.8201895   5.6760073  32.4756503
  43.8800287   5.4962188  32.4742699  44.9706459   6.1581588  33.2887459
  67.7221489   7.4244577 100.6890488  68.6340570   7.5596535 100.4314137
  67.2911215   7.1166348  99.8917484  28.9056587 137.8246225  65.1202250
  28.8905096 137.3208834  65.9340143  28.0463123 137.6711805  64.7275257
  29.1923118   1.4570439  26.1453986  28.9673066   1.8475652  25.3009462
  30.1490164   1.4750798  26.1703134  38.8139653  12.6074076  12.7603793
  38.3544254  11.9282258  12.2666514  39.6011090  12.1732855  13.0892754
  47.6787233  12.2487664  34.4254661  47.1963978  12.4868679  33.6336946
  47.7447510  13.0654240  34.9203825  25.9802270 135.5719287  46.6685581
  25.2538300 135.0041194  46.9258022  26.2541318 135.9941597  47.4827623
  46.6832209   4.4361037  42.8818798  45.9744453   4.8475754  43.3764029
  47.0283175   3.7652725  43.4710503  73.4234905  14.6752918  71.0681057
  73.9896727  15.4407907  71.1664772  72.9492474  14.8315084  70.2514505
  72.2849560  11.9435287  81.4646530  72.5689077  11.6176307  80.6106091
  72.5021839  12.8756332  81.4496326  61.2916183  34.3930316  64.8032188
  62.2306299  34.2245126  64.8812771  61.2321472  35.3251958  64.5940161
  34.7497487   4.0119466  79.9141645  34.8583412   4.7709620  80.4871655
  33.8951969   3.6523962  80.1522732  70.7957935 142.7739398  63.8868713
  70.3598022 143.1909604  64.6299982  70.1396704 142.7801228  63.1899500
  42.0775986 136.3909382  41.9874430  42.7840424 135.9322626  42.4421835
  42.2816658 137.3190410  42.1024084  77.8638744  13.2537949  45.4287672
  77.6697969  13.7622929  46.2161636  77.9039478  12.3471189  45.7330084
  41.6427660  35.8100080  75.0645447  41.5099716  36.7574096  75.0324583
  41.2713909  35.5444574  75.9058475  19.6422911  22.9061222  43.0325699
  19.6625364  23.6953974  42.4913979  18.7106931  22.7222824  43.1532383
  26.7033505 126.0595460  36.7703724  27.2401810 125.2842540  36.9345927
  26.8853211 126.6381128  37.5109005  57.5700474  99.8218078  79.2970800
  56.7817783  99.3323583  79.5322323  57.3359346 100.2792806  78.4895277
  65.1292419   0.4217408  82.3957920  65.3889418   1.3373753  82.2937965
  65.9265327  -0.0226748  82.6839828  26.9358253 141.1901278  81.5551758
  27.5833416 141.8897910  81.4690113  26.4235735 141.2371183  80.7479382
  21.1801147   8.7532687  47.8055048  21.7840886   9.3699473  48.2192135
  21.6866827   8.3633202  47.0930719  55.6990576  11.2549233  62.9839659
  55.9908915  12.1619618  62.8926086  55.0465012  11.1425006  62.2927666
  21.2505746 144.2465613  58.6702299  21.1819816 144.8082908  59.4422293
  22.1903181 144.1915997  58.4967470  58.5601282  22.6247263  66.3158369
  58.7768698  23.3087802  66.9493437  58.4641123  23.0897188  65.4847002
  67.1289396 142.9139263  69.3439007  66.8889046 142.7532975  68.4313154
  66.7537165 142.1755780  69.8237753  93.9069366 144.9121242  64.7189951
  93.1109238 144.3996222  64.5778131  93.8588619 145.1814482  65.6362629
  30.0690055 143.0470882  57.8920126  29.9474359 143.1999839  58.8290691
  30.9793758 142.7624095  57.8119087  64.9874735   0.9822641  73.1695604
  64.6773148   1.7011245  72.6188564  65.8518076   0.7675334  72.8187752
  30.1332664 118.7285609  33.2246971  29.7480917 117.9848094  32.7613354
  29.9254322 119.4856209  32.6770663  41.8389463  24.2750311  65.2268696
  40.9508419  24.2736793  64.8697996  42.2285128  25.0847316  64.8969364
  27.0751786  15.6354141  81.2215042  27.8854799  16.1296093  81.3456726
  26.5369964  16.1946774  80.6613159  48.6170959   6.6865420  29.5098257
  47.9501915   7.2328275  29.9258041  48.4312439   5.8013809  29.8231602
   4.7631830 129.5115072  16.4411581   4.2877877 129.0681524  17.1437728
   5.5549246 128.9874239  16.3198614  39.3135476  37.3912525  73.6815548
  39.1580224  36.4588475  73.8320971  38.4593058  37.7380729  73.4242201
  50.4733992 144.0691660 102.0006466  51.1850452 144.0998497 102.6400661
  50.6458569 144.8062308 101.4147949  59.5021057   9.1713852  62.3777676
  58.7179041   8.6257690  62.4374628  59.6222353   9.5157427  63.2627630
  11.2538862  40.9306288  43.8005018  11.8830144  41.0612392  44.5099878
  10.6406236  40.2793503  44.1410589  64.8279524  24.1905332  74.1453743
  65.5609894  23.9210844  73.5919476  65.2304220  24.4109488  74.9854136
  41.5164995 128.4559638  87.8535748  41.9406271 128.3782513  86.9989967
  41.1606932 129.3445105  87.8644562  19.7357941  38.6580038  45.5012512
  20.0710130  38.3256316  46.3339520  19.8157775  37.9186392  44.8986149
  30.6221318 141.8992186 103.6649704  29.8380160 142.2979466 103.2875919
  30.4708290 141.9210027 104.6098804  72.0782852   6.1529541  85.1781273
  72.8959656   5.8343029  84.7959042  72.3159695   6.4157569  86.0673237
  11.7668080  12.3934829  52.2640181  11.1646295  13.0027735  51.8369627
  11.2246847  11.9276524  52.9006767  28.4061646   4.0800762  51.5242386
  27.6208234   3.6128393  51.2393522  29.1324282   3.5559878  51.1864471
  19.4533277 141.6941408  37.5271988  19.6882522 140.9158946  38.0325460
  20.2529621 141.9222511  37.0530891  54.5918322  19.4558752  50.7306099
  54.4700623  20.2494788  51.2517595  55.0456762  18.8511503  51.3176060
  72.7122307 144.5047059  85.8266449  72.0983219 145.1805601  86.1139870
  72.3983908 143.7027551  86.2445068  24.5202017   6.6288763  35.7403803
  24.4800711   7.2611648  36.4578986  25.2804589   6.0839450  35.9435844
  58.1349611   5.8629805  42.8893709  57.5358295   6.6029036  42.9882908
  58.1204319   5.4274356  43.7416172  54.8304749  12.8950465  81.5170670
  54.0246153  12.6898980  81.9911289  55.3735352  12.1133399  81.6183281
  24.0970922 139.4090546  83.0889797  24.5980453 138.9999945  83.7946320
  23.3812690 138.7971420  82.9175472  31.6435003  13.0906951  54.3976116
  31.5174079  13.1125319  53.4490013  32.4087453  12.5299013  54.5246649
  28.6997437  16.2306130  68.5680389  28.4931445  16.2778699  69.5014811
  28.1458497  16.8997681  68.1659603  44.1163111   2.7703792  81.6319656
  44.3087196   2.1494535  80.9293556  44.3482542   3.6243653  81.2670803
  85.9495449   4.7038966  38.9848042  86.6433048   4.1133747  39.2784142
  85.2458382   4.1223225  38.6970448  44.7153378 145.0092714  51.5291500
  45.0682449 144.2384700  51.0846806  44.2798424 144.6591681  52.3063278
  60.8185816 141.7210377  57.2022581  61.6559172 142.1257991  56.9758320
  60.1696491 142.2189326  56.7050457  43.4545422  18.6333895  77.1965694
  43.8706350  18.3807802  78.0207586  42.5170326  18.6264884  77.3895979
  46.1913872 135.6044275  45.1110935  45.6698370 136.3576419  45.3883743
  46.2521505 135.6923015  44.1598701  25.5512047  19.0142524  82.4834824
  24.9209905  18.4142029  82.0847321  25.2500892  19.8850143  82.2239876
  44.7465754 125.6268592  49.4803953  45.0595474 126.5273161  49.3940401
  43.7989426 125.7116933  49.5854092   6.9690645  12.0393670  41.5784073
   7.1203905  12.0753050  42.5228882   6.0164011  12.0123327  41.4893341
  31.8049002  32.9240346  34.1068912  32.0657516  32.4520755  33.3160424
  31.2845302  33.6604261  33.7856865 118.2979012 141.1294789  47.5594473
 118.5528946 140.2854086  47.9319477 117.7773571 140.9036357  46.7885685
   9.6647310 117.9249663  70.6516171   9.3744832 118.4957785  71.3630676
  10.6180072 117.9035110  70.7354879  29.8896956  26.8782640  60.8180094
  30.3473449  27.5891757  60.3692389  29.6462512  26.2712765  60.1190567
  25.8564711  30.2949858  51.8242788  26.0945034  29.4423294  52.1883535
  26.5914226  30.8652973  52.0497227  35.4907846 129.3836958  55.6488895
  34.6693730 128.9385910  55.8572102  35.5296493 130.1153333  56.2648678
  29.3351460 111.0264797  87.0681095  29.1259885 111.9602675  87.0910072
  30.0172377 110.9174914  87.7307606  44.0222359  11.9542742  51.3693285
  43.3413649  12.4689746  50.9360456  43.5479641  11.4121163  51.9996929
  37.6056433   5.6927651  83.9369583  38.5229516   5.8809191  83.7385273
  37.6408577   5.0283217  84.6250725  16.0179090 117.7137990  31.5837932
  15.5571604 117.6129527  32.4167228  16.6009617 118.4603448  31.7214608
  14.8450184   4.4610158  48.2673454  14.2959702   5.0623244  47.7641487
  15.1138544   4.9669212  49.0341711  40.5524445  12.5224435  39.4654322
  40.6759405  12.1274960  40.3285646  41.2948418  12.2077811  38.9496160
  78.5025167   1.2765449  51.3418961  78.8230085   1.7641385  52.1006918
  78.2753849   1.9513050  50.7020998  67.4509525   6.9216210  65.9619713
  67.9014254   7.7048057  66.2780905  66.6458416   6.8835795  66.4782858
  65.3445005   2.6464218  29.3037200  65.8213997   3.2673126  28.7529993
  65.0742149   3.1599665  30.0649357  50.1103163 129.9834604  56.8195343
  49.8356342 130.3952570  56.0002661  49.4502974 130.2552778  57.4572849
  52.7166653  17.8593934  54.7008848  52.4183273  17.1728742  55.2974796
  51.9698477  18.0155790  54.1228724  16.8708515  30.7444429  75.7644796
  16.7463386  31.6555500  75.4987478  16.3840652  30.6655645  76.5848732
  29.3536663 140.0541491  40.2441835  28.9078164 139.5659907  39.5519757
  29.0316224 140.9506733  40.1505661  62.9820728  43.5417700  65.4463768
  63.4428930  43.3531094  64.6288919  63.1827021  44.4599104  65.6280327
  10.0802517  20.7648420  55.8311510  10.0942361  19.8441207  55.5697966
  10.9980655  20.9810543  55.9957790  70.1883698   4.3157518  57.4767828
  70.2681637   5.2057338  57.8199959  70.2047157   4.4234234  56.5257978
  61.3482714  34.5361948  74.8207235  61.4460754  34.4217443  75.7660103
  60.4028559  34.5115328  74.6730232 123.6826969  12.8611517 106.7963886
 124.1320815  13.3702207 107.4710274 122.9028527  12.5195038 107.2338295
  61.6316795 120.1615281 101.7463493  62.5208187 119.8508377 101.9170284
  61.6867161 121.1118931 101.8463802  68.2163572   7.6497334  26.0399938
  68.4712076   6.7803663  25.7309937  68.9976263   7.9865724  26.4786148
  50.7445478   7.9101026  70.9776020  49.9956703   7.4319649  71.3336945
  51.5077257   7.4110019  71.2686062  96.7082500 140.0649089  55.2377033
  97.4162960 140.5246741  54.7865677  96.1575222 139.7232110  54.5333147
  36.0494733 129.2311854  72.3250008  36.8301702 128.7763209  72.6409769
  35.7895327 128.7453491  71.5422964  20.4020309   9.5417994  86.1217117
  20.4636097  10.3227472  86.6717720  20.6468153   9.8447824  85.2473450
  17.5526476   4.7123027  41.0175514  17.0334423   5.4280359  41.3841391
  16.9176996   4.0147504  40.8547878  29.6946144  43.7604952  75.3732967
  29.1580892  43.1926966  74.8201466  29.5754266  44.6358585  75.0048256
  32.5561166  39.6152329  46.1728287  32.4221301  40.2149820  46.9067144
  32.6818466  38.7594414  46.5827608  42.5805283 124.2605586  71.5185165
  43.0383539 125.0250024  71.1688709  42.4484348 123.6925764  70.7594490
  55.4033041 134.8399527  98.2695278  54.5306921 135.1707990  98.4824237
  55.9440565 135.0914628  99.0182325  22.9660225  12.0774341  69.5710087
  23.6178136  12.2880483  70.2396202  23.4386897  12.1565592  68.7424183
  57.7992153 143.3064953  60.0222969  57.9744911 144.1430427  60.4532242
  58.6168861 142.8164647  60.1089811  50.8567476 144.5491300  55.6339359
  51.1066532 143.6849470  55.9609938  51.6857862 144.9638621  55.3953409
  51.9495201  24.2946863  65.8584309  52.0156622  25.0183392  65.2353859
  51.6559410  24.7050405  66.6718483  15.6852937   7.0542973  42.1395111
  14.9742067   7.0817775  41.4993286  15.2432191   7.0505035  42.9885006
 118.2208080 143.9936107  43.2658815 117.3161573 144.0143020  43.5779905
 118.3670873 144.8649145  42.8975582  26.1952472  33.7602735  40.6109095
  26.2836552  34.2977619  41.3980055  26.5060425  32.8945804  40.8758831
  58.0324554  18.5958958  53.1284618  58.0316210  17.6597857  52.9286337
  57.3996830  18.6893594  53.8405657  66.1840105 129.3195171  51.9647360
  66.8772507 129.9247319  52.2280979  65.5295277 129.3878908  52.6598692
  74.4977760 117.6717181  54.0654564  74.3144274 118.5358615  54.4340611
  75.1742172 117.3066253  54.6358633  25.0103235 144.4621306  70.9291172
  24.8035836 145.3625775  71.1794853  25.0050426 144.4724424  69.9719858
  39.9856305  10.4735243  45.4690504  39.8436499  11.3262129  45.0579596
  40.7088995  10.0870597  44.9753332  77.9343510  16.3801849  69.5384932
  78.0102348  15.5214381  69.1225243  78.5162735  16.9449306  69.0299082
  60.7554483 146.2713986  34.3225145  61.0086441 146.1089463  35.2312112
  60.3595543 145.4492095  34.0335417  27.2455788 126.9255562  61.8994713
  26.7420816 127.7342660  61.8061352  27.0307493 126.6096098  62.7771139
  43.3983040  14.7400427  65.2633572  42.7551842  14.2507160  65.7763767
  44.2323446  14.3097115  65.4515600  41.0385561  11.9767737  85.9928131
  41.2991333  11.0971785  86.2660217  40.2957392  12.1924984  86.5566540
  33.0746388  12.9753232  38.8828111  32.3342037  13.4377050  38.4901452
  33.6968017  13.6670184  39.1079831  43.0392218   5.1356351  65.0090694
  43.0534601   5.2223283  65.9622288  42.3424149   5.7273024  64.7251368
  50.7175541   4.6800739  70.0076199  50.1983309   4.3031296  69.2972994
  51.2164783   5.3835464  69.5923662  66.2927914  15.2279031  70.4764795
  66.7892218  15.9081805  70.0214958  66.7703104  15.0894916  71.2944365
  77.6273298  46.6298676  74.0204716  77.1024990  45.8413410  73.8825846
  78.5287952  46.3118982  74.0703106  24.9246478   6.3495654  74.2422724
  25.2577043   6.3548493  73.3448982  24.3292761   7.0980644  74.2811918
  67.0688772  43.2571125  64.8357534  67.9732513  43.0450869  65.0668192
  67.0735741  44.2037201  64.6938086  21.8241620  17.2367597  84.0645313
  21.9390368  16.6032243  83.3562469  21.5273666  16.7129004  84.8086452
  41.5624428  12.4237549  29.0283608  41.1758089  11.8455887  28.3707380
  41.9590521  13.1320167  28.5211158  45.6580019 141.7461393  78.0273676
  45.6420040 142.2572897  77.2182322  44.7458363 141.7273984  78.3169031
  52.3528433   4.0750346  55.2870226  51.9112206   4.9160904  55.4046059
  53.1613970   4.1562849  55.7928610  70.2804518  41.3670683  58.4445763
  70.6761980  40.4995441  58.5283995  69.3397903  41.2101841  58.5269260
  35.2359939  16.7327702  73.7778473  34.2967725  16.8316305  73.9337921
  35.3103423  16.6135991  72.8310108  57.6917887  19.1714787  45.1176977
  56.8457222  19.5834064  45.2929688  58.1623983  19.8096550  44.5815182
  36.5421295   3.4368908  65.7998943  36.3714600   2.9523778  66.6075754
  35.8557653   3.1487298  65.1981449  75.0214148  42.4169922  25.6169367
  74.6295500  43.0333376  24.9982333  75.0073099  41.5764904  25.1591253
  70.2868509 144.3091083  97.8949070  71.1868620 144.1403482  97.6160908
  70.0769520 143.5813219  98.4801388  59.3946552   4.7952715  95.5022907
  59.5932245   5.6708086  95.8343029  58.6107922   4.9145529  94.9660397
  52.1054840 120.6455822  58.3024645  51.5751219 119.8702998  58.4865570
  51.6022539 121.3726039  58.6691189  50.9637308   3.8050020  89.0793991
  51.6508961   4.2055169  88.5468292  50.1479149   4.1506624  88.7171936
  64.7106123  63.9403629  32.6618671  65.2701712  63.3127499  32.2044611
  65.3046942  64.4067574  33.2498956  42.0060635 144.2207154  69.5174789
  41.4942598 144.2917190  70.3232384  42.0004940 143.2858927  69.3117952
  59.9578857   9.9138582  77.6068926  60.3076935   9.0244365  77.6597643
  60.6646204  10.4691505  77.9361534  32.2470379 139.1137112  63.6450434
  32.5515366 138.3421988  64.1228294  33.0474877 139.5894534  63.4232807
  27.8345370  48.5465336  97.0530224  27.4706721  47.6706839  97.1823311
  28.7803912  48.4282064  97.1401501  26.3734722  13.1104827  58.4934044
  26.0659075  13.7978280  57.9024792  25.6184983  12.9168057  59.0490437
  37.0233703  58.9611769  31.9551492  36.7521405  58.0828667  31.6882586
  36.5277147  59.5486212  31.3846517  39.7407222  13.3333695  54.8042917
  39.3696570  12.5029826  54.5059633  39.5725656  13.9428067  54.0855837
  32.3970842  24.0965915  29.8357344  32.2755527  23.8013625  28.9333487
  33.1803799  23.6351252  30.1352811  34.8388720  47.6897287  22.1574060
  35.0082684  48.3796167  21.5158502  33.8844657  47.6467085  22.2164956
  35.8363080 122.8728075  36.1108375  35.4250646 122.5443453  35.3113222
  36.7273021 122.5241489  36.0825253  74.7879410   2.5025016  30.6155276
  74.6153212   1.8620671  31.3056564  75.4351377   3.0962056  30.9961629
  44.8851633  15.1325655  37.4431038  44.3762875  15.1329637  36.6323781
  44.3966341  15.7068646  38.0328107  38.8505220  25.3335881  39.8429084
  39.3600082  25.1735044  40.6372833  38.2403016  24.5975256  39.7973466
  38.5257244  39.3130326  86.6043377  38.5455537  39.5426464  87.5333786
  39.2119074  39.8513508  86.2098789  18.8782620 140.9211547  70.2331018
  18.7790060 140.4093225  69.4303513  19.2036843 141.7710871  69.9365425
  88.5872555   8.1492281  62.1444654  89.5050335   8.1772238  61.8740463
  88.5916233   8.4828585  63.0416298  37.3915720  33.2466578  30.1719046
  38.2632256  33.6419988  30.1594734  37.1589994  33.1504917  29.2483807
  29.5125246  10.8315825  74.7553253  29.7840953  10.0547361  74.2664576
  30.0323653  11.5433598  74.3820047  11.2644124 107.9172249  65.5597496
  10.5036891 108.0096121  66.1333323  10.9045804 107.5891609  64.7356558
  45.4040337 135.5573589  59.1891336  44.7268295 136.0989434  58.7837791
  45.4221535 134.7602672  58.6594629  11.4362180  31.5648103  51.6208649
  10.5623937  31.3923550  51.2702608  11.8733287  32.0712280  50.9362411
  48.9663601  46.1946154  31.3643098  49.2386675  47.0544243  31.6849518
  48.0144548  46.2584257  31.2866163  60.7207394 140.1551397  39.9851036
  60.1430130 140.4566217  40.6862259  61.0662889 139.3205292  40.3017282
  33.5645103   0.5967863  53.1682825  34.0622282   0.1559282  52.4796963
  34.2292571   1.0259593  53.7069416  48.8859272 122.6701874  92.8152275
  49.6051598 123.2188220  93.1281757  48.1025839 123.0550356  93.2082844
  68.0591726   1.5330078  34.7500420  67.9806709   0.8677678  34.0662837
  67.5393438   2.2695881  34.4283843  65.1441479 118.6930294  52.9995823
  65.4227591 117.8169508  52.7329445  65.0483847 118.6349363  53.9502096
  54.0776491 146.0581477  50.2982187  53.7437057 146.7437623  49.7197294
  54.9621344 145.8833155  49.9767399  29.7526217  29.4808960  42.8894854
  30.4556012  29.0711164  43.3935976  29.2351937  29.9542165  43.5410023
  39.3155503   6.2752813  49.1773319  40.1337147   6.6430521  49.5113707
  38.7641859   7.0378178  49.0019274  55.7010460  21.6520929  43.2586765
  55.6012821  21.2895155  44.1389132  56.0796547  20.9373856  42.7467394
  46.8445349  14.4499648  65.3137350  47.6864004  14.2845035  65.7381487
  46.7812967  13.7765348  64.6364450 118.6170519 104.9759502  40.8391666
 119.5638401 105.0048990  40.7013750 118.5020561 104.3943615  41.5906715
  64.9108601 124.5260734  61.4621878  65.7898617 124.7644062  61.1675835
  65.0121403 124.3458981  62.3968029  58.5633230 134.9845798  93.6157513
  58.8837910 135.6932182  93.0577469  58.3360100 134.2831916  93.0053234
  76.6840792  12.7234471  39.6979284  76.6431856  12.4084091  40.6008720
  77.6030540  12.6217854  39.4501758  86.5663624  12.4583602  59.6550226
  86.4827347  12.6020861  60.5976677  86.4590073  13.3279765  59.2696953
  25.9868598 128.8929684  69.3080139  26.2042665 128.4603066  68.4823227
  25.9876919 129.8265512  69.0966988  58.9185667  25.8183217  30.0695634
  58.3385038  26.3280416  30.6351995  58.9160013  24.9409556  30.4522538
  41.6360569  43.4916210 101.0193253  41.5659332  42.9734802 100.2175522
  42.2491217  43.0022717 101.5678883 121.6311533  28.0429196  38.0097055
 121.1888552  27.2459912  37.7172875 122.3207775  27.7325439  38.5964918
  29.5057082  16.9489169  36.0146117  29.3897128  17.8941524  36.1110854
  30.3964496  16.7841160  36.3238883  14.7185993  18.4968531  54.4634199
  15.2742279  19.2220712  54.7490215  14.3593979  18.7862313  53.6246920
  21.1986518  14.1634762  46.8822861  21.8552327  13.9318836  46.2254047
  21.4056063  15.0674403  47.1194553  38.4328270 136.3713402  53.9544058
  37.5697899 136.5615965  54.3221045  38.4919477 135.4160149  53.9639759
  16.3135743   8.3217829  64.2662668  15.6952286   8.9268142  64.6759224
  17.0498073   8.2819939  64.8766851  45.7420540 139.4047494  61.1233282
  45.0244284 139.2282725  61.7316914  45.5406475 140.2666522  60.7589245
  17.4919438  13.2133031  88.0534458  17.0076454  14.0078759  87.8290749
  16.8285048  12.6197338  88.4052277  38.7019420   7.6890993  63.3360147
  38.1397915   7.6908219  62.5612783  38.1603432   7.3024511  64.0240574
  57.5741339  23.1901097  70.2359200  58.0658150  23.5518813  69.4986248
  56.7269373  22.9469681  69.8625898  22.5326037  10.6885767  49.3109465
  23.1220174  11.3987446  49.0570116  22.6562381  10.6010914  50.2560854
  70.1031780   0.4017095  71.0986185  69.5456266  -0.1573822  70.5575228
  70.2272892  -0.0948331  71.9074869  49.0926266  36.4886475  62.2240496
  48.5977697  36.6249347  61.4161015  48.9884710  37.3069334  62.7096319
  11.5747416 129.1291816  78.5382271  11.9548917 129.4947500  79.3370247
  11.7723203 129.7762222  77.8610754  13.3932042   4.8021087  34.9054360
  13.0326676   4.6523044  35.7793951  13.2460356   5.7337147  34.7420859
  26.1173415  35.3613329  47.1131706  25.7003450  36.1677146  46.8096972
  26.1896682  35.4712415  48.0612850  72.0551825  39.8456693  66.0425472
  72.4684525  39.2814016  65.3890610  72.2833204  40.7344913  65.7701778
  29.9870849  17.2263265  61.1613846  29.3532634  16.6461170  61.5831184
  29.4662213  17.7444839  60.5478334  63.1935501  26.7466545  57.8467607
  63.1274796  25.7978225  57.7391481  63.1659889  26.8827868  58.7938309
 114.5456058  28.7647176  73.5119963 115.0301749  28.1168795  74.0235901
 114.5033032  28.3916473  72.6315069  62.3765612   4.1761282  73.4349680
  61.7671967   3.5492572  73.8247585  62.8542185   3.6692446  72.7783489
   3.7137124  12.8835213  70.6950760   3.7063023  12.0761776  71.2092495
   4.5567751  12.8711689  70.2419472  51.7970562 145.8938445  68.8132858
  51.2817907 145.5719938  68.0735922  51.2022161 145.8394667  69.5612478
  42.7362585  16.5363693  93.0541992  43.3550167  15.9382272  93.4732437
  42.6592588  17.2685611  93.6659145  76.2149096  24.2411971  40.0382662
  75.6229925  24.9315310  40.3371048  77.0271730  24.6991515  39.8220754
  82.1967793  14.7987854  31.4578557  83.1441307  14.6702659  31.5051699
  81.8278408  14.0078056  31.8508816 121.9559202  34.3561864  25.6391692
 121.9424657  33.5756350  25.0852823 122.4639130  34.0958881  26.4075589
  58.3677626 138.9378525  55.8392429  57.8200579 138.4905578  55.1941252
  58.7811375 139.6494002  55.3503132  45.4093647  19.0225458  38.3533239
  46.2910938  19.0304565  37.9808640  45.4826021  19.5430660  39.1532803
  84.0395641  24.9048829  27.8669739  83.7655449  24.1124177  28.3286476
  84.1859245  25.5478120  28.5608435  98.4553332  13.9771807  28.6614776
  99.2450351  13.7106979  28.1907439  98.0718250  14.6641207  28.1162548
  13.5792112   7.1144748  47.0441914  13.8291645   7.9046911  47.5230598
  12.6554298   6.9860595  47.2595263  21.9059944  28.9987159  28.5076284
  21.2883925  29.6521544  28.1792760  22.6399946  29.5115948  28.8459086
  46.2880182   3.8553831  35.2900553  45.7536697   3.1577301  34.9106002
  47.1870613   3.6201888  35.0606322  19.3303919 134.1789825   4.2358732
  19.8884475 133.4498508   3.9653698  19.7192562 134.9465878   3.8165894
  62.8516865  24.1012406  16.6258526  62.5079489  24.9361825  16.3081229
  63.5799360  24.3440533  17.1976256   6.4174116   6.6978782  50.8695936
   6.7644268   6.5134972  51.7424107   7.1924341   6.7539734  50.3106403
  83.3087921   0.5784459  22.3740554  83.6988735   1.4412427  22.2338653
  82.5703239   0.7419176  22.9607201  19.4138157  27.1842933  52.6116323
  18.9334416  27.7384663  51.9965172  20.2775049  27.5917339  52.6769209
 103.8185883 128.8285536  37.8397894 103.4201527 129.1048796  37.0144844
 104.6072769 129.3654842  37.9165936  63.5749483   4.0044093  33.9455080
  63.8456821   3.0875480  33.8975477  64.0543938   4.3568099  34.6952963
  31.5881681  21.0435295  73.8150024  32.5283122  21.1871290  73.7066603
  31.3128495  21.7179847  74.4359255  25.1241446  16.3965738  50.5206108
  25.8954406  16.5560377  49.9766350  25.4000545  15.7150364  51.1334848
  17.8966391  25.3482056  39.7316957  17.9670048  25.1703382  40.6695890
  17.6100004  24.5179248  39.3512988  31.7608476 130.9829075  13.6941421
  31.4467454 130.9976966  12.7900660  31.2458992 131.6569609  14.1376626
  47.3027468  34.1377425  49.8675966  48.0861950  34.0567136  50.4115438
  47.6278782  34.0796828  48.9691830  26.7830181  20.1111865  51.0292339
  26.4602232  19.3383121  50.5658770  27.5502300  19.7995567  51.5093422
  10.0351584 146.1662461  24.2404008  10.7756948 146.6986693  24.5308542
   9.9237883 145.5134887  24.9315858  78.9708328  21.1742663  31.1533642
  78.9966536  21.1211133  30.1979899  79.7989941  20.7872462  31.4372516
  78.2982063  23.2413006  60.4122257  79.0695095  22.8319740  60.8043718
  77.7118492  23.4043097  61.1510420  44.9869013 128.3712716  49.0501356
  44.2812634 127.9968090  48.5228014  44.6442604 129.2153520  49.3440008
  38.5040212  28.2932043   5.2719796  38.4308577  28.8097644   4.4694555
  37.6512480  27.8677845   5.3615707  49.5897722  28.9767623  23.4700465
  50.1166201  29.7359729  23.7195659  48.9136982  28.9219761  24.1454387
  54.6419573   8.9772654  74.9880362  53.7113619   8.7619621  74.9257851
  54.8718691   8.7854832  75.8972073  68.5756063  23.5962224  27.6928186
  69.4867897  23.5737658  27.4004555  68.1369495  22.9322720  27.1608591
  29.7322488   8.3678252  66.4753675  29.6170115   8.1117791  67.3904610
  30.2574587   7.6642424  66.0941124  45.1289415  26.9236040  46.5395308
  44.2923212  26.8224239  46.9934702  45.7767105  26.5711141  47.1497631
  33.5640383  29.9765229   8.8824815  33.9106536  30.8608818   9.0007997
  32.9853344  30.0456858   8.1231713  68.7015820  10.5663836  54.3960953
  68.7890053  10.3313661  55.3198671  68.1276608   9.8929691  54.0309048
  49.2594147   9.5088488   2.8352320  48.5012484  10.0573206   3.0367130
  49.7792530   9.5141834   3.6389571  26.8636894  33.8160849  31.0828209
  27.2125340  34.6488380  30.7649183  26.8675113  33.2457256  30.3141165
  86.6649437 123.6799163  13.9394104  86.1390114 123.2239670  13.2823408
  86.7818546 124.5607681  13.5835147  36.3207197  19.7270322  61.6879416
  35.5357194  19.1821837  61.7440271  36.1318755  20.4778361  62.2508430
 117.8537667  15.5777216  46.3130093 118.3945662  16.0868621  45.7092381
 118.4530938  14.9294770  46.6828966  51.0857821  34.0444040  47.8141737
  51.5096331  34.6938109  48.3752918  51.3334227  34.2980051  46.9250250
  56.1693716  40.9429550  49.3916082  56.0491085  40.0740576  49.7747278
  56.9367599  41.2983131  49.8400164  25.4002571  25.6780171  35.3777218
  24.5759702  25.1972747  35.4530120  25.1432872  26.5996933  35.4044056
  20.4110169  35.4311919  14.0623164  19.8518980  34.9193740  13.4777963
  21.1598301  35.6799555  13.5204434  18.3672273  14.1722155  42.3402786
  18.6260211  14.2386532  43.2594299  17.9061151  13.3354878  42.2811604
  28.8574004 141.1115302   5.9833598  29.1342926 141.3404388   5.0961375
  27.9252577 141.3278658   6.0066676  25.8796811  20.7070661  29.5367026
  26.5373015  20.8591866  30.2153993  25.0433755  20.8712602  29.9724388
  20.4977608   8.2141459  28.9871073  21.2766218   8.3342969  29.5304060
  20.7903266   7.6514632  28.2701516  60.0280666  30.4624462  53.3337927
  60.4646873  30.8568406  54.0888071  59.6820784  31.2068057  52.8413963
  75.9325075 140.3189940  59.7574806  76.4510870 139.5289696  59.6052694
  75.7270527 140.6432641  58.8806295  57.8005743  44.6579266  84.4571400
  57.7587557  45.2654219  83.7186050  57.2149134  45.0369930  85.1125336
  50.5619431  15.9845698  52.0051146  51.2131739  16.0056925  51.3039112
  50.5243540  15.0653660  52.2694683  39.0065408 143.8684095  23.3304119
  39.6847701 144.3106363  22.8198481  38.9308929 144.3891501  24.1299963
  36.1686611 132.0736463  77.6860237  36.2880206 132.2565145  76.7540693
  35.2999878 132.4207599  77.8888798  32.5825071  72.4807072  38.3724713
  32.6091099  71.5708160  38.0764675  32.9417586  72.9814434  37.6400542
 111.9451088  12.3214424  66.7053604 111.1290652  12.6798189  67.0544624
 112.6304502  12.7192676  67.2422743  27.8047919  12.2869587  76.4923429
  28.5645413  11.9814694  75.9966707  28.1783152  12.7636766  77.2335911
  32.2871876 142.5623883  21.0445476  32.4247336 141.7916093  21.5951943
  33.1440043 142.7334366  20.6536007  56.5893888  14.5345843  73.5115719
  56.0253429  13.7851882  73.3205509  56.5988016  15.0405324  72.6990700
  20.7478428   2.3223527  29.8103762  21.4048457   1.8260534  29.3222499
  20.0523138   2.4891871  29.1742659  75.3579187  20.4512620  47.6412630
  75.8664370  19.7932994  47.1672058  75.2455521  20.0818157  48.5171127
  50.6968927  19.8998892  29.6815157  51.1837435  19.5767331  28.9233732
  50.9328651  19.3016040  30.3904629  72.0189476 130.7212109  30.7836366
  72.0563221 129.8147840  30.4783106  72.1628332 131.2454540  29.9957919
  35.2623630  21.2370586  46.5625286  34.7216368  21.8600988  47.0479822
  35.4977226  21.6999006  45.7584047 117.8440333 127.6618988   8.6973840
 117.6374067 127.5694139   9.6274292 118.7730659 127.8917522   8.6801374
  52.1591711 131.9610901  56.6448259  51.5147161 131.2634296  56.7638922
  51.6352081 132.7497668  56.5045309  73.6761141  32.1583080  33.3846068
  73.4705162  31.6732001  34.1837502  73.1771660  32.9714179  33.4629440
  61.7849684  18.3021212  51.0742426  62.3425150  18.2562196  50.2975416
  61.9512081  19.1720402  51.4373398  43.4588480  25.6452751  89.4921780
  43.0986786  26.5024376  89.7197437  43.8066769  25.7587910  88.6076641
  44.5812225 130.0127716  57.8878736  43.7597942 130.4158110  57.6067257
  44.6161222 130.1729221  58.8309383  22.1958685  15.1178384  21.5306067
  21.6653967  14.3226099  21.4811611  21.6155887  15.7686663  21.9254875
   9.2307484  37.9307747  81.9240093   8.3462036  38.2179999  82.1505356
   9.3458194  38.2046103  81.0140610  17.5627363   0.3065540  55.0258207
  16.8075049   0.3873940  54.4433069  17.1918261   0.3544886  55.9069347
  24.2833662 121.2942857  23.0097842  24.8133230 122.0913882  23.0117631
  23.3835959 121.6046328  23.1114149  31.2644577   5.8746201  26.3054252
  30.6742239   6.0257608  25.5671740  30.9994841   6.5207082  26.9600916
  24.5363140  26.8365741  30.0208640  24.6006107  27.2113609  29.1424394
  23.9493990  26.0872889  29.9192071  77.6003408 134.5227940  90.4287624
  77.2866869 134.5853777  91.3309479  77.1307278 135.2149648  89.9633694
  21.9530153  28.5202074  39.0263557  22.6783061  27.9330182  38.8132977
  21.5527558  28.1336498  39.8051977  55.0485945  30.8330512  15.2251136
  55.0880146  30.9044433  16.1788332  55.7181406  31.4410067  14.9115419
  34.3606234  38.8429260  62.6442957  34.4713211  37.8931713  62.6883936
  34.5084596  39.0587950  61.7235470  27.3209167   9.8419476  36.7882490
  27.8361487   9.2880839  36.2017322  26.7763782  10.3687644  36.2032914
  73.1141758   5.2280605  97.5317478  73.8970184   5.7767636  97.5798321
  73.1051302   4.9020091  96.6318417  16.2853599  35.9397626  30.4274702
  16.2061405  36.0898042  31.3695145  16.6770720  35.0693393  30.3556776
  43.1452656 129.0144117  33.8741326  43.4604597 129.9163038  33.9330935
  43.5169840 128.5801143  34.6418858  23.5832262 119.0682120  30.4650664
  22.7272224 119.2642207  30.8459473  24.2082810 119.5071335  31.0420299
  53.1198025  27.4743843 108.7743413  53.1702805  27.8652549 109.6466392
  52.5877762  28.0877733 108.2674503  26.8898582   5.6401563  46.0619354
  26.1012435   6.1416817  45.8550692  27.4020576   6.2206334  46.6248989
  40.7622671   6.5550458  77.6649046  41.7194223   6.5560132  77.6742077
  40.5144930   7.0168900  78.4658670 115.5208833   8.7345594  34.9448419
 115.5520732   8.9302462  35.8813071 116.3781739   9.0040052  34.6151710
  37.1270800 143.9838816  58.3073044  37.9485965 143.8988812  57.8234482
  37.1748114 144.8510171  58.7098312  48.5930634   5.8818930  46.9750309
  47.7296305   6.0736132  47.3410320  48.5574293   4.9517697  46.7517948
  75.8098650  22.8837276  77.9386520  76.0306644  23.1370807  77.0423889
  74.9722958  22.4272490  77.8590775  31.1512184 134.6734638  53.9047289
  31.3568115 135.6003291  53.7827301  31.2258649 134.2942900  53.0290079
  39.3582058   1.1220390  32.1148419  38.5502458   0.7202843  31.7954302
  39.0649629   1.7879932  32.7367306  27.9695153  25.4816771  34.1995907
  28.0205107  26.0801458  33.4542966  27.0543265  25.5221939  34.4771171
  23.3453274  24.1567612  49.7808933  24.2032599  23.8246417  50.0452375
  22.7844882  23.3813643  49.7596216  16.9261396 126.4746685  33.1753874
  16.9546723 126.8022985  34.0743184  17.3747587 127.1460802  32.6614046
  13.2128298  29.2437029  78.3243132  13.5284603  28.4886885  78.8208628
  12.3250222  29.0024328  78.0600834  84.4246197  28.9688158  60.1910543
  84.9759007  28.2810450  59.8178387  85.0127220  29.4642043  60.7611084
  51.9584417 142.5482343  40.6507540  51.3713503 141.9141869  40.2390003
  52.6589060 142.0161305  41.0281754  61.4373541  55.5459023  38.7204194
  61.2234211  54.6130085  38.7334776  62.3598385  55.5765581  38.4668040
  60.4317236 142.4994535  60.0293970  61.2907457 142.4348832  60.4466963
  60.4859877 141.9100876  59.2771101  41.6949224 128.6821086  45.1715708
  42.0995998 129.3505354  44.6186876  41.5268183 127.9500825  44.5781803
  29.7278595 145.4264611  30.1636457  30.1549149 144.8259219  29.5527387
  30.4500222 145.8864989  30.5915236  63.8628578   5.6162989  31.7118382
  63.6420727   4.8918068  32.2971582  63.0759907   6.1611575  31.6977572
  19.4512510  10.0194478  27.2225714  19.7849739   9.6864522  28.0556226
  18.9945674   9.2741686  26.8324041  20.4307199  29.4927001  60.8633614
  20.0180626  30.3188968  60.6116867  20.1081133  29.3237329  61.7485809
  40.8674145  11.7220843  80.4338455  40.9714317  11.4280510  81.3388062
  41.7200470  11.5604091  80.0299740  28.2803988  10.3603494  17.2329247
  29.0814352  10.0172758  17.6289940  28.5841417  10.8729470  16.4837813
  39.4810963  35.5090594  38.9690042  38.7089562  36.0555840  39.1150975
  40.2144718  36.0449839  39.2709589  17.9895413 144.5583568  71.7326164
  17.3449576 144.4762182  71.0297680  17.4838161 144.8596660  72.4873924
  72.0984364 107.4911518  41.9468498  72.4483824 107.5503082  42.8358221
  71.7926884 106.5874023  41.8694496  54.4732571   2.2806464   1.7312267
  55.0803232   2.0005354   1.0462168  54.7604275   1.8091755   2.5131980
  38.7154150  37.2132707  24.7954082  38.0013084  37.7769637  25.0929546
  38.5093856  36.3527894  25.1605892  39.4410324  52.0334196  38.4545732
  39.3455601  52.9393578  38.7485075  38.6296749  51.8482924  37.9816484
  58.6638403   3.6820403  47.9441786  59.5661211   3.4964675  48.2043457
  58.1291199   3.1812793  48.5602474  44.5046997  51.6404104  26.1119008
  45.2054930  51.2179995  26.6085768  43.8885880  51.9445896  26.7783189
  76.0680580 130.7197280  35.6688309  75.4392481 130.7093103  34.9472189
  76.8683195 130.3513581  35.2945089  70.8301830  11.1930406  60.3784657
  71.0984612  11.4380157  59.4928885  70.0315046  10.6804526  60.2536011
  38.2212520  22.7418160   7.9183942  37.3907423  23.2042098   7.8057814
  38.8305640  23.1992912   7.3390108  16.4871311 137.7087034  61.7736435
  15.6550312 138.1281913  61.5548468  17.1523046 138.3460564  61.5137243
  32.8778362  18.3029842  51.1949158  32.3295379  17.9460788  51.8936443
  33.5060358  17.6064634  51.0039806  68.4341860 134.0519364  28.5818863
  68.4703350 134.6412725  27.8284883  68.4672403 133.1742949  28.2012486
  27.2505903  40.0905037  39.5444655  27.3116660  40.4485989  40.4300547
  26.3137650  39.9502683  39.4069004  14.8749375  25.5331039  35.3742671
  14.7627246  25.2971816  36.2951255  14.6042061  24.7517681  34.8921347
  34.9628615   6.0411119  29.2287111  34.8589969   6.0865301  28.2782483
  35.3195024   5.1674521  29.3892002  53.1550360  11.0637093  29.9346972
  52.5787354  11.2545717  30.6747532  53.3684587  11.9224370  29.5696378
  41.6877937  16.2098634  43.0961895  42.0027304  16.2671661  42.1940994
  42.3602486  16.6533363  43.6132669  29.5064163  38.6625457  39.5358634
  28.8580966  39.3585491  39.4286418  29.0591526  37.8705788  39.2375779
  55.4118299  20.3680539  45.7484770  54.7875834  19.6561074  45.8887339
  55.3531265  20.8981419  46.5433311  20.1914787  -0.0996318  35.2037454
  19.9591029   0.8173452  35.0575018  19.8102176  -0.3103328  36.0560822
  15.0877750 136.9646389  40.6196785  14.7699547 137.8561396  40.4766798
  14.8767543 136.7790146  41.5346909  14.5956385  12.7650702  81.3124180
  14.1498470  12.1021914  80.7850742  14.3150187  12.5857317  82.2098160
  56.4251566  64.8010445  38.1453848  56.5193415  65.0265884  37.2199178
  57.2792625  65.0006342  38.5286713   7.6993990  24.0466046  37.3825288
   8.2708198  24.7648406  37.1107793   7.2484303  23.7827420  36.5805101
  37.7561235 136.9629366  24.0789509  38.2866549 137.7566845  24.1477442
  36.8539953 137.2804923  24.0395164  86.7851925   6.4185053  61.2239885
  87.3828220   7.0902377  61.5523958  86.1999798   6.2381810  61.9596767
  32.5925708   5.0795722  56.9396019  32.3295856   5.7492661  57.5709343
  32.8971434   4.3491784  57.4781084  29.5042896  11.9724619  21.7054725
  28.8483477  11.5229690  21.1726213  29.3299580  11.6774166  22.5992203
  67.0426226 136.1994106  61.8663549  66.1066246 136.1162097  61.6841078
  67.2974253 135.3419799  62.2071218  35.5111933 131.8023998  34.8107886
  36.1197758 132.3799629  34.3500471  35.7056761 130.9291048  34.4705462
  24.5885062 131.9882006  77.0920992  24.8787475 131.1784715  76.6721821
  23.6448526 131.8744106  77.2052431  57.6602650  10.3370500  79.6376562
  57.5461388   9.4456226  79.3081665  57.6854753  10.8817804  78.8509798
  55.6437635 146.3576515  39.0528393  56.3544703 146.5320923  39.6698427
  55.1241541 145.6725916  39.4734716  54.0451860  27.8925800  25.5218315
  53.3598137  27.4315596  25.0381422  54.0018082  27.5272346  26.4055037
  66.0090828   7.3554510  72.1719217  66.4806461   6.5584517  71.9297457
  66.4071751   7.6273805  72.9988480  44.9553299 118.6097498  36.1132073
  44.4773149 118.0690808  35.4843903  45.6478405 118.0374069  36.4434791
  41.6884661  18.9330125  52.4610043  41.7867374  18.0544710  52.0939350
  42.4223709  19.4281316  52.0970392  17.3890972  29.4371319  18.0315793
  16.7384839  28.9577794  17.5185931  17.5987744  30.2029371  17.4969673
  85.6278515  41.7912197  57.9435205  86.0198593  42.0796776  58.7677479
  85.9158516  40.8835936  57.8460407  26.9618130  11.4359963  12.6085305
  26.3199449  11.3455224  13.3128381  27.1455598  12.3746467  12.5710511
  42.2285414  15.3760719  47.8810453  42.4586201  14.5927441  48.3807373
  41.6689014  15.0536990  47.1745682  34.4875407  31.0275269  65.5471563
  35.3234982  30.6523943  65.8240747  34.2747855  31.6666055  66.2272644
  25.8825994 140.3085352   0.8091764  25.1225996 140.0060959   1.3063309
  26.6190076 140.2074123   1.4122598  65.2058697  44.1994858  56.0591936
  64.6231651  44.0748644  55.3100872  65.5241013  43.3202648  56.2639618
  25.0188065 145.4448278  41.2057590  24.1762495 145.8638144  41.0303116
  24.7927904 144.5512199  41.4638567  23.0998921  13.6871934  44.9112940
  23.0193353  12.7401495  44.7979307  22.8094602  14.0539384  44.0761995
  36.4165282 134.2548127  48.1952572  36.7947125 133.4011204  47.9844999
  35.6333852 134.3115849  47.6478148  59.5784330  34.7700167  30.3066564
  60.4730654  34.8854089  29.9864244  59.6146631  35.0448799  31.2228298
  53.6848211  50.1210880  39.7006702  53.5663462  49.2020369  39.4608045
  54.6075487  50.1874495  39.9464417  30.7799959 129.0318126  30.5496860
  31.0839319 129.9079568  30.7868052  30.2065992 128.7737353  31.2713790
  61.7245245  36.8577194  25.4306865  61.2100458  37.5302982  25.8769846
  62.5458479  37.2946310  25.2053547  21.3520908   5.5382025  49.2958307
  20.6412244   4.9515641  49.5542049  21.4005923   5.4509503  48.3438540
  33.9111972  13.8416326  75.9873867  33.3308578  13.8039315  76.7476606
  34.7610188  14.0958333  76.3471365  25.6750584  21.6567850  90.6093025
  26.3946915  21.0259581  90.5888939  26.0926080  22.5019240  90.4430962
  55.7287884   3.6438239  22.7488494  55.5999947   4.2563355  22.0246458
  56.6180372   3.8199118  23.0562019  34.7049189 116.7682404  46.9112206
  33.8082576 116.8659110  47.2316742  35.1217222 116.1803646  47.5412321
  31.1337662   7.9219842  45.8502769  30.7099771   8.5469079  45.2619696
  30.6716561   7.0977861  45.6973553  43.8722372  25.1101518  37.6979232
  43.2933235  24.6500230  37.0901632  44.3968773  24.4176459  38.0996943
  28.0654621 126.5082271  51.2865543  28.9468026 126.7602069  51.0109186
  27.8600335 127.1045370  52.0065880 114.7060186   0.8239906  44.5088816
 115.2196509   0.0664965  44.2284966 113.8365526   0.4687643  44.6934748
  58.3440113   7.0093125  64.2605352  58.4773779   7.4544519  65.0973701
  57.6312733   7.4928892  63.8429356  57.0386124   0.9443739  28.8052773
  57.9438210   1.2520596  28.7588477  56.5626001   1.5076002  28.1950140
  65.9229374  25.2254510  10.1189637  65.5263805  25.3082228   9.2517120
  66.4418936  24.4226694  10.0694048  54.8763943  17.2218192  75.6599712
  55.6313705  16.7493951  76.0107660  54.1180706  16.7711949  76.0316086
  28.1796241 146.2406850  27.9967260  28.5833764 146.0368578  28.8403320
  28.8863063 146.6282891  27.4803972  83.7267017 144.3162672  51.3897038
  82.8903770 144.4173821  50.9352160  83.9042759 143.3762092  51.3582277
  61.9723129  23.2883716  42.2695971  61.4369106  23.1231165  41.4935398
  62.7480412  22.7413011  42.1463346 124.9697304  10.7170177  55.9174824
 124.4486809  10.9917700  55.1629925 124.3441963  10.6838560  56.6412544
  58.5232544 137.7618028  19.9680543  59.2944860 137.9059637  19.4197369
  57.8187656 137.5774665  19.3468106  66.9609976 145.2297629  43.9127874
  67.8049612 145.1616588  43.4663391  66.4889669 145.9085643  43.4304476
  40.1793289   0.7067454  40.6397772  40.2874994   1.5156262  40.1395321
  39.3825221   0.8463332  41.1514854  26.6466951   7.9622537  29.7903228
  26.4601040   8.4085178  30.6163144  26.7179823   7.0378530  30.0283003
  24.4639945  20.8963585  35.8670545  23.6261559  21.1760473  35.4982352
  24.3020582  20.0071526  36.1822128  49.0030479  40.0595045  54.8275185
  49.4680500  40.0137138  53.9921093  48.6209774  40.9370375  54.8411798
  32.3164797   1.8896462  46.3905478  32.7816534   2.7181152  46.5066671
  32.8156543   1.4269732  45.7175016  35.3888631 139.4168211  42.2625113
  36.2171960 138.9475734  42.3620272  35.3976274 140.0693626  42.9627609
  70.8088636  16.7638099  87.0513821  71.2339306  16.1436570  86.4589596
  70.2641582  16.2182033  87.6186943  49.7096682  18.7483096  50.7975006
  49.5914650  18.6588383  49.8518515  50.1922894  17.9624772  51.0539627
  19.7870576  41.8305016  26.0847139  19.1996944  41.7391443  26.8349743
  19.2631197  42.2836781  25.4241419  39.5538878 106.3642139  34.3392205
  40.4491282 106.4182348  34.6736717  39.2049837 107.2492976  34.4447064
  40.3555059   7.7188873  54.1927338  41.1364222   7.2216606  54.4359779
  40.6431246   8.2789761  53.4717560  36.6513062  39.7768450   9.6617776
  36.8737960  40.0491762  10.5520380  37.3215032  40.1833677   9.1124076
  13.4457839  25.0605774  78.3058310  13.9580202  25.8310866  78.5511065
  12.8144383  24.9561477  79.0176773  43.8804770 141.2884361  42.7974033
  43.4484243 140.4586954  42.5946903  43.1677055 141.9260708  42.8375721
  63.4120417   1.2287669  55.3997898  63.7383938   1.1963537  56.2990522
  62.6198292   1.7635028  55.4516220  13.7558186  33.3785415  55.0392628
  13.8962138  33.3800054  55.9861088  12.8193820  33.5476542  54.9357224
  26.3920593   7.4164701  43.3923388  27.2021198   7.1718645  43.8397789
  26.2016225   8.2999372  43.7076998  46.3980770 145.4338762  35.7954144
  46.9295311 145.0696073  36.5032959  45.4958344 145.2383193  36.0482883
  32.4161887 116.4829058  48.9729214  32.6858115 117.3433513  49.2941189
  31.4621091 116.4866299  49.0500546  24.8704767  54.0578127  44.4625282
  24.0761399  53.6198092  44.1568947  25.4798698  53.3442402  44.6514511
  25.9646297  15.3653622  54.7951078  25.3456736  15.4112518  55.5238199
  26.8081284  15.5996835  55.1821947  67.6995802 134.0022690  21.5362716
  68.0996466 134.7915334  21.1712527  68.4300613 133.3943350  21.6504693
  25.9058595   3.9595437  57.9303980  26.7158628   4.1130757  58.4167671
  25.2695489   4.5512214  58.3319664   7.5870204  15.0813460  66.5785265
   8.5061818  14.8173738  66.6196585   7.1101099  14.2655027  66.4262486
  32.1248937  28.4150600  44.6274853  32.7956724  29.0718222  44.8144388
  32.4168110  27.9986763  43.8165379  26.6675997  37.5189972  53.0340528
  26.0902500  36.9705796  52.5028849  26.1066437  37.8467441  53.7370062
  57.6378727   4.5922059  78.6932421  58.4993649   4.4741374  79.0933895
  57.8010082   4.5338339  77.7518511  35.8585715   7.2922802  33.8507438
  36.6595864   7.6560271  34.2279625  35.3815532   8.0540001  33.5214019
  60.6632805 116.8271608  27.3166227  60.3830338 117.3650999  26.5761399
  59.9951744 116.9744486  27.9860830 112.7990384  12.3335910  86.2967968
 113.7467880  12.2578073  86.4075279 112.4745161  12.5699115  87.1657467
  30.1010799 124.7666831  22.8063846  30.9353352 124.2991275  22.8469324
  29.5704961 124.2571897  22.1939063  41.4149904  21.2905812  21.7921209
  41.2348795  21.9712186  22.4406004  41.4559889  20.4804444  22.3002815
  26.2048244   8.9450568  39.1416740  26.5107608   9.2310733  38.2809591
  26.5325069   8.0497497  39.2269969  42.4965382 128.1776900  23.5236454
  42.8803015 127.3058791  23.4292984  41.6089582 128.0874891  23.1768060
   7.9596639 131.2391789  21.2130499   8.3336091 131.0912962  20.3444147
   8.3736217 132.0466752  21.5177155  53.4929609 139.6879465  30.5107713
  52.7744102 139.3420876  31.0402060  53.6866617 140.5415184  30.8982348
  50.2479267 139.6880747  16.4188075  51.0340881 139.9151481  15.9221995
  50.5742121 139.4414563  17.2842252  27.3699880  44.0904760 103.9586052
  27.5826526  43.9004946 104.8723414  26.4438581  44.3319178 103.9734485
  81.1598206  10.4803383  44.1607094  80.7994366  11.3590491  44.0414286
  80.4074955   9.8971921  44.0597963  19.5954609  31.3109827  12.9508352
  19.3907392  31.8439984  12.1825802  20.5096912  31.5153551  13.1474233
  65.9344721  30.4806304   0.7807934  65.2319527  30.4834890   0.1306468
  66.4465904  31.2648797   0.5835019   5.8877259  18.4512019  32.2319579
   6.6639173  18.0983508  32.6669908   6.2042224  19.2274213  31.7698479
  85.0187969  11.1572504  35.6887794  85.0266075  10.4055595  36.2813425
  84.6192074  10.8245587  34.8851156  45.4184532 144.2617680   5.0716901
  45.5890322 144.8443649   5.8117688  45.5827045 143.3836139   5.4153460
  16.8429077 116.8663616  46.7482662  17.0526481 115.9360094  46.8300343
  17.6942194 117.2988314  46.6814137  40.9236717   4.2314452   2.1521780
  41.3548899   4.2794168   3.0053967  40.5525780   3.3496714   2.1206051
  30.9676051  10.7365882  41.9624805  30.6207538  11.6068161  41.7659378
  30.1906657  10.1931608  42.0939493  61.6844416 142.1575315  16.7258584
  61.3756847 142.5280444  15.8990443  62.0429039 141.3029225  16.4863133
  21.3093448 130.7418127  15.9870112  21.9064593 130.2885444  15.3918362
  21.3926458 131.6659624  15.7519758  43.1945562  29.5155048  39.5623827
  43.0456400  30.1304221  38.8440967  42.5715160  28.8063812  39.4036555
  98.9155883  52.5531054  21.0401559  99.1008944  53.4389257  21.3519406
  99.7114152  52.2906351  20.5775547  29.0312672  30.0901198 103.5079392
  29.9107671  29.9864745 103.1446620  29.1738224  30.2312994 104.4438764
 122.6785657  15.5019176  92.3626538 121.8226934  15.6226802  92.7739092
 122.5270183  15.6862390  91.4356741  42.7436972 110.2354903  37.0392251
  42.7218008 111.0972495  37.4553037  42.0209646 109.7557277  37.4438524
  52.5737953  14.2942309   0.6086225  52.3382568  15.0490773   0.0692151
  51.7344952  13.9167190   0.8718473  48.7253189  56.1295652  34.9543357
  49.1019297  55.6986570  35.7216120  48.8189936  57.0649099  35.1348567
  46.3442421  29.7523475   0.1538623  45.8230734  30.5290031   0.3573896
  47.2014475  30.0977135  -0.0954421  31.5845060  16.3318717  92.1827038
  32.0611215  16.6887140  91.4332160  31.7038751  16.9827008  92.8743728
  38.6364603  17.1071744  19.8720860  38.4486508  17.8726172  20.4152775
  37.8086758  16.9181371  19.4301951  19.9917626  13.4932971  54.4094181
  19.7931814  13.8435149  55.2778339  19.2583728  12.9104602  54.2127657
  43.2384634  11.5538454  39.0244436  44.0172863  12.1101785  39.0117049
  43.0346632  11.4483321  39.9537253  24.3242860  10.8034194  39.2163062
  24.0820742  11.2525594  38.4064674  24.7920585  10.0206244  38.9253569
  31.6217256 140.1150818   9.6207035  32.5604057 140.1389928   9.4348603
  31.5474916 140.4334665  10.5203438  50.3484488 126.7357142   4.9927545
  50.1183462 125.9814138   4.4502467  51.2922668 126.8390841   4.8713049
  30.4877806  23.4245324  25.7119989  30.8396220  23.2813168  24.8334050
  29.9467087  22.6534367  25.8819532  31.3245606  10.0979018  17.7686143
  31.5032816  10.1248014  16.8286324  31.7198539  10.8997774  18.1106210
  32.2798419  22.8879023  42.6529360  32.4233937  23.2381463  43.5321140
  32.0681167  21.9651818  42.7943277  61.7301846  13.8531196  18.4743273
  61.3399553  13.7767267  17.6036298  61.1083126  14.3862665  18.9695692
  44.8501539 129.4072551  37.3138905  44.3210649 128.6483950  37.0680714
  45.0125170 129.2928464  38.2502556  36.9244695 126.1305446  44.8605919
  35.9871507 126.2899322  44.9713230  36.9910336 125.1874299  44.7111416
  32.3471570  15.2077007   8.4422195  33.2943130  15.0820816   8.5000741
  31.9983697  14.7571695   9.2113757  12.8511143   3.5426491  55.2597713
  12.1695948   3.0569109  54.7952080  12.6335061   4.4627503  55.1104641
  42.9421282  96.8714065  38.7463021  43.0327797  97.6814670  38.2444882
  43.0024052  97.1480722  39.6606636  90.7888126  26.4495134  37.5689864
  90.5290794  27.1170926  36.9340777  91.4480782  25.9275889  37.1116066
  27.8348851   0.9313253  38.7601233  28.6289740   1.3318101  38.4061885
  28.0010176   0.8601842  39.7001076   6.9255841  39.2051077  28.8014174
   7.7182752  38.6715102  28.8575172   7.2422540  40.1080084  28.8282228
  45.0100565 143.5100765  31.8324804  44.7215176 143.9940357  32.6062751
  44.2568302 142.9701270  31.5930319  54.6604347  25.4867029  30.7190275
  55.2035189  24.6986341  30.7036448  55.1751614  26.1226344  31.2158942
  47.5341845   2.1525550  44.1935825  48.1467295   1.4229545  44.1002798
  46.9574356   2.0798130  43.4331226   1.6235957   1.4996570  40.4941511
   0.8940434   0.9460941  40.7726383   1.5205224   1.5723069  39.5452952
  24.4282007  29.2321849   3.8761574  24.4523478  28.4861326   3.2769457
  24.6142197  29.9903703   3.3222756  53.0773306 143.1603111  18.7664473
  52.3819590 142.7705828  18.2365406  53.8877583 142.8867940  18.3367658
   6.2727862 127.0278377   0.3982120   5.3970175 126.8435712   0.0586272
   6.1189204 127.4156518   1.2596981  22.9383349  17.0988905  41.4697409
  23.3806920  17.3389196  42.2839499  22.9243350  16.1418271  41.4779139
  48.7216187   2.5120652  35.1139808  49.5953417   2.5126129  35.5049276
  48.8659143   2.7740338  34.2047048  44.3718052  42.9758978  24.6719241
  43.9220476  43.7521696  25.0056148  45.1678514  42.9147959  25.1999474
  19.2689848  29.7250152  42.9590178  19.5594347  30.3850436  42.3295450
  19.6418297  30.0094223  43.7934828  62.7750635 120.3774924  52.0663357
  62.0578384 119.9636860  52.5465250  63.2930946 119.6454091  51.7317677
  31.5611625 143.8408304   4.3624923  31.0076928 143.3508427   3.7543681
  30.9921384 144.0234684   5.1102138  40.8666039 100.7406730  47.8747702
  41.7896652 100.5439777  47.7150965  40.4065943 100.3510542  47.1312523
  35.2904487   9.6440357  49.5073175  35.1454639   8.8605481  48.9768839
  34.6215796  10.2612042  49.2107582  38.9393401 143.7039853  27.8871942
  38.2806373 143.4841246  28.5459828  39.7719836 143.4559132  28.2889342
  43.8185358  14.6735764  62.4763346  43.2882452  14.9287724  63.2312489
  44.1253424  13.7915325  62.6863337  44.2082262  14.5483696  32.3183203
  43.3815241  14.4286728  31.8509150  44.5580864  15.3722107  31.9790387
  36.1647677   3.9668405  36.4676976  35.4140663   4.2827424  36.9705749
  36.5009642   3.2293680  36.9769502  10.3154445 130.6856973  56.1554527
  10.0693417 130.9662528  57.0369005  10.7687306 131.4412577  55.7814264
  46.7714119  12.4842393   2.5069848  47.4491644  12.1766174   3.1088617
  46.5519762  13.3612800   2.8214347  62.2166157  16.3243866 106.9819032
  62.2068405  15.4445457 107.3587551  63.1310797  16.4712811 106.7402201
  76.3664246  21.5484285  15.6807601  76.3370609  21.2253475  14.7802114
  75.6425333  21.1013627  16.1193311   8.4063679  40.5602407  35.0465703
   8.3360922  40.0412989  35.8478117   7.5564253  40.4565048  34.6187043
  73.2172823 140.9233660  50.9671068  72.9776621 141.5332279  51.6648769
  73.7479830 141.4449043  50.3649569  20.1810026 126.1270375  17.0515215
  20.7204080 125.6748933  17.7002418  20.0595450 125.4852647  16.3518023
  53.8348389 137.6580209  53.6020517  53.5305262 136.7577589  53.4873676
  53.0415630 138.1894267  53.5345840  37.5329185   8.7432057  89.8950633
  37.7940011   8.7682164  90.8156296  38.3310270   8.9613396  89.4137415
  17.4233639 143.7135891  41.7996502  18.0199397 142.9656468  41.8298388
  17.8485143 144.3809588  42.3382568  41.0471487 129.4737823  28.7641478
  41.5717936 129.5065708  27.9642081  40.9288836 128.5393865  28.9348817
  24.7629261  14.6035516  52.5875568  25.0341916  13.6962378  52.4481726
  25.1930237  14.8594773  53.4034920   6.7889178   9.5136631  72.8384638
   7.2122937  10.0050628  72.1345377   7.1509629   9.8866034  73.6422491
  68.9513159 127.2226543  16.6857612  69.8548460 127.2984929  16.9925356
  68.7422514 126.2937278  16.7838299 117.4067838   3.7585974  10.6744683
 117.6352698   3.5183552  11.5724158 116.4950705   4.0452397  10.7278299
 112.9899640  45.4840994  98.5125312 112.4082536  44.8441648  98.1022509
 112.9686589  46.2388849  97.9242500  78.2086325  15.3540850  57.4535418
  78.3711147  15.9716451  58.1665993  77.2550249  15.3218889  57.3772049
  32.9411411 128.7123186  70.8506592  33.0231619 127.7690835  70.9914144
  33.0919886 129.0973181  71.7139395  62.0992947  21.3448048  54.3422318
  62.6302671  21.2680411  53.5495138  61.6480112  20.5034375  54.4106388
  46.4131880 137.0873637  15.1887703  46.0902309 137.5085021  14.3921697
  46.8941736 137.7770443  15.6461811  42.0400095  15.5528080  13.8692915
  41.1918163  15.5041325  14.3102348  42.6410007  15.0917757  14.4545197
 124.1455989  41.8649054  38.9241219 124.1330157  40.9474277  39.1967130
 124.6216759  41.8615341  38.0937171  43.9635372  31.3402009  26.6574836
  43.2897329  31.9859505  26.8701530  44.1334534  30.8899689  27.4849200
  80.3857422  44.2458248  44.5042467  80.6905556  44.7958708  43.7826061
  81.0487556  44.3558121  45.1858234  46.5084505 139.7990049  79.7233534
  46.2320232 140.3566606  78.9961386  45.7434988 139.2556638  79.9127293
  32.0021629  48.9082718  16.0715485  32.7520680  48.3623648  15.8351982
  31.3317275  48.2855797  16.3526189  46.9926357 132.9844088  44.8779869
  47.5879478 132.7373345  45.5856514  46.7901659 133.9047963  45.0456905
  76.3232327  23.1697416  62.5390768  76.5704584  23.3990526  63.4349155
  75.3977203  22.9329920  62.5991774  41.7700863  32.8741741  13.4187078
  41.7437267  31.9884300  13.7806380  42.3323727  33.3621168  14.0203547
  37.8771448 141.0569675  12.4259079  37.1607709 140.8966441  13.0401850
  38.4838963 141.6195650  12.9071224  42.6301718 140.5477006  11.1347747
  41.9177628 141.1603452  11.3174415  42.2060251 139.8119075  10.6932580
 114.0334351  16.3230121  58.4566259 113.6992962  16.8074059  57.7016783
 114.9506432  16.1507511  58.2438231  50.1414156  18.0253923   4.5915815
  50.2496338  18.7910855   4.0274590  49.7197962  17.3732579   4.0319505
  27.0595360   5.9426618  11.0053658  26.9041348   5.0902081  11.4120674
  26.1980677   6.3594764  10.9861410  80.4212284  44.4177485  40.6179237
  80.6619072  43.5280943  40.8764219  80.1079655  44.3291521  39.7177863
  34.4428515  43.2685566   1.3720979  33.7290359  42.6392698   1.2686667
  34.6993232  43.4891272   0.4766639  18.0061567  15.8468974  20.1531744
  17.6284254  15.0942707  20.6082582  18.2420468  15.5103946  19.2886782
  82.9989147 144.1874134   0.4032772  82.4314404 144.8415087   0.8111601
  82.4003315 143.6219026  -0.0847070  29.1327286  15.1553428  22.7476001
  28.5679698  15.6225979  22.1320105  29.4441414  15.8324361  23.3482647
  42.2637701   7.6479590  36.0895610  42.8789282   6.9994438  35.7471609
  42.8121614   8.2676071  36.5707445  41.3751650  35.1521826  19.2492270
  41.1399364  35.9500027  18.7755370  40.9286499  34.4512224  18.7743497
  40.6127739 145.3903321  21.6744518  41.2996149 145.4400669  21.0096169
  40.3823519 146.3027448  21.8494964  26.2664509  31.6416979  64.7229195
  25.9020448  32.3132133  64.1462851  27.2063398  31.8223715  64.7369385
  41.8380594   1.0297208  31.0605335  42.2358465   1.4873284  31.8012023
  40.8956337   1.1094685  31.2078762  48.2304287 135.4861278 107.9053608
  47.7202463 135.8666987 107.1904411  49.1113043 135.8413238 107.7865086
  42.0155144 143.7571377  17.5081539  41.4102745 143.1284372  17.1148956
  42.7495813 143.2241059  17.8135300  84.1725540  10.7037425  27.1182394
  83.7402439  10.7864714  26.2682414  83.5009384  10.9515274  27.7536631
  20.7606792  16.3058531  78.7183317  21.6424155  16.1117196  78.4003910
  20.5016494  17.0935273  78.2400998  34.7328830 143.0572216  29.4453764
  35.6111479 143.4344489  29.3945670  34.4444752 143.2413495  30.3393292
  32.0214844  91.1454124  11.4793587  32.0056820  90.6216354  12.2803843
  31.5216374  90.6300373  10.8462930  34.1754079  88.1682033 102.7956965
  33.9226913  87.9120750 101.9086977  33.3586073  88.4551449 103.2040247
  52.6775503  25.0379920 109.5262287  51.7869616  24.9846792 109.8729912
  52.7334452  25.9134459 109.1432317  37.4492717   6.4561921  21.7384076
  38.1109571   6.5014207  22.4285936  36.8491602   5.7684249  22.0266390
  67.8278923  22.0039296   0.7989566  68.2207251  22.2044158   1.6484967
  67.8910637  22.8224325   0.3067200  73.1415701  28.5306549  23.3525705
  73.7153101  29.1382694  23.8193226  72.9467297  28.9722753  22.5259876
  15.2978146  23.5263681  33.2070565  14.3747294  23.6048985  32.9662681
  15.4208946  22.5935888  33.3831334  16.9423556  13.4089363  21.0081530
  17.5331402  13.0702841  20.3354573  16.0853100  13.0511916  20.7763720
  72.4289465  57.6773596  37.7131319  72.8721809  58.4279823  37.3177290
  71.5829515  58.0220604  37.9989791   0.8828281   2.4641448  29.8541021
   1.4904441   2.4397689  29.1148853   0.6461497   1.5481986  29.9999022
  53.0437708  26.1047554   2.5021932  53.7658787  26.2728572   1.8967682
  52.3578453  26.7154050   2.2323009  67.1985054  15.9574592  30.8351278
  66.9703770  16.0766125  31.7570782  67.8116894  15.2224505  30.8331776
  35.1096606  38.8895988  19.6943390  35.2304888  39.6777010  20.2239847
  34.2380571  38.5729241  19.9315274  17.5497150  19.3064153  41.4009857
  17.0810699  18.6465728  40.8898973  18.3854735  18.8928640  41.6171217
  37.5258780  21.4861059  31.2349105  37.1494126  22.3573756  31.1108375
  37.3049021  21.2560058  32.1373844  67.5208616   3.3604220  58.1635904
  67.9118633   2.9623210  58.9413214  68.1927919   3.9590475  57.8374195
  29.1595936 142.7307058  39.7141004  28.4388494 142.9887975  39.1395116
  29.0749955 143.3033479  40.4764366  29.6425700 120.5797119  22.3454666
  28.8608456 121.1083812  22.1853209  30.2107334 120.7592554  21.5963435
  38.8635588  26.8408942  21.8722272  38.8868904  27.7703214  21.6445136
  39.7359300  26.6577888  22.2210455  37.9935789   7.7204353  37.5951838
  37.2483754   7.8500897  37.0085883  37.5989175   7.4944651  38.4374475
  56.5263462 128.7477286  45.5151415  55.8379745 129.0779502  46.0924911
  57.2597265 129.3481071  45.6490612  21.6541743 129.5860238  97.6079174
  21.7414880 130.1393718  96.8317636  20.9130573 129.9586243  98.0855652
  44.0806723  14.5848763  15.3222084  45.0002146  14.5567453  15.5865693
  43.6322212  14.0241122  15.9551895  51.8096113 128.8309724  47.4443102
  50.9537792 128.6083920  47.0779181  52.0463514 128.0723674  47.9778862
  55.7980967  31.7604637  61.8038511  55.4147577  31.7434931  62.6807737
  55.5273104  32.6035380  61.4403534  32.1572399  14.6699941  98.1338831
  31.2605572  14.5617902  97.8168913  32.6462626  13.9613163  97.7157148
  63.5308123  24.5731544  22.3944902  63.4752560  24.7990012  23.3230042
  62.6227188  24.5787048  22.0918941  26.3756752  16.3174129   2.4007767
  27.2941422  16.2517416   2.1393614  26.3333845  17.1145928   2.9289311
  58.6882067  13.4037471  41.6399956  58.2653284  12.5680733  41.4423752
  59.0544558  13.6905873  40.8034468  34.4284487 138.1512917  55.2093220
  33.5233140 137.8948630  55.0326681  34.4020033 138.5347755  56.0859489
  16.9140589 142.8504960  64.2651701  17.7171981 142.8398202  63.7445116
  17.0871329 143.4863240  64.9594307  61.4139700  28.7629724  33.1759501
  60.6724548  29.2518783  33.5328221  61.6135740  29.2007852  32.3484778
  54.7513103 143.9822555   9.4474262  54.0539742 143.7744001  10.0693214
  54.5569706 143.4431950   8.6806941  59.4018602 134.6756835  15.2984679
  59.6617508 135.0661964  14.4640887  58.5646486 135.0904102  15.5065680
 116.7775542  24.0727329  44.1552925 116.9178594  24.8961735  44.6227264
 115.8503146  24.0869451  43.9181089 109.1574652  21.7922378  99.3949839
 108.5871906  21.2101531  98.8927909 109.2825109  21.3425851 100.2306917
  59.1439342 113.5702033  96.6387376  58.3398342 113.9978070  96.9333824
  59.8127842 113.8664145  97.2560927  30.9293056 119.4892664  15.4474998
  31.3310051 120.2779336  15.0829780  30.8058977 118.9128561  14.6933424
  16.6812611  22.3860168   6.7201203  15.8425415  22.5641441   6.2946182
  17.2246587  23.1441426   6.5051866  34.6500826   0.1830782  32.8165817
  34.0461063   0.8292998  32.4507332  35.0858116   0.6420942  33.5346866
  35.3797293  11.3286340  41.7650938  34.8420668  11.3577640  42.5564861
  35.5485153  12.2473991  41.5562534 121.9737319   8.6667734  23.4003663
 122.4116618   8.5341883  24.2411208 121.2357918   9.2418545  23.6027455
  31.1812115  16.9152403  53.0836678  30.2664924  16.8359637  53.3542919
  31.6782188  16.8583369  53.8997459  63.6246729  37.5730968  35.4476547
  63.1756067  37.0863962  36.1388087  63.4487629  37.0738840  34.6501136
  58.7552547  27.0059824 106.8628564  58.0309105  26.5621543 107.3039597
  58.3553171  27.4097657 106.0926374  18.0520022 139.9724544  25.9032059
  18.5556471 140.7613827  26.1036205  18.6956203 139.3625892  25.5425763
  26.4059186   0.3875462  11.3879943  26.0058379   0.4934532  10.5248880
  25.8634686  -0.2693212  11.8244612  49.6137428 145.9790019  31.3584757
  50.0559330 146.6569625  31.8694234  50.1871634 145.2155895  31.4264703
  51.5444231 110.4812450  15.7384837  51.7841482 110.0985164  14.8945141
  50.7642746 111.0034651  15.5517149  47.2295189  27.5433898  62.7571821
  46.8197250  28.0287218  63.4732485  47.8673840  26.9742465  63.1878042
  60.2201414 120.2969570  17.9770696  59.9954367 119.8906369  17.1400249
  59.4151258 120.2449340  18.4923196  45.8398819 142.0801998  51.2773466
  46.2081194 141.5447457  50.5745506  46.5937567 142.5369290  51.6505814
  26.0879278  11.3590443  41.2002945  25.5224276  11.1172223  40.4668331
  26.7917252  11.8707836  40.8015156  10.8240378  24.0495420  22.8978801
  10.3540230  24.5415020  22.2246122  11.4842248  24.6609664  23.2242918
  52.8939009   1.9517785  19.6542609  52.8315067   2.4054107  18.8136911
  52.3560953   1.1676934  19.5437753  28.8514686  28.9742374  17.4094474
  29.6001840  28.4051561  17.2311103  28.0867863  28.4290004  17.2244930
  37.4983764  22.5432301  23.6488819  37.5087452  23.1827712  24.3610001
  36.8619251  22.8907752  23.0240822 106.6158199  33.8627338   4.2261565
 106.3354015  34.7149563   4.5597869 107.5679111  33.9338446   4.1575906
  46.9459772   3.3538610 108.8221905  46.2053967   3.9063635 109.0722232
  47.3855591   3.1541052 109.6486864  26.4185929   1.3098820  26.6079140
  27.0136809   0.7582273  27.1156359  26.8973851   2.1297081  26.4859509
   8.8935691  18.9184511  45.0704050   8.7394148  19.5841575  45.7407045
   9.3305010  18.2057631  45.5366659  41.8184233 121.7103500 100.8033034
  40.8769846 121.6024298 100.9385189  41.8864965 122.2986192 100.0512817
  52.7982759  11.4024961  19.4659293  53.1633139  10.5732512  19.7746873
  52.0268869  11.5437531  20.0147843   7.7208620 142.7354420   1.5008080
   6.9882923 143.3464394   1.5799001   7.3661321 141.9994674   1.0020693
  57.0582199  31.4170337  11.0427761  56.2608528  31.8646693  11.3257289
  57.0755672  31.5360308  10.0931609  59.5806932  41.3755083   7.5176322
  59.6931410  40.8385706   6.7332304  59.0359068  40.8424664   8.0966860
  52.9810953  39.8164248  39.8571873  52.7188492  38.8964677  39.8234987
  52.1819592  40.2845860  40.0989294  26.5928578  12.6021945  52.3962545
  26.8706679  12.7045941  51.4860010  26.9974446  11.7821980  52.6793575
  53.1872320 123.7650628   5.6053829  53.6016226 124.4756550   6.0948414
  52.3746681 123.5894580   6.0798728  21.8676805   7.2336829  35.1808929
  22.2965097   7.7334607  35.8755589  22.5618815   6.6834366  34.8181963
  28.1667352  39.2502189  28.0535936  27.6751089  39.0894818  27.2481728
  27.5145721  39.1787195  28.7505889  46.3209057 142.5845427  95.5239447
  46.6680384 143.0053101  96.3105115  45.4085207 142.8709320  95.4819318
  41.1748314   3.5860145  44.8293829  41.9899082   3.1202197  45.0162554
  41.2379980   4.3934309  45.3395987  67.9953766  11.3441002  96.1172935
  68.8337946  11.5181065  96.5450867  67.6624441  12.2100461  95.8816549
  73.0109549  16.4216566   0.7225192  73.4682560  15.9331882   1.4069936
  73.3384037  16.0498929  -0.0965037  74.3158245  41.0090542 108.6639101
  74.8076200  40.3120518 108.2296746  73.4190464  40.9030008 108.3464510
  14.2518032  10.5462265  41.3982916  14.8626900   9.8123068  41.3318777
  13.8764918  10.6255686  40.5213213  65.1011992   8.8560820  58.2065439
  64.2325592   8.6505967  57.8608894  65.2652740   9.7554249  57.9228306
  56.9027090  29.5680070  36.2920642  56.2467813  29.7132325  36.9739008
  57.2754574  30.4345942  36.1298347  53.0011559  41.7820024 103.0633702
  52.9744005  42.7387524 103.0753198  52.8589106  41.5498638 102.1457055
  44.5248127 120.8455510  43.2126331  44.4501400 121.7838759  43.3864164
  43.6631155 120.5942244  42.8801441  63.8461542 119.5582623 108.4827487
  63.0871630 119.0425033 108.7550720  64.1733122 119.9491162 109.2929524
  64.2327452 145.4358047   3.6793157  64.0736103 144.6425865   4.1908941
  65.0943708 145.7375433   3.9670497 117.0007498 139.4858623  21.3212132
 116.4660329 139.1940219  22.0595479 116.4243872 139.4049049  20.5612898
  49.4070864  16.0170507  25.4347920  49.0826654  15.1874471  25.7851362
  50.2974415  16.0903704  25.7784939  31.8557549  47.9862881  21.9192696
  31.0986805  47.4079275  21.8267083  32.0414186  48.2822704  21.0281157
  33.0227995  31.9059896  23.1700873  33.9286637  32.2152400  23.1727266
  32.7887988  31.8579936  22.2431731  86.6972351  21.9207025  17.9920220
  87.1512985  21.9799805  17.1514606  86.2223339  21.0906959  17.9496980
  80.0309849  50.0463772  37.2507763  79.5246077  49.4652176  37.8182912
  80.5739975  50.5554390  37.8526235  13.6676419  24.4516015  15.5210710
  13.1073046  23.8596487  15.0192261  13.9049900  25.1404881  14.9003184
  27.0851469 144.2031855  73.4333992  27.8812289 144.7023679  73.6158943
  27.2230673 143.8444580  72.5567436  92.8411198   3.2956162  13.2603776
  93.1162548   4.2116591  13.2977605  92.4009514   3.2120681  12.4145031
  42.7152252  17.8806221  15.9618771  42.5948143  17.5501657  15.0716352
  42.0483780  18.5606694  16.0571694  53.1789494   5.6286132  19.4547379
  52.9988909   5.6100458  18.5148096  54.1014719   5.8762127  19.5170355
  56.5549469 136.5941019  74.4052800  55.8300304 137.2177214  74.4480308
  56.7994738 136.4480705  75.3191265  50.4276371  17.5222707 100.1580980
  51.3716841  17.5047076 100.0009515  50.2826738  16.8476772 100.8215281
  36.1507893  43.6407614  91.6892060  36.0118771  44.5383644  91.9912668
  35.2741170  43.3218098  91.4748510  15.6228280  24.7637153  29.2606115
  15.5597317  23.9140296  28.8243961  16.5623379  24.9418330  29.3033361
  42.4518061 114.3978948  26.6337490  42.8366518 114.7073550  27.4537277
  41.5116358 114.5421571  26.7409658  56.7244005   3.5315523  16.2596035
  56.4807034   2.7387571  16.7374325  57.5881720   3.7615681  16.6019726
  65.0675154 126.6290219   3.5789511  65.5793905 125.8899946   3.9076602
  65.2992964 126.6875250   2.6520824  54.5949745  33.2362938   9.2505008
  54.2422485  32.6299071   8.5992599  55.4693985  33.4530973   8.9270639
  50.2212095 134.3160350  18.5547400  50.8564043 134.9266786  18.9287388
  49.4459677 134.8511297  18.3847260  36.8262744   1.9822101  38.3704448
  37.3622799   2.0389470  39.1614628  35.9294009   2.1109408  38.6791158
  30.8129334   1.2164504 101.8038824  30.1811862   1.8067873 102.2145280
  30.6124592   0.3565120 102.1734061  32.5239873  43.4186077  43.0616856
  32.7699113  42.8810930  43.8145638  31.9578242  44.0982914  43.4273672
  50.5041981  13.1267834  92.6042362  50.2709150  13.9639390  92.2030111
  49.6642017  12.7262211  92.8282615  27.0671439 140.6938828 104.7508248
  26.5120220 140.7785786 105.5260014  27.6348424 139.9475844 104.9431529
  21.2883043 146.4792131  24.0200114  20.7424021 145.8662606  23.5275555
  20.7981133 146.6424138  24.8258114  70.1854658  16.7900801  80.0727304
  69.7148132  16.6340244  80.8914884  69.4968414  16.9491553  79.4271907
  43.8190460  20.4087758  23.7318921  43.8874388  19.8395360  22.9653931
  44.7238588  20.6447744  23.9364624  29.4782400 127.3368067  76.2687167
  29.4369435 127.9558463  76.9976290  30.3096771 126.8784434  76.3905700
  30.5054092  24.3175697  15.8043301  30.5634379  25.1268506  16.3121986
  31.3530660  23.8922095  15.9338641  84.6113491  27.6920724  94.6834108
  85.0304985  28.4202266  94.2247852  85.2193642  26.9604301  94.5773550
  41.1961460 122.0805044  13.9974952  41.0471725 122.2053022  14.9347591
  40.3184414 122.0599694  13.6161160  42.0442581   6.4495367  32.7776265
  41.2871313   6.3534880  33.3553529  42.1465445   7.3953867  32.6720929
  65.6973505  10.2851009  27.6204395  66.2453365  10.4006648  28.3967042
  64.8650169   9.9576956  27.9614091  24.9602413   6.7783242   3.4947637
  24.6770191   6.9532883   2.5973207  24.1489220   6.6066295   3.9727935
  36.1618972  29.8743510  10.0940406  36.1206460  29.7132468  11.0366833
  35.3204894  29.5626307   9.7607321  72.7254200 134.4669778   4.1850752
  72.6039839 135.4144270   4.2469391  72.8773069 134.1855592   5.0872749
  66.8042469  11.9318187  42.2086906  66.2079525  11.9174755  42.9573298
  66.4476776  12.6069534  41.6313839  47.4908209 140.0168986 108.0905799
  48.2689095 139.9931628 107.5335840  46.8732929 139.4221974 107.6648771
  91.5481853   1.2186351 107.1256980  91.2688255   1.8863910 107.7520304
  91.7490196   0.4536338 107.6648354  14.7438538  17.8088605   0.4079448
  14.6575224  17.1013248   1.0468279  15.3601825  17.4709654  -0.2418219
  62.6287079   4.5776364  29.1469622  63.1853771   4.9695259  29.8198462
  61.7562294   4.9298573  29.3229103  58.1445789 145.7621649  19.3328691
  57.6611519 145.1916310  19.9303854  58.1609201 146.6117138  19.7735858
  52.7537775  21.7435241  17.4090588  52.6185846  20.8726192  17.0355856
  53.1927204  22.2360396  16.7155242  64.8555326  27.9241300 108.3935859
  65.3221798  27.8959751 109.2288578  64.5165539  28.8176060 108.3386070
  73.6009789  12.2978151  20.9773183  74.2008162  11.7331266  20.4899263
  73.2407284  12.8905106  20.3176475  57.9444695 140.3361727  16.5882444
  57.9484367 140.0734348  15.6678176  57.2008848 139.8679216  16.9677842
   2.2579075  31.8164492  31.6174722   2.1323815  32.3007274  32.4335313
   1.5974262  32.1729183  31.0233974  37.0374870 145.0081743  83.5793551
  37.5004125 144.2648692  83.1927928  37.7097321 145.4792073  84.0717443
  39.7366071 142.6603825 102.4945565  39.7710824 143.4871317 102.0133814
  40.4914999 142.6935805 103.0821469  64.6804380 128.5288651  96.1984500
  65.2725935 128.8698489  95.5281409  63.8052559 128.7488956  95.8792623
  34.1624665   8.0605096  18.4601676  33.8474989   8.9547318  18.5920513
  33.4573984   7.6266515  17.9796720  46.7534828   8.3266073  89.0052136
  46.2650490   9.0538669  89.3908986  46.8416166   8.5605681  88.0812391
  57.0857620  13.0268216 103.3143350  57.1987152  13.7330747 103.9504799
  57.7422380  12.3752499 103.5607585  44.9144888   8.6296022  93.3301529
  45.3827906   7.8761685  93.6896845  44.3990755   8.2691962  92.6085659
  41.5016747  34.5242286  89.8305567  41.4693880  33.8976097  89.1076883
  40.8540344  35.1900911  89.5994314   9.4397801  35.1586556  97.7235564
  10.1704395  35.4885435  97.2005435   9.7583002  34.3316388  98.0852433
  27.6093698  24.2253494  13.0844700  27.0087624  24.8716116  13.4557533
  28.0494571  24.6889305  12.3719776  14.8672307  21.5244937  20.2149487
  15.0041008  22.4300694  20.4932165  15.2371693  20.9977221  20.9233904
  44.0350533  39.8938060  15.3902078  44.9126911  39.7147918  15.7277513
  44.1129398  39.7721577  14.4439697  80.8603382  34.5165038  13.2882416
  80.6974506  34.7262955  12.3686302  81.6800308  34.0222764  13.2796013
  77.6590538  26.7889023   6.5917081  77.9566526  27.4017787   5.9193635
  76.7043829  26.8551469   6.5705127  44.4962120 119.8834557  17.5784683
  44.2374659 119.5464224  18.4361935  44.0829563 119.2885394  16.9527483
   2.6240122  26.1740708  87.5833114   2.6334202  25.2769876  87.9170498
   2.3910074  26.7093849  88.3418497   6.5542847  33.3929420  20.6666732
   7.3233742  32.8236532  20.6920385   6.6651535  33.9098835  19.8687327
   6.0638118 131.7739923  15.7699943   6.9977790 131.5671534  15.7360053
   5.6648898 131.0120470  16.1901498  68.9934683   5.1924443   9.4594997
  68.1600046   5.4609919   9.8460865  69.6368933   5.3369033  10.1533067
  49.3899584 144.0379850   0.0734374  48.5560369 144.4167916  -0.2046224
  49.7272253 144.6532072   0.7245772  30.2411246  45.9634447  94.5564064
  31.1478257  45.7038116  94.3929633  29.8123622  45.8856297  93.7041506
  36.5009546  21.9367814  42.7178240  36.0702300  22.7351451  42.4123430
  35.9033775  21.2318182  42.4685049  54.2666531 121.1952610  20.0236917
  54.7235441 120.9240956  20.8199000  53.8036537 120.4092617  19.7337461
  61.3233566 125.2384920  18.8156128  62.0609331 124.6535511  18.9889860
  61.6759014 126.1170215  18.9574766  55.5151892  25.3366804  19.1782272
  55.6120396  25.3353167  18.2259405  54.7651243  24.7654366  19.3435061
  36.2883782  19.5023715 103.2338878  36.6249537  19.7422290 102.3705127
  37.0533586  19.1742003 103.7064757  52.6516342   9.9306685  23.8829660
  52.2850513   9.5002276  23.1105852  53.0727768   9.2246950  24.3733430
  33.0605888  28.7402129  48.5122299  33.9111090  28.7090087  48.0741930
  32.5416446  28.0643773  48.0761385  47.6192093   1.6335176  12.7770460
  47.0323372   0.8783333  12.8159440  47.2787952   2.1645549  12.0570779
  42.7124357  21.0273695   4.7284171  43.0935669  21.8998766   4.6299160
  42.3129749  21.0372996   5.5982244   6.6820925 119.5987219 105.0575592
   7.5868922 119.3301410 105.2170359   6.3902253 119.0409345 104.3365064
  17.6268911   9.4899929   1.2671463  18.2041001   9.9230301   0.6382254
  18.2214868   9.0441853   1.8704247  81.9336605  34.5780182  83.8035949
  81.6145134  33.7693834  83.4029897  81.3259792  35.2520990  83.4993418
  38.2103252  27.6557755  30.4009366  38.2763267  28.0861855  31.2533593
  38.9385581  27.0346737  30.3892112  57.2092247  39.3122888  26.7393494
  57.0478678  40.1937962  26.4029837  58.0582476  39.0672445  26.3714623
  20.9989262 133.5149676  15.4612958  21.5925455 134.2277140  15.2249920
  20.2594495 133.9499337  15.8858097  62.2662973  12.1166635   5.5012274
  62.3417234  11.1634707   5.5455565  62.5108528  12.4172401   6.3764858
  53.9302444   2.6111746 108.2738630  54.7934151   2.2716585 108.5102915
  53.3473730   2.2805479 108.9573705  57.3690844 143.2503615  31.3041496
  58.0879831 142.6842303  31.5850639  57.2174692 143.0093292  30.3902841
 108.4596348   9.6563393  97.6807328 108.6358929  10.3783035  98.2840022
 108.7329960   9.9870330  96.8250760  39.7436929   2.8070256  34.2131782
  40.6758928   3.0062926  34.1264033  39.6173024   2.6556721  35.1498461
  29.7195840 139.0948982  23.8171697  29.5100904 138.7493546  22.9494452
  28.9254785 139.5543862  24.0901208  34.2375922  33.4193802  19.5450735
  33.3745432  33.1275392  19.8386800  34.6515679  32.6299071  19.1963792
  78.2499361 143.9452080  58.7986382  78.3953714 143.2394553  59.4287118
  77.3946095 143.7513978  58.4151181  79.3718529   3.0038950  23.8476586
  78.7796831   3.0115575  23.0956578  78.7965250   2.8920355  24.6044374
  50.3205681   9.0413409   8.4372675  49.3866682   9.2064911   8.5668445
  50.6018400   9.7227520   7.8266966  47.8919363  23.9001036  23.1863832
  48.3845186  23.0902314  23.3194280  48.0955505  24.1594005  22.2877502
  12.3994219  40.4015779  91.4561316  11.8518877  39.6966290  91.1104675
  13.1712687  39.9560452  91.8053945   4.0222305   9.7889656 103.1161990
   3.3117652  10.3900266 102.8921529   4.3840784  10.1387501 103.9304157
  65.5658817 130.3693492  70.6638941  65.1546192 130.9574349  70.0304516
  66.5041304 130.4518528  70.4932579  49.1122293  20.3918481   0.9600833
  48.4741402  20.6866336   1.6098374  49.7912312  21.0664773   0.9679786
  54.5264006   6.8846953 104.5400938  54.4536686   7.4048686 105.3403198
  53.6206388   6.7280799 104.2730811  56.0991049  11.0911298  99.6436068
  55.8232307  10.2424276  99.9897727  55.6068850  11.7310238 100.1578929
  65.0959110  16.4865303  13.5135639  64.4588614  15.8425379  13.2042539
  65.3848505  16.9376898  12.7203417  21.1221647   7.2152913 102.3672547
  20.6582236   7.9361814 102.7930560  21.6383433   7.6357073 101.6794738
  32.6930976  17.8252637  22.6326632  33.3344889  17.7191043  21.9301128
  33.2199883  17.9081488  23.4274888  21.4225578  12.7564120   1.7389283
  22.1516895  12.3019421   2.1608971  21.7359257  12.9416537   0.8536498
  17.0243466 144.9201755   9.9378508  16.4130938 145.1413895  10.6404650
  16.7419195 145.4564684   9.1970021  38.0546284  30.8402014   6.6979134
  37.9642773  30.5912089   7.6177353  38.0096054  30.0120306   6.2200648
  76.9705009  40.1649284  43.1811905  77.4291277  40.9203196  42.8133917
  77.1333218  40.2210236  44.1227722  49.0238667  34.9626350  11.2556255
  49.5988560  34.2510843  10.9739971  48.2692051  34.5209074  11.6449785
  24.0014935 131.2570567  20.5456448  24.1857052 130.4676432  20.0366044
  24.8641944 131.6230828  20.7405949  47.2325993  32.7724028 100.3120180
  47.8995562  33.1676698  99.7506233  47.7283478  32.2426081 100.9363439
  57.5903082 143.5247380   2.9943773  58.0277348 143.1719247   2.2195163
  58.3035612 143.7355060   3.5969353  41.5128231 142.8006343  28.6191201
  42.3337221 142.3521692  28.8221765  41.5929699 143.6526797  29.0478730
  19.8879802 145.0437694  70.0317773  19.2198551 144.7731421  70.6615409
  19.6936631 145.9646573  69.8573121  60.2038765  13.2413816  26.1890149
  60.5880022  13.5309434  27.0165610  60.2330875  14.0159535  25.6273937
  41.4808846 130.1016123  31.6076946  41.9686031 129.4686229  32.1346593
  40.6551981 130.2187485  32.0775342  40.4972410   4.9682885  21.5816188
  39.9122310   4.8091328  20.8408999  41.1735153   5.5486917  21.2323093
  40.5167770  -0.3281724  80.5340823  41.0143137   0.0336125  81.2674340
  39.9854040   0.4037901  80.2208670  61.1604977  24.5020938  96.6183623
  61.7653227  24.0369058  97.1963068  61.1044931  23.9516711  95.8372554
  83.5398960 144.8071919  20.5298233  83.8447475 145.4839699  21.1341977
  82.6850414 145.1188765  20.2326560  62.1333504  26.2711310 101.6356345
  62.1456766  26.5050697 102.5637253  61.7674637  25.3868294 101.6163703
  37.1809316 132.2873492  21.6872549  38.1153870 132.1574957  21.5255094
  37.1215868 133.1697614  22.0533991  50.5706072 130.8868308  48.8305044
  51.0796404 130.1722033  48.4478569  51.1709070 131.6323800  48.8358498
  88.5556698 141.6358260  13.5791647  87.9866314 140.8947910  13.3710814
  88.1786346 142.3706085  13.0952489 113.5405064 119.6274109  97.9409989
 113.6117458 119.3580336  98.8567456 113.4258461 120.5769629  97.9788872
  48.1091022  13.7825632  26.4962626  47.4095488  14.3769538  26.7674851
  47.6576757  12.9703081  26.2667179  54.1101980 132.3280890  20.6610417
  53.4425354 132.5953073  20.0293374  54.8117065 131.9572777  20.1256728
   5.7466215  36.5243101  71.8445142   6.1960757  35.7015061  71.6516026
   5.0143558  36.5473771  71.2284883  50.7102680 139.4583381   2.5550100
  50.8269978 139.6589334   3.4836480  50.7681322 140.3076757   2.1173924
  20.9181285  18.4650254  55.7974625  21.1666870  17.5488448  55.9202051
  20.4574585  18.4778869  54.9585056  56.9973707  21.6365194  17.7173853
  57.2934103  20.8117867  17.3321486  57.5895739  22.2959399  17.3558736
  64.7332287  32.7434111  92.5880846  65.4981279  32.9441714  92.0487722
  64.9720573  31.9418049  93.0535074  35.0385046 128.9332218   2.7950233
  34.6952391 129.4412906   3.5300508  34.3620682 128.2791645   2.6193124
  50.5070066  57.2691631  27.1194530  50.9463930  56.5788221  26.6228580
  49.6729517  56.8806076  27.3832965  25.3337455  41.7327118  12.8376949
  24.6013236  41.1648846  13.0771959  26.0081506  41.5414953  13.4894967
  53.7629843  45.5560207  90.2033921  53.4480810  44.9408770  89.5410713
  53.7276793  46.4102459  89.7729477  23.1302571  29.2587948  11.4663601
  22.1851206  29.1190910  11.4078152  23.4919548  28.3867288  11.6241801
  64.9113894 143.4801293   5.3419864  65.1383924 142.6102675   5.6706852
  65.7523775 143.9273254   5.2471715  44.3080425  28.9696956   3.9863622
  44.9124432  28.7412119   4.6925676  44.0189743  29.8576999   4.1964200
  16.3494480  12.1658051  42.8064156  16.6400397  11.7666221  43.6264372
  15.7287931  11.5358472  42.4401188  52.0418787 124.9340386 104.0235939
  51.9030476 125.7345957 103.5175636  51.9618464 124.2282266 103.3819886
  75.1950502 116.3736720 102.8575256  75.7219839 115.9383268 103.5276338
  74.3950415 116.6343922 103.3138629  43.1254959  24.4287086  16.0999620
  42.9986715  23.6054564  16.5715575  43.7767220  24.9029803  16.6168773
  25.0221515  51.9196749  14.5326483  24.9492311  51.0402393  14.1618252
  24.4289351  51.9128084  15.2838326   7.0967877  20.5159402  30.9080052
   7.8519458  19.9581301  30.7214165   7.2389013  21.2978172  30.3744292
  81.0278320 128.6472411 100.2538022  80.9174919 127.6966424 100.2333232
  81.4722157 128.8545472  99.4317445  35.6860209 138.4649647  46.0989046
  36.3243866 137.7815867  45.8946562  36.0394526 139.2535997  45.6873512
  46.1111736  42.7485085  15.8017850  45.7532358  41.9091845  16.0910118
  47.0545530  42.5983286  15.7408071  24.4945216  14.6223760  22.7797890
  25.0671172  14.2832077  22.0917988  23.6544633  14.7648430  22.3436284
  82.9890347 135.4267985   0.7378022  83.6407089 134.7859771   1.0222304
  83.4963417 136.0975904   0.2807377  55.3584623  29.3104625  33.7657928
  55.4024792  28.5600424  34.3583846  54.6880960  29.0712404  33.1257772
  40.5047655   3.7441415  41.8733128  39.7160006   3.3444247  42.2397908
  40.8449697   4.2936972  42.5793418  14.5663202 134.0243811 109.5850944
  14.7525215 134.1481466 108.6543727  14.6597362 134.8974545 109.9662091
  55.3852177 142.3166908  84.2926224  54.6699381 142.5680015  84.8769602
  55.0276470 141.5975244  83.7718781  71.9066286 141.7458079   3.6076072
  71.8257236 142.6969800   3.5372001  72.3981524 141.6065050   4.4170719
  65.1718378  44.0104866  15.3332520  65.9353209  43.9839745  14.7565150
  65.3972721  43.4249210  16.0561097  22.0233035 128.7925381  31.6924953
  21.7745757 127.8696615  31.6408658  21.3771486 129.2454190  31.1506343
  61.8634510  23.0071640 105.7991570  61.2998819  22.4383044 106.3235810
  61.3195944  23.7707543 105.6058269  40.7699585 139.7593654  14.6567822
  40.0840664 140.4218776  14.7396398  40.2958822 138.9408786  14.5099366
  57.8916264  47.5292683  22.9763317  57.2767687  47.6993084  22.2627020
  57.7844048  48.2744026  23.5675216  52.4619722  44.5640326  97.4976000
  52.8924370  44.1582346  98.2501038  51.5291452  44.5333815  97.7100261
  64.5456839  36.8554807   3.4713137  65.2432680  37.2939754   3.9584762
  64.9181652  36.7054033   2.6024255  37.2256207   1.9322591   2.0424072
  37.1053958   1.4471523   2.8587705  37.6912189   1.3238254   1.4685956
  67.5428438  12.2994685   2.8013796  66.8374920  12.7675307   3.2481790
  67.9959822  12.9746199   2.2963354   6.7779088   1.8898630 100.0467112
   6.9339234   2.1850857  99.1496416   6.4769083   0.9861174  99.9525090
  41.9223738  14.9190176  18.8837695  41.1346006  15.4326999  19.0620255
  42.6056910  15.3394723  19.4058132  68.9425993 113.9342756   0.8766895
  68.3499146 113.1954617   0.7384527  69.8186255 113.5551495   0.8054694
  14.4691563  43.8358736  11.6114390  14.3864465  43.2192278  12.3388612
  14.9200499  43.3405447  10.9276438  40.3482628  20.0422168  11.9140899
  40.3233147  19.1687453  11.5233779  40.5187321  19.8844528  12.8426814
  24.6778536   1.8473795  30.4003739  24.1885543   1.4804927  31.1367249
  25.5929828   1.6477568  30.5976605  46.4558506   5.1646316 102.9666873
  47.3308086   4.9325487 102.6555248  45.8621502   4.6618432 102.4090555
  64.5142984 111.2451429   9.1708308  64.7421885 111.8983717   9.8323357
  65.3569317 110.9059877   8.8688791  26.5990806 136.6817797  20.9974813
  25.9903622 136.7183966  21.7352843  27.3210120 137.2556264  21.2538910
  49.6105528  16.6510618  19.7327316  49.3560362  15.8944845  19.2044878
  49.2456198  16.4718175  20.5992913  46.9028187  33.9583158  95.6673893
  47.5740623  33.3054376  95.8659252  47.3286390  34.5622492  95.0589701
  20.7114840  34.6522045  23.6790752  19.9106729  35.1582980  23.8161993
  20.4187703  33.7410474  23.6605620  66.3214540   1.5664676   7.4702340
  67.1271610   1.2591006   7.8856778  66.5851116   1.8007614   6.5803909
  68.9096212 116.2051553 105.0287559  69.0434694 115.5966301 104.3021091
  68.9002275 117.0698709 104.6183797  42.4809265  27.0175815 100.1538833
  43.3340263  27.4084044  99.9649134  41.8633747  27.7456689 100.0849881
  49.4607639  36.2923336  17.8701341  49.0079355  35.4496622  17.9030550
  49.0604639  36.8068886  18.5710084  62.9234886  42.6182508  26.3345981
  62.6699495  43.2609606  25.6721210  62.2481060  41.9419193  26.2829947
  33.7242842   8.6437881  61.2597188  33.5253882   8.5096204  62.1863612
  33.9969969   9.5595896  61.2034424  48.9053202 117.0791120  18.7947643
  48.8674545 116.9379110  17.8487945  48.2938623 117.7980752  18.9542770
  49.8447800 129.9491889  27.1821046  50.4728317 130.6654198  27.0883250
  49.5413446 129.7784252  26.2904787 100.7284326   8.6239636   4.3408230
  99.9728531   8.5144752   4.9181834 100.6337542   9.5085496   3.9875865
  37.5044107  13.1215787 100.6060114  36.9406557  12.4981952 101.0640558
  37.5114989  13.8961375 101.1683639  77.0852137 137.7196295  32.0840001
  76.6159344 137.9706425  31.2883854  76.6291237 138.1821133  32.7870798
  99.3494129   7.6208639  19.3843126  98.6549282   7.5034922  18.7361217
  99.0200138   7.1844155  20.1699591  58.6243439  23.7685585  37.8071427
  58.9131021  24.3341160  37.0909047  57.6689768  23.7766814  37.7484751
  30.4440761 116.8045945 101.8462958  29.6792722 116.3435836 102.1909347
  30.1481724 117.7077789 101.7325797 122.6446449  31.4473653  13.1395030
 123.5947838  31.5156984  13.2333052 122.4269538  32.0706296  12.4464071
  55.4150915  21.3639784 105.1938754  55.5947113  22.2254276 104.8172142
  54.7478676  20.9863758 104.6207561  45.3921461  13.1825316  39.5330930
  45.2471924  13.8717365  38.8848495  45.3338909  13.6310840  40.3766775
  67.3831415 124.7746534   3.9430752  67.4903440 124.3343753   4.7862205
  66.8953514 124.1496033   3.4067896  34.5989490  22.7234054   7.9309767
  35.1824546  23.4603429   7.7502072  35.0595140  21.9614267   7.5795543
  33.9038992  75.0827265  96.7085262  34.0300989  75.8659935  97.2440633
  34.7446680  74.9549484  96.2691935  73.1686068  28.3044696   1.8399401
  74.0950251  28.3295250   2.0794334  73.0631876  27.4730825   1.3774329
  55.8478880 137.1077777  71.0632690  55.0882959 136.8866522  71.6021141
  56.1077976 136.2777645  70.6635722  17.0536494  21.6153765 101.4723071
  16.9645715  20.6840444 101.6745951  17.8885424  21.6810012 101.0087558
  54.2844915  18.7461436   0.7727114  54.9154043  19.0706098   0.1301388
  54.4859219  19.2318690   1.5725413  82.0098400  35.1259255  17.3240983
  82.2943497  34.2335653  17.5215399  81.8773842  35.5303192  18.1815088
  65.1077604 102.9172802  67.7791929  65.3453398 103.4970760  67.0555782
  64.8513556 102.0981503  67.3555040   2.0593524 112.5772095  89.6543217
   2.9954731 112.4245071  89.7831345   1.9833004 113.5258579  89.5518303
  58.2751846   3.9899521   2.7189294  57.9143476   3.9576989   1.8329374
  58.5767508   3.0972462   2.8873674  21.2088513   3.4461670  80.5903244
  20.8018517   2.5821667  80.5263901  22.0265031   3.3626442  80.0997066
  50.7446384 141.8739796  86.4512157  50.2454281 141.7980862  85.6380367
  50.5520725 142.7561092  86.7690372   6.8191957  12.5503903  82.0608139
   7.4154884  12.5759297  82.8091526   7.3946691  12.4986439  81.2976646
  11.7327750  13.6051731  41.3312284  11.9992137  12.7352791  41.6287652
  10.7809305  13.5485249  41.2474672  43.8956213 123.9008999 105.1696014
  43.9923763 123.1416607 105.7444191  43.7044334 123.5272026 104.3093491
  21.6667604 132.6579189 109.4346714  21.1260915 132.2929764 110.1351929
  21.7559981 131.9433880 108.8040352  39.7238231   0.0719147  73.7333059
  40.4666376  -0.0686855  73.1462002  39.9281788   0.8899193  74.1864538
  52.5961971 107.0516396  24.8502675  52.8877735 107.3035145  23.9740411
  53.3001614 107.3427582  25.4298440 121.7660204  28.4659176  44.2942659
 121.8728287  29.1154843  43.5993615 120.9214807  28.6774235  44.6920720
  54.8585415 134.6027374  16.3188402  55.2329254 134.7517872  17.1870843
  55.3207397 133.8327122  15.9876767  42.8506756 127.6804161  19.2635099
  42.5022840 126.9166279  18.8036481  42.0767403 128.1929302  19.4971410
  13.9344478   7.0308380   2.9791395  14.4792306   7.3326855   3.7060014
  14.3008924   7.4650078   2.2087804  38.0863595   1.7592030 105.0687122
  37.1368480   1.8636875 105.0075436  38.2487988   1.5838127 105.9955788
  20.9589362 145.3185844   5.1056806  20.5886841 144.5725346   5.5774442
  21.4475560 144.9259472   4.3822709  46.5236759 126.4449215  79.6030331
  47.2693539 125.8862495  79.8223019  46.8948698 127.1349239  79.0531683
   5.4967558 140.0507450  95.5224133   6.1651278 139.4141293  95.7758617
   5.8745629 140.5085564  94.7714806  39.6054196  15.5851727  -0.0572451
  39.5781994  14.8870831   0.5970899  39.4343948  16.3855343   0.4391519
  51.0955811 106.8788433 103.9363956  50.4146242 106.5981102 104.5477200
  50.6942463 107.5940037 103.4427357 123.1830501 120.6074429 107.6333332
 123.5705715 119.9300766 107.0790482 123.7015643 121.3912487 107.4516010
 122.5120354 130.6585979  95.4134941 122.6865492 130.7628441  94.4781303
 123.3652750 130.7766914  95.8309460  36.0417700 137.4433422  85.5618668
  35.1604939 137.8147221  85.5210590  36.4064050 137.7811813  86.3798809
  80.1320362 124.9575233 103.1712246  79.9113512 125.0910091 104.0930271
  80.1967716 125.8415699 102.8099918  48.4232759   1.5886956  82.6081753
  48.6655712   0.6764012  82.4493408  47.4774075   1.5635949  82.7528572
   9.4644725 114.2411518   1.9880716   8.7933612 113.5821724   1.8103353
  10.2303207 113.9411640   1.4984647  48.7318516   6.4982491  75.2737570
  48.7110949   6.2755947  76.2044668  48.0456495   7.1574574  75.1698256
   0.8619925 137.1310616   6.3846628   1.1430122 137.9839420   6.7161123
   1.0023575 136.5312767   7.1173230  42.3803234  13.5015755  74.9839020
  41.7913675  12.7501088  74.9155951  41.9168186  14.2104702  74.5379496
  43.2857656 118.6630058  15.2579728  43.2416248 117.7254581  15.0701467
  43.6944294 119.0439987  14.4807473  70.3471661 132.2089005  93.0801105
  70.1086903 131.2875652  93.1826210  69.5167589 132.6538277  92.9107094
  45.9351969  14.0942936  12.1243707  45.4844475  14.8410969  12.5184861
  46.7935705  14.4368725  11.8752328  13.1195879  84.0192413  85.6401253
  13.8831520  84.4040871  85.2099037  13.4637809  83.6495590  86.4532089
   2.5360510  26.3979893  93.9253902   3.3876172  26.8331700  93.8842869
   2.2582600  26.3284855  93.0120277  28.1597567 135.3311253 107.6212597
  27.3978186 134.7775745 107.7923107  27.9217124 135.8318329 106.8409634
  40.9277487 109.0567493  90.7235622  41.5267801 109.5102692  90.1305103
  40.7038498 108.2470417  90.2647877  38.9504266 137.3427963  20.3020421
  38.0782557 137.6883221  20.4922143  39.4165897 137.3968029  21.1363164
  29.0400624 137.8357410  21.5008489  29.3584347 137.1951866  20.8648053
  29.0854931 138.6736012  21.0402337  27.8148317 128.7338257 103.9613247
  26.9817996 128.8604736 104.4154739  28.1929541 129.6113968 103.9053535
 121.5569974   4.3194847 101.1871147 121.9134841   4.3459206 102.0750618
 121.3141213   5.2261429 100.9994411  28.0768180 145.0161743  95.2483749
  28.4870529 144.3517303  94.6947956  27.3806238 144.5477009  95.7088947
  34.3874002 129.4277477  86.1357403  34.0974593 129.9777699  86.8635082
  34.6009350 130.0470161  85.4377842  49.1458416  80.7500362  76.4205408
  50.0364685  80.4143715  76.5222692  48.7750483  80.7164574  77.3023653
  24.0436935  16.5647869  12.3216192  23.0965376  16.6427212  12.2073690
  24.1951871  16.8045025  13.2358590  39.8169065 145.8415318 104.9560547
  40.1046085 145.8509636 104.0431690  39.3404746 146.6644859 105.0655460
  60.1403284  17.2546368  97.9611111  59.5223045  17.2094136  97.2315693
  60.2815771  18.1914502  98.0976391  59.2210245 121.0589314 104.8196507
  59.9315310 121.6879845 104.9449635  58.4346294 121.5267086 105.1007080
   4.1573840  94.1701889  84.5967484   4.7514704  94.1502857  83.8464832
   3.3985877  93.6592102  84.3150330  29.0666723 134.5475960  77.0380974
  29.2009068 133.9363480  77.7623844  28.1736565 134.3738937  76.7404795
  48.8190842 137.2630024  20.4209939  49.6162605 136.8527031  20.7562391
  48.1364632 136.9998455  21.0382596  50.2695847   5.1279335  94.3867302
  50.1074648   6.0712223  94.3990707  51.2131548   5.0488835  94.2465019
  26.3607550 134.6260452  36.6195813  25.6162477 134.2775440  37.1099798
  26.0526204 135.4670429  36.2819330  21.2608838  79.8997688   0.6077710
  21.5598941  79.4220686   1.3814775  20.7720542  79.2518568   0.1003305
  36.4948845 110.9185886  62.1032953  36.1898804 111.8144512  61.9596720
  37.3269033 110.8704567  61.6324854  11.5510571   3.2404499  91.8787479
  11.3343596   4.0034561  91.3429356  10.7236993   2.9963570  92.2936249
  26.6233850 125.7436657  18.6380426  26.3307238 125.4545498  19.5023290
  27.0932150 124.9905109  18.2799283  43.9663458 119.0863132   2.9473249
  43.5662127 118.8173580   3.7742368  43.9308500 120.0427055   2.9639665
  56.5032911 145.5960846  22.3408643  55.8059025 146.0177803  21.8388215
  56.8284941 146.2830067  22.9227678  14.4526994 101.0891056   5.6576196
  15.2133775 101.6484165   5.5002347  13.8917649 101.6050529   6.2367383
  55.3780174 115.5196381   4.7554246  55.2027941 115.7427979   5.6696073
  55.4966068 116.3643837   4.3211690  41.5657139 103.6197567  88.0587769
  41.5557861 104.5279884  87.7566910  42.0968914 103.6379147  88.8548565
  41.8886280  28.6170750  81.6459274  42.2025824  28.2589703  82.4762344
  41.3117504  27.9384976  81.2952614 118.5362006  13.9756565  92.3904133
 119.1695679  14.6039944  92.7371979 117.6831234  14.3674260  92.5774956
  32.0378971 124.0028000 102.9638767  31.6722536 123.1570339 102.7046299
  31.8138099 124.0866566 103.8906860  14.8220110   8.0818634  16.3818303
  15.7690859   8.1672745  16.2723581  14.4828022   8.0148678  15.4892675
  33.1135702 130.1443958  66.4672375  32.9623413 129.4601059  67.1192360
  32.8135204 130.9488773  66.8903446  25.9940529  15.9034520  88.7209320
  25.0446057  15.8752804  88.6026669  26.2796569  15.0005322  88.5816956
  42.1552181 124.1099739  96.2508678  41.9792891 124.0958881  95.3100777
  41.4415407 123.6011982  96.6356373  24.2164421 126.7124367  91.1516094
  24.0416670 125.8382511  91.5001583  24.4369197 126.5639782  90.2320576
  35.2339125   7.4795037  90.8764839  35.9637713   7.8285199  90.3648853
  34.6351981   7.1172886  90.2233601  19.5654798 121.9606400  86.0184669
  20.3005576 122.2713852  86.5469837  19.0390611 122.7435112  85.8565521
  26.5056634 108.0086040   2.4291173  25.6790280 108.0628014   1.9495717
  27.0693469 108.6581802   2.0089380  34.8292947  12.3950653 104.4937706
  33.9620948  12.0591431 104.7203922  34.7039747  12.8332024 103.6520100
  38.6858869 143.9940643   3.7843076  39.0596437 144.8340416   4.0507261
  38.2092643 143.6884212   4.5560781  22.3143697 123.0383301  20.3049032
  21.6939020 123.0287838  19.5760957  21.7758512 122.8789139  21.0800306
  24.2594719   8.0699044   0.9812490  24.7429705   7.8076344   0.1978818
  23.3418632   8.0661183   0.7088319 121.8338663  17.2353154  14.2437307
 120.9164137  17.0544987  14.0392343 122.0008255  18.0944615  13.8561574
  17.4868464   1.2306767  87.7445698  18.0674970   0.4912262  87.9242420
  16.6767359   0.8284550  87.4312496   8.6734617 121.3180923  21.2988225
   8.2207477 121.8472195  20.6420747   9.0747887 121.9579697  21.8868009
  63.4795284   1.5966587 102.9271126  63.8582706   2.4742012 102.9792118
  63.8751459   1.2110691 102.1454239  18.6946607 129.5037270  88.6277866
  19.0352738 129.2034721  87.7851295  18.4597135 130.4195690  88.4785557
   1.1181631   8.9082318  87.3238564   0.5982716   9.5915013  86.9006729
   0.7252881   8.8110047  88.1912804  64.7181273 132.7286911  77.3571682
  65.4019070 132.0719433  77.2254324  64.7570705 133.2756901  76.5726280
  21.1892676 141.1635876  94.9159622  21.4573979 140.9250069  95.8033276
  20.4907250 140.5450058  94.7023582  47.7780008 127.7855492  17.4691049
  47.2154808 127.1832561  16.9822255  48.4992790 127.9771042  16.8696920
  16.4377522   6.0476284   4.9089567  17.2386813   6.0965901   5.4308263
  16.6683567   5.4867630   4.1683618  43.6125469 115.9071636  95.3579998
  43.8543558 115.6852913  96.2571812  43.8508415 115.1330376  94.8479366
  44.8759794 123.1794357  97.7982998  44.6756172 123.3317471  96.8747807
  45.7817078 122.8697872  97.7989769  44.1438341 124.6996403  83.4167385
  43.5262299 125.1097965  82.8112888  43.8763905 123.7810230  83.4459019
 121.3094956 136.2533569  19.4387952 120.8656970 137.1014404  19.4334356
 121.6856018 136.1743069  18.5621396  63.3340549  34.6763974  67.0356178
  64.1566181  35.1054173  67.2713375  62.6616478  35.1778584  67.4967575
  32.6377869  23.6763554  62.3656225  32.7489209  24.6031742  62.1537828
  33.1160164  23.5592633  63.1864834  35.4438877  14.0543537  68.5112858
  36.1535788  13.5848027  68.9495754  34.6701837  13.5102444  68.6580896
  70.0552225   4.5961647  91.4574814  69.6246958   4.2136460  90.6929207
  69.9615192   5.5411606  91.3373089  45.6945086 145.6500816  22.2272340
  46.4578342 146.2010002  22.0538846  45.4295921 145.3297043  21.3650171
  13.7220263  -0.0263233  45.4230157  13.6313474   0.8244686  45.8521596
  12.8253710  -0.3522510  45.3454915  71.7829609 124.7243023  67.9293919
  72.5536489 125.1342773  68.3220625  71.9568777 123.7846851  67.9852152
  18.6101508 131.0162830   7.1605817  19.2715335 130.3711033   6.9104806
  18.6300635 131.6648388   6.4568750  33.9822721 115.7084846  89.9861336
  34.7987914 115.4176235  89.5800209  33.5967255 114.9102306  90.3472137
  44.3310642 142.3459625  64.1328764  45.1450396 142.7154350  63.7905836
  44.5009279 141.4058018  64.1917896  14.6223593 109.6406364  78.4558249
  15.1931167 108.9525318  78.7978458  14.6144593 109.4968891  77.5095129
   8.6602223 144.0355206  93.7543297   8.0311310 144.6165848  94.1819286
   9.0559697 144.5738316  93.0688858  29.1036510   5.5794411  85.3276730
  28.5873866   5.6502514  84.5247459  29.2484784   6.4855843  85.6000042
  18.0374527 135.7886600  87.6953888  18.0530810 136.7013073  87.9835892
  17.8963709 135.2864361  88.4979534  23.7489390 118.7085056  66.6318750
  24.0408754 119.3065262  65.9438467  23.4442139 119.2824841  67.3346758
  50.6082678  11.6012936 103.2166576  51.1159754  11.9957524 103.9257908
  50.1563644  10.8639984 103.6270332  36.0509086  71.7524099  94.6386909
  35.6204104  71.0491467  94.1525555  35.6745815  72.5563574  94.2805290
  34.4683671 145.3247356 103.8403511  33.8087106 144.7627354 103.4338474
  34.0348959 146.1728764 103.9351845  27.8254533 144.2488670  91.7850685
  27.3208380 144.8108578  92.3730850  28.0662203 143.4944725  92.3227978
  17.1417630 120.6578922   5.6284753  16.6051912 121.4493179   5.6728975
  16.5268850 119.9422741   5.7898656  35.4757762 107.8347588  13.2828752
  35.6821084 107.2490120  14.0112630  34.6843410 107.4630451  12.8933946
  15.5741251 142.6377106  12.8456060  15.6026006 141.7076111  13.0699769
  15.4935932 142.6516628  11.8919030  34.0684962 128.9252758  27.1764699
  33.7565994 129.5603275  27.8211824  34.9686289 129.1935730  26.9920579
  17.3024881 114.2111778   5.5714361  17.3171890 115.1550388   5.7300416
  17.0933330 113.8283634   6.4234487  81.6530514 131.1770058  86.4819717
  81.5135479 130.4954529  85.8245087  80.9623241 131.0311794  87.1284008
  67.4995852 135.4556179  92.4666691  68.4547377 135.3936863  92.4578571
  67.3117352 136.3142776  92.0876694  48.0787563   0.8643608  94.9292946
  47.1818972   1.0070401  95.2318287  48.5394430   1.6721325  95.1562405
  55.7882547  19.1093045  84.1635513  55.2515888  18.3741742  83.8672066
  56.0237074  19.5731716  83.3600521 118.6479760 124.2870903  59.2205667
 119.4038886 124.7804928  58.9021587 117.9248745 124.9137497  59.1949797
  28.2794476  16.7635517  20.7525293  28.5609055  15.9669476  20.3025953
  29.0087342  17.3730831  20.6391374  38.3794117 134.5589352  26.9468252
  37.7266741 135.2547741  26.8695489  39.1883039 135.0142193  27.1805898
 124.7936979  31.7511731  23.2912008 123.8825630  31.8949490  23.5469285
 125.2682206  31.6892796  24.1201917   6.3805246 140.8818436 109.6081161
   5.6811523 140.6030560 109.0170193   6.5456212 140.1180267 110.1608849
  15.5408347 143.4045887  80.3207588  14.9774396 142.6690197  80.0804329
  15.7535315 143.8255119  79.4878006  73.0159283 144.2175484  36.1490480
  73.0998373 143.2964706  36.3956395  73.8739777 144.4495201  35.7938329
  26.4102817 135.8098412  40.8556978  26.2471604 134.9496078  41.2425176
  27.2815728 135.7360268  40.4662935   8.8881308 142.1458626  97.2078419
   8.6872274 143.0287361  97.5183392   9.2334372 141.6939831  97.9777813
  25.5892658 107.2865868 105.3831863  26.4396715 106.8813229 105.5529022
  25.7673836 108.2270622 105.3855991  24.6808767 121.9830513 108.3547497
  25.1872277 122.0059395 107.5427723  24.7310066 121.0715485 108.6426640
 123.3441368  20.5100422  63.9120674 123.2500859  19.5705014  63.7550545
 123.2338207  20.6070309  64.8579264  13.9171290 142.2318363  97.5889874
  14.5208383 142.1521854  96.8504620  13.9609659 143.1556702  97.8356171
  26.9145989 112.5127411   2.4985448  27.0565677 112.0021152   1.7014638
  26.0991335 112.9872227   2.3369638  89.2939324 117.2239494 103.3532524
  88.9041109 118.0608654 103.6059284  88.5450978 116.6506195 103.1896305
  28.7113333 119.5470333  93.1860828  28.8295269 118.8763237  93.8586903
  29.6002793 119.7629166  92.9043007  53.6317444 123.3163834  17.5584928
  53.5509825 122.3783970  17.3855630  54.5411968 123.4317207  17.8338662
  49.5420504 136.3060379  99.6813393  50.4334402 136.3150024  99.3326664
  49.5899153 136.8390751 100.4749489  23.9104986 124.7415447 102.3856831
  23.2687330 125.3713799 102.7138329  23.4172869 123.9273834 102.2851086
  55.5668259 142.1678066   4.7609178  54.7545528 142.3754215   4.2990342
  56.1784220 142.8522396   4.4893590  14.3263149  11.9803315  84.3725681
  15.0276029  12.5874405  84.6088791  13.5232270  12.4915295  84.4723511
  45.0543594  19.6681385  19.1548101  44.1549301  19.6709423  19.4823114
  45.1030159  18.8932019  18.5950414  98.9958329 130.6611347  95.6080723
  99.7287149 130.9589195  96.1469936  98.9004487 129.7336960  95.8248425
   9.4302583 110.9890270  98.9154339   9.3211895 110.3334236  98.2265854
   8.9658892 110.6243706  99.6688366  56.0086870   5.9363728  19.4253389
  56.7003775   6.1783295  20.0411836  56.1244440   4.9955063  19.2927018
  52.7896404 129.4940948  20.5482618  52.5984526 129.2054462  19.6558706
  52.8206921 130.4489899  20.4896585  39.5435119 143.7431335  90.2192688
  40.3715801 144.0419006  90.5951309  39.4913793 142.8180408  90.4595184
  31.8630910 131.7742443  79.6203089  31.8095803 132.1477985  80.4999828
  31.8546486 130.8275032  79.7612095  52.9812527 108.3627701  71.2718058
  53.0420256 107.4093914  71.3319206  52.9240417 108.5403919  70.3329706
 106.4443333  27.1746617  83.6923313 106.2122590  27.8866177  83.0960846
 107.3956866  27.1001034  83.6175156  34.1420889 140.6042862 109.1308975
  34.7317910 139.8812675 109.3447113  34.6823359 141.2130165 108.6270905
  13.7741172 144.1959667   6.8442861  14.6544945 144.4287300   7.1392289
  13.7411356 143.2421875   6.9181291  52.4095488  11.1386948  73.4291553
  52.1633959  11.8719559  73.9930344  52.3690510  10.3724175  74.0013552
  60.3114223  21.5840702  81.4613724  60.0446653  20.7142239  81.7587948
  59.5343018  22.1287327  81.5864754  33.4195495 121.3073063  89.4470119
  33.5088611 122.2138882  89.7408867  34.0426183 121.2271500  88.7248039
  69.2253447 142.5771809   5.2912656  68.9780283 141.6554737   5.3655473
  70.1661205 142.5876904   5.4675142  51.1595440   5.2088814  14.0869943
  50.8815479   5.9411793  14.6371785  50.4483223   4.5722370  14.1583005
  35.1958275   5.6559258 100.4399872  34.4831777   6.2053089 100.7663822
  35.9804440   6.1940651 100.5449104   5.0082374  12.7065544 100.3717613
   4.5315579  12.1410160 100.9793472   4.6691781  12.4701767  99.5084000
  14.8735046 137.8713226  84.5957279  15.8251870 137.9492092  84.5288944
  14.5459497 138.2179832  83.7658119   1.1559775 117.6311398  74.3199682
   1.8618414 117.9121590  73.7377214   0.5528577 118.3741283  74.3411541
  16.6064620 142.8677273  86.3564682  15.9299517 143.0087090  87.0188046
  16.1466229 142.4464226  85.6303310  21.7243242 126.3623142 103.0418587
  21.4424729 126.7793846 102.2277164  20.9153247 126.2313461 103.5364342
  24.4165659 119.3026924  98.4343719  24.1434050 119.1979599  99.3457699
  24.5602059 118.4089661  98.1231689  17.1390522  13.8198643  81.1878490
  16.3782668  13.3131104  81.4718151  17.6502109  13.9522724  81.9862366
  35.7632065 120.7570171 104.3780613  36.2347245 120.9204006 105.1948833
  35.1598930 121.4958096 104.2978764  27.8126502   3.0536251  22.4856798
  28.0219746   3.6001759  23.2431070  27.2536945   2.3607617  22.8374330
  36.5416336 132.1569538  14.1808931  36.6590595 131.2357426  14.4128553
  36.8404055 132.6381969  14.9524919  14.6890271  15.9525853 107.5200367
  14.4437063  15.3236370 108.1986046  15.6233096  15.7999401 107.3784542
 123.3741418  98.0401230  66.6265631 122.4482567  98.1317997  66.8514252
 123.8374988  98.4967136  67.3287392  54.2364264  25.3162747   4.8193494
  54.1253662  25.6968861   3.9481202  53.4551811  25.5882817   5.3009073
  51.1243057  27.8693371   1.3904325  51.2796640  28.4860401   2.1058122
  50.5168915  28.3258610   0.8083097  25.2680039   9.3480378  10.4317800
  25.3430009   8.7128334   9.7196523  26.0151076   9.9338703  10.3098432
  17.6899791 143.6487007 104.9307156  16.8907416 143.9412498 104.4926929
  18.1531477 143.1371689 104.2673683 118.3258647  20.1773053   0.9833185
 118.7570996  20.5955296   0.2380983 117.4042988  20.1270848   0.7294980
  29.5355010 112.7814484   2.4862520  29.8174405 113.6958790   2.4623243
  28.6035085 112.8236961   2.7003423  33.3342981 136.8059635  64.8329687
  32.7555799 136.0440254  64.8051786  33.4825373 136.9602299  65.7659531
   4.4663072   4.8083001   2.3092500   4.7832039   5.6899338   2.5055162
   4.5347309   4.3386154   3.1404821  22.6704860 133.7691307 104.5873642
  22.3661375 132.8616428 104.5948887  22.9319382 133.9415836 105.4918671
  40.0216866 138.1429100  25.4744664  39.9459195 137.3655987  26.0279027
  40.2167797 138.8536644  26.0851899   3.0091038   0.7099133  93.3181286
   2.1381307   0.6779557  92.9223824   2.9375881   0.1611500  94.0991402
   9.7171605 139.6032715  84.9221992   9.3166399 138.8300133  84.5248604
   9.6391189 139.4558525  85.8647537 118.0131257 110.1880836  70.8649206
 118.1032777 110.5978107  70.0045538 118.8797647 109.8261929  71.0498524
  46.3099575 124.7724438  66.3211060  46.4050150 125.7212639  66.2378979
  45.5454540 124.6568871  66.8853807  32.4116349 127.6607323   2.1761266
  31.8525791 127.7839088   2.9432718  32.0428967 128.2460594   1.5145723
  17.5162876   2.9021817  37.5216810  16.5924644   2.9366951  37.2735063
  17.9266989   3.6030941  37.0152131  26.2793183   3.6823922 104.0466499
  26.9735050   3.2170277 104.5133114  26.1808157   3.2031231 103.2239628
  16.6122723  19.4600468   2.1737901  16.1369562  19.1051274   2.9250184
  16.1209583  19.1520481   1.4122239  13.0117095 126.5728951 102.0699883
  12.3856437 126.1829758 102.6800919  13.4176028 125.8245373 101.6324425
   2.2121739 132.9238033  16.2631742   2.7706939 132.7416992  15.5074445
   2.6994899 132.5766754  17.0103399 120.6655133 138.4572792  92.6410961
 120.8985830 137.5729942  92.3583412 119.7182984 138.4240913  92.7749348
  25.7422495 110.3196526 105.7351875  24.9899602 110.9025288 105.6324863
  26.5020132 110.8775902 105.5687428   6.7250460 126.6687775  93.5982895
   6.8497115 127.6116943  93.7060356   6.2736326 126.5812588  92.7587700
  79.1310549 101.9867039  84.0248013  79.6643829 101.2217999  83.8086510
  79.4679308 102.2823048  84.8705959 113.5514063 118.9346790   5.2275983
 112.6271731 118.8952160   4.9816934 113.5524041 119.3514633   6.0892907
  23.1519389 141.4894390  85.1998711  23.8484383 141.6291428  84.5583057
  22.4938822 142.1511269  84.9869061   4.0805909 109.7997189  69.0731382
   3.3718950 109.9923611  68.4592390   4.2390704 110.6291294  69.5239019
  34.3113708 140.3626823  10.0193158  34.6797705 141.0597515  10.5620996
  34.8176336 140.3981876   9.2077295  47.4850559   2.8205853  61.0335732
  47.5553036   2.7464562  61.9853115  47.5400162   1.9184475  60.7183599
   5.5096495  14.8187237  78.8979340   6.2688029  15.3400784  78.6369562
   5.6478995  13.9686184  78.4802866  38.2356310 123.7333202   7.2861902
  38.1958842 124.2089748   6.4564840  37.3265696 123.6935806   7.5832788
  18.0667210 137.0081711   1.0948697  17.1620631 137.1548748   0.8186380
  18.5158551 136.7192745   0.3004876  42.1089554 106.2492275  87.0815945
  42.9696941 106.2051964  86.6651535  41.5160799 106.5148830  86.3786316
 112.6037914 138.7919044  23.0195657 111.9718964 138.0780220  23.1050626
 112.8905541 138.9665699  23.9159433  47.9263687   6.9841175 100.1318741
  48.1643915   7.4717980  99.3433666  47.0215034   6.7110520  99.9805927
  18.0614138 124.1304970  84.8654175  18.2260251 124.3308926  83.9440250
  18.4759653 124.8481178  85.3443718  37.0584893 114.5888042  86.4771843
  37.3380065 113.7980175  86.0159206  37.7878261 115.1993084  86.3695431
  13.8480318  15.7309704  91.2363815  13.6829615  15.4339581  92.1312332
  13.7044430  16.6768246  91.2676334  14.1688550 115.4670811  94.4431591
  14.5936799 114.8388481  93.8591385  14.1410375 115.0245762  95.2914810
  32.7336907 131.0692883  91.8894196  32.2107697 130.2744579  91.9944668
  33.2193255 130.9307575  91.0762787  32.6708651 142.0665073  58.1485415
  33.1379843 142.8980541  58.2295132  32.6472712 141.7173100  59.0394592
  51.9150925 107.0421410  94.4760418  52.6363850 107.6372814  94.2716408
  51.2222242 107.2858429  93.8622189  96.5976448  98.5850334  74.4069719
  96.5334887  97.6538181  74.1949654  97.5084299  98.7075233  74.6747351
  20.3184986 142.2396088 106.8429661  19.3778062 142.3995686 106.9187546
  20.4933023 142.2798252 105.9027290   1.6647463 119.4253254 103.1922817
   1.6997820 118.6104584 102.6912689   2.5806791 119.6850300 103.2915306
   3.5240889 144.0625000   3.1289235   3.8583991 144.9586105   3.1669942
   3.3019212 143.9286900   2.2075216  20.1883674   1.1239987 109.7654533
  20.5305815   1.8068676 110.3423405  20.6570292   1.2503605 108.9404583
 106.2677509 125.7189751   1.5591470 106.2435741 124.8005962   1.2903825
 106.5356285 126.1921024   0.7713548  22.8032708 135.0191593  76.6267061
  22.4320412 135.8491230  76.3273859  22.6045346 134.4005489  75.9238148
  15.5653656 122.5530720  41.4941072  15.5623138 123.3563519  42.0146561
  15.5258000 121.8484592  42.1407795  18.4215593 143.4477711   0.9228650
  18.2044137 142.6850891   0.3867666  19.3572593 143.5855389   0.7755033
   8.9204085 140.8059311  66.8992996   8.9590538 141.7239666  66.6310787
   9.3023217 140.3255081  66.1647463  36.5475774 120.3883457  93.9350986
  36.0163903 121.0036850  93.4296894  36.6501069 119.6309566  93.3588314
  59.2550564 132.0669746   3.5631791  58.8692522 131.4319420   2.9597608
  60.0384235 131.6320705   3.8999597  50.8225298  92.9639912  50.0008869
  50.5817795  92.3439503  49.3125439  50.2169991  93.6963654  49.8860359
  59.2258978 140.0491524  77.5896025  60.0161648 140.3141308  77.1189642
  59.4623232 140.1212978  78.5143375   9.4732004 131.5092182  60.7921505
   8.5464406 131.2744522  60.7449198   9.7077000 131.3753128  61.7104721
 122.5071256 107.7378941  83.1137180 121.8437473 108.1816959  83.6421108
 122.6169085 106.8849564  83.5340595   9.6145272   8.4595948   3.5238878
   8.8690609   8.4901600   2.9242364  10.2643442   7.9221516   3.0709878
   7.8856456  84.4711781  63.5152435   7.6683384  84.9042988  64.3407202
   7.0374954  84.2587471  63.1256962  59.9279499 126.7592049  51.5041065
  60.4740286 126.3574886  50.8283472  60.4855013 127.4328232  51.8934822
  13.3998764 126.6119099  66.4118242  12.7352595 127.2728062  66.2175989
  13.5852194 126.7253590  67.3440313  64.6322203   9.9367695  49.4356775
  63.8740349   9.5967465  48.9605188  65.2869034   9.2414646  49.3710899
  30.0372648 129.6588039  58.6876774  30.3594112 130.4483318  58.2528210
  30.5291295 129.6194839  59.5078945  53.2345009 123.3399391 106.5543652
  53.1878710 122.8284931 105.7466030  53.6971951 122.7723885 107.1708298
 120.0098405   1.3581543  98.7158871 120.9603027   1.4429455  98.6406231
 119.6733350   2.2250920  98.4891224  41.6920900  93.6936855  61.5106773
  41.9999218  93.7092972  60.6044626  41.8832731  92.8059387  61.8133163
  11.3743317  24.1998654  95.6591129  11.4802659  23.2488613  95.6835270
  11.8740118  24.5159321  96.4118767  33.8243723 109.3724442  56.1422586
  32.9792142 109.4388580  56.5866995  34.3951988 109.9724293  56.6222620
  29.1134095  13.7109738  84.1311646  28.5242414  14.4599324  84.2215824
  28.9506984  13.3836632  83.2465076  37.0932126 110.4312134  50.9688950
  37.0255136 111.2298489  50.4456043  36.7813563 109.7371769  50.3881311
  18.8932014 131.1310291 102.4851799  18.7246954 132.0400238 102.2370434
  18.2451475 130.9440804 103.1643772  39.7671247 134.4310284  76.4259863
  38.9903069 133.8968468  76.2603569  40.2294016 133.9707661  77.1264791
   3.8294202 136.8412971  60.5928612   3.7147671 136.2468052  59.8514652
   2.9658607 136.8809128  61.0038710  33.6353588 120.5054379 108.4403610
  33.1704354 119.6989155 108.6630726  32.9464340 121.1116409 108.1680870
  23.1101179  14.1276150  61.9752121  22.4327493  14.3026333  61.3219357
  22.7501774  13.4198265  62.5097322  33.6430669 104.2917442  82.5551224
  34.5996737 104.3235207  82.5437927  33.4115529 104.3763828  83.4800339
  11.1064720 135.9980202  61.1148119  10.2061999 135.6740761  61.1431170
  11.5828419 135.4351902  61.7251587  66.6878796  23.7218266  67.7639198
  66.2282848  24.4160443  68.2362223  67.2877216  23.3490925  68.4100580
  58.1380606 129.6613407  94.8603439  57.8147650 129.7564983  93.9644337
  58.7720728 128.9458847  94.8114681 116.0689259 134.1654968  77.3451662
 116.2665523 135.0315762  76.9886780 115.1905996 133.9674759  77.0202637
  46.6636801 139.1699982  20.5494348  47.1475029 138.3631802  20.3728334
  45.8593845 138.8779449  20.9784356  11.6008413   5.7132607  88.1179428
  11.4348876   6.6101246  87.8275776  12.1028137   5.3194886  87.4043560
   3.9924708 131.9452477  97.4879742   4.6577013 131.9869041  98.1749725
   4.3166849 131.2802219  96.8806362  25.6253290 138.7274551  85.2953339
  25.5581021 139.6460438  85.5559158  26.4803338 138.4476852  85.6223297
  25.4921055 131.2250042  72.1140099  26.2992001 130.7363415  72.2753620
  24.8203373 130.5508614  72.0116425  36.8458605 131.6243362  81.6697025
  37.7399182 131.3663769  81.4453220  36.8972301 132.5699615  81.8089867
  27.3935127  16.8663388  90.8977318  26.8589091  16.5671330  90.1622677
  28.2859588  16.6102772  90.6649113  38.5895348  20.0650006  23.0007497
  39.0397525  19.9296551  23.8345472  38.1104565  20.8853894  23.1176416
  35.2875137 137.3633003  73.1746101  35.4982305 138.2946777  73.1085587
  35.9087491 137.0222282  73.8180113  32.7867436 127.1504879 108.2374382
  32.8866482 126.5028286 108.9351273  32.6494861 127.9786873 108.6973000
  31.2234473 135.1857567  70.7742262  31.3699007 134.2447090  70.8702230
  31.5532517 135.5638599  71.5893936  37.4911880 133.4411240  75.1818180
  37.6551223 134.2734146  74.7383690  37.2425318 132.8403568  74.4793367
   5.5798215   1.9360905  78.8326979   5.5498904   1.6030007  79.7295761
   4.7977936   2.4823933  78.7538624  35.5157065 133.8217258 100.3084087
  36.0388279 134.1020298 101.0594082  35.5328512 132.8655052 100.3480816
  21.0283089 116.6946220 104.7801590  20.7138133 117.3217487 104.1289806
  20.2318287 116.3379478 105.1734066  41.1657715   6.7924099 100.6975651
  40.6690836   6.5664082 101.4839840  41.9957352   7.1354370 101.0287952
  20.7373977 121.4738464 100.1243782  19.8024166 121.4548206 100.3285408
  20.8746934 120.7135105  99.5593452 116.4104558  17.1660405  69.4838715
 116.2471736  16.2593632  69.2240763 117.0724083  17.4766903  68.8661718
  22.8190041  12.8720265  65.1334763  23.4668732  13.3262997  64.5948410
  21.9831181  13.0467015  64.7010279 122.9101083 133.1593990  98.2420635
 122.3908818 133.3037758  99.0331364 122.3680160 133.5057163  97.5332451
 123.2782755 119.7558403  70.1179075 123.6233006 120.6206894  70.3397655
 124.0430160 119.1805172  70.1379919  43.2419443   6.7171460  59.9632740
  43.9374590   6.0834008  60.1389313  42.6303005   6.2499123  59.3942261
 112.3779172  98.8478851  98.2144451 113.2390601  98.5990429  97.8786755
 112.2870774  99.7714233  97.9797935  10.1574802 121.8816090  68.4310293
   9.6850306 121.7191792  69.2475128  10.0915492 121.0577488  67.9481888
  38.1017542 127.7803898  73.3491707  38.9897633 127.5680447  73.6365414
  37.5351262 127.2550583  73.9141417  24.3048954 130.9311104  81.5484333
  23.4416890 130.9776688  81.1374187  24.8021221 131.6411209  81.1423874
 124.2231233 131.5109539  93.4492874 125.1445623 131.2832260  93.5730648
 124.0346555 131.2631130  92.5441456  14.5996559 131.4472675  73.4495640
  15.0166070 130.7539272  73.9611006  14.2514777 130.9996223  72.6784468
  18.2667792 105.8214664 102.1658325  18.4432054 106.3824368 101.4105701
  17.6024377 106.2953377 102.6661587  31.1955500 134.9797535  68.2126236
  32.1151280 135.1344585  67.9965878  31.1504936 135.0916767  69.1621923
  81.6435909 113.8477516  92.8013706  81.2660408 112.9693222  92.7560043
  82.2559738 113.8834763  92.0665550 115.9730870 139.6671486 107.1252537
 115.8787949 139.4420815 106.1996746 115.6956655 140.5817032 107.1788216
  26.0174417   4.8081475  90.2940655  26.8442059   5.1262837  90.6566620
  25.8612037   5.3638153  89.5304871 122.5538107 135.4982185  74.9856234
 123.2832118 136.0756111  75.2110720 122.8775392 134.9798584  74.2489195
  32.7216291   6.6423397  70.7165003  32.0473146   6.0054856  70.9530306
  32.8021932   7.2034817  71.4877748 121.9812281   6.7932873  68.5384798
 122.3589165   6.1214810  69.1061497 121.1807240   7.0642739  68.9879179
  59.8985815 123.8087654  88.6098957  59.0549707 124.2599583  88.5787487
  59.7405720 122.9746819  88.1676483  49.2190218 127.4227333  88.6456394
  48.5231256 126.8908119  89.0316677  48.9740562 127.5053692  87.7240181
  46.5399885  15.6763249  93.1450558  46.2942934  15.5234509  92.2326469
  47.4903488  15.7881337  93.1216812  40.1120281   3.0123978 107.2222900
  39.7274852   3.3787995 108.0186081  39.8660302   2.0875435 107.2411442
  59.8205757 106.2077332 104.4117260  60.4031563 105.4523373 104.4905186
  60.1777840 106.8506145 105.0243664  14.0861392 108.5852623  94.6593094
  14.2602813 109.1234779  93.8871479  13.6548316 107.8035831  94.3140984
  18.0019093 133.7191772  24.1332197  18.6160374 134.4384289  23.9857149
  18.4619176 133.1303406  24.7314620  28.5098195 144.5476246  49.1906834
  27.6232243 144.4104195  49.5243835  28.5260487 144.0811825  48.3549833
  12.8082883 129.4471169  94.1445827  12.5576687 129.8797226  93.3283329
  12.1476448 129.7285938  94.7774792   9.8865932   4.7990876  62.4217224
   9.6718115   5.2786331  63.2218027  10.7582426   5.1129704  62.1810293
  30.9636593 142.4397945  68.5419130  31.7535853 141.9376469  68.3416748
  30.4249358 141.8421459  69.0603971  30.3954864 127.2367001  83.2578564
  29.8069215 127.3806953  82.5168514  29.8391819 126.8498039  83.9339256
  23.9142776   5.7221680  59.0895891  23.7900519   6.3045197  58.3401442
  23.8576579   6.2978630  59.8522186  58.2229900  96.9025326 103.2358932
  58.9232302  96.6298008 102.6430035  57.4187565  96.6091442 102.8076839
  42.1408939  34.1536694 104.7152138  42.5397015  34.6165066 105.4520798
  42.8456640  33.6089306 104.3648148   0.4430753 103.7085819  11.8601934
  -0.0918557 102.9225731  11.9709531   0.0652952 104.1501808  11.0995904
 102.5063462  94.1585064  67.4610758 101.6508169  94.4937992  67.1929741
 102.3055071  93.4632301  68.0875635  14.3622875   2.2225647  85.4337025
  15.1011872   2.8290444  85.4830933  14.7663593   1.3561611  85.3856373
  65.8196020 143.6191654  92.4890423  66.7318726 143.8756084  92.3540211
  65.5984497 143.1035614  91.7134857  18.7142825 128.3660507  91.1894131
  18.3512592 127.4828911  91.1225605  18.5059965 128.7748528  90.3493404
   9.1334295 136.1661339  67.4402237   8.3089101 135.7511806  67.6936197
   8.8723910 137.0042324  67.0585489  61.9137859 113.2740593   2.5492803
  61.5412474 112.3926067   2.5715486  62.8567553 113.1334591   2.4639932
  19.8413038 108.8483143  65.1745844  19.9303281 108.1046581  64.5785189
  20.7254124 108.9918232  65.5122042   8.8097447   8.9143162  75.7374001
   7.9572719   8.5314160  75.9445429   8.6023045   9.7085743  75.2451086
  22.7467680 107.7922440  81.2178135  22.3874331 107.0525551  81.7076778
  23.2656360 108.2758141  81.8605900  36.3646936 141.1728096  88.0534363
  36.3286901 141.8563271  87.3843002  35.4629779 141.0949135  88.3650112
  51.3688135 123.4695053  93.5677147  52.0319176 123.0814934  92.9967785
  51.8670034 123.8390064  94.2967606  47.7190542 143.6028671  78.7484360
  47.2647047 143.9916706  79.4958544  47.0368195 143.1275558  78.2742262
 114.8736966   1.8121033  92.2310448 114.2532486   2.1750622  92.8631306
 115.4509122   2.5443249  92.0144653  39.4916201   7.3025971 106.6633320
  39.9265122   8.0321293 106.2218761  39.9222517   7.2478657 107.5164413
  50.1938820 133.8156891 103.1466007  50.6905365 134.5366478 103.5336304
  49.3373775 133.8595295 103.5717010  32.0770597 120.2643108  66.6421938
  32.1232867 120.4184246  67.5857735  31.8158698 121.1084366  66.2741470
  35.5874848 114.7517681  71.8466043  34.6932745 114.8758698  72.1647501
  35.5232048 114.8705673  70.8989811  43.3668137   6.8620663  23.9722109
  43.6140633   5.9709912  23.7250638  42.6051950   6.7502289  24.5411277
  65.8518171 137.1848679  88.6859608  64.9703455 137.2198772  89.0574551
  66.2054825 136.3478470  88.9868736  46.8581581 132.2280312  83.5340881
  46.2200022 131.5296364  83.3883381  46.5528011 132.9499722  82.9847431
 120.5874572  14.3251019  41.7086029 119.8542149  14.8282223  41.3544035
 120.8833036  13.7848072  40.9759521  63.3988142 141.9303131  88.5098267
  62.6914501 141.4915371  88.9824200  63.0144167 142.1618557  87.6643276
  16.0088086  13.1348782 104.3276119  15.0776982  12.9149037 104.2980194
  16.0793138  13.9463024 103.8247776  67.8125906  18.3046322  70.1955318
  66.8986082  18.4615689  69.9583769  68.2789755  18.2968502  69.3596745
  42.9174900  15.1479512  11.1762754  42.6553392  15.3974324  12.0624296
  42.7852535  14.2004376  11.1452047  19.0229321   5.5574780  88.2020569
  18.9076388   6.2161427  88.8869667  19.5169532   4.8554783  88.6255836
  30.8915210 129.8810482  75.2432203  30.2790117 129.2635155  75.6428719
  30.3723812 130.6715298  75.0953484  22.5593042   0.3681450  94.0415192
  23.1394148  -0.1285667  94.6185589  22.4409175  -0.1961727  93.2774734
  57.6811743   7.4838524  46.4827061  56.7442608   7.6610642  46.5665102
  57.9925871   8.1342488  45.8532429  41.2301350  14.0102177  77.7723551
  41.5930128  13.9888745  76.8868637  41.9527769  14.3169575  78.3200121
  17.5304770 139.9596119  96.3494110  16.8655741 140.4345798  95.8508682
  17.5419688 139.0849781  95.9606838  25.6746554 144.6551895  52.5108862
  26.1026216 145.5028343  52.6315975  25.5057001 144.3434143  53.3999729
  29.9579239 106.9731617  30.2690506  30.7974577 106.5139675  30.2926755
  30.1557899 107.8509712  30.5954361  32.9955482   1.1467533  60.9915495
  32.9246807   1.9743328  61.4672756  32.1059442   0.9691220  60.6861258
  46.1644650 116.5000439   8.1853906  45.9786415 117.4277687   8.3304063
  46.8430042 116.4943695   7.5102750  36.4464664 131.4153290  63.7515068
  35.8904290 130.6749344  63.5088682  37.2497916 131.2869835  63.2470989
  47.4654531   0.5915432  75.8527470  48.0817127  -0.1023216  76.0872746
  47.8293085   1.3807469  76.2540102  55.1937151   8.1316548  77.6507807
  54.6758604   8.8277798  78.0550861  55.8600092   7.9185181  78.3041239
  31.0066700 113.6629963 105.8359241  30.5997419 113.1451511 105.1413155
  31.9469070 113.5337162 105.7115364  46.1216497 133.0761814   6.2458936
  46.1157084 133.4196281   7.1393339  45.9504366 133.8397503   5.6946317
  53.9860106 120.5048180  65.5715847  54.8232126 120.0467587  65.6457806
  54.2181730 121.3788414  65.2578878  19.2131901 128.9164066  93.9335823
  18.7727630 128.2385159  94.4461441  19.3048012 128.5349178  93.0604839
  72.6765919  50.8653241  57.3599005  72.7550030  49.9160557  57.4547100
  71.7333460  51.0269718  57.3403358  43.5256100 135.8075619   6.7380277
  42.8684568 135.1222801   6.6165010  44.2627335 135.5318642   6.1931650
  38.8106537 138.1399727  93.1385899  38.9217091 138.5826874  93.9799595
  37.8968692 138.2998085  92.9026222  33.4365487 130.7977104  49.4169760
  33.6089587 131.5783024  48.8904953  32.7687263 130.3198147  48.9251804
  16.6591728 133.7293911  68.1139040  17.1423101 133.3156776  68.8292027
  16.5368783 133.0302715  67.4716377  10.4541504  26.6519718  97.4578953
  10.3876710  27.6001911  97.3451805   9.5702004  26.3277226  97.2854805
  26.5165377 120.7750416  71.5180445  26.4069009 121.2379169  70.6874084
  26.5829468 121.4702225  72.1726799 114.3571169 126.6103363  97.2119713
 114.8045886 127.2089100  96.6138840 113.5185224 127.0349312  97.3928165
  16.1372662  17.5440579  73.5804319  15.6149518  17.1296292  72.8936434
  16.2440872  16.8626576  74.2441607  12.2272730  38.8502102  34.1647092
  12.3564577  39.7937374  34.0684167  12.8015816  38.4612637  33.5050622
  23.1039834 129.5356369  88.9760399  23.5931563 130.2210236  89.4312286
  22.7465153 128.9906788  89.6770954  35.3816199   1.5737038  97.4653053
  36.2109852   1.9703656  97.7318478  35.2996159   0.7961445  98.0174923
  30.4361725 138.1445694  85.3333282  29.8860240 138.2437134  84.5563316
  30.5876827 139.0401363  85.6353855  15.3587019 135.4272079 100.4503632
  14.5727015 135.3169441 100.9854126  15.8814824 134.6454716 100.6287479
  47.5905132  16.0518437  82.6049519  46.9177723  16.5391713  83.0805111
  47.5741816  16.4206486  81.7218113  27.5556636  13.9246540  73.5444212
  28.3231068  14.4612103  73.3460045  27.9150844  13.1265335  73.9317942
  13.1143105 108.6023998  91.0865402  13.8347220 107.9859924  91.2180042
  12.5279546 108.1583977  90.4739380  54.6642160 136.0844040  85.7780743
  55.4265594 135.7993031  86.2818336  54.8371124 137.0053291  85.5825138
  62.1837282 102.9998493  52.8759146  61.6483450 102.6701641  53.5976505
  62.6934099 102.2417355  52.5900459  21.0205007  36.6601353  74.7140455
  21.5550208  36.7828541  73.9295340  20.6841540  37.5337582  74.9137735
  15.8087933 135.7793331  78.3497763  16.6879249 135.8675671  77.9815674
  15.9009337 136.0610771  79.2599201  25.9112906 130.3160095 109.4786835
  25.5917406 131.1790276 109.2153931  26.8640256 130.4073238 109.4924355
  38.2083106 132.5330353  92.5712299  37.8030944 133.3872509  92.7206898
  37.5229168 131.9013882  92.7891636 123.7238801   3.7036686  99.1518879
 123.9257166   4.5986824  98.8790321 123.0912184   3.8069039  99.8627472
  52.7485180 141.4925957  26.0357428  53.5274792 141.6835880  26.5582085
  52.0717287 142.0652485  26.3966513  51.7048502 138.3555412  83.9221859
  52.4224520 137.7324104  84.0361786  51.8336678 138.9992428  84.6188164
  11.4697754   0.7582264  96.7234039  10.6541276   0.3237706  96.4740086
  11.4943838   0.6917553  97.6779747  11.8403339   1.1431103  67.6750946
  10.9495866   0.7964688  67.6236725  12.2151935   0.9693127  66.8116665
  35.8310080 127.0462513  67.3072052  35.0394225 126.6650105  66.9273615
  35.6504679 127.9855347  67.3442841  50.8573580  85.3969097  78.6369848
  50.2032089  86.0955620  78.6509085  51.6965008  85.8532143  78.6990738
  28.3194637   1.1427002  83.0460644  28.9554644   1.2255173  83.7566185
  28.1768942   2.0405274  82.7463818  40.9971380 145.9577751  96.6760445
  40.1937008 146.3428020  97.0259953  41.4768171 145.6605434  97.4492073
  38.2838464 129.4047546  76.1814022  37.3353434 129.3439388  76.2948608
  38.4145093 129.3688583  75.2338409  55.2212048 117.9541492  96.4416695
  55.5763674 117.0675659  96.5053272  54.4497252 117.9443645  97.0081997
  23.3100772 123.1768799  74.9757433  24.1797662 122.9672909  75.3162479
  23.3501577 122.9341602  74.0506935  10.6303942 144.6037292  85.2604008
  10.5704474 144.7575378  84.3175411  10.0206208 143.8844872  85.4249954
  38.4716153   5.1901322  74.8902702  37.6414561   5.3588658  74.4446278
  39.0277505   5.9309750  74.6492290  23.4700513  21.1617070  73.7364626
  23.3422065  21.7869740  73.0230761  24.3999863  20.9385853  73.6956167
  23.6063790  12.8499108 106.5203285  23.4059501  12.0917778 105.9714222
  24.3539715  13.2656555 106.0907936  13.8053608 120.7594013  33.8782350
  13.8760042 121.0859489  32.9812375  14.5877707 120.2215099  33.9996282
  27.5798368 107.2295570  92.3580360  27.2967052 107.9623795  91.8111992
  26.9665694 107.2281837  93.0929756  34.3294716 107.3497772 108.8770103
  34.9485970 107.5770664 108.1832886  34.3535376 108.0976200 109.4739914
 120.0803632   6.7673760  87.0243263 120.8406979   6.3084965  87.3814678
 119.6995652   6.1499672  86.3997936  20.8330274 118.5673141  87.2330570
  21.5589929 119.0219021  86.8057823  20.1781821 118.4603214  86.5431499
  28.3225203 117.3109055   1.2181608  27.6450658 116.8324280   0.7403032
  27.9058933 117.5543308   2.0448438   1.0219819 118.2593441  70.5854177
   1.5128660 118.1091309  69.7775173   0.7430238 117.3864555  70.8619833
  16.1906230  32.5538235   8.2148496  15.7004285  31.7804890   7.9357663
  16.0382688  33.1967717   7.5223008  36.6111350   6.4582329  78.5393572
  37.2990322   5.9205513  78.1470251  36.5583706   6.1556130  79.4459295
  33.7060022 123.7135792  85.5665779  34.4531107 123.7604141  86.1631298
  33.4998250 124.6271324  85.3687572  62.5496244 109.4672871  67.2665882
  61.7872429 108.9564133  66.9945383  62.7034044 109.2034626  68.1737757
  41.6541290 107.9547215  72.5471354  42.2632122 107.2190189  72.4839163
  40.8301163 107.5596714  72.8320265  37.9323268 144.3402767  73.3307123
  37.1906114 144.3172359  73.9353275  38.5506535 144.9500561  73.7332964
  12.4867332 112.9619408  93.5665512  12.6819527 113.6934853  92.9809189
  13.3389294 112.5646114  93.7457752  53.9449072 134.0948582  91.1783600
  53.8698435 134.8304176  90.5704498  54.8795319 133.8885403  91.1904430
   4.8404211 146.3137913  87.0082951   4.2082626 146.4771843  86.3083649
   4.7715431 145.3744125  87.1787548  39.4421506 133.2587433  82.0911407
  39.1241741 132.9909229  82.9533386  39.5743394 132.4368191  81.6186810
  36.0342360 133.6511803  87.7748966  36.9203281 133.9128399  88.0251026
  35.8282781 134.1976643  87.0165062  28.8324451   7.4675827  69.0528488
  28.1722879   7.5050526  69.7449636  29.0472460   6.5379029  68.9768171
  23.3713293  16.0451489  64.9128819  22.7664781  16.3185292  65.6025505
  23.0624175  16.4998799  64.1292858  29.2586994 128.8366127  12.8028623
  28.4769440 128.2948685  12.6950971  28.9638138 129.5809937  13.3274213
  11.9978762  15.0985318  98.5268116  11.7759979  15.8812313  99.0311718
  11.4813983  15.1761036  97.7246571  58.6758041 118.9047718  65.9576321
  58.8336563 118.1735611  66.5548325  57.9841232 119.4140244  66.3800955
  10.9298146   9.4787579  59.7054338  10.4298067   8.9401131  60.3186989
  11.2937093  10.1807671  60.2448750  56.0635996 122.3436356  77.6086807
  55.4900694 121.5909100  77.4648380  56.1546612 122.7440548  76.7440414
  52.0864677   2.2214966  78.9610338  51.7735386   2.7523117  79.6935225
  51.8331528   1.3268071  79.1881800  16.6453838 140.8472443  66.2499285
  16.5654624 141.6485310  65.7324553  17.5674367 140.6024742  66.1715508
  35.8216071 141.5060234  58.6865902  36.3161802 142.3165321  58.5653687
  36.4028621 140.8195305  58.3593082  14.5382309 127.9865170  81.0669422
  14.6387517 128.7495518  80.4978180  15.0923860 128.1774902  81.8236923
  43.6029863 133.0407238  10.1314203  44.1139412 132.5038052  10.7371274
  42.8280926 133.2953930  10.6323472  34.2715073   6.4658814  74.0283203
  33.8082123   6.4085465  74.8639679  34.1241121   7.3646813  73.7339211
  32.2162771  26.6061001  74.2048883  32.6252580  26.2937718  75.0119925
  32.4245286  27.5399571  74.1766834  20.4620266 143.2146358  84.6353912
  20.1677108 142.9360199  85.5025578  19.8624778 143.9208317  84.3944168
  73.1849480 104.3694592  43.5134840  73.8222027 104.2800045  42.8048658
  72.4094200 103.9053822  43.1981659 120.4718355 115.0808716  27.4072027
 120.2406467 115.8312416  27.9546833 121.3720191 114.8711491  27.6560283
   6.6556126  96.5803337  54.8862934   6.6987443  97.5045109  54.6408176
   5.9467548  96.5357876  55.5279827  10.3972721 133.4337139  42.2009516
  11.1626148 133.5964203  41.6495800  10.6211281 133.8281536  43.0438852
  29.5678186 111.0480499  66.7684269  28.7347960 110.5776405  66.8004179
  29.3931293 111.8752861  67.2172070  26.0237122 140.0951195  37.4509382
  25.7206488 140.5259800  38.2501507  26.6962576 139.4827938  37.7492237
  30.7217622 119.0011120  73.7848377  31.4590216 118.8363075  74.3726444
  30.7590914 118.2875347  73.1479263  30.5604434  15.5563526  81.8624020
  31.2666297  15.7975941  81.2629509  30.2172065  14.7352200  81.5100670
  43.5794353  13.0636769  45.2598763  43.3995724  13.3305912  46.1613369
  44.1196728  12.2782021  45.3459167  23.6953878  10.0200348 101.7470074
  23.5849285  10.3351479 100.8499336  23.8543034   9.0808087 101.6530800
  10.7335305 116.5519810  62.8780842  10.9472287 116.1994267  62.0142126
  11.0078681 115.8690071  63.4900618 115.0378997  25.4125576  65.7247639
 115.3903956  25.2304249  64.8536682 114.9672825  24.5525914  66.1391640
  -0.1447444  25.3746968  67.0411062   0.5856179  24.8174839  66.7721844
  -0.1611533  26.0779362  66.3919401  31.5449476 139.0581608  72.2330189
  31.1678910 139.6844673  72.8509235  31.5159202 138.2197952  72.6940298
 119.1581107 142.2825527   5.1647798 118.9984191 142.8651619   5.9072725
 118.7880713 141.4423656   5.4356805  12.5134015 105.7392120  80.5142975
  11.5923464 105.6062794  80.2902031  12.6261163 106.6897488  80.5102253
 120.7851884  14.3442707  48.3315802 119.9825591  13.8580876  48.5203648
 120.9597672  14.8385983  49.1324520  30.1404572 126.2481689  67.8095675
  29.8844743 125.4311275  67.3816109  29.8955631 126.1251259  68.7266922
  19.7253036   7.7350502  70.6122112  19.5628488   6.8068009  70.4442644
  20.5396104   7.9238873  70.1458693   1.9219765 131.0266495  22.5802732
   1.2866089 131.3566494  23.2156014   1.9835752 130.0899696  22.7675390
  59.9926519  20.1236897  57.4069691  60.1897812  19.3885022  56.8265629
  59.6535349  19.7156506  58.2036638  47.6528931 115.2354145  75.8348036
  47.0757055 115.4918671  75.1155567  48.4866142 115.6618309  75.6365490
 115.1039595 137.2842216  22.2624636 114.4256801 137.8616047  21.9120502
 114.6774072 136.8252182  22.9860687  29.7160888  14.1436367  92.6999092
  30.2373362  14.8057537  92.2459030  29.0555787  14.6451168  93.1779099
  14.3902612   9.5064907  29.8385978  14.6794891  10.3778057  29.5676994
  15.0979924   8.9232235  29.5644760   1.1722726 130.8005142  80.8006954
   1.7738549 131.5371418  80.6924915   0.7087953 130.9877014  81.6170216
  21.4289665  27.0293408  59.9250031  21.0240149  27.8803807  60.0922251
  21.1202812  26.4726048  60.6398487  38.4295154   7.7593403  67.9758501
  38.4451175   7.1580105  68.7204218  38.2101512   7.2063809  67.2259521
   1.5499908 120.1227474  32.0029187   2.0884156 119.8933125  31.2454963
   1.9274728 119.6215248  32.7257705 122.4070779   0.3143864  89.0958405
 122.8012942   1.1596852  89.3110085 122.8630417   0.0323658  88.3028793
  18.5412514 127.0178223  55.6520987  18.5814035 127.2556400  56.5784121
  18.0127740 126.2199783  55.6323481  94.3832893   3.6406308  51.8029928
  93.6318702   3.6568432  51.2102509  94.6718068   4.5521527  51.8489504
  19.7797775   5.6820183  81.1901665  19.6827793   5.8230286  82.1319389
  20.2710438   4.8635178  81.1198807  32.1338773 123.2996750  33.0455184
  31.7054224 123.1163979  32.2094178  31.4260936 123.2687855  33.6891937
   8.6998981 111.6374969  63.5786629   9.5615929 112.0186996  63.7471819
   8.5742861 111.0066509  64.2875338  26.3551092 127.9116058  79.3927145
  26.2688780 127.5280952  78.5199499  26.6213703 128.8167572  79.2313480
   0.6962771 139.9590969  14.0010071   0.2448982 139.5747852  13.2494760
   0.5416536 140.9000492  13.9177632  14.4468176   6.9187432 106.0403347
  14.9587035   7.5441723 106.5532112  13.9806414   6.3976364 106.6940594
  20.4860544  29.1847401  50.1582193  20.8289528  28.3332043  49.8869991
  21.2590146  29.6773892  50.4340029  22.8273797 128.3907223 104.2331886
  22.5705266 127.4793720 104.0928459  23.7637806 128.3485126 104.4270992
   6.8280065   4.8120003  87.8438759   7.7134717   4.6406632  88.1645489
   6.6266418   5.6940918  88.1562710 114.1083819 117.7526951  54.6212864
 114.6920473 118.0023670  53.9048862 113.9808554 118.5603905  55.1188898
 122.0338491 141.9198132  88.7037849 121.2772185 142.4472237  88.4477043
 122.0814282 141.2313271  88.0405045   6.5984392 137.7514267  57.5850582
   5.8789998 137.1395493  57.7407551   7.0275342 137.4207783  56.7958927
  46.1877346 131.5760803  95.5940628  46.5038061 132.2556114  94.9986076
  46.9422054 131.3719749  96.1466312  35.0163889 144.1182232  56.4262867
  35.9152961 144.1578007  56.7528296  34.6278429 144.9514294  56.6928053
  32.3058081  15.2087574  74.3943834  32.2519422  16.1621266  74.4608402
  32.9827166  14.9625759  75.0248003  20.0188255 127.5086594   2.0797864
  19.3380702 127.0056725   1.6327993  19.5427799 128.2003117   2.5393907
 124.7724936  13.3853607  92.0600319 124.4850232  12.9559498  91.2543106
 124.1464403  14.0980130  92.1881294  16.7995393 121.0850048  50.5104208
  16.7859590 120.1506901  50.7180357  16.4548254 121.1373043  49.6189785
  23.3365655 124.9305153  71.3369322  23.8239908 125.5244064  71.9078493
  22.5034428 125.3760529  71.1831903  16.5496194 131.5729141  90.1323986
  16.6697276 132.5182533  90.2225971  15.6464231 131.4187241  90.4093266
  15.1565766 120.6347179  58.6094141  14.5107973 121.2680435  58.9226246
  14.8031116 119.7838974  58.8690424  41.4449835  92.7461720 100.7404056
  41.1319494  93.6433220 100.8560105  42.2605848  92.7108097 101.2401750
 115.9022016 141.1988926  75.9715128 115.4728503 141.8546581  75.4220915
 115.4422773 140.3829288  75.7742929 111.6285855 104.0369129  30.5721331
 111.8363923 104.7599697  31.1639380 111.5683693 104.4443512  29.7080755
  14.6290791  22.3210316  71.4796019  15.5104113  21.9939404  71.2993479
  14.3179429  21.7825871  72.2072792  36.9679737 120.3460026 100.2014542
  36.3302135 120.1302814 100.8818626  37.7291965 120.6721878 100.6814289
 114.2393214   3.5265236  61.5092134 113.6426873   3.1854134  62.1754742
 115.1084102   3.2546883  61.8042088  29.6137094   0.3162747  45.7173395
  30.3449583   0.7525807  46.1545372  29.9325204   0.1443272  44.8313236
  18.6844230 138.8640022  54.3346882  18.2543349 138.5879326  55.1440382
  19.1837251 138.0967140  54.0550327  35.4727602 107.9377460  66.1325455
  35.7608819 108.4592152  65.3833532  35.5749011 108.5215473  66.8841887
  33.7601948 116.5777874  42.6950884  32.8775454 116.8761444  42.9145050
  34.2286396 117.3756504  42.4497175   3.4179771 145.5455780  57.2101498
   2.7790117 145.6227303  56.5016270   4.2315426 145.8848095  56.8369675
  35.9003544 127.9005527  69.9211693  35.6339717 127.4312305  69.1305923
  36.8565893 127.8581238  69.9141455   5.9356046 142.6271439  55.7945967
   6.2666523 143.0374813  56.5935135   6.3510060 141.7649364  55.7783413
  34.2860818 121.8977261  99.9869537  34.5077157 121.2242126 100.6299782
  33.8160706 121.4266014  99.2989445   1.0983232  28.9715748  63.3296967
   1.0190451  28.1846981  62.7904701   2.0335504  29.1752796  63.3201218
   9.2555016  35.3810101  42.9260540   8.9333940  35.1167851  43.7878323
   9.9603909  34.7625904  42.7338839  29.0893507 145.7274437  73.2675982
  29.5515704 146.1944580  72.5715542  29.7771931 145.2556515  73.7371969
  56.8847895 142.6909447  53.6309195  56.6610384 143.2554436  52.8909826
  56.3497257 143.0196476  54.3533373 123.9404311 128.3203697  59.0027571
 124.8484927 128.5117149  59.2373705 123.6613088 127.6640606  59.6411705
  42.6623487 129.2555332  26.5183774  42.3903036 129.7452736  25.7422487
  43.3950853 128.7179947  26.2177411  41.8812227 119.6358776  51.2849712
  41.4004374 118.8239288  51.4456844  42.7800369 119.3527603  51.1169910
  24.1707730 140.8984375  57.5764275  24.0089011 141.7625427  57.9550457
  24.0726137 141.0280514  56.6331339  50.1336288   2.4104863  13.7410378
  49.2725420   2.3729687  13.3246744  50.4969072   1.5332966  13.6194146
  22.7342558 138.1619835  27.1161842  22.9013181 138.8818359  27.7245736
  23.1659961 137.4063873  27.5148201   7.6128656  16.3187008  78.2853889
   7.6913798  16.5062504  79.2207432   7.3714042  17.1574383  77.8923750
  11.0512698 146.0034180  55.8397913  10.2567613 146.2732220  55.3791475
  10.8347046 145.1475620  56.2097168  23.9747882 136.6543102  85.5063915
  23.1658030 137.1174145  85.7238960  24.5552564 137.3340607  85.1640129
  16.1845481 100.4535389 108.2640553  16.8902540 101.0954571 108.1856251
  16.4429164  99.9026203 109.0029621 112.5007409  26.9067364  66.6202068
 112.1514303  26.2211781  66.0508060 113.4342355  26.7070561  66.6905737
  64.8895884 144.4966698  88.1165981  64.7727633 143.6954975  88.6271954
  64.8669529 145.1998043  88.7656879 117.6354761 104.3279552  43.7604809
 118.3405328 104.9453545  43.9552736 116.8347330 104.8466778  43.8377428
 122.8263979  12.2957878  47.7976179 122.1074191  12.9215508  47.7097607
 122.4576903  11.5781002  48.3125973  37.5145173 128.5831833  59.3530893
  37.3416853 128.1118774  58.5380793  38.3134031 128.1829834  59.6963978
 119.1198582 136.1240387  49.5106077 118.4388757 136.1229324  50.1832867
 119.2716897 135.1979733  49.3219757  30.6017756 127.3475552  24.4099665
  30.1195908 127.5398636  25.2141762  30.2582741 126.5020943  24.1211057
  56.4315653 123.4678841  47.0452738  56.8403101 124.1050053  46.4594078
  57.0447206 123.3864117  47.7757740 112.6227481 107.8146076  67.4559784
 112.0788485 108.2306957  68.1247616 112.0580918 107.1444416  67.0709085
  21.0771608  21.3606053  15.8638418  21.1106896  20.4339962  15.6261182
  20.5700159  21.3814717  16.6753840  30.9201241  14.5574932  37.5548768
  31.3286424  14.7543316  36.7119050  30.1112986  14.0987568  37.3277521
  32.5110173 138.0337429  24.8200917  33.1857944 138.6995029  24.9530220
  32.0463562 138.3175278  24.0328264  25.4420471 142.2488976  83.8692284
  26.2892461 142.5243950  84.2193508  25.6561422 141.5654850  83.2341385
  10.4831719 140.7192802   0.4523984  10.8497417 141.0549450   1.2704412
  10.0383544 139.9098015   0.7036249  66.8835211  15.8168011   7.7679864
  67.7859926  16.0974293   7.6162378  66.8181896  15.7238751   8.7184182
 110.6195957   0.1427822  51.8658257 110.1383514  -0.6664486  51.6932201
 109.9437625   0.8194332  51.9059944  37.5454926 140.7897758  25.3675127
  37.1864247 139.9438381  25.6352925  37.0049691 141.4346600  25.8237910
  17.5596035 132.1551800  58.7520504  17.0756149 131.3997650  58.4183788
  18.3049595 131.7755699  59.2174196  23.6206031 131.3566780  66.7493582
  24.5378828 131.4458942  66.4907598  23.2601285 130.7160664  66.1362457
  13.3044934 126.7525291  58.3978081  14.1632462 127.0371628  58.7104797
  12.8590965 127.5628185  58.1502438  33.3687067 145.5746555  72.6340723
  34.0470409 145.7145214  73.2947779  32.5921822 145.3280926  73.1365204
  26.7574215   2.9138832  42.6195574  26.6886258   3.4261589  41.8139076
  25.9849429   2.3486977  42.6107168  36.3191032   1.2178116  67.6061392
  35.5469036   0.7870369  67.9727125  36.9384289   1.2598687  68.3347654
  11.6280293 117.7281666  78.2960081  11.1391282 117.1406078  78.8721895
  12.3364139 117.1870041  77.9473400   8.7681240 142.3695469  47.8897238
   8.7152702 143.3138371  47.7422333   9.7064936 142.1867180  47.9373693
  29.7030663  -0.2329082  63.2605171  30.4738879   0.3345089  63.2503939
  29.0624690   0.2427178  63.7893343  44.0775442 111.0120010  72.6785421
  43.1555128 110.9210873  72.4380779  44.4310904 111.6328907  72.0415640
  49.7220993  26.4405232  73.5173559  50.0112677  25.6268864  73.9303875
  50.4410267  26.6811734  72.9330111  23.7533474 128.8822460  71.2260532
  23.9687610 128.1592655  71.8152189  24.4837666 128.9134884  70.6082010
  15.0260472 134.2486858  70.8804560  14.2374659 133.8066387  70.5658579
  14.9772608 135.1254654  70.4995203  65.7788658 140.2534008  57.1118736
  65.1049995 140.6240463  56.5419912  66.5864944 140.6921387  56.8445206
  14.7483277 145.4464245  51.0540676  14.6954370 146.1814976  51.6648960
  14.1816449 144.7762585  51.4361382  22.9309559  18.0123883  58.3742714
  22.5706959  17.5443249  57.6210403  22.7774787  18.9365368  58.1777620
 124.1419352 143.9401531  48.2290840 123.4192175 143.4640026  47.8201914
 124.0779623 143.7205505  49.1585588   3.4414059  18.1708126  46.8584490
   2.6220676  18.3907681  46.4151239   3.2474121  18.2818013  47.7891922
  26.5499902 120.9368515  80.2438354  27.0414615 121.0703373  79.4333649
  26.5907001 119.9926853  80.3958893  31.7005277 122.8886032  66.1903048
  32.3372960 123.5593700  66.4369488  30.9022236 123.3778381  65.9913111
  19.5421684 143.0069828  51.9609690  19.3339825 142.0964432  51.7516661
  20.0686097 143.3085918  51.2206125 118.4762884 137.5937080  73.7950230
 118.4354872 138.4342480  74.2511511 119.3700141 137.5487328  73.4552240
  36.9055128  14.3916493 108.7325668  37.7571154  13.9663487 108.8331890
  36.8297124  14.5565586 107.7927303  18.2218242 100.3137970  47.6426077
  18.4893489 100.5955696  46.7678118  18.9486325 100.5711460  48.2098436
  11.3309908 115.6574059 108.1315412  11.3529968 115.6472015 107.1746486
  11.1126256 116.5618134 108.3564653  38.9820409 132.4788380   6.1417428
  38.7450838 132.3318386   5.2260629  38.8856173 131.6207600   6.5548269
  12.1172225   0.8503895  39.7082281  11.2514019   1.1648445  39.4480300
  11.9409859   0.0662022  40.2280617  27.6481199 134.0803814  83.2062054
  27.1644974 133.4980965  83.7921143  27.0518875 134.2313004  82.4727535
  42.9383516 143.8589668  53.0628395  43.6017704 143.8075256  53.7509251
  42.8138733 142.9524326  52.7818966  36.3496304 136.0618114  51.4526749
  36.7539883 135.1942539  51.4617109  36.9984961 136.6240883  51.0295391
   6.0712886 133.6509609  57.5044918   6.3845927 133.5459995  56.6061306
   6.6777456 133.1311035  58.0319309  14.1393030 127.2668552  69.1794825
  13.3946621 127.5051117  69.7317314  14.3203545 126.3537502  69.4023991
 113.6907381 145.9196854  80.3759193 114.5215971 145.4476166  80.3206635
 113.8041610 146.5185738  81.1139488  10.5222642  91.6730595  61.3616514
   9.7970313  92.2902870  61.4581251  10.1005244  90.8372593  61.1621523
  50.2115011 131.0262394  91.4803600  49.4260788 130.4798412  91.5084839
  50.9071684 130.4314232  91.2002373  21.5215468  32.4867421  31.1492562
  21.1956191  33.1124478  31.7961597  20.7446909  31.9995671  30.8746672
  41.5907621 133.3394814  34.1736460  41.5253448 133.9066219  34.9419546
  41.6224480 133.9437008  33.4319282 123.5357545 112.0956039  67.5884247
 123.7165235 111.6473293  66.7622280 123.7685776 111.4576530  68.2629967
  29.7977042 122.6807022  91.8472481  30.5595541 123.2508183  91.9511318
  29.7989345 122.4460316  90.9192562  37.6536822 110.6954193  55.3356171
  37.5279403 109.7745609  55.5646181  38.2722354 111.0223675  55.9888601
  42.9234219 122.2907639  52.3644352  42.7693462 121.3868713  52.0897293
  42.0709896 122.5950623  52.6758718  55.2863264  13.2491093 101.0789204
  54.4769716  12.9262715 101.4751053  55.9599495  13.0782490 101.7371559
   4.5989138 135.8800697  58.0026531   3.8088340 135.7339573  57.4824047
   5.1070070 135.0756836  57.8976202  48.6433125 146.4582920 101.7720604
  47.9608583 145.7885265 101.7284012  49.3192816 146.1511993 101.1679173
  49.6842480 135.3614235  46.6041136  49.0525293 134.8755836  47.1343231
  49.2233706 136.1632442  46.3573313 123.4090184   0.2552109  63.5619593
 123.9416776   0.7893544  64.1511869 122.8218704  -0.2289505  64.1425467
 112.9506654 120.4859734  32.3772645 113.5418648 120.4100800  31.6282964
 112.7426774 121.4191055  32.4246311  36.2898135 134.8381138  44.9926329
  36.8851590 134.0935135  45.0784826  35.7968330 134.6595097  44.1918182
  23.1559086 145.1033401  50.8271408  23.2883263 144.6313000  51.6492605
  22.4740386 144.6078014  50.3735733  11.0403144  16.2191372  23.8180089
  10.2618015  16.0195713  24.3379378  11.1124170  17.1730404  23.8511515
  21.5040112 139.9881363  57.7133560  21.4052081 140.2678299  56.8032789
  22.3893166 140.2618313  57.9532719  39.3297005   5.8058911  59.4398975
  39.7982335   5.9170609  60.2671528  38.7750888   6.5831166  59.3724298
  51.3108683  14.2801648  68.8448524  52.0388079  14.2137127  69.4628525
  51.6392469  14.8485546  68.1482029 121.0082392  15.7364827  53.4975863
 121.4717523  16.2514286  54.1580582 120.4373342  15.1574498  54.0025806
   9.9660158 125.7613945  96.2830353   9.6079206 124.8860931  96.1352253
   9.7163618 126.2571526  95.5032063  29.3196678 117.3405647  79.7410536
  29.5534587 116.4133072  79.6990108  30.1335859 117.8021717  79.5393229
  35.8549380  10.4621010  56.4788771  36.5987921  10.1658802  55.9543133
  36.0008693  11.4012604  56.5925169 107.9400737   3.3458214  86.4056683
 108.8118095   3.7380581  86.3561344 107.9366083   2.6819592  85.7161045
 110.5313856   1.0460453  54.9033308 110.1465756   1.6303616  55.5565786
 110.9783167   1.6314965  54.2919874 114.8739732 134.9106503  55.2154732
 115.3605229 134.2336082  55.6857014 114.2532033 134.4255733  54.6718073
  58.9896536 135.6033134  89.1090870  59.8997974 135.4363537  89.3540287
  58.8981628 136.5546894  89.1615677   8.0150664 116.1716175  76.3960075
   7.5054407 115.3683567  76.2897873   8.9251184 115.8761120  76.4227581
  52.1014881 120.9854889  82.5240803  51.8732643 121.2701893  81.6391563
  52.8566360 121.5236378  82.7615356  15.3164089  17.7574330  47.6658964
  16.0357201  17.5484639  47.0699549  14.7728527  18.3758335  47.1776628
 117.2754723 127.6560593  26.4701605 117.4637134 128.2083607  25.7113719
 117.8250343 128.0125427  27.1681118  48.9938879 100.4335499  64.5807028
  49.1612577  99.4996452  64.7073793  49.3522120 100.8495998  65.3647518
  24.3972373 121.6772556  53.0713844  24.4725108 122.4157429  53.6756992
  23.4636760 121.4658928  53.0665779  25.1249027   0.7461815  71.3274527
  25.4239655   1.3446026  72.0120621  24.2525434   1.0645466  71.0953712
  16.4682937  20.1231366  44.7043324  16.9921076  20.8417683  45.0584984
  16.6263151  20.1539593  43.7607670  18.6571109 144.9807644  83.7803936
  17.9580772 144.5469570  83.2911110  18.2683599 145.8048058  84.0737438
  69.4236279 120.1062012  87.7901649  69.9055767 120.5331993  87.0818996
  68.9919281 120.8242798  88.2530117  33.0174589 141.8994045  85.1040936
  33.1877828 142.5741863  85.7612705  32.2975492 142.2512913  84.5805073
  47.4212837 130.1677990  19.0078211  46.8380499 129.7627163  19.6496797
  47.3225737 129.6304798  18.2218361 109.2708439 141.3959694  88.8830566
 109.9422187 141.7396832  88.2936954 108.6336643 142.1060753  88.9603519
  24.1843200   5.9260731  83.7744141  24.0808487   6.0601788  82.8323269
  23.6998153   6.6485386  84.1738319  28.9685988 141.0594845  49.2019129
  28.2188725 140.8563805  49.7612858  28.7436485 140.6795788  48.3526230
  31.9297576 100.7164478  51.3675356  31.3710880  99.9398136  51.3984060
  32.1197248 100.8380222  50.4372883  17.4443543 129.4445896  13.7479055
  17.9368961 129.8976994  14.4322515  17.9449153 128.6458588  13.5814691
  88.7357807  13.2714920  79.1454744  88.0099297  13.3181076  78.5232210
  89.4988728  13.5611706  78.6454773   8.6626345 138.6287594  91.3536263
   9.5586795 138.7137222  91.6793823   8.4537846 139.4929409  90.9989262
  17.1567869 143.3740807  57.5762701  17.4503040 142.7717781  56.8926716
  16.3407040 143.7418747  57.2371960   7.4359870   0.9239559  87.4848652
   7.8193915   0.1354485  87.1008301   6.4910793   0.7961350  87.4009514
  25.9198236 139.7085190  72.1804953  25.0287247 139.6295452  72.5209951
  26.1289001 138.8342476  71.8515921  56.3983727 142.7921581  27.9381061
  55.5462456 142.3830223  28.0888343  56.1899757 143.6837769  27.6591301
  15.2896059 130.9969997  53.3995819  14.3874097 130.7330322  53.2190466
  15.8223855 130.2804565  53.0546999  23.6893868 135.9533787  61.1098671
  23.6600590 136.8954563  60.9429073  24.2203140 135.6000519  60.3960705
  52.7104616 136.0776234  51.1658001  51.7814398 136.2991524  51.2296677
  53.0038977 136.5052414  50.3612661  20.2067447 103.4081650  71.3882065
  21.0034013 103.7678242  70.9980583  19.5925546 103.3383751  70.6573629
  52.1720362   6.3067990 103.8367081  51.2605476   6.5346032 103.6535835
  52.2604036   5.4053002 103.5273361  39.7245884 137.4849892  86.5528107
  40.1780176 137.5747108  87.3910141  40.3705740 137.0815182  85.9730339
   9.6492034 145.0947762  64.4760799  10.1154399 145.0443459  63.6416292
   9.1292763 145.8959007  64.4119024 116.6858525 131.8485737  78.2486343
 116.3663841 132.6591587  77.8522491 115.9105033 131.2907600  78.3112240
 122.6791117   9.0326577  28.4247375 122.4316395   9.5667820  29.1795206
 122.4690608   9.5776921  27.6664233  45.4038525  97.3895645  32.5204492
  45.2409124  97.2732544  33.4564805  46.3539982  97.4836826  32.4526167
 122.4310083 133.3378792  48.2875061 122.6487759 132.5215721  48.7374496
 122.2946957 133.9709091  48.9924288  15.8184862 126.1543465  26.5537906
  16.5871024 126.6364098  26.2487030  15.1527762 126.8280029  26.6925335
  52.1100330   3.2239037   5.7808820  51.5234804   3.7106114   6.3599340
  51.7490673   3.3600598   4.9048749  68.4408808 122.6404953  94.5725155
  67.8624058 122.3396969  93.8717175  68.9611721 121.8701744  94.8008251
  23.9644384 114.5053005  67.7877474  24.5630479 114.1580677  68.4490538
  24.5268869 114.7154140  67.0422697  11.7194808 138.6900043 100.4232883
  11.8790257 139.1674519  99.6091557  10.7665598 138.6154461 100.4744244
  50.8011341  12.4234562  21.1208558  50.7606459  12.0334225  21.9940495
  50.9862804  13.3489495  21.2802815  18.5798860  13.4578972  25.8619618
  18.3048809  12.8481846  25.1772332  17.9469800  13.3265381  26.5679407
  13.0822122  10.1264267   1.1426699  13.0987465   9.1933327   1.3554871
  12.1582115  10.3195839   0.9841001   7.6293510  17.3250561  36.8953109
   7.0899612  16.6372662  36.5051270   7.1445537  18.1333332  36.7283010
  21.3981962 129.0103912  55.8847475  21.1702871 128.2940483  55.2921772
  21.7491293 128.5757923  56.6620493   7.0419174 113.4731197  93.8238701
   6.5267462 112.9091454  93.2470175   7.8163356 113.6991692  93.3086904
 112.7993805 106.2701035  58.0941343 111.8451065 106.3441658  58.1044245
 113.1105132 107.1614742  58.2518482   9.5130527 135.0748253  10.6904757
   8.7783301 135.6847000  10.7573259   9.4939095 134.5856857  11.5130365
   9.2934310 141.3641453  51.2508583   8.5628188 140.8167267  50.9631634
   9.3451589 142.0588970  50.5944443 117.1181751 116.0450745  21.1302686
 117.3866898 116.6588783  20.4466224 117.5910748 116.3339710  21.9107413
  53.4172297 110.6111050  43.2149696  54.3039370 110.4762840  43.5493422
  53.4676838 111.4329815  42.7269030 107.1953768 145.3009892  36.3204837
 107.1088118 146.2404823  36.4820361 107.8316004 145.0037384  36.9709373
   4.1783455   6.3615399  78.5398769   4.0402332   6.8744831  79.3361473
   3.6952728   6.8354397  77.8629017  10.1737666   1.1198120  42.4943209
   9.2581940   1.1558132  42.2174358  10.1403010   0.7810574  43.3889437
  12.2994733  84.4647026  76.0826969  11.3936281  84.6858978  75.8664751
  12.3540616  84.5792198  77.0314550  62.3362017 109.2955780  49.1995811
  61.9538975 108.6099625  48.6518574  63.1566334 109.5222855  48.7617159
  24.6856642 122.6499081  46.1237383  25.2351069 122.7026749  45.3417158
  25.0478101 123.3090973  46.7158127   4.5173514 130.9961033  33.9295316
   4.5169273 130.0572300  34.1159582   4.7066081 131.0542393  32.9930305
   2.0611703 122.5821495  42.6275873   1.5225837 121.7917633  42.6656342
   2.9180598 122.3038673  42.9509020  21.5749240 120.9747219  52.5777960
  21.1713624 121.5168095  51.8999195  21.0615540 120.1668358  52.5755739
  42.9338360 142.9220486  38.4376264  43.2265377 142.0406914  38.6695290
  42.3004532 142.7863884  37.7328897   2.4124730 132.1308041  85.4655743
   2.4671158 132.6528072  86.2660503   2.0904754 132.7417183  84.8027515
  12.6859999 110.2587891  66.3351345  12.0630562 110.4672432  67.0313501
  12.2448874 109.5899296  65.8114147  26.6021204 144.8539448  39.1947794
  25.8918118 145.0713921  39.7984457  26.8416286 145.6902981  38.7955546
  40.5979633 127.1221447  25.9885836  41.1856556 126.9335651  25.2569485
  40.3537035 128.0399132  25.8691859   1.7803563 116.5917015  44.1152954
   0.9262032 116.2163067  44.3291378   1.6129279 117.1514702  43.3570957
  28.8259745 130.2707863   9.2681843  28.7736964 130.8166313   8.4836149
  28.3101392 129.4934464   9.0539533   4.1270107 131.4371204  56.5786123
   3.2027090 131.1909389  56.6145849   4.5780787 130.7455826  57.0629168
  36.0573006 121.7020416  23.0963850  36.9795179 121.4463043  23.1149602
  35.7899570 121.7012024  24.0154910  47.6836014 123.2918358  23.3147430
  47.4553442 123.8902950  24.0260601  46.9746447 123.3932018  22.6796532
  47.3455477  97.5850868  55.5419111  47.6667595  98.4813786  55.4433870
  48.1204128  97.0376396  55.4149246  38.1156588 141.6707039  69.1389132
  37.7775121 142.5295448  68.8853979  38.3657122 141.7732620  70.0571632
   2.6175880 130.4826641  51.9734859   3.5734391 130.4446888  52.0072365
   2.4203372 131.4037418  51.8033743  11.5886438 108.7028599  53.7799597
  12.3034322 108.5735130  54.4033194  11.4345014 109.6475506  53.7849426
  52.3633480 139.5047188  55.5002689  53.2972240 139.5516014  55.2955627
  51.9266510 139.6449852  54.6601200   5.9587610   0.1307469  69.3300390
   6.8481094   0.3628807  69.5972586   5.5629891   0.9617691  69.0673637
 124.2963923 117.3002434  66.5641737 124.3483567 116.3898563  66.2731028
 124.4276856 117.2567463  67.5113297  47.8611803  18.0673771  30.1133251
  48.2416725  18.0548840  30.9915614  48.4534693  17.5293522  29.5880175
  48.2039261   1.4401226  56.0049295  48.0576038   0.7007962  56.5950203
  49.0435553   1.2500363  55.5864525 115.4553128   1.2189465  35.7787752
 115.4236007   0.2655678  35.8581519 115.6055648   1.5287857  36.6718912
  13.6988902 121.1563206  43.4643602  13.1834042 120.6697559  44.1075993
  14.6014547 120.8789444  43.6214352 115.2245987  26.4827328  46.9148350
 114.8504288  27.3157673  47.2017193 114.6257491  25.8200245  47.2589540
  20.9287691 124.2864704  50.5159855  20.4538560 123.4920502  50.7600927
  21.0067916 124.2356873  49.5633221  40.5644035 103.9849091  37.6694512
  39.8653722 103.5946655  38.1941390  41.3087797 104.0441799  38.2683039
  20.7391238   8.7778263  41.2801743  19.8564172   8.4076577  41.2863970
  21.2725878   8.1176358  40.8376980  36.9896030 139.9993038  56.5833521
  36.9325423 140.3567314  55.6972313  36.1036611 139.6917534  56.7750740
  20.6504536 126.1052704  70.8091354  20.3301215 126.9580364  70.5151939
  20.1932836 125.9495640  71.6355658  14.6272349 138.5297489  47.6732063
  13.8062072 138.5268784  47.1811342  14.5225811 139.2370605  48.3096027
  52.9693127 129.7787666  27.7048850  52.6885986 129.7591877  28.6197877
  52.4783754 129.0703583  27.2885108  11.3688314 122.5374699  45.8601761
  10.6897974 121.8628883  45.8696985  11.5500796 122.7079201  46.7844725
  87.7737159 145.3688717  47.5650644  87.3781294 144.5729160  47.9203081
  87.9122919 145.9289265  48.3288527  89.3190426 132.6873302  42.4677181
  89.7535724 133.5400772  42.4830723  88.7196369 132.7104855  43.2136440
  41.6433764 143.4252548  31.8627644  42.2298622 143.8329601  32.4999785
  42.0624113 142.5911045  31.6510177 122.7900232 134.9524689  21.3033509
 123.5928707 135.4578400  21.1758041 122.1510709 135.3676796  20.7240653
  15.7118285 120.6844234  71.0281801  16.4609826 120.4539680  70.4787302
  15.6557465 119.9738121  71.6670179  45.4400158 135.2957344  52.9936934
  45.0705051 134.7214413  52.3229647  44.7636557 135.9565544  53.1423044
  46.3202286 133.1228542  34.8170233  47.2134018 133.2867813  34.5143580
  45.9143829 133.9892673  34.8460984  11.0499775 129.2456913  25.4539704
  10.5506122 129.1088963  26.2590504  10.4354656 129.0322876  24.7517824
  38.4814382 145.3705025  39.2282987  38.7433410 145.3689766  38.3076262
  39.0647388 146.0066509  39.6421909  17.1787941 121.6960526  20.0668335
  17.1981108 122.1689987  20.8988070  17.9375505 122.0264435  19.5858359
   4.4694662 125.4869175  62.8135681   4.6094492 125.7215500  63.7309456
   5.3103626 125.6611824  62.3907757  20.6324911 116.0878944  75.9132767
  19.9803805 115.7366085  76.5195608  20.6968927 115.4285526  75.2223730
  21.7456508 137.5150490   6.1868167  22.5877953 137.9111958   6.4106399
  21.3227868 137.3582363   7.0311075  10.3621459 130.3588867  29.4773650
  10.4979050 131.0364246  28.8149929   9.5251006 130.5848026  29.8830152
 112.6855499  19.0259152  90.5953884 113.0573625  18.7727337  89.7504807
 113.3571977  18.7866001  91.2340164  14.4872499 117.7210522  41.0548115
  14.9562967 118.4952927  41.3659048  13.9878857 118.0310345  40.2993107
  88.9594907   8.9965515  77.0856333  89.8873157   8.8350563  77.2567844
  88.5379762   8.8994007  77.9395199  36.9368458 106.2765598  47.1669436
  36.2903023 105.5735683  47.1035814  37.2162509 106.4271069  46.2638903
 117.5977410 109.8434162  34.4565153 117.1014882 109.2005920  33.9498138
 118.5132510 109.5967197  34.3253016 103.3854622 142.6447964  27.7279854
 103.4750242 141.8027782  27.2816420 103.7196035 143.2854271  27.1001506
  62.1532106 139.0339851  74.1943121  62.7742290 139.7610378  74.2386055
  62.6619148 138.2679558  74.4601107  49.2858553  97.5249672  77.5847960
  48.3327246  97.4897289  77.5040054  49.5899153  96.7066383  77.1922016
   9.1745174  95.2665806  45.4381466   9.6716404  95.4284763  46.2399530
   8.3999574  94.7855759  45.7295656  23.8922286 125.9308147  33.5268331
  23.4659672 125.3742504  34.1785693  23.5099006 125.6586552  32.6925778
  35.3314924 138.7876511  48.9215279  34.4223762 138.5201454  49.0563536
  35.4411077 138.7929058  47.9706383  60.6185722 120.6532288  33.0344033
  60.8521509 121.5486240  32.7895904  61.4395905 120.1653767  32.9698920
  62.6014757 133.3104229  49.6610975  63.4063721 133.2383060  50.1741076
  62.9015923 133.4231949  48.7591839  52.5196171 122.6239491  37.8693533
  51.9147968 122.5971031  38.6107755  52.1570969 121.9986916  37.2417665
  25.0192857 124.2972660  61.5305614  24.5531821 124.6462440  62.2902918
  25.8410883 123.9605618  61.8876410  51.3820791 126.4613724  28.5641313
  52.2162008 126.0135937  28.7054300  50.7364511 125.9102917  29.0065169
  32.6356244 131.3695145  29.2381144  32.0455217 131.8943596  29.7789907
  32.3484898 131.5352440  28.3401608 116.5328903   0.9335976  48.3334446
 116.4779652   1.4143067  47.5075340 117.4478913   1.0204869  48.6007547
 124.6707994 135.1682281  38.4898639 124.8974959 134.5170021  37.8259826
 123.9633577 135.6773567  38.0942035  29.8770452 140.5748272  44.2601347
  29.7752833 140.7391930  43.3226585  30.1677680 141.4127922  44.6200418
  22.2173262 116.3451290  39.5327234  22.1477199 115.4500580  39.8647571
  22.9959989 116.6998577  39.9617505  87.8850174   7.5573521  55.0264692
  87.3940372   6.9520073  55.5820990  88.1267357   7.0368653  54.2603779
 123.3285785  25.6207447  35.9227300 123.5513787  24.6908169  35.9653950
 124.1565602  26.0730725  36.0842395  35.8850574 144.1291046  75.0462198
  35.4003167 144.8261166  75.4883051  36.0976386 143.5068512  75.7418013
  12.7406836 140.1036549  15.5783224  12.8751695 140.5163860  16.4314318
  12.4798071 139.2061615  15.7849181  35.7979059 129.8812485  43.6343908
  36.2532759 129.1509342  43.2154560  35.0069785 130.0032425  43.1092453
  47.1268415 117.6260090  41.0132933  46.7475510 118.3404446  40.5014801
  47.8567314 117.3107529  40.4802704  49.5458889   3.7080841  32.4198103
  48.6546278   3.8146572  32.0873570  49.7932196   4.5806008  32.7260351
  18.5817039  24.5375614  77.3042393  18.9421713  24.5121365  76.4178753
  17.6415825  24.4032269  77.1844196  58.3304358 101.7551041  39.9478269
  58.5708618 102.6777840  40.0319719  59.1668987 101.2899590  39.9336767
 111.3305194 141.8835354  67.5462818 111.6138763 142.7140522  67.1639347
 112.0602376 141.6156673  68.1048441  16.6879332 136.4173031  64.4119787
  16.8293977 137.0251369  63.6861944  16.3570666 135.6209946  63.9964771
  99.6519846   0.2837162  32.1959853 100.2844209  -0.3187771  32.5874639
  99.9623007   0.4071026  31.2989283  23.0806899  35.7214527  24.5681691
  23.7915206  35.5863171  23.9415193  22.3249459  35.2896672  24.1698623
  64.6812534   7.1043282  44.1708422  65.0917578   7.9439717  44.3775082
  63.7498045   7.2448235  44.3408298  86.5020985 125.1018810  19.5512545
  87.0350117 125.1058674  18.7561321  86.8679256 124.3936920  20.0812244
  13.0140007 143.7753773  39.6924043  13.7386632 143.6530495  40.3057003
  12.3490429 144.2431831  40.1975965  36.6281986  16.6926937  17.8998721
  37.0990944  17.2491627  17.2795343  35.8142972  16.4672261  17.4493611
  49.2184448 137.3563862  30.4612207  49.8552465 137.9114628  30.0111103
  48.6360073 137.9721832  30.9059525  14.4992340 108.0513000  45.0601006
  14.7474349 107.3750114  44.4298124  14.5261431 108.8667202  44.5595026
  34.3365836  98.0975437  53.4115219  33.9773226  98.3681107  54.2564821
  33.6009526  97.6839161  52.9598665   7.8789568 131.9716930  71.4634609
   8.0529350 132.2831726  70.5752373   7.1728241 131.3338661  71.3595867
  10.1325858 113.9036465  40.3237534  10.0364864 112.9653835  40.1604557
   9.3063056 114.1615009  40.7324171   9.9547786 135.7884789  26.3904738
  10.2922893 136.1165047  25.5569744  10.7368219 135.6222725  26.9167924
 123.6838739   0.3140049  48.1721640 123.4654111   0.7870369  48.9751244
 123.7819016  -0.5967731  48.4498596  24.1634631 105.4243851   9.9301374
  24.4422364 105.1333046   9.0619260  24.6746826 106.2171745  10.0925529
 119.1542733 126.7111492  13.1071210 119.5094991 125.9778500  13.6094272
 119.9073756 127.2805023  12.9493034   1.7508404 138.8141823  36.2321973
   1.3142799 139.5879555  36.5884614   2.0472690 138.3302307  37.0030117
   8.6513829   1.0057526  55.3194618   8.2163745   0.1621037  55.1959324
   8.0093277   1.6516857  55.0249147  18.7388277 103.8492393  42.0239687
  18.1655502 103.5724449  42.7387905  19.5604241 104.0864658  42.4540091
  81.4072532  18.6213475  14.5766521  81.2641448  19.5025425  14.2313111
  80.6996984  18.4939175  15.2085996  24.4566965   8.1864720  17.3206401
  24.0507817   8.6246090  18.0686390  24.2522740   8.7490540  16.5736818
  24.1422057 109.1582298  52.3406887  23.9669418 108.2881260  51.9823217
  25.0439668 109.1093922  52.6579809  58.5716963  20.9460240  47.4279881
  59.3664074  20.6444722  46.9878340  58.0940199  20.1431446  47.6364374
  19.1428447   0.8913212  44.0440989  18.1927478   0.7749348  44.0455294
  19.2799306   1.7368298  43.6168289  23.2239485  29.3487339  45.4465628
  23.6485362  29.8418026  46.1485910  23.1967449  28.4479313  45.7691193
   8.4088057 115.7129383  32.1086693   8.6064768 115.8386135  33.0367661
   9.2250711 115.3837967  31.7323613   1.3130456 101.2301826 106.6058391
   0.3815376 101.1757088 106.8192812   1.7417091 100.6811714 107.2623956
   8.8919920   2.0580368  15.7203710   8.1649405   2.5206356  16.1370611
   9.0174830   1.2757950  16.2575638   5.8103549  12.6252346  56.9086361
   5.8288938  11.6759663  56.7870760   5.2905411  12.9507046  56.1737251
  29.7175813 143.4370613  44.8349190  29.6081710 144.2478085  45.3318596
  28.8242817 143.1432343  44.6562719  43.2275677  12.2502404  67.0384789
  44.0811968  12.1965103  67.4682093  43.1928110  11.4756661  66.4771795
  33.7570739   8.5620098  64.0827894  33.1634212   8.7601166  64.8070574
  34.3288469   7.8739148  64.4231129  71.6498089 130.5105305  44.5989943
  70.8607912 131.0523605  44.6090746  71.4398527 129.7927856  44.0015030
   7.2966903 112.5312996  79.7610950   7.7811325 112.4923420  80.5857372
   6.7724842 113.3293438  79.8287344  45.4213142 120.1362801  47.5220585
  45.3464079 120.7815361  48.2250977  44.6931028 119.5333385  47.6717472
  33.4243035 137.5060558  76.0940075  34.0025473 138.0336857  75.5431271
  33.4527588 137.9338646  76.9498110   5.3849924 143.2133198  49.6455860
   5.5410677 144.0696335  49.2473364   5.6477958 143.3227158  50.5594778
  55.6136942 110.9667587  53.5475159  55.3954458 111.4718628  52.7642727
  55.0376320 111.3173485  54.2268324  34.5703053  26.7554074  53.2998466
  34.2026949  26.8806630  52.4249697  33.8068223  26.6941433  53.8739300
  62.5257301 125.6962776   2.9395807  63.3344793 125.9463310   3.3863753
  61.8292141 125.9505463   3.5449299  22.4478579 139.0450668  86.3294220
  23.1580567 139.2193699  86.9470501  22.5019622 139.7593021  85.6944561
  48.4915686 114.6496773  23.1545758  49.2558146 115.0965500  22.7906156
  48.0601215 114.2566109  22.3959064 121.3633276  20.1368695  20.4755664
 121.0173205  20.5432492  19.6809804 121.8274469  20.8439999  20.9236479
 122.3240317 131.3932896  38.3314514 121.4809496 131.0689831  38.0147982
 122.3476008 131.1383724  39.2537832   7.5453693 129.3473148  45.8560991
   6.8395907 129.8288536  45.4245567   8.3153260 129.5118904  45.3117514
  56.9238472 105.9372234  59.5138407  56.3847780 106.7272472  59.4752979
  57.1585321 105.8522511  60.4379225  34.7709727  83.4866333  39.9981380
  34.4317007  84.3767929  40.0915813  35.6164718  83.5042572  40.4465246
   8.5601300   1.1488419  62.2577286   9.4212592   1.3317280  62.6335478
   8.2745284   1.9870072  61.8942213  14.6906495 115.1158333  48.0916452
  14.7312224 114.2283916  48.4480810  14.6620989 115.6824970  48.8625526
   9.3218344 131.2551594  18.8488328   9.5942587 130.8666897  18.0175054
   9.4248039 132.1977520  18.7178874  34.4929242 132.4920559  20.9495878
  35.3325367 132.7255726  21.3455081  34.7147918 131.8406963  20.2841997
  12.2144794 114.6621037  64.3671036  12.3230338 114.6501541  65.3180504
  13.0493593 114.9919796  64.0348530  41.5276670 136.0925484  55.2530003
  40.8952475 136.7535782  54.9713850  40.9910870 135.3823471  55.6050396
  48.0125237 119.6174526  57.1353817  47.9258871 119.6351910  56.1822796
  48.1187534 118.6904621  57.3490191  13.5129809 112.5232220  29.1340566
  13.3437610 112.1832085  30.0126839  12.6436567 112.6956081  28.7724066
  10.6614470 122.9402828  42.5594902  11.1388278 122.2458267  42.1055460
  11.0947251 123.0123234  43.4099674 120.0276596 133.7882996   8.5392797
 119.4550324 133.2680035   9.1028661 120.8419797 133.8703728   9.0356439
  18.2842135 126.7661381  50.9439611  18.2331586 126.1246490  51.6525602
  19.2015040 127.0394707  50.9339571 108.8494617 144.9990654  48.6637497
 108.9818770 145.0638962  49.6095276 107.9140014 145.1607323  48.5412312
  18.8189328 142.3589802  26.8676829  18.4900105 142.8135872  27.6431632
  18.3918703 142.7992249  26.1328149   6.8653882 127.1843338  68.4024477
   5.9300768 127.3876476  68.4118986   7.2382891 127.7404022  69.0865326
 115.1042152  27.3053913  24.9654627 114.7636480  28.1824093  25.1418209
 114.5611209  26.9771939  24.2488289  40.2759123 132.8303051  30.2736640
  40.2109098 132.0452213  30.8173919  39.6681976 132.6722908  29.5512056
   7.4525499   9.7644024  22.7741957   8.2969302   9.6899777  23.2188463
   7.3254359   8.9121704  22.3573327 112.3886198 112.7036285  49.8842192
 112.0930452 112.4278545  50.7518721 113.3395690 112.7752113  49.9666882
  43.0309868 131.3786983  36.6930890  43.7654686 130.7776165  36.5687156
  42.7563715 131.6082382  35.8053255  21.5264750 140.7297230  52.4506378
  22.0269251 141.2265873  51.8034124  20.6453967 140.6739140  52.0807457
  37.9802608 142.3021603  42.3718929  38.3568311 142.8807640  43.0349541
  37.0780134 142.1632290  42.6597834  59.1124487  90.6781006  39.4755912
  59.1503096  89.8507595  39.9554944  59.5153522  90.4828930  38.6295438
   8.5423779 114.1000938  48.0319309   8.8516086 114.1798496  47.1295738
   9.2364079 114.4962120  48.5588503  10.5038106 121.8045425  39.9847221
  10.4693520 122.1615028  39.0972400  11.3913894 121.9980049  40.2863979
  55.7198000   0.8041363  80.9869957  55.5468082   1.5138512  80.3684330
  56.3460636   0.2392273  80.5343342  23.7540865  -0.2517147  57.6678753
  24.0229273  -0.1340122  58.5789728  23.3037543   0.5626946  57.4439096
  39.1221094 138.8034344  69.3457985  38.9343810 139.1975307  70.1976681
  39.0817380 139.5346928  68.7294769  31.3343954 116.6261578  81.8587971
  31.3285208 116.0645008  82.6338673  30.5080438 117.1070194  81.9052029
  41.5166712 111.0187149  55.0894833  41.4236069 111.9306755  54.8139906
  40.7858562 110.8743191  55.6905603  28.1915140 100.4263496  32.7148867
  29.0869498 100.7644463  32.7041793  28.2223773  99.6488762  32.1573710
  48.5013676 101.0388470  24.5555615  48.8846302 100.8640575  25.4150915
  47.9103947 101.7773438  24.7025251  26.1518383 130.3845596  46.8121958
  27.0193267 130.1697636  46.4693308  25.5437207 130.0390339  46.1587143
   2.0763914 136.6007328  41.1972666   2.6201457 136.1332703  41.8313360
   1.3727194 136.9834518  41.7212963  23.9238405 144.5273399  55.1998520
  23.0569482 144.3692112  54.8260593  23.7998271 145.2750587  55.7844639
  46.6542244 127.7221298  54.3677378  47.4731016 128.0280113  53.9777327
  46.5067959 126.8630219  53.9722204  60.3270960 111.3006496  48.6793947
  60.9899330 110.7679176  49.1188002  60.7258940 112.1678352  48.6074352
  41.0994291 141.7163277   6.7787462  41.9763517 141.5188408   7.1077442
  41.0738039 141.3157654   5.9097636  52.1766376 120.8668804  23.7283492
  51.6027641 121.4514065  23.2331443  53.0592918 121.0923100  23.4345293
  30.5096102 132.3759842  60.5067587  31.0140586 131.7635441  61.0421801
  30.5479622 133.2025719  60.9879255  10.5831909   4.7020798  49.0074062
  11.3530600   4.6916752  49.5761108   9.9577278   4.1210633  49.4403553
  22.9289246 118.4246349  54.5534515  23.0757785 117.4794483  54.5892811
  23.7177372 118.7740326  54.1388083  19.5010638 119.1819096  51.2676620
  19.9370575 119.6121025  50.5320835  19.0578079 118.4291553  50.8763599
  33.0334496 141.1256027  66.9909668  32.4850225 140.3412819  66.9735241
  33.7782240 140.9096050  66.4298153   5.9387583 138.7479305  62.9554129
   5.1708609 139.1506767  62.5500011   6.4808923 138.4693909  62.2173500
  44.8345280 143.5230637  20.3735399  45.6598330 143.1369877  20.0802088
  44.5240784 142.9320621  21.0595179  20.5463004 133.8339901  66.8835163
  19.6255445 133.5747910  66.9189453  20.9877110 133.2324219  67.4831009
  28.7608290 116.4450836  32.1338868  28.2630372 116.1122227  31.3871360
  28.1766152 117.0809650  32.5469017   1.8479870 138.0839825  56.8965197
   2.6915079 137.9442787  57.3268509   1.5859339 138.9650631  57.1634626
  35.4691243  20.4954319  40.0746584  35.9166336  19.6949559  39.8004198
  35.7759142  21.1634045  39.4615293 106.8265051 110.9459305  25.7723308
 107.4682910 110.2930450  26.0517573 106.2420661 111.0442829  26.5239906
   2.4909762 129.0009975  40.0714874   2.4260098 129.3640423  40.9547806
   2.3804462 128.0577946  40.1914692  36.7022705 126.6891956  57.3664236
  37.1121764 125.9646320  57.8388739  35.9172201 126.3062191  56.9749403
  16.0648322 129.3911552  28.0443358  16.0570705 130.2007961  27.5337982
  15.2969754 128.9080715  27.7389574  10.7325923   9.7691899  72.7709055
  10.3578293  10.6391316  72.9087210  11.1661625   9.5613175  73.5985708
  18.2142961 117.1354961  49.5657110  17.5153553 116.8217850  50.1395607
  18.2978320 116.4561653  48.8965654  24.2194057   2.1280842  43.3746433
  24.4284916   2.6595097  44.1428232  23.2668328   2.0371132  43.3984089
  38.4766507  83.2020187  41.4615250  38.8415384  82.5514698  40.8616257
  37.6676345  82.8041267  41.7830944  39.9804211 101.4960194  62.3456717
  40.1681566 102.2928810  61.8496895  39.2860436 101.7502308  62.9534960
   7.1183836   6.5957623  36.0760927   7.5726455   6.9672661  35.3198767
   7.5620228   5.7629090  36.2366033  26.3350034  17.7509098  18.5504293
  26.0973167  18.6697369  18.6749780  26.5247035  17.4309140  19.4323862
 124.4370604 142.6868725  43.8445091 125.2808041 142.3497486  44.1456318
 123.9532334 141.9087315  43.5676718  38.9147902 126.1669827   8.7503529
  39.2257738 126.6123772   7.9622269  39.6654296 125.6521130   9.0464723
   0.0795533 129.0131760  29.5722699   0.0281458 128.2761288  28.9637113
   0.9361698 129.4049644  29.4021297  35.4893732 142.9081154  43.4900570
  34.7330856 142.3253632  43.5582733  35.9134984 142.8513336  44.3462849
  16.3442016 109.8697090  33.6998034  16.2305689 109.1673279  34.3401051
  16.6347575 109.4238186  32.9041958  25.0186801 128.6475563  63.0738783
  24.5208073 128.0309296  62.5371027  24.4193578 129.3804646  63.2149363
  27.4480343  13.4182244  23.9467168  28.2136059  13.7575703  23.4830713
  27.0859551  14.1793232  24.4004130  47.7443838 123.1664944  12.9353213
  47.8274965 123.9550877  13.4714568  47.9701614 122.4492741  13.5276508
  52.4875164 130.9052277   9.3259925  51.9761562 131.7139339   9.2987025
  52.7510309 130.7577133   8.4176797  28.9781046 136.6213989  26.1378622
  28.7027335 136.1144447  26.9016695  29.1361141 137.5016975  26.4789414
   1.7408171  10.7783776  52.7662992   2.6411918  10.8109074  52.4430370
   1.4269049  11.6795712  52.6918793 122.8350765   7.3583012 100.5315014
 123.2365479   8.1273823 100.9359326 123.3588495   7.1997624  99.7461601
  43.5360527   4.2003136   7.0218498  43.3659124   4.4933300   7.9170734
  44.1166544   4.8683911   6.6574329   0.5618994 128.9697456  37.8213406
  -0.3066351 129.1207218  38.1942844   1.1636228 129.3825150  38.4408474
   1.6881453   8.7943535  54.7640562   1.3507596   9.3467884  55.4691887
   1.9519785   9.4115334  54.0816259 108.7039954 126.4331532 102.4106439
 108.8425428 127.3748779 102.3096611 107.8330929 126.2786007 102.0447549
  16.1276662 124.4047165  19.4866252  16.4316320 123.5623360  19.1486251
  16.5502059 125.0546455  18.9251268 117.9198969 136.5216446 109.3925054
 116.9966907 136.5906620 109.6357292 118.0806053 137.2882748 108.8423473
  38.5289049  92.0328140   0.4040932  38.3052683  91.8889809   1.3236207
  39.3900061  91.6277599   0.3008370   3.9172372 111.5208244  18.5928380
   3.1132653 111.6574860  18.0916548   3.6178562 111.3701630  19.4894445
  31.1426902 131.5511513  18.1537485  31.4705205 132.4456596  18.0609620
  30.4722619 131.6111565  18.8343036  58.2075500  12.6513081  33.7151933
  57.9371548  11.9576626  34.3168378  57.6984549  12.4910717  32.9205990
  27.4887395 107.3126125  40.3700352  27.8647232 107.1001434  41.2242746
  28.2414436 107.5549126  39.8306274   3.2608482  10.0441914  30.3432322
   2.3934975  10.3986912  30.5388403   3.4050873  10.2589016  29.4216418
  25.2703071 124.8666954  47.5908899  24.6934509 124.7853565  48.3503962
  24.9144173 125.6059742  47.0979023  39.9807668   0.0593930  65.1679993
  39.8183012   0.9314423  65.5276680  39.3795252  -0.0096531  64.4263983
  18.2809186 113.2686138  35.3248143  17.6108086 113.1147099  34.6588588
  17.8821433 113.8990307  35.9246373 120.2483884 119.8048306  37.2664380
 120.2269900 120.3418636  36.4743733 120.9693111 119.1921711  37.1210146
   6.9249636 133.1029797  45.6296921   7.7697843 132.8031063  45.9652328
   7.1313894 133.8966084  45.1359606  43.8104391 136.6878891  86.9693264
  43.5628843 136.3708591  86.1007413  43.6227560 137.6261711  86.9442924
  40.2583933 135.2653599   9.3594712  39.5835018 134.7217846   9.7660083
  40.6533575 135.7425213  10.0892317  29.8248506 125.7787323  70.5033302
  29.6062040 124.9972248  71.0109520  29.0738440 126.3600063  70.6230974
 122.9520719 104.8422241   9.8328030 122.5375522 104.7794437   8.9723009
 122.4106765 104.2932987  10.4000783  49.0431786 116.1625862  39.2480040
  48.7213278 115.2663040  39.3445659  49.9719334 116.1091518  39.4733810
  18.7294674 146.1456966  37.5496101  18.6242032 146.8264103  38.2142830
  19.0765166 145.3938198  38.0296731  16.8692505   2.7591496  50.3924561
  16.1372089   3.1565552  50.8640623  16.6507244   2.8768044  49.4679880
  24.0619588  21.5724926   8.2329440  23.4258413  22.2753697   8.1004179
  23.5510373  20.8543187   8.6063218  56.1101103 124.1348743  31.7181683
  56.5256119 124.7773552  32.2933221  56.8222570 123.8114357  31.1663842
  34.7833490 117.8348255  10.1173007  35.2991915 117.5338459  10.8653319
  35.3458786 117.6765060   9.3591934  32.3132682   6.5435009  89.2106947
  32.0123672   5.9376316  88.5334858  32.0699191   7.4092465  88.8828143
  12.0356405 101.4203930  10.7476366  11.6495764 100.8005142  11.3664556
  12.9060125 101.6020679  11.1021471  33.0811238   5.1842003  48.5748863
  32.2268271   5.5307465  48.8323927  33.3500147   4.6371346  49.3128920
  32.4031067  15.4561596  31.8148804  32.7116346  16.3261776  32.0680690
  31.4486933  15.5218487  31.8466973  19.6918154 110.6910706  36.6779971
  18.9797723 111.3219738  36.5722871  19.3481183 110.0427818  37.2926784
 119.9562252 145.4647064  49.6071625 119.5005584 144.8443031  49.0382195
 119.9687687 146.2819290  49.1089344  20.1548338  15.6899243  32.2610259
  19.2071283  15.6942540  32.3954391  20.4048061  16.6135006  32.2880578
  22.6104832 113.8077736  40.9613419  22.6864338 114.0296650  41.8893671
  23.1634784 113.0338764  40.8540773  13.6053646 100.8459377  23.8168311
  14.4370687 101.2626266  23.5912871  12.9511106 101.5330601  23.6901784
   4.1368130   3.4674244   4.8491439   4.3468487   2.5370674   4.7682312
   3.2523412   3.4823685   5.2148187  62.7051640 113.5323620  42.4810743
  63.2381392 112.8625965  42.9095411  62.5394297 114.1806412  43.1655407
   9.3354481 140.0670910  20.0516582   9.8186249 139.2478561  20.1594687
   8.9111775 139.9843121  19.1976237  15.4066324 115.6311607  44.6696281
  14.6273768 115.4437065  45.1929426  15.9236705 116.2248325  45.2141047
   4.1035059   7.2727566  30.9007406   4.0876505   7.5869160  29.9967027
   4.0165633   8.0648308  31.4311099  45.6173420   1.4856510  34.0131831
  45.9723282   0.9638577  33.2934928  45.9413195   1.0546093  34.8040533
   6.3308078  16.8166333  29.7097182   5.3760368  16.7620449  29.7505045
   6.6158324  16.7092495  30.6171656 113.1511003   9.9196701  34.2510700
 112.6160020   9.1560154  34.4672322 114.0524835   9.6252518  34.3816662
  37.7741957 118.6324501  22.9806399  37.5396323 118.0805969  23.7267399
  38.6095667 119.0284061  23.2288551   0.8840639 119.1837502  62.3251772
  -0.0174655 119.4411278  62.5181341   0.8150341 118.6390018  61.5411377
   8.8858175  20.8435421  68.8808974   8.6920738  21.6631298  69.3358573
   8.4744954  20.9431820  68.0223426  19.5834649  31.9012814 103.3008166
  20.4340529  31.5438824 103.5557505  18.9904296  31.1503964 103.3274659
  39.5051003 141.8979359  32.8191304  40.2392530 142.4900150  32.6557374
  39.0138888 141.8930912  31.9975948 111.0291595 117.9904366   3.9186612
 110.6125767 117.2738171   4.3973571 110.7488329 117.8674889   3.0117252
   2.6513529   0.0283795  20.9287262   1.8836939  -0.4188366  20.5724573
   2.7988130   0.7627182  20.3327060  32.4633288  98.6520672   3.5783613
  32.9503489  99.0892601   4.2768618  32.0112205  99.3613243   3.1214368
  21.0223794 143.7226868  49.7886705  20.5067968 144.3645573  49.3004036
  21.2558198 143.0591679  49.1394520  10.1859081 133.1464195  53.2026100
  10.9199011 133.5823441  52.7696466  10.1034486 133.5951233  54.0440989
  29.1929245 111.9204330  12.7930307  28.2856512 112.0187855  12.5042140
  29.5085883 112.8176498  12.9007304  28.6860800 123.9708996  17.6360786
  29.1512418 123.5664463  16.9037724  29.2141294 124.7367668  17.8615761
  55.6436777 130.6738281  42.6604128  56.1901426 130.9263420  43.4046173
  55.7996798 131.3552856  42.0065737  29.4844604 102.5831985  82.0524391
  30.0023770 102.5282097  81.2493380  29.5512867 103.5003281  82.3182162
  24.5250583 123.5371590  13.3805096  24.8632741 122.9572582  14.0628254
  25.1367712 124.2732620  13.3669043  33.2502055 105.3503036  33.4836698
  32.3459053 105.0366592  33.4733486  33.3983374 105.6243801  34.3887472
  30.6378865  13.0720978   9.7011375  29.9413967  12.8148728  10.3052640
  31.4129424  12.6080304  10.0176036  32.2592759 101.5679646  54.9704170
  32.1622539 102.2846222  55.5974960  31.3992524 101.4935207  54.5568371
 123.0075537 146.3709354  34.8453355 122.2226951 145.8292866  34.9281311
 122.9234103 146.7848206  33.9863563  57.6912212 122.0214653  94.9963852
  57.3367548 122.8345013  95.3563412  56.9575691 121.4072895  95.0242385
  43.7479591 115.1315117  21.7038655  43.6141014 114.4482803  22.3607659
  43.0592346 115.7722473  21.8809319  27.8053331   1.9896489  31.2268186
  27.4539495   1.3068848  31.7983055  28.5215950   1.5630894  30.7564449
  12.4633181 103.8213062  19.8463142  11.5478158 104.0810204  19.7431684
  12.8989112 104.1641331  19.0659523 117.4973518  36.7890148 106.2775072
 117.4852211  37.5490170 105.6957259 118.3844966  36.7765026 106.6367417
  72.2922945  87.5890160  20.2792144  72.0902014  87.2745514  19.3980217
  71.5978050  87.2253418  20.8284450 116.4315320 111.4478493   5.6439197
 117.1891851 111.4914227   6.2272668 115.8274151 112.1066570   5.9863234
  41.5685463 104.6736717  50.3906155  41.1626196 104.2605400  51.1526966
  40.8908129 104.6484852  49.7151279  45.8805799  99.9681759  40.5653572
  45.7041597  99.5807743  41.4226961  46.2769032  99.2590523  40.0590849
 112.5067551  93.2520008  52.3629045 113.0720682  93.7018204  51.7349577
 111.6528518  93.6721706  52.2602463  42.8379822  97.7753067  31.2443995
  43.7116957  97.6198959  31.6031504  42.7234745  97.0890999  30.5869532
  30.8930278 139.2339325  16.3410020  31.2647486 138.4126472  16.0192323
  30.5993533 139.6893024  15.5519378 123.3104768 139.8208141  43.9904690
 124.1238002 139.6562672  44.4676065 122.6757038 139.2234421  44.3859863
   6.5125740 135.0473213  26.3367581   7.0218974 135.6081200  26.9218421
   6.1142242 134.3968964  26.9151163  19.8765898   0.2018051  26.4382935
  19.5038342   1.0516053  26.6730785  20.4032087  -0.0468654  27.1979451
  28.4816241 138.4635925  17.5025487  29.3221450 138.4636688  17.0445561
  28.5404801 137.7270126  18.1110084   6.2040591  19.8637944  22.3551750
   6.3720965  20.7437115  22.6924086   6.1136144  19.3204861  23.1380343
  59.1526699   1.4087181   2.9472139  59.2381239   0.7460099   2.2618335
  59.8479891   1.1993485   3.5708517  27.0308518 131.1560917  17.5241542
  27.1650147 131.1243916  18.4713745  26.2993360 131.7620277  17.4060082
  41.1230993 130.3460121  12.6556480  41.6023302 129.5720577  12.3597431
  41.2540579 130.3608418  13.6037302  32.3013616   4.3990498  42.7197313
  32.4021196   5.1918393  43.2465887  31.4470172   4.0498333  42.9734516
  35.3856945 131.2123299 100.3641500  35.0009084 131.0260582 101.2205818
  35.0778675 130.5003452  99.8033001  41.7857122  25.2003079 109.2817105
  42.0755768  25.4744702 108.4116221  41.0407829  25.7690602 109.4762363
  19.6540785   3.4219628  50.1868391  20.0865364   2.8165989  50.7891226
  18.8244331   3.6337071  50.6147242  26.1452365   9.0390282  21.9463038
  26.1754060   8.3918362  21.2416983  26.7315006   9.7374611  21.6552567
   9.4589269 126.4408016  14.2755461   9.5555156 126.0151291  13.4236622
   9.9990070 127.2285461  14.2122805   1.9691014  26.5058117  11.8085802
   1.6443011  26.2962895  12.6842713   2.8805196  26.2133961  11.8148589
  48.8589859 109.0339947  50.4347658  49.1248083 108.7445545  49.5619583
  48.6950016 109.9719048  50.3364563  22.8472233 133.2981205 101.6803559
  22.3715138 132.6169872 102.1557470  22.7303338 134.0864182 102.2105911
 121.1239169 144.1430855  51.8030834 122.0293227 144.3880177  51.6120863
 120.6301621 144.4345665  51.0366106  10.8890319 119.0046501 108.3392785
  11.6209900 119.5557308 108.6163738  10.1138043 119.4400501 108.6937928
  48.9087629 127.6546764  29.9134994  48.8878345 126.7725658  30.2845526
  49.1131020 127.5204468  28.9880490  36.7554832   7.3483830  13.7411678
  36.5467715   7.2335129  14.6682477  35.9555364   7.7087002  13.3584273
  39.3505192 123.1054783  31.3303709  39.0989900 124.0087032  31.5231109
  40.2692318 123.1634808  31.0680151   7.0460808 123.3269405  52.3569345
   7.5209898 122.4981785  52.4189711   6.4548451 123.2091141  51.6134357
 122.5425085  29.3413334  17.3704493 122.7961913  29.8063259  18.1677318
 121.8988583  29.9141865  16.9535887   4.9476853  28.8331395  65.7547474
   5.6148243  28.1467991  65.7652187   5.4452747  29.6504765  65.7306623
  55.9310246 119.3427086  10.1632774  56.7197132 118.9614201   9.7775149
  56.0133553 120.2818680   9.9976408  30.6715679 114.3202114  12.8610110
  31.2772870 114.8949146  12.3929834  30.8385825 114.4989014  13.7864327
 123.7752722 116.5556526   7.9870683 124.0798227 116.2123871   8.8270986
 124.1833328 115.9872150   7.3339254  16.5814555 119.5731640  33.9115024
  17.0595336 120.3989792  33.9869761  17.2099304 118.9676476  33.5183001
  25.2144694 132.5975227  99.2188533  24.8104024 132.4541187  98.3630522
  24.5013571 132.4708271  99.8446717  11.9521248 143.1738281  29.8248172
  11.3782573 143.9200687  29.9981356  11.4289451 142.5924397  29.2730045
  39.6746778   7.3093014  29.3024302  40.2087307   8.0745488  29.5155191
  40.3070450   6.6439991  29.0309095  25.4753208  99.5052433  21.9581747
  25.6558108  99.4504929  22.8966069  24.8588777  98.7923431  21.7908430
  15.1152098  92.5575638   9.8225886  15.6697893  93.2070255   9.3902946
  14.8028660  92.9975414  10.6132197 117.5812281 102.6222515   1.1245594
 118.2620091 102.5711250   1.7954955 116.8980432 103.1654930   1.5174623
  41.7506456 125.8942699   1.1007226  40.7949352 125.9065342   1.1527289
  42.0323563 126.5784931   1.7079328  17.4577880  96.9748688  28.3174157
  16.6331351  97.3781204  28.5886383  17.3111796  96.0349655  28.4238243
 117.4497063  29.1157132  42.9930067 117.4335063  28.2043820  42.7006721
 116.6179109  29.2350369  43.4513855  40.1719189  92.4069023  23.0833888
  39.6721053  93.2229328  23.0607367  40.9518909  92.5891399  22.5593042
   2.1253990   6.2263756  19.0997016   1.9479798   7.1617680  19.1986811
   1.7083994   5.8217030  19.8603463  31.7308283   0.9737473  33.7857366
  31.9176388   1.5861016  33.0741549  31.5729356   0.1377659  33.3470535
   6.1555517 144.5225525  64.1277981   5.2550131 144.2446899  63.9603138
   6.0863280 145.1261234  64.8674917 117.3470200 144.6691895  29.9937177
 118.0403633 144.1569805  30.4098296 116.7392708 144.8718739  30.7049084
   9.1281861 137.9335022  12.3482835   9.2111230 138.1993198  13.2640851
   8.1880140 137.8081322  12.2194779  30.4391479 137.2550964  62.4396896
  30.9392977 137.7734470  61.8092918  30.5147147 137.7396297  63.2617283
  18.3698082  89.8410606  26.2741160  18.9145732  89.1293907  25.9379625
  18.8057804  90.6386471  25.9740996  16.7683482 133.3965588  52.5361729
  17.4639773 133.2053566  51.9070673  16.5632629 132.5492096  52.9313660
   1.5029554 133.6885071  60.5628920   1.0079964 133.5453033  59.7562075
   2.4119946 133.5118103  60.3207016  37.0442200  88.4235096  19.1358471
  37.0376587  87.4954796  18.9014149  37.9692841  88.6687279  19.1171575
   4.1587630 136.0466862  43.1516266   4.0482786 136.9636917  42.9003859
   3.9791444 136.0326004  44.0917206  27.8122592 140.9134197  31.3850379
  26.9099832 141.2271881  31.4456558  27.9903626 140.8764553  30.4452801
  18.9925551   4.6878319  36.1102557  19.8620141   4.5365315  35.7396078
  18.8279510   5.6191235  35.9625006   8.2761347 135.5464745  32.5031757
   7.5754321 135.0428772  32.9174566   8.2682538 136.3879490  32.9593539
  11.9565678 123.5142040  20.1796317  12.4768007 123.6923313  19.3961394
  11.1728191 124.0535641  20.0744653  12.2669911 129.3939781  21.0707498
  12.4811673 128.5426044  21.4522433  12.6205480 130.0305843  21.6920042
  43.6301422 139.6836567  99.9125769  43.7076378 138.8692760 100.4095867
  42.6936769 139.8815918  99.9216499  24.4059205 135.1619053  11.1227381
  23.7600374 134.5906258  10.7071459  25.0899792 135.2704620  10.4620492
  54.0205002   9.2805939  14.3693042  54.8080397   9.7801285  14.5849025
  53.8203764   8.7924366  15.1679802  44.6028900 103.8714123  27.7569461
  45.3162718 103.8463974  28.3946705  44.7145844 104.7079468  27.3053217
  24.4766998  18.7714939  39.7003174  23.9805508  18.1571369  40.2412653
  24.7254372  18.2637387  38.9279604  12.5847220 133.8369560  26.1686468
  13.1080091 134.5013046  26.6170287  12.9462779 133.8048649  25.2829385
  13.8215995   0.4417401  32.7439237  13.2320940   0.9342747  33.3149981
  14.6775341   0.5102902  33.1668973 109.7430152 140.5892563   5.4810166
 110.2227241 139.9484730   4.9561262 108.8738961 140.2042675   5.5934775
  24.1633677 126.8205929  21.4442396  24.4931078 125.9905434  21.0999775
  23.2912946 126.6115475  21.7789316   8.6457235 123.7265015   2.8310251
   7.9552221 124.3872356   2.8846252   8.6387640 123.4465027   1.9157206
  50.4485559 123.1771660  23.6240077  50.8979702 124.0149975  23.5130668
  49.5222187 123.3840275  23.5001564  55.2230787 120.2571678  12.9076338
  55.2793407 119.8992443  12.0216572  54.2972660 120.4724121  13.0206537
  82.0945454 128.4917641  51.4963579  82.9533863 128.2014561  51.1892176
  82.2206306 128.6681080  52.4286890  37.8568101 118.7720680  29.7777891
  37.1364188 118.1417847  29.7811532  38.4245968 118.4906864  30.4951978
 102.6067705   5.3074246  49.9742937 102.4924249   5.0285797  49.0657806
 102.0017976   4.7571163  50.4716873  15.5475748  17.6951008  39.8655200
  15.6388319  16.9389325  40.4452562  14.6274638  17.6850872  39.6018386
   8.1926066   0.7019024   7.3817778   8.7362355   1.0972004   6.7002815
   8.5963994   0.9824734   8.2030350   3.3340108 133.8115597  35.3783822
   3.4228519 133.0653572  34.7854924   3.3543760 133.4254837  36.2540317
  22.9411721 125.3175640  18.5113847  22.5650287 124.6874142  19.1259229
  23.3726931 124.7778511  17.8490186 118.8994277 141.0567284  36.4829659
 119.4117135 140.3951645  36.9478559 119.5529855 141.6558933  36.1222672
 119.3540025  32.7789288  26.7870712 119.3474603  32.6185398  27.7307129
 118.9792908  33.6544209  26.6903400   0.8389146  10.9832650  16.7669082
   1.2802416  11.8071156  16.9736433   1.5120517  10.3137760  16.8889415
 123.9812546 137.9142380  12.2386944 123.2403026 138.0583382  11.6500890
 124.6561989 137.5243568  11.6831076  36.2120724   0.2054959  44.6890068
  35.8160329   0.5761700  45.4776716  37.0815730   0.6036263  44.6478319
   7.4042350 119.7925186 108.2691019   7.4214548 120.1483822 107.3806786
   7.1608841 118.8738918 108.1544771  26.3584471 133.7663937  24.5511699
  26.1904311 134.6296978  24.1734004  25.8455873 133.7546539  25.3592968
  49.1204214 129.0156651  24.8158145  49.3545103 128.8729095  23.8987231
  48.1632614 129.0234470  24.8202729  44.1938782  10.9710484  18.0959857
  43.6318588  10.3359394  17.6521373  43.7381697  11.8066006  17.9939497
  68.6861420 115.3924370   3.3277586  68.6939383 114.8798656   2.5193980
  68.3822155 116.2593269   3.0587593  91.5041346 142.2589588  96.5396329
  90.9039921 142.0096588  97.2424182  90.9474391 142.6892853  95.8906766
  57.3804140   2.5896244  35.1833844  57.3988008   3.4160118  35.6660700
  56.6936493   2.0778447  35.6107736  15.8266699 138.5488129  15.5306327
  15.3345656 139.1253376  14.9460900  15.8131075 138.9970207  16.3763058
   1.4410399 139.4366360  33.5925961   0.5438786 139.7442722  33.4633970
   1.4659847 139.1471863  34.5046425  37.0611811 145.8673859   7.7139217
  36.8642402 146.7881966   7.5419927  37.9098821 145.7218742   7.2958732
  39.2180991 123.3073425  17.5473678  39.5275617 123.5130024  16.6652286
  38.9596200 122.3868179  17.5019753  17.6077926 138.5788441   4.0899464
  17.0667827 137.8373528   3.8184166  16.9948530 139.1805267   4.5124573
  63.2557201 120.0068665  42.7861071  62.7598763 119.3992043  43.3348513
  62.9011774 119.8788929  41.9062424  37.5556087 138.1557560  15.6282187
  37.9679966 138.4279156  16.4480329  38.1361341 137.4782753  15.2814627
  22.3959231 105.5950165  46.4952374  22.1709657 105.0435925  45.7458687
  23.1815767 105.1904297  46.8630505 123.1569812 113.5144424  63.2183886
 123.6990456 112.9686069  62.6487780 122.2910208 113.4998322  62.8107977
  13.5963714 131.5093040  30.2073503  13.9636004 131.6931152  29.3427181
  12.6538754 131.4367485  30.0567818  31.9271922  13.5543614  23.8280439
  30.9996605  13.4685021  24.0483761  31.9339776  13.7432080  22.8896785
  24.2691660 118.7611485 104.0287509  23.6878872 119.5180321 103.9547297
  23.8633943 118.0926323 103.4767761  18.7067413 131.3033485  12.2408211
  18.1697857 130.5426025  12.4625659  19.0927386 131.5749931  13.0735564
   4.1044563 144.4797039  32.9088330   4.3011650 143.9728355  33.6966300
   3.7675336 145.3129578  33.2380605  37.2055817 138.7030029   9.4177091
  37.8355670 138.7643719  10.1357496  36.3610554 138.5766220   9.8501855
 111.4111537 133.6583138  82.4096107 111.6859693 132.8952885  82.9180336
 111.2465090 134.3362141  83.0650330  29.4416046   1.0801678  54.1209793
  30.0383711   1.3073140  53.4078789  29.8521757   1.4483624  54.9033499
  31.5472102  99.1855240  16.6986299  31.8796182  99.6838188  17.4452507
  30.5963159  99.1962051  16.8077910  19.4332767 125.2696896  30.4219079
  19.4550037 124.4173241  30.8569098  18.5017967 125.4776382  30.3488564
  19.7720087   7.1570950  37.5909424  19.1231298   6.7680149  38.1772876
  20.5847311   6.6927700  37.7912259 122.6614629   0.9190541  98.3048614
 122.7294759   0.6110649  97.4011191 122.8028846   1.8639927  98.2471582
 102.4779910 131.9430637   6.6105938 101.7438692 132.1033001   7.2035700
 102.2806496 131.0972691   6.2082076  47.7749538 118.8772011  11.7982054
  48.4172487 119.5866776  11.8166912  47.9381132 118.3853817  12.6030171
  53.7159586 130.4247475  54.7708750  53.2913923 130.9015465  55.4840612
  53.6838627 129.5077229  55.0433874 105.4842264 133.9144707  29.8469615
 106.1588973 133.6671066  29.2146134 105.4958565 134.8716068  29.8475146
   6.5914977  27.9096394  31.6108561   5.8484095  28.2933789  31.1452317
   7.2919136  27.8778248  30.9592152  17.6873708 127.9114819  21.1874652
  18.3057165 128.5473347  20.8275080  18.0545080 127.0598125  20.9506059
  31.0121393 125.7894897  28.0256891  30.6783295 125.4692364  28.8636875
  30.4069018 126.4885235  27.7781582  61.0648394 109.4512463  77.2541046
  60.9881878 108.5131645  77.0799112  61.3562250 109.5027924  78.1644154
  74.1544056 122.5126553  45.0682974  74.9375248 121.9929695  45.2496433
  73.8419294 122.7841091  45.9313726  21.4141488 105.3717327  31.5455246
  22.1519232 104.8591423  31.2151098  20.6408334 104.9399662  31.1824918
  22.1767259 125.8634949  23.7601209  22.0389533 126.7555046  24.0788317
  22.8180289 125.4896164  24.3644190  56.7849827 107.2259140  95.7699093
  57.3749781 106.4826012  95.8949014  56.1993551 106.9508934  95.0644764
  32.3402429  93.6828709  38.2143140  33.0057359  94.3107033  37.9329371
  31.6998816  94.2104149  38.6916685  42.8248882  81.3906860  23.5030603
  43.4799576  81.3306618  24.1984105  43.1888723  80.8719349  22.7856731
  19.1761708 122.7017021  63.5215425  19.5488894 122.8387451  62.6506042
  19.0421867 123.5845280  63.8663578 113.4424753  10.2475434  12.1197343
 112.6648683   9.8402672  11.7380452 114.1618127   9.6646004  11.8769109
   9.2922264  96.2054062  22.9413462   9.6215123  96.1502457  23.8384295
   8.6873734  96.9471931  22.9534149  12.7466261 127.9044151  30.7134509
  13.4669554 127.4791336  31.1787415  13.1674230 128.5929680  30.1986146
  45.5672836 119.3008614   9.9207884  46.2839365 119.2609882  10.5540729
  45.4462576 120.2357197   9.7545850  45.4766750 130.5456638  31.3073730
  44.8089075 130.9131813  31.8863821  44.9822664 130.1761341  30.5757713
  32.9795718 135.3306103  28.6072373  32.6534748 136.1475277  28.2296920
  33.2498932 134.8087120  27.8517365   8.6811340  13.8058644   9.4224250
   7.8324223  13.3636837   9.4422585   9.2012554  13.2980996   8.7996233
  20.3867078 108.6230946  15.8821678  21.0564733 108.7138939  16.5599597
  20.3141665 109.4970512  15.4985309  26.9962406  92.1055126 107.0053931
  27.3985553  92.8443718 106.5488225  27.7353907  91.5647984 107.2838279
  21.4947176 145.4289341  11.8067062  21.8622231 145.1846790  10.9572875
  20.6218266 145.0361633  11.8118894 123.7480624 133.9363575  31.0211730
 122.7966557 133.8416576  31.0668826 124.0351155 133.2077217  30.4707956
  13.4019959 120.7753754 105.4516026  12.8705800 120.7641792 104.6555480
  12.9299307 121.3579941 106.0465365  19.9144685 113.6210728  21.5420890
  20.2189040 112.8539085  22.0268679  19.1760159 113.2998848  21.0246348
  40.3810167 137.9551220  22.6052952  40.1269722 138.5956097  23.2697272
  40.8129406 137.2573376  23.0980206 120.3297014 105.7793236  96.8687209
 119.8802570 105.7568073  96.0238990 121.2172557 105.4771233  96.6759702
  41.5139103 121.9395828  16.5253115  42.1033382 121.3348293  16.0746694
  41.5770531 121.6926956  17.4479651  15.4452848 128.7007236  43.1398916
  14.6423435 128.2345772  42.9070282  16.0945117 128.0094242  43.2696533
  48.0815506 119.1699219  94.7113582  47.7416563 119.3860817  93.8430389
  47.3232698 119.2444134  95.2907487  32.2583866 139.4704247  29.8873377
  31.7175460 140.1812458  29.5431614  32.1839309 139.5516396  30.8381748
  18.7408054 145.4853916  22.5603914  18.4917569 144.9376583  21.8159485
  18.4171605 146.3575459  22.3349261  24.0628934 110.3491211   3.3981192
  24.2806888 109.4236946   3.2868838  24.7737098 110.6996250   3.9348885
 113.9650888 122.6066780  12.8309858 113.6004812 122.5832367  13.7157130
 114.5261008 121.8326283  12.7825439  14.3462133 130.7181358  96.9453677
  13.9283347 131.0443783  96.1483892  14.0039349 131.2784576  97.6418670
  36.9992137 134.8816109   6.4033812  37.5666189 135.4345417   6.9405490
  37.4929762 134.0692997   6.2911761  39.8298311  27.5519352  58.8625479
  39.9993229  27.0185070  59.6390533  39.8467302  28.4537106  59.1830969
  12.9387355 113.6109447 100.1066526  13.7946486 113.6080742 100.5351826
  12.4312770 114.2632389 100.5895921  17.5748754   4.7099476  95.5588814
  16.6638017   4.7244721  95.2656838  17.5450301   5.0563412  96.4507075
 118.1892753 130.7764530  14.0192568 118.6193491 131.6229248  14.1407168
 118.6005808 130.4088783  13.2369840  12.2053659 119.8028946   9.0747142
  12.6844394 120.1887226   9.8080993  12.8877079 119.4769669   8.4878445
 115.0308622 136.3203430  32.2857761 114.8405445 135.5623817  32.8384995
 115.9121437 136.5900517  32.5442958  12.6541948 120.3550434  90.4433116
  12.8434169 120.9332371  89.7043093  12.9465687 120.8450985  91.2118157
  27.4347878 133.3601093   0.4496354  27.8992891 133.0641842   1.2325132
  26.8087506 134.0079308   0.7731122  14.6475303 133.1902027   9.9709797
  14.7412086 133.8681698   9.3017864  15.4008687 133.3171940  10.5476832
  73.5670042 142.1445560  28.3119965  73.1596565 143.0091095  28.2585669
  74.3995810 142.2992420  28.7582254  33.9157939 144.1201401  95.2136525
  33.1452417 144.5601654  95.5726131  33.7494946 143.1888580  95.3595968
  11.5221441   3.3833866  46.7091608  11.0322976   4.0418701  47.2017860
  12.0994234   2.9797726  47.3572922  23.0513883 110.3097343  87.3193439
  22.3217583 110.5279541  86.7394718  22.7766824 109.5040798  87.7571710
  50.0178242   1.5923577  98.2854935  49.2038679   1.6734772  97.7883800
  50.6942558   1.9194966  97.6924893  55.6293774  22.0041066 107.6951464
  55.6332541  21.1394482 108.1057530  55.5732012  21.8234234 106.7568355
  10.6681693  99.6556473  12.0458210   9.8933446  99.2741680  12.4585545
  11.1321676  98.9075470  11.6699541  21.3157296 114.3280983  36.8804502
  22.1885347 114.3788338  37.2701550  21.2664437 113.4436703  36.5176916
  39.5438981  10.5582981  37.8832102  39.5443201  11.3206272  38.4620786
  38.8034010  10.0307255  38.1824756  57.0294189  26.2271099  92.2408220
  56.7344379  27.0198613  91.7927643  56.3990402  26.1045246  92.9506310
  35.3349996 137.2966576   5.8095378  35.8412051 136.4977169   5.6622893
  35.9947300 137.9750538   5.9536308   0.5737440  14.6167164 108.1323210
   1.3208479  14.7873478 107.5587771   0.0286347  15.3997212 108.0549296
  50.4349566 141.2791634  21.4011669  50.2042532 142.0861340  20.9409308
  50.4319429 141.5222263  22.3269892  23.2003713 139.4183731  11.1372113
  23.6336851 139.9623775  10.4795444  22.2927475 139.7224236  11.1393094
  13.9109445 129.9821281   6.3753414  13.4647977 129.2453575   6.7929041
  13.2873464 130.7057190   6.4367509 115.5949861 139.3635368   2.6024145
 114.8731334 139.8854542   2.9527923 115.5988283 138.5701180   3.1378633
   1.5379196  44.1505032  20.0711274   1.7448768  44.9473553  20.5594206
   1.9939044  43.4544545  20.5442309  23.7092161 113.8743019  80.2691539
  23.0736423 113.5274601  80.8952388  23.4307265 113.5207081  79.4243797
  30.1657224 134.3550777  97.5254639  29.3547678 134.3310642  97.0175179
  30.5009794 135.2427673  97.3995897  22.1433640 131.1064243 106.1609732
  22.6471806 130.5858898 105.5353149  21.8616414 130.4766560 106.8244942
  74.9066877  20.2639942  32.9881644  74.8406649  20.5023938  32.0634794
  75.7971907  20.5121403  33.2364869  33.8662028 142.2130394   5.1663381
  32.9927492 142.5112247   4.9125770  34.3935966 142.3147869   4.3740398
  14.2740262 119.1105843   7.3448515  13.6929667 119.3921280   6.6382158
  14.6909857 118.3166599   7.0101047  33.6978936 123.7640762  90.3646227
  33.7226605 124.6929646  90.1348778  32.9180527 123.6734962  90.9122356
 111.0163671 143.8981342  28.0386066 111.0129911 143.0229855  27.6508713
 111.2440271 144.4803715  27.3137593 115.0373471 118.2710648   2.5407565
 115.7430971 118.4798908   1.9287586 115.0535453 118.9853382   3.1777680
  41.3002634  18.6605244   0.8208048  41.1388779  18.8476353   1.7455600
  40.7241488  19.2630558   0.3504241  47.4458838 104.2255878   3.6130726
  48.1369400 103.7435150   4.0672484  47.7838993 105.1182556   3.5414782
  66.3765764  96.8208122   9.0279824  65.6405449  96.4275646   9.4968545
  66.7649651  97.4279213   9.6579027  18.7186038 115.8078861 106.2258967
  17.9305553 116.0512352 106.7116856  19.4400680 116.0196304 106.8182515
   5.9024298 134.7576618  94.6393391   5.4088789 133.9819717  94.3729671
   6.0800409 135.2212429  93.8209447  15.5099773 135.6247234   8.6805344
  14.8119462 136.1670685   9.0477419  16.2822270 135.8425426   9.2024666
  14.5832431 115.4004669   3.1982771  14.3548644 114.4742393   3.2769045
  14.0477812 115.8362961   3.8612720  24.5738721  20.7554608 108.3779112
  23.8463688  20.9594326 107.7902296  24.1602349  20.3466969 109.1382076
  24.6616793 143.0085850  26.4305258  24.4606662 142.1314144  26.7567062
  25.5560136 143.1756210  26.7280149  34.0010428 103.1693745  10.1931679
  33.6797690 102.2877789  10.3823555  33.5024071 103.4461689   9.4244146
  26.8860388 131.6224480  27.2394729  27.1960092 131.5982151  26.3341761
  27.6114678 132.0079327  27.7307844  31.9498396   8.3251839  14.6689427
  31.7904139   8.9766102  13.9859712  31.0945153   7.9232388  14.8209000
  11.6312456 118.5164642  28.2702255  12.4298108 118.5321331  27.7427030
  11.9399059 118.3983517  29.1685653  22.9778504 113.8644886  10.7940769
  22.3539114 113.1494045  10.9189248  22.7189136 114.2662334   9.9647498
   6.4911896   9.0732651   8.4423858   7.0955855   9.6225911   7.9432034
   5.8945769   8.7150841   7.7851295  68.5878325 120.1513672  26.6252899
  68.8180065 121.0640049  26.4510822  67.6523924 120.1745701  26.8268967
  21.7739558 143.0897331   0.3844029  22.3382449 142.7896500  -0.3281663
  21.3531351 143.8778973   0.0409676  10.9609675 131.9584370 100.7357033
  10.1715147 132.4977207 100.7822552  10.6980395 131.1163521 101.1071851
  42.5139093 109.8470974  17.7329361  42.7201557 109.6846390  16.8124461
  41.5689230 109.7078037  17.7948475  18.8793349 102.8921509  94.6538993
  19.0020180 103.4281349  95.4374238  18.3542204 103.4389305  94.0694960
  50.7192802  14.0580540  32.6356745  50.9375620  14.3526249  31.7514729
  50.9954071  14.7779065  33.2029438  33.1995702 145.5963802   5.3665239
  32.9394746 145.8355713   6.2561131  32.5073624 145.0082493   5.0645596
  35.0776958 136.9696045 107.4211390  35.9028745 137.1179962 106.9593015
  34.4024825 137.2316742 106.7953321  10.6617284 117.8314495  10.1651657
  11.2944305 118.4853268   9.8679090  10.4286563 118.1090927  11.0510683
  38.7540746 129.6182251  21.6503096  37.8816819 129.9879932  21.5145540
  38.6221337 128.6711407  21.6072845  40.5279255 112.1548271  19.7695351
  40.5689383 111.4175034  19.1605151  41.2246084 111.9815540  20.4026604
   7.2319293 139.4633865   9.3424594   6.5680581 139.3755436   8.6585075
   7.6691860 140.2921009   9.1468090  46.5275002  90.8163548 105.0944766
  46.7634106  90.3857136 104.2728152  45.6774092  90.4419899 105.3256288
   4.9486384   8.3112126  25.6344676   4.1148669   8.1705838  25.1858282
   5.5533552   7.7004795  25.2130985  30.7471442   6.0977154   7.7248001
  31.2001848   6.0190945   8.5643268  30.1552320   6.8409710   7.8407377
  14.7541440 140.6928444  42.6255655  14.2169833 139.9912071  42.9935312
  15.0561833 140.3477287  41.7853832  57.4149704 140.3201485   8.0254668
  57.8454876 140.3495026   7.1710509  57.7288628 141.1025620   8.4788299
  29.5926285 123.3071804  47.6895523  29.1960478 122.4580956  47.8845215
  30.1808834 123.4716606  48.4265280  15.6705296 142.3854542  19.6031594
  15.3945076 142.8389931  20.3996205  15.5463994 143.0292034  18.9057231
 120.9389237  25.9572583  31.8564153 121.6686166  26.2852078  32.3819923
 120.2999533  25.6496029  32.4992990  22.6376486 131.8684196   6.9167632
  21.9607949 132.2949791   7.4422610  22.5322485 130.9352779   7.1021825
  16.7619503 125.6468105 106.1086630  17.7095628 125.6545258 106.2435835
  16.5640891 126.5117931 105.7496523  18.6180794 118.0025673 108.6368734
  19.3325019 117.3984241 108.4347717  17.9500711 117.8124428 107.9781991
  20.8807683  10.0849133  14.2509592  19.9331033  10.1796704  14.1551304
  21.2469316  10.6013756  13.5330296  49.0037918  12.2968178  79.0326174
  48.6480522  13.1794339  79.1358718  49.4854689  12.1362763  79.8440655
  95.8911962  22.9046040 104.9949711  95.5042405  22.0416432 105.1426938
  95.6201929  23.1398754 104.1075995  30.2433276 130.3761005  23.1022024
  30.4656720 131.2855148  22.9027867  31.0797739 129.9689102  23.3275485
 108.8241882 100.1165771 102.8602668 109.0625734  99.1895390 102.8568944
 108.7699515 100.3532982 101.9343885 115.6268079  96.9463158  26.5099597
 116.4154959  97.0957184  25.9885383 114.9080516  97.0116138  25.8811855
  64.1052198 112.5672722  27.4484253  64.7341585 112.2293568  28.0859876
  63.6208582 113.2419682  27.9242396  32.1447730   9.2071228  94.6035560
  32.3913527   8.7711602  93.7878557  31.2328553   8.9528160  94.7448643
   8.0969262  86.5030003  40.1750040   8.7364310  87.1089649  39.8007441
   7.6656920  86.1108303  39.4157481  38.0728626 122.9826736  13.7018967
  38.3543086 122.7368641  12.8206480  37.5519300 123.7755394  13.5745251
  40.3207684  12.3287468  94.6684405  40.3154659  12.9588681  93.9479204
  41.2172890  11.9938927  94.6871909 118.1524009  11.4094048  23.6004615
 117.9270656  12.2614651  23.2270265 118.9165003  11.1230927  23.1000519
  87.8613186 100.7595253  21.7952967  87.6596355 101.6858196  21.9277453
  87.8245258 100.6397057  20.8463407  96.6965408 142.5441551  19.0022099
  96.9375176 141.7497158  18.5257471  96.2561149 142.2264194  19.7904325
  45.5800152   2.0851212  15.1247311  46.5116358   2.2199135  15.2983677
  45.5477619   1.2873822  14.5967114  59.3036366 124.6597576  24.8604274
  59.2145634 124.0933514  24.0939569  60.2478456 124.7190952  25.0059628
 110.7473511 110.2685165  95.8101841 109.8221845 110.0865269  95.9750446
 111.1746199 109.4143867  95.8744188  10.3832233 129.7145939 104.6301176
  10.1503909 130.6393528 104.5474883  10.4051173 129.3916988 103.7292876
  55.2430487 117.9474926   3.5910565  55.6358671 118.6419487   3.0622250
  54.3919277 117.7881336   3.1830963   3.8367918 128.4960175  34.1465449
   3.3966228 127.7085590  34.4665480   3.4786683 128.6307907  33.2691526
  22.3507094 123.4118748   4.7651619  21.8350172 123.5967445   3.9802316
  22.9359913 124.1645241   4.8499820  43.7734413 122.3812294   2.6482207
  42.8726196 122.4761581   2.9576477  43.8955688 123.1096745   2.0393777
  68.6227036 115.0172424   7.0167953  68.8531542 114.3377209   6.3832480
  69.3435240 115.6451035   6.9674391   0.2389933   3.4890919  81.5117677
   0.5143417   4.2759495  81.9821652   0.4753964   2.7669792  82.0939192
  44.7967625 126.1655521  85.7651457  44.8408985 125.6767082  84.9433716
  45.2658081 126.9802094  85.5847057  22.3211765 128.5631847   0.5907168
  22.8233457 127.7490902   0.5545639  21.6893840 128.4237576   1.2961468
   7.1238315 110.6773472  17.5924253   6.8900245 111.4600468  18.0913591
   6.4652491 110.6294346  16.8994570  15.4638016  10.4921990   8.7525529
  15.6469846  11.3742905   8.4291530  15.2109838  10.6200104   9.6668720
  18.2346010  21.0854512  34.9837542  17.5270855  21.5631275  35.4167390
  18.4999228  20.4215603  35.6202269  11.1618054  40.3677159 107.3589853
  10.5744493  39.7007161 107.7144419  10.5867684  40.9588414 106.8730479
  19.2400467 112.6904297  32.2517586  18.2919908 112.8062439  32.3150778
  19.4281507 112.7623177  31.3159800   5.2917624 137.0930958  38.3469009
   5.2726561 136.1395931  38.4287572   4.4374868 137.3784733  38.6709452
  32.7764869 128.7359810  36.3517451  33.2724953 128.3234882  35.6446004
  33.4337139 129.2123032  36.8590927  24.4240499  16.8654232  34.4826674
  24.6045256  15.9865551  34.1491055  25.2575040  17.3288136  34.3999505
  46.8083239 123.4455490  33.3714080  46.6685677 122.5679874  33.7271857
  47.5792551 123.3568382  32.8110242  29.6259189  15.5292111 105.7145204
  29.6374679  16.2876110 106.2984233  29.2949224  14.8138409 106.2575790
  31.6997075 121.6054630  13.8410687  32.4687219 121.9676495  14.2811477
  31.9530463 121.5544319  12.9194140  56.8750811 107.4860668  21.6350484
  57.3037004 107.9417992  22.3594928  56.4157772 106.7557907  22.0497370
 123.7614392 141.2986088  12.0174289 123.6676096 142.2450638  11.9094670
 124.1747715 141.0047531  11.2056184  36.9351673 132.0547581  45.0294161
  36.6829371 131.7452717  45.8993769  36.4507008 131.4921474  44.4252729
 123.5754888 116.9114780 101.3549980 122.7986059 117.3843098 101.6535201
 123.4117841 116.7435455 100.4269727  48.6506414 116.4959717  16.1655045
  48.4285975 116.8866539  15.3203475  49.5381880 116.1575985  16.0471678
  24.2880440   3.6138897   1.8510422  24.5152950   3.7909203   0.9382181
  24.5235968   2.6955204   1.9827317  14.5843458 138.5166550  37.1821856
  14.1213942 139.2117405  36.7144632  15.4558516 138.5011101  36.7866254
 123.6454833   2.2067528   2.3593865 123.2630048   1.8801480   3.1738007
 123.1371754   2.9913502   2.1538118  24.6752548  14.2232685 108.8519093
  24.1417336  14.1951542 108.0576810  25.0450873  15.1060849 108.8609049
  43.6775351 105.7457733  44.1817713  43.7140274 106.3621044  44.9132347
  44.5585108 105.7652664  43.8079643   6.4067870 128.0202389   9.4133830
   6.7083961 127.1264553   9.5759338   5.5554432 127.9123306   8.9893520
  54.9435282 139.9086285  79.0800008  55.7248068 140.1311684  79.5862778
  54.4359398 139.3409920  79.6599778  27.4080491 121.6740894  19.1040945
  28.0508065 121.0666656  18.7378597  27.5382495 122.4853611  18.6130524
   0.3167206 106.6205025  28.5698748   0.7805481 106.6115093  29.4071412
   0.7018530 105.8973503  28.0749345  18.9004612   5.7354145  19.1322172
  19.1826272   5.0135022  19.6938670  18.3199000   6.2571316  19.6862841
   3.6169270   2.1864491  59.4629240   3.0782822   2.2541600  58.6745691
   3.0712491   2.5540619  60.1581430  10.4881561 121.2897682  97.5558277
  10.8428025 120.4008961  97.5750717  10.9697390 121.7546558  98.2400759
  39.3064690 130.5533695   8.3544672  39.2358470 129.8933506   9.0441257
  40.1386929 130.9932041   8.5281903   3.6957550 134.2945576  25.6309271
   2.9211152 134.8400879  25.7671833   4.4130358 134.7959995  26.0186076
  52.1489620  29.3322544  27.9148316  53.0094147  29.7509175  27.9386878
  51.6330242  29.8788052  27.3221111  36.5962815 144.2511463  86.5242823
  37.0531893 144.3319511  85.6870636  35.6700397 144.3446541  86.3016494
  39.1044712 125.6864643  15.1101565  38.9471436 126.6283894  15.1754451
  38.7220836 125.4375267  14.2687047  11.4337778  22.8264027 103.9906248
  10.9209430  22.8687840 104.7977408  12.2379899  22.3719006 104.2414292
   3.1908581 105.1888180   3.4227750   2.9646391 104.3383121   3.0463523
   4.0921050 105.3438187   3.1399992  26.2064505 139.6638298  12.0875275
  25.2584076 139.5500183  12.1545827  26.3542652 140.5815411  12.3159671
  38.6440253 121.5429115  24.9014878  39.2759204 122.2611904  24.8694968
  38.9111090 121.0225105  25.6591702 111.5773172 140.0155544  14.4132280
 112.4383206 140.4126835  14.2821109 111.7549736 139.2173576  14.9107778
  12.2889304   0.8109837  25.6882143  11.7960954   1.5854912  25.9593034
  12.4529469   0.3344899  26.5020227  25.0988245   4.6397477  24.2030692
  24.3438458   5.2265148  24.1589284  25.3224087   4.4679051  23.2883525
   9.6619660   4.8241120 108.6937665  10.0704968   4.8824292 107.8300924
  10.1271474   4.1109639 109.1311013  47.5024033 135.4343796  12.3704660
  48.0710459 135.8933258  12.9887283  46.6842985 135.9311390  12.3833501
  82.8987426 101.6337109   6.7624831  82.3193950 102.1654987   6.2167734
  82.3764820 100.8634472   6.9864434  26.6615820 114.8409176  13.9349747
  26.8319917 115.3637791  13.1515169  26.2705898 115.4574585  14.5540273
  45.4943419  88.5151291   3.2507020  45.6923914  89.2897987   2.7244985
  44.5580006  88.3679008   3.1172252  39.2541599 126.1170387  91.9362470
  39.5271921 126.4817142  92.7780911  40.0736046 125.8925915  91.4953777
  45.2358675  95.9225082  89.4311985  44.8685789  95.0859451  89.7166737
  44.8161650  96.5729618  89.9942216  19.4039273 127.3740101  34.8229599
  19.9934351 128.0387211  35.1791430  19.1160560 127.7339458  33.9840269
  45.8337450 127.5078297 109.8680461  45.1394796 127.0765209 109.3698459
  45.5381012 128.4140015 109.9557107   4.1014874   6.9199066  49.0941572
   3.7583265   7.4326592  49.8259687   4.9671060   6.6346341  49.3866634
  72.1893883 116.9221306  90.4559609  72.2061062 117.5523090  89.7356638
  71.8659115 116.1133480  90.0591441  28.0545020 105.7404232  23.3284521
  27.3324442 105.6025124  23.9415097  28.6422467 105.0003242  23.4802294
   9.1131300 105.0790787 108.8183893   8.9935744 105.4298401 107.9358325
   9.6223325 104.2786217 108.6910497  14.8811710 100.6644821 105.7664584
  15.1438200 100.2460098 106.5862944  15.5812550 101.2907028 105.5821764
  50.6803417 111.2180328  18.4191370  50.4173613 110.3667545  18.7689960
  50.7235479 111.0848427  17.4722338  21.9315791 116.8233490   2.2870135
  22.1291161 117.5825977   1.7386036  20.9756041 116.8011856   2.3300344
  41.8356037 137.3377991   4.9204567  42.3494959 136.8461323   5.5610937
  41.1062765 136.7575169   4.7022951  17.4854755 118.9910984  20.8434629
  17.5396168 119.1919041  21.7777967  17.7184963 119.8112106  20.4083252
   6.6963017 133.6217976 102.7834847   7.3223728 133.9953041 102.1631941
   6.0824960 134.3341351 102.9624941   8.2719451 116.5798855  21.2238336
   7.8437388 117.2458839  21.7617202   8.7674087 117.0787716  20.5743289
  39.8776484 137.7288723  30.4295301  39.2003942 138.3718109  30.2193236
  39.7944832 137.5932884  31.3734198  53.0496597 125.9735870  17.7128756
  52.8950787 125.0605583  17.4705625  52.9636812 125.9862518  18.6661220
  19.9325407  19.3803006  20.6968856  20.8049178  19.6607571  20.9735346
  19.8379505  18.4994679  21.0594130   1.7020673   3.5545998  18.3922231
   2.0736174   3.0601578  19.1227770   1.7639780   4.4696598  18.6662292
   7.0337683 100.4432201   0.8086009   7.0801771  99.7208500   1.4349115
   6.4332187 101.0707474   1.2108211  49.1138840   3.6089115  11.1750162
  50.0151491   3.5689049  10.8550823  48.5771418   3.5821801  10.3829169
  59.8450041 131.8105698 108.9404684  59.7900772 130.8590794 109.0291965
  59.1539145 132.0332527 108.3167421  16.6773129   8.1725293 107.6360124
  17.2831821   8.3545094 108.3543690  17.2368801   7.8653317 106.9227447
  25.0116730  27.0143490  11.6292310  25.6763458  27.2988873  11.0019517
  24.5993710  26.2567311  11.2141752  21.0293746 119.5815182   8.8081509
  20.7077265 120.3829193   9.2210984  20.3919387 119.3947506   8.1189317
  14.4995677 139.1044617   2.0735142  14.7575915 139.8540783   2.6099253
  14.6958494 138.3417606   2.6175553  66.3502216 126.2175083  27.6123786
  67.1307707 126.7586040  27.4932432  66.5813589 125.3745079  27.2222996
  16.0298872  31.2326794  49.2903519  15.4994416  31.2762432  50.0859404
  16.8913352  31.5519505  49.5590639  43.5582304  33.2606488  48.1724405
  43.9964294  32.8369503  47.4344015  42.6689529  33.4267979  47.8596973
  27.5184655 113.4703922  88.3656979  27.2638726 114.1465282  88.9935970
  26.6888070 113.1184483  88.0431557  37.5073099  98.4627533 106.3986015
  37.5430655  99.3204689 105.9751987  37.3058581  98.6558533 107.3142242
  41.4547729  95.9296703  96.5834427  41.2123156  96.3433743  97.4118710
  41.3700914  96.6272926  95.9335327  33.1813550  93.7734127  21.8433896
  32.9893494  92.9674816  22.3228017  34.0315223  93.6119652  21.4342729
  40.1814222 131.0661888  97.8428078  39.7813392 131.7427921  97.2965813
  40.8639574 130.6850147  97.2904587  38.3472514 142.7555275  98.9600563
  37.8086734 143.4455681  99.3473721  37.7287960 142.2187710  98.4644318
   9.2789805 115.7799816   8.9362756   9.7041309 116.4294815   9.4963018
   8.6909831 115.3053093   9.5237962  20.8618116 120.3715420   4.0269510
  21.6170573 120.6803989   3.5265104  20.3140569 119.9238777   3.3821336
  50.8252764  94.1552925  20.5945436  50.6010866  93.9368439  21.4991227
  51.7823315  94.1639614  20.5803911  19.9439645 139.4985485   5.6298391
  20.5101943 138.7411404   5.7780019  19.1033912 139.1218948   5.3694478
 122.0578477 130.0567245  70.0216484 122.3829064 130.7570553  69.4558620
 122.7606911 129.4069386  70.0263596  45.3993130 118.2228279  84.6032906
  46.1531162 118.1882668  84.0143776  44.8566389 117.4790096  84.3416119
  73.7416983 146.4137363 106.3768291  74.1973639 145.9817886 107.0993328
  72.9854488 146.8331528 106.7872047  10.5165899 132.1029377  85.3332233
   9.9361217 131.4750671  84.9030399  11.0590339 131.5689468  85.9136009
  29.3579817 129.6483707 106.4734268  29.4823217 130.0609875 107.3281288
  28.6435103 130.1419926 106.0708237  48.7315845 125.3096199  14.5403901
  48.6034203 125.7339382  13.6920015  48.0999804 125.7362652  15.1194230
  42.7947044 111.4234352  29.7286645  43.7448502 111.4965343  29.6385995
  42.5135756 112.2928238  30.0139085  24.2402935 110.7975864  79.9689722
  24.3446922 109.8555565  80.1028156  23.3086252 110.9588814  80.1180077
  24.5478439   2.0852547  13.9539090  23.9986706   1.8352108  13.2108632
  24.3006921   1.4764576  14.6499864  29.6907520 115.4034233  91.8951321
  29.8382330 114.4583416  91.8590260  29.2305088 115.5425644  92.7228069
  21.1067891   4.2261391  74.7558975  20.8326364   4.7006111  75.5407238
  20.8537626   3.3184414  74.9241495 113.8114542 143.2431889  29.7439805
 113.8963050 143.0467415  30.6769601 114.0896792 142.4400043  29.3038312
  58.5791349 137.8940964  71.6449070  57.7243710 137.4825954  71.7725086
  58.6914587 138.4557247  72.4118423  32.9980659 115.5146027  11.1858407
  33.6158228 116.1723137  10.8664361  33.5499525 114.8389626  11.5797559
  23.1166267  22.4450283  95.3885746  23.8116169  23.0364209  95.6774902
  22.5992179  22.9655819  94.7741222  57.2286129 146.8188190  83.5513306
  57.6052046 145.9733391  83.7954140  56.7910194 146.6539574  82.7161312
  10.4069579   3.4838276  74.9157238   9.5880234   3.5412293  74.4234991
  10.1766479   3.7735825  75.7984638  11.9372773 146.1005688  13.0249540
  11.0074496 145.8812809  12.9652253  12.1091962 146.1611462  13.9646379
  27.7871871 127.5811672  70.9681511  27.1849108 128.1527042  70.4918766
  28.6269379 128.0395603  70.9376764  25.4032755 102.4433136  16.6738359
  25.7904196 103.3052921  16.8266050  24.9676299 102.2269058  17.4982206
  37.8145695 119.0762424  85.4986763  38.3293891 118.6964798  86.2106991
  36.9060683 118.9896679  85.7874012  27.6943493 109.2022324  82.3746872
  28.4288645 108.8569260  82.8821278  26.9530821 108.6479664  82.6187134
  75.1500463 107.9609394  78.3763552  75.1586151 107.5964165  77.4913216
  75.1002884 108.9077663  78.2449389   1.4892313 117.7731037  87.5586319
   1.3927341 118.2178402  88.4007359   2.2303811 118.2109737  87.1400642
  47.4239922  98.2569408 102.9216099  47.1004629  98.5281754 102.0625401
  47.2244978  98.9955711 103.4968185  49.6655560   3.4615021  72.2170162
  48.7210989   3.5262566  72.3585558  49.8083162   3.8697415  71.3630915
 112.7771360 100.9316826   3.0940667 112.9942018 101.6998863   3.6222402
 111.8339927 101.0013771   2.9462377  18.7668335  87.4676514   8.2924787
  19.3133736  86.9441128   7.7064458  17.8732491  87.3187542   7.9833356
 123.2741160   5.6757813   9.9999753 122.3498056   5.8883934  10.1291219
 123.2725539   5.0061493   9.3160001  21.4503264 124.3686485 105.7289314
  21.2511754 124.6340275 106.6267872  22.4063039 124.3806553 105.6820869
  20.9195209 108.6126709 103.8287544  21.4292192 108.6181831 103.0185604
  20.1045918 108.1677437 103.5960197  67.0303679 113.6081886  54.0823603
  67.6266193 112.9798985  53.6749649  67.0263624 113.3684063  55.0090313
  13.6733663 110.2457619 104.3921852  13.4240365 109.5321178 103.8050079
  12.8939438 110.7992554 104.4408798  31.8735814  89.1638088   0.4890386
  30.9216857  89.0780258   0.5416719  32.1964359  88.2628155   0.5038587
  18.8636172  89.1480446  90.2845001  19.5645308  89.7404957  90.5564499
  18.9030945  89.1533756  89.3281269 123.2110359  80.4281616   5.6828061
 122.8186989  81.2370968   5.3542749 122.6428116  80.1628590   6.4059678
  21.2813067 107.2285271  71.4566708  21.8940258 107.5589752  72.1136427
  21.6930819 106.4306068  71.1250019  46.9094086   9.9663239  12.9675905
  46.5828800  10.6908970  13.5010759  46.7787647  10.2558689  12.0646325
  35.9292960 129.7745895  37.2671453  36.0187912 130.1591015  38.1391374
  36.2058091 130.4693031  36.6695157  44.2626143 107.0007896  75.0946331
  43.4097719 107.4316406  75.0375032  44.7972822 107.4392509  74.4327307
  39.7552514  99.0481377  81.3792801  40.0900412  98.6713791  80.5655193
  39.7759795  99.9936771  81.2317657  44.1170645   6.6984921  95.6450844
  43.7993956   7.6014405  95.6460285  44.9266958   6.7299633  95.1354408
  48.2667589 139.8931885 103.2468510  48.3668184 140.6815910 102.7133274
  48.6652374 139.1977310 102.7235985  15.9347582  94.0410328  91.5909672
  16.7440867  94.5205498  91.7678452  16.2219644  93.2395077  91.1536026
   1.5698719   1.5339070  96.2341881   1.9826066   0.6846314  96.0773277
   2.2335684   2.1738987  95.9770012  22.8985476 127.8684807  39.5468179
  23.4591603 127.0926762  39.5382158  22.0821214 127.5785351  39.1398660
  12.7330244  98.1533146  15.5445138  13.3220100  97.6320553  16.0900632
  12.4002302  98.8318729  16.1319200  53.9613295 121.3716412 104.5664406
  54.8147964 121.0142040 104.8115253  53.7171936 120.8887196 103.7768745
  12.6764762 144.5957470  95.3990364  12.2342503 143.7880325  95.6603050
  12.1958888 145.2890301  95.8513927  53.0620909  84.4701385  11.3217584
  52.3537588  84.9650002  10.9099237  52.9353094  83.5716724  11.0169164
   2.8047940  79.2597628  82.7763271   3.6359477  79.7277164  82.8565502
   2.1372494  79.9389696  82.8727627  18.6320126  73.0746126  98.5811520
  18.4407020  72.2958088  98.0585670  19.2295802  72.7653646  99.2619705
  47.1478367 109.6745110  60.3651285  47.3406076 109.9101639  59.4576359
  47.4896145 110.4053879  60.8801508  32.5309181 122.3042870  95.3658485
  32.3379350 122.6720905  96.2282372  33.4439826 122.5411892  95.2032948
  26.5199041 113.5100365  50.3923360  26.8017936 114.1707230  49.7596589
  25.7215309 113.1415176  50.0141374  16.1836338 126.5585995  15.6573240
  16.5000308 127.4006271  15.3300420  15.5630434 126.2609673  14.9921075
   7.9094934  90.0882816  77.9249763   7.9043400  90.8873367  78.4519672
   7.0313418  89.7234726  78.0344963  13.5286367  91.9826984 102.5026321
  13.5238492  91.5756893 101.6362858  12.7889478  92.5899982 102.4860382
  42.7183342   4.0037327 107.6747322  41.8748283   3.6771279 107.3615932
  43.2359505   4.1311055 106.8796921  21.9508719  97.1976852  85.0672436
  21.0221195  97.2495365  84.8414993  22.4048257  97.5232315  84.2899513
  28.3544350 142.7809429  83.8895416  29.1225123 143.0890656  84.3705273
  28.3270288 143.3292389  83.1054115  41.8999052  92.1746922  79.0245199
  42.5638485  91.6350746  79.4537401  41.3386726  91.5469456  78.5693407
  22.2719812 109.1372681  95.4937744  22.6517630 109.6889210  94.8099041
  21.4550209 109.5767021  95.7297897  10.3843880 126.7925167   6.1315767
   9.7506833 126.7384148   6.8469182   9.8582727 127.0070267   5.3612367
  66.2634993 103.2905102 102.8613091  67.0855236 103.3838749 103.3427429
  65.8309698 102.5402737 103.2691002  24.5393920 121.9330025  96.6572762
  24.5580983 122.7428818  96.1473942  24.3419528 122.2164917  97.5499535
  33.6236572 135.3151703  95.2291489  33.8467550 135.3158760  96.1599827
  32.9462099 134.6440983  95.1457310  34.6096349 129.4987774   7.6730768
  35.5184007 129.4725609   7.3735944  34.5888543 130.2100658   8.3132783
  21.2740278  79.6781731  84.0168381  21.1561060  79.5088100  84.9515247
  20.5483675  80.2577496  83.7850189 124.6347333 132.9555035  71.5523767
 125.3086801 133.5560799  71.8706942 123.8331855 133.4786129  71.5422153
  27.9904532  98.5053539  89.1058731  28.8432169  98.9390945  89.0759563
  27.5993466  98.6867809  88.2512665  54.2859316  64.8570156  15.2270643
  54.4401789  65.0151491  14.2956964  53.4772539  64.3455219  15.2524415
   6.0440028 113.1237507  19.0997258   5.2710146 112.6494598  18.7935106
   5.7076472 113.9755630  19.3781415  39.0027976 103.1673527  80.9081078
  38.4885454 103.3987808  80.1346684  39.7713184 102.7163029  80.5585861
  45.2866411  78.7198830 105.8959770  45.8561659  78.1220913 106.3802433
  44.4564581  78.2497406 105.8185482  30.5913401 132.4771881  88.2037163
  31.5475011 132.4373722  88.1836319  30.3576851 133.0081272  87.4423122
  17.4753487 125.9787750  88.0802727  17.3777699 125.8054066  89.0165710
  18.3883548 125.7627583  87.8905678  60.4108715 106.1990356  43.1848279
  60.3839540 107.0353985  42.7200643  59.5055914 106.0463142  43.4557191
  29.2020249 138.4119034  99.6952820  28.5102224 137.8626442 100.0640106
  30.0156116 137.9970074  99.9819374  19.0217805 120.7132053  83.3708572
  19.3413413 120.9898758  84.2296696  19.1264451 119.7617435  83.3714771
  54.2092419 117.0130253  13.4091417  54.9359035 116.9855213  14.0315858
  54.4857168 116.4414978  12.6927987  37.1980238 112.0148945   6.7484800
  38.0105972 112.0337677   6.2429086  37.1787572 112.8573799   7.2024385
  34.3528581 141.5787315 101.0883617  34.6102619 142.0626640 100.3036404
  35.0220394 141.7995358 101.7361832  24.0842438 120.9433270 101.3226128
  24.0744615 121.2222385 102.2382164  24.8638678 120.3929806 101.2481976
 107.3569424 127.5508118 109.5997047 106.8610854 128.3548927 109.4454098
 108.0187971 127.7977848 110.2455997  29.5518374  85.6021595  96.7726135
  29.1745114  86.3700485  96.3434124  30.3449988  85.4131031  96.2712288
  31.2645626 120.8525753  93.6803532  31.6580081 121.3888264  94.3687248
  30.7035780 121.4583397  93.1960297  14.2861557 134.0299988   4.4620839
  14.6301317 134.0219307   3.5688630  14.8581636 133.4330082   4.9444238
  47.2172976 107.3923683   1.6796151  46.6914368 108.1896877   1.6165773
  47.9733324 107.6453400   2.2093717  54.1025114  80.3109360 107.1831989
  53.8742685  81.1346054 106.7522526  54.1832590  80.5394554 108.1092072
  33.1043315  97.4709606  15.2950994  33.8017821  97.0734310  15.8164159
  32.7463937  98.1575966  15.8578054  10.2851236 136.6808605   7.9646818
  10.5363286 135.7572460   7.9566041  10.5833733 137.0027542   8.8153592
  40.2406454 113.9897251  98.9899349  40.8217144 113.5444164  99.6066093
  39.6741080 114.5291710  99.5415306  26.4682555 145.4059601 105.8423901
  25.7243299 144.9372292 105.4641151  26.0962439 145.8910656 106.5789509
  10.8822012 135.7659435 106.6555786  11.8221474 135.8141613 106.8299580
  10.5729103 136.6658592 106.7591858  42.5887203 136.0442352  84.7119141
  43.2348347 136.2879944  84.0490818  42.0048046 135.4324341  84.2636204
   7.4231583  88.5725594  85.4033947   6.8276262  88.1981945  86.0525608
   6.9764704  89.3610382  85.0951576  16.9040608   3.3371430   3.1592122
  17.8301299   3.4435063   2.9416887  16.7372108   2.4015026   3.0453245
  24.6319842 126.2098885  88.5533714  24.1515636 125.6781387  87.9188061
  24.9872088 126.9344616  88.0385590  56.3658857 123.4463692  17.6048604
  56.8301773 123.6744785  18.4102384  56.9370699 122.8130150  17.1702997
  34.4810414  93.6407280  79.7894478  34.9325991  93.3503532  80.5819130
  34.1491675  92.8347206  79.3939161  19.2593622 116.2302589   2.6404897
  18.8175941 115.4114151   2.8653470  18.5715294 116.7770863   2.2608796
  61.6481924 131.6494370  57.6092100  61.7559528 132.5064659  57.1967554
  61.2297583 131.8387222  58.4490442 119.7386140  24.4639378  25.3109685
 120.3085474  24.8606663  25.9697667 118.8815725  24.8613911  25.4650632
  43.9045668  98.4872341 105.7761288  42.9658222  98.6736202 105.7602406
  44.1362238  98.3457470 104.8582268  79.3183470 145.8768272   3.3483354
  78.6703920 146.5812969   3.3375303  78.8035631 145.0798416   3.4749643
  29.0190530 135.9323311  90.3991413  29.1896605 136.2271881  89.5046139
  29.8514009 135.5611610  90.6918335  16.8225718 102.5233746  78.1982946
  15.9966254 102.0593357  78.3350754  16.7358983 102.9155922  77.3294497
  43.2117987 116.9337845  77.0068645  42.5908613 116.6660023  76.3293934
  42.6660824 117.3144722  77.6949787  23.5746670 117.9123306  93.1189823
  23.7462664 118.6353779  93.7222958  22.9084969 118.2519722  92.5214100
  22.9016757 119.2609406  19.4040719  22.2298956 118.9129925  18.8176671
  22.4098086 119.7001934  20.0978700   4.0393788 121.7482758  20.4721204
   3.8868046 120.8159828  20.3178827   3.1626815 122.1284485  20.5278150
  41.5915155 115.6897831  93.3984089  41.0107040 114.9340057  93.4861279
  42.2942781 115.5260468  94.0273380  10.4098022  14.1852169 101.3057327
  10.3415394  13.2373505 101.4203644  10.0303459  14.3500309 100.4425526
  29.6379590 109.7712231 107.5322533  30.1064134 110.2294254 108.2299805
  29.4567466 108.9040661 107.8947926  24.2269754  91.0689354  24.6757547
  23.4718394  91.4701748  24.2456189  23.8946915  90.7851410  25.5273858
  38.8125634  17.7663594 104.8540974  38.9302182  17.8501110 103.9078617
  39.1518545  18.5870724 105.2112103  55.9163857 133.6894512   5.1008645
  55.4934120 134.3457317   4.5471231  55.7081985 132.8536510   4.6833364
  24.7761393 101.0582542  81.2610817  24.2266941 100.9942341  80.4798985
  24.2207456 100.7371998  81.9715023  51.4579153 112.5258541 107.8248405
  50.9979439 112.6251316 108.6583900  50.7976294 112.1749973 107.2272205
  45.1189661 109.0145016  82.2544479  44.8249817 108.1102467  82.1443081
  45.0529671 109.1748428  83.1958199 123.8303544 115.5102730 105.2766418
 123.2815870 114.7280884 105.3338909 123.2187783 116.2174225 105.0713539
  46.7796278  96.7703342  84.3263721  46.4980316  97.6826191  84.2580128
  47.4647808  96.7805958  84.9947262  27.6927376  75.3528595   4.3664590
  28.1240392  74.5184898   4.5509759  27.7291298  75.8297920   5.1955835
   0.3838416 115.2126884  96.2648487  -0.3581879 114.6402836  96.4597225
   1.1457139 114.7393799  96.5991592  21.3980508  79.9942732  35.4676572
  21.1313462  79.8409557  36.3740770  21.0631204  79.2366409  34.9880258
  34.7435451  57.7618551  93.6478710  35.6959534  57.7961636  93.5585880
  34.4988108  56.9131994  93.2789230  35.4204822  85.5175686  99.9570084
  35.6816125  86.2863541 100.4639721  35.9994197  85.5253601  99.1947746
  42.7735901 141.4328861  77.2119999  43.0657721 140.6620598  76.7254972
  41.9827127 141.7189884  76.7549562  31.5417790 144.2809200  99.6866608
  30.8314824 144.8006248 100.0629902  31.1032009 143.5299873  99.2866898
   6.2365413 100.0417709  85.7695293   7.0825267  99.6395493  85.5726433
   6.4572340 100.8458042  86.2396908  13.0482864 118.5718632   1.1339418
  13.9352179 118.4746647   0.7873384  12.7321827 117.6743984   1.2381784
  36.0338378 108.6670971 103.5477257  35.6548047 107.7947330 103.4403038
  35.5560756 109.2142487 102.9243469   6.5812773 109.2154884 107.1008492
   6.3747084 108.4962940 107.6977825   7.5378090 109.2488575 107.0879936
  17.8256083 125.9414101  93.8395882  16.8861020 126.0926723  93.7362576
  17.9928410 126.0991764  94.7687626 122.5598585 103.8026714   3.9890329
 122.5840042 102.8840256   3.7211744 122.3439393 103.7747765   4.9211446
  13.1676722  72.4930143  99.7198963  13.8402700  73.1556988  99.5627689
  13.2945108  72.2347879 100.6328392  20.8461905  85.9487915  88.2443428
  21.7222619  85.7617378  87.9070854  20.4609609  85.0867462  88.4015465
 119.2349512 120.1523399   3.8369409 118.8358069 120.5018520   3.0402223
 118.8020576 120.6240463   4.5485059   2.6309058 110.4418850  99.7290325
   2.0619854 110.7310963 100.4424191   3.4912965 110.7990456  99.9490166
  34.1818190  99.6286201   5.4054681  34.6332979  99.3958092   6.2167589
  34.7171640  99.2402363   4.7135106  20.0527859 119.3483639  35.4049158
  20.9009552 119.6636200  35.7170939  19.6095860 120.1330280  35.0822616
  28.8862228  10.4373055  93.2742214  29.5219731   9.7434979  93.0990601
  28.9397407  10.5781441  94.2194843  26.0913277 137.3358250  26.6276685
  25.6949830 136.5026379  26.3728181  26.9665241 137.3130131  26.2406961
  17.7523816   1.9308358  98.0042267  17.2624755   2.7482968  97.9148960
  17.8968036   1.6385823  97.1042442  45.4213667 105.9281063  98.1917572
  45.0535059 105.9139729  99.0753365  45.8487129 105.0769043  98.0965900
  26.3727808  96.2744617  92.5785828  26.1838961  95.7092094  93.3276081
  26.1320043  97.1524048  92.8743362  77.2728205 108.0136204  86.4599228
  77.0540476 107.5385094  87.2615719  77.4646807 108.9040852  86.7540455
  19.6655512  13.1972771  12.4920980  19.0787935  13.8936596  12.1971456
  20.2480650  13.0438023  11.7482225  51.4700747 126.1728191  48.8660383
  51.6145468 125.8517742  49.7561455  52.2849512 125.9744549  48.4046650
  52.3248386   2.2972470  96.5898514  52.9930687   2.3518162  95.9066868
  52.4731827   3.0717545  97.1324062  46.2287235 133.8550949   9.0452234
  45.2784681 133.8358116   9.1586629  46.5045881 132.9486179   9.1809408
 120.6786219 132.1292877  32.9752294 120.7776666 132.5875187  32.1406881
 121.2533513 131.3675499  32.8998987  10.8127904 142.3302650  95.4542828
  10.3085005 142.1607494  96.2500095  10.1532161 142.4104691  94.7652531
  11.9116545 107.0386696 100.7855415  11.9266796 107.0437717 101.7426109
  11.1294591 107.5401974 100.5556107 118.8951755 126.5052223  86.9433022
 119.6846557 127.0347500  86.8312836 118.1777919 127.0903301  86.6999054
  55.8183193 139.4966125  12.4092523  55.9264421 139.1787815  11.5128557
  55.3160906 138.8099003  12.8479139   7.0819497 124.1207218  74.3596506
   7.1454561 124.9835777  74.7691250   7.3444039 123.5091972  75.0476837
   1.7224987 127.7017784   1.7972413   1.1365017 127.1228504   2.2847787
   1.1363956 128.2877159   1.3182966 116.7611129 123.0087090  17.3747579
 117.4063701 123.5933590  17.7723161 117.2171266 122.6213646  16.6276017
  31.6089582 109.2760563  67.5812340  31.3795948 108.8371658  68.4003830
  31.1154962 110.0959778  67.6024818 122.2548256 119.0938187  11.6616098
 121.8378238 118.9288712  10.8159581 122.8346900 118.3436871  11.7930929
  22.8253365  88.4575558  96.8342113  23.2152486  89.1214275  97.4029541
  22.6066422  88.9291954  96.0304928   7.3442155  83.8508987  19.8564664
   7.7810955  82.9992485  19.8495141   7.8395361  84.3690014  20.4908696
  38.1332445 102.7045631  92.8333282  38.8997793 103.1232643  92.4417305
  37.4550509 103.3797455  92.8131676  66.1188364 116.2445641   4.8850194
  67.0272589 115.9556866   4.7981111  65.7898235 115.7732773   5.6504480
  15.4094994 125.2937603  83.3352661  16.1173189 125.8559799  83.0204105
  14.9449277 125.8304691  83.9774036  17.1569884 130.5201149  84.6149445
  17.7274561 131.2319279  84.9049950  17.5131667 129.7396088  85.0394344
  13.4470534   9.7742253 106.1371899  13.4383726   9.2615109 105.3289318
  12.5249064   9.9632149 106.3108540  24.9008274  98.1407261 103.7570858
  25.4769301  98.2275200 102.9976082  24.5206475  99.0118790 103.8701344
  39.4158149  50.2706671  96.1033249  40.0608730  50.9143829  95.8104706
  39.9390364  49.5467710  96.4474773  31.0406137  17.9609280  98.5877895
  31.5137506  17.4605160  99.2525959  31.1666059  17.4641590  97.7793407
  38.0851746 145.9544849  93.2875633  37.7722001 145.7649326  92.4030590
  37.3377490 146.3638020  93.7235069 105.3839845 121.6801167  17.5003377
 104.5674343 121.1811161  17.5219861 105.9535713 121.1820793  16.9140283
  11.9716489 127.0524311  70.8932114  11.2273324 126.8472862  70.3274059
  11.7896497 126.5837669  71.7077446  35.5554938 138.5263538 109.9206829
  36.5116000 138.5638618 109.9468899  35.3592300 137.9098034 109.2152882
  46.2358809 141.1315823  99.6573830  46.8282318 140.4953003 100.0580025
  45.6370687 140.6025600  99.1303158   5.8142066 108.0089855  89.7512817
   5.8330506 107.1531963  90.1796627   5.8070022 108.6379051  90.4728317
  47.7745676  89.0767288  87.4291039  48.4783268  89.6370697  87.7561760
  48.1054831  88.7373829  86.5974903 114.2573637 130.1576519  99.7561073
 114.7578401 129.3417358  99.7621441 113.8079924 130.1692486 100.6011868
  40.9685421  66.9686747 106.2152100  40.8117056  66.3097477 105.5388641
  40.6878853  67.7924728 105.8166885  58.2969856 111.0999203  10.2062551
  58.0341959 111.5745258   9.4176332  57.6184940 111.3083363  10.8484784
   2.9819399 138.8390827  29.4287912   3.8159955 138.3707523  29.3935243
   2.7224067 138.9354038  28.5124914  10.8626580  31.3407688  63.4100056
  11.1107767  32.0840435  62.8602695  10.9082186  30.5844670  62.8250551
 124.4945584  84.3544579  97.2287560 124.2615436  83.8604736  98.0148315
 123.6649886  84.4742775  96.7664909  97.3589010 108.6846542   0.0898115
  96.7223257 109.3731689  -0.1024207  96.9142694 108.1161213   0.7185403
 119.8976342 109.4134808   8.4684030 119.8910016 109.0945435   9.3708841
 119.0637893 109.8732567   8.3707277  82.0280266  83.3350086   1.6147367
  82.1913338  83.9294624   2.3469964  82.8953266  83.0119514   1.3704816
 124.1468977 131.8190289  83.0451584 123.4162224 131.7860985  82.4276924
 123.7540755 132.1176434  83.8653660  38.2768464 113.9045048 102.9747105
  38.7321830 114.7436428 102.9057407  38.9699650 113.2702351 103.1578064
  24.4403195 122.4819851   8.7539045  24.3064308 122.1741962   7.8574792
  24.2610574 121.7161179   9.2993871  27.2281289  84.4198799 100.4488468
  28.1267333  84.7211647 100.3148079  27.0068526  83.9589214  99.6396542
  11.9816744  22.6041775  14.0366021  11.4418566  21.8406468  14.2411844
  12.4149430  22.3776226  13.2136861  10.5384576 118.5658455 103.7795448
  11.4887238 118.6008263 103.6699963  10.1954818 119.1107655 103.0712700
  61.9367599 108.9731979  57.6611090  61.8860531 108.0740452  57.3367882
  62.6741552 108.9664650  58.2713795   4.9913332 128.4055328  98.9695454
   5.5091649 128.2519627  98.1792927   5.2178836 129.2968750  99.2348957
  34.6853757 125.8715248  99.2138767  34.9043727 125.3194904  98.4631824
  34.6107101 125.2604580  99.9468517  38.7660599 135.0907516  96.6151714
  39.6753168 134.7951126  96.5695667  38.3943915 134.8542213  95.7653809
  17.7415586  15.0201016 102.3658276  18.6536264  14.7307949 102.3399830
  17.7340484  15.7316952 103.0059814  60.6372213   9.2040997  55.6792307
  60.1403856   8.6433106  55.0834942  60.0972271   9.9884873  55.7760382
  26.2881017 101.9871044  93.6026192  26.7562199 101.1667252  93.7577724
  25.7095480 102.0795822  94.3595600 106.2265200 116.0342693  63.9729023
 105.9949512 116.9616318  63.9218903 107.0090324 115.9524536  63.4277296
  23.6151385 108.9560890  77.2063923  22.8880048 108.9004040  76.5863848
  24.2555094 109.5213509  76.7743778 112.8877229 117.0940685 102.5511837
 113.5817820 116.4356709 102.5833416 112.9176957 117.4301338 101.6554260
  27.9442596 130.7122898  68.1421661  28.6268950 130.6581402  68.8109779
  27.3647833 131.4103603  68.4473467 113.1811780 122.8645229  67.7822781
 112.3388059 122.6350212  67.3898888 113.6526496 122.0335293  67.8404427
  42.4687862 124.7806168  79.4131374  42.9464769 123.9589691  79.5269012
  42.9773331 125.2652836  78.7629747  50.4409790 133.3536434  89.7470951
  50.4202318 134.3077660  89.8209381  50.6483030 133.0494785  90.6306839
  49.0516758 139.6190071 100.2930260  49.1378307 139.0612316  99.5199203
  49.7026205 140.3089046 100.1643753  57.0900488 102.0158195  66.0863972
  57.3313951 101.9498539  67.0103168  56.4172029 101.3457108  65.9661674
  58.2657242 118.3660507  91.0981750  58.4634352 117.4296284  91.1139488
  58.2569504 118.6245537  92.0197678   5.2557087 117.3320198  97.0382404
   4.7634220 117.0536900  97.8105164   5.4068244 116.5246677  96.5467262
  40.8238935 141.0684490 105.8380032  39.9254274 141.3874912 105.7531357
  40.9108305 140.8409119 106.7636871  19.7085786 138.4924698  93.8039017
  19.3322754 137.9597378  94.5044804  20.0513124 137.8558350  93.1766415
 118.4886510 106.1693001  49.7576094 119.1713584 105.6673241  50.2027607
 118.3493794 106.9330978  50.3174782  39.2975330 124.6242714  67.2151709
  39.5920491 125.3490353  66.6636229  38.4372020 124.8989391  67.5323725
   3.4694517  16.1951428  77.2772694   3.9599034  15.8960514  78.0429268
   3.9564031  15.8474903  76.5301085  76.2439346 127.1238041  81.5286160
  76.2436867 127.4684525  82.4216175  77.1564436 126.8863392  81.3637924
  51.5504026  50.2413797  16.5977136  50.7323980  50.6498623  16.3144342
  52.0552635  50.9578896  16.9823686  67.8344297 123.2667351  76.4735651
  67.4710464 122.3921680  76.3346100  67.2627544 123.8463879  75.9701538
  34.9400282 105.9199333  61.8478060  35.5323362 105.8855915  61.0966539
  34.0691495 106.0144711  61.4619780  22.7023983 125.2651882  55.2822113
  23.2787371 125.6683731  55.9314442  23.0906320 124.4057655  55.1181650
  14.9507034 133.8434601  83.3823681  15.7048631 133.5040665  82.9004097
  14.2391324 133.2395077  83.1698990  30.4436994  96.4311981  73.5318232
  29.5679212  96.0899734  73.3507013  30.2906489  97.3049355  73.8915491
  18.3292961  80.9564114  69.4354963  19.2185450  80.6637955  69.2358828
  17.7809775  80.5169773  68.7855148  49.1461086 130.9721851  54.5093393
  48.6667776 130.3730679  53.9370346  48.9476490 131.8428516  54.1646910
  50.0320578 111.1768627  76.5733385  50.1678514 111.4152145  75.6562901
  49.7986507 111.9999123  77.0026970  50.5121183 115.7178497  81.6099358
  49.7157145 115.8941936  81.1090660  51.1565828 116.3326931  81.2594128
  51.7248011 120.3236103  72.2214842  51.8605375 119.4583035  71.8353987
  52.0187712 120.9356976  71.5468264 123.3710878 140.9355736 102.1211052
 122.5567499 140.6316948 101.7201805 124.0617769 140.5172825 101.6070938
  15.5554211 107.5005627   8.7485257  14.8475158 107.1165943   8.2311574
  16.0566640 106.7485523   9.0639154  54.8890638 108.1848621  99.2868233
  55.7985163 107.9674339  99.0822411  54.7908163 107.9581928 100.2115917
  48.0466557 133.1946850  65.7250261  47.5641012 132.4201202  65.4362202
  48.2481146 133.6664772  64.9169064  22.4937296 135.1596546 109.5180988
  21.8799853 135.8911800 109.4515324  21.9361472 134.3842125 109.5814896
  14.5996106 116.8914986 101.9506073  15.3278804 116.2856674 101.8134308
  14.4582641 116.8856621 102.8972912  43.3083582 127.0855331  31.9809747
  43.0864286 127.5711441  32.7754307  42.8980398 126.2291431  32.1012473
  76.1098671 108.1250191   3.0830041  76.3288736 108.7341022   2.3778287
  76.4179373 108.5589790   3.8786165  59.2802191 129.6126366  32.5721002
  58.3917427 129.7929287  32.8792429  59.2483234 129.7865009  31.6313624
  20.3414965   5.0501995  60.6267643  19.4333351   4.7577458  60.7038879
  20.2794671   5.9999638  60.5251837  62.5902367  19.2537480   1.3701955
  62.8159046  18.3794003   1.0526506  62.5464392  19.7917538   0.5797044
  28.7739968 102.7289391  51.6104221  29.2859316 103.3338165  52.1473360
  29.2928743 102.6179314  50.8137560 106.1917312  91.3111687  64.5945454
 105.6609089  91.4503956  65.3788090 106.7876143  92.0599461  64.5726013
  21.4044571 128.7456894  62.7877760  21.2751102 129.3811893  63.4917927
  22.0614505 129.1479969  62.2196770  42.7298880 140.9644318  79.9104357
  43.2599545 141.6031647  80.3871822  42.5517273 141.3822460  79.0678644
  40.4087305 135.0404549  16.1868039  41.0623121 134.4406796  16.5464250
  40.5797386 135.8730221  16.6270677   9.2172140 125.9747028  75.6220293
   9.7991842 126.0606670  76.3771152   8.4652817 126.5273857  75.8350229
  35.9264302  10.4448586  64.9407101  35.6691623  11.3627701  65.0272083
  35.4280329  10.1263314  64.1881371  17.0095634  94.9866199  88.8394451
  16.2030303  95.0367165  88.3263874  17.2609305  94.0638161  88.8010311
  32.9144788  88.8647270  71.9422007  33.4791946  88.6804485  72.6927805
  33.0115294  88.0992126  71.3758039  23.0540991 112.8141117  58.3101845
  22.7566695 112.6825047  57.4099350  23.8534427 113.3337212  58.2247972
  43.5650539  97.6681328  65.8859253  43.1205320  97.3057079  65.1195860
  44.4737816  97.7780533  65.6059885 120.8733869 115.3183937 106.6280651
 120.2343831 115.8943081 106.2082672 120.9534464 114.5742130 106.0313988
  17.2493553 105.0154018   2.0520631  16.8979156 105.9022903   2.1305505
  17.9826128 105.1013756   1.4428274  29.3119097 124.0391922  66.2289953
  29.2074299 123.2209206  66.7145348  28.5754967 124.0506172  65.6176090
  11.5699410 136.7641735  81.0893536  10.6628931 136.4635468  81.0334682
  11.5530300 137.4546146  81.7521000  47.9002428 131.3751125  70.0850916
  48.7636280 131.5710449  70.4489708  47.3118973 131.9938087  70.5178595
  32.9823780 107.9787636  76.8131971  32.0939207 108.2822704  76.9996309
  33.3322763 107.7233315  77.6667500  48.2012081  10.2044278  62.8445005
  48.9554596   9.6234017  62.7458096  47.5006533   9.7726422  62.3556137
  28.4784102 123.4055424   2.7628461  27.7603889 122.7764893   2.8333131
  28.2583570 124.0917492   3.3928720   7.3776585 142.5901699  73.2446909
   7.1739906 141.7679501  72.7989292   8.3318275 142.5913906  73.3207941
  41.8372440 105.5871201  92.0682144  42.4300718 106.0212421  92.6816750
  42.2974873 104.7865486  91.8162727  11.9285989 122.5177956  99.4820976
  11.0487056 122.7038574  99.8098183  12.4744344 123.2100582  99.8550034
   6.3656873  94.0066338 100.0626755   6.0766929  94.8058414  99.6222496
   6.6206276  94.2949390 100.9390926   8.1585306 105.5444145  70.2986050
   7.9738337 106.3061237  70.8480740   8.5974681 104.9274445  70.8841944
  40.9157991 127.2292042 100.8200932  40.9095144 128.1629086 101.0307693
  41.3090658 127.1829510  99.9486351  35.8126855  85.0913429 104.0514755
  35.9801841  84.7325039 104.9229240  36.3893008  85.8529949 103.9911938
  10.7706177 103.4690189 103.3616066  11.4210522 104.1549397 103.2110500
  11.2876356 102.6865673 103.5531902  40.0425482 103.3352470  91.0185432
  40.7091236 103.9150143  91.3870239  40.5397558 102.6751232  90.5355644
  36.8783450 118.7440014  82.7777100  37.4199343 119.0266037  83.5146332
  36.2843800 119.4782162  82.6215744  49.7672319 135.9912586  14.6880571
  49.3009281 135.8180523  15.5058614  50.1734734 135.1544952  14.4621412
  40.9016418  75.8264208  72.2325134  40.0898170  75.3311110  72.1236944
  41.1015129  75.7565975  73.1660032  53.4685850 102.2526169  41.9101524
  54.2999125 101.8587971  41.6455269  53.5432386 102.3548126  42.8589487
  20.2396321  95.2751732  55.6664515  20.2263546  95.9992790  56.2923241
  19.6846890  95.5718327  54.9451542  55.8105993 111.1431694  44.3957424
  56.3773441 110.8380604  45.1042175  55.0963926 111.5999222  44.8401785
  15.5320430 131.5287876 102.7477932  15.0100338 132.1593094 103.2439613
  15.2417195 130.6741333 103.0663776  44.4821358 120.5770302  62.2676802
  43.8817310 119.9139977  61.9268894  43.9293051 121.3423729  62.4253464
  62.8570080 120.9273052  94.3606377  62.6302004 120.4824162  93.5440159
  62.1005249 121.4827728  94.5488739  55.3170156 125.7244396  86.7588711
  54.9659014 126.3837147  86.1602879  56.2164545 126.0066128  86.9250774
  53.7661362 142.0147991  99.9876976  54.4929361 141.3924408 100.0132656
  54.0857840 142.7763462 100.4715443  38.8062453 117.9969597  92.1284199
  38.4854484 118.3170509  92.9715443  38.0158305 117.8720093  91.6031933
  44.5153570  98.6433411  85.0153828  44.5073032  98.7816143  85.9625053
  43.6303186  98.3422470  84.8097515  56.9096994  88.2930660  69.2923164
  57.4954939  87.8747272  68.6613894  56.6432190  87.5844860  69.8780918
  28.6650252 106.9641972  88.2328987  28.6721277 107.6160717  87.5320148
  27.8800845 106.4422417  88.0665874  10.2543449 118.7364674  95.1098728
  10.5736470 119.1708565  95.9008217  10.9529281 118.1264591  94.8730183
  11.8619347  24.7392254  46.5157747  11.1659706  24.7060948  47.1721029
  11.6907096  25.5433064  46.0255003  44.2619801 132.3240376  99.7887421
  45.0680447 132.4147701  99.2805481  44.3392324 131.4677620 100.2095127
  22.9959607 124.2371368  82.1999454  22.4062395 123.8762093  82.8619099
  23.4981132 123.4834576  81.8900299  49.3286943 114.5251274  31.5616441
  49.3991470 113.5736275  31.6385198  49.4229889 114.6973610  30.6247997
  33.5207725 120.5949116  76.9879103  33.7406826 120.1672077  76.1602974
  34.3624640 120.7104778  77.4288559  58.3214998 139.0579700  65.6826353
  59.2735338 138.9813232  65.7457876  58.0968523 139.7609997  66.2921476
   9.8882878 119.4635773 101.2526703  10.1209664 118.5753536 100.9821987
  10.3252804 120.0298595 100.6165981  17.1098185 126.9837093  77.0857620
  17.2513437 127.9303455  77.0947599  16.6256368 126.8062496  77.8921795
  70.0817633 119.5776844  73.0519152  70.0111628 118.9406204  73.7628317
  69.1778612 119.8348999  72.8701591  44.2365122  84.0187550  70.1520109
  43.8804150  84.1183281  69.2691088  45.0105667  84.5817471  70.1629734
  11.4756215 121.6179752  71.5263844  11.3678157 120.8461666  72.0821857
  11.0607719 122.3268986  72.0178747  51.3068438 115.6872559  54.9127483
  52.2326088 115.5152607  55.0848341  51.1816311 115.4318142  53.9987993
  35.9127116 112.8425503  89.3607903  36.5860677 113.1956482  88.7792873
  36.0526013 111.8958092  89.3421459   7.3835659 118.4827805  95.4133320
   6.8501520 117.8200150  95.8520126   8.2853788 118.2468319  95.6307983
  14.1763079 128.0517483  77.0023489  14.0133619 128.4900475  77.8375578
  14.0048873 127.1268845  77.1797562   4.0974173   3.7806301  65.4807329
   3.5197151   4.0935307  64.7846127   4.9361533   4.2074566  65.3058720
  20.9614515 115.1994038  84.9655628  21.6223049 115.5420971  84.3638420
  21.4638901 114.8695660  85.7105350   3.6021176 132.0127583  18.6848871
   2.7648732 132.1023941  19.1401044   4.0151066 131.2506390  19.0908948
 123.5180896 139.3502045  97.9234600 124.1392234 138.7471104  97.5151539
 124.0481540 139.8634148  98.5332775 113.3457298 123.1423759 108.2712364
 113.5723276 122.5901318 109.0195084 114.0926904 123.7330914 108.1746197
   7.4659449 127.7549362  97.4378586   7.7351302 127.2004509  98.1701946
   7.8726763 127.3524189  96.6705322  17.8039145 121.7024803   3.0994932
  17.8200603 121.4373875   4.0191118  17.9702258 122.6449203   3.1189481
  59.9902868 129.1794205  49.7214508  60.2829885 130.0531006  49.9807453
  60.1400566 128.6370277  50.4958010 123.2771940 113.3348656  96.4193630
 122.8275654 112.9131985  95.6870651 123.1404184 112.7416325  97.1580124
  45.7416344 114.9846840 101.1945248  45.5607700 114.7871876 102.1134949
  44.8835993 115.1808929 100.8183479  51.2035036 124.0625381  86.2447548
  50.3192568 124.4286060  86.2630558  51.4444494 123.9721966  87.1667194
  45.1626110 139.4881821  92.1519184  45.1121235 139.0706730  91.2920475
  45.0865316 138.7648678  92.7742100   1.5010132 109.9944019  97.3434353
   2.0593111 110.2662086  98.0718899   2.1140176 109.7502995  96.6499805
 116.0534424 141.8646240  70.4106617 115.1316721 142.1177673  70.3607893
 116.0785324 141.1825562  71.0817766  47.0317221 109.4705582 108.9562321
  47.8258848 109.8784828 109.3013954  46.3977718 109.5386314 109.6701717
   2.6455915 116.3396263  62.6682138   2.2944276 116.5326786  63.5374928
   3.5895598 116.2576866  62.8040123  23.0547380 112.9594231  77.9006195
  22.2886729 112.5227356  77.5282335  23.7569547 112.3127937  77.8299856
  53.6042404  97.9682446  66.8660879  53.3366966  98.8465977  66.5956306
  54.3829203  98.1101608  67.4043751  55.2123451 120.4363060  82.4171448
  55.7475471 120.3846073  83.2090569  54.9101734 121.3441849  82.3911285
   2.3396726 114.7812080  83.0553341   2.7363557 115.3501797  83.7149906
   1.6429821 114.3211746  83.5235405  44.2853928 141.9901848 106.2465096
  44.8605919 141.9802380 105.4814816  44.7782278 142.4723911 106.9104576
  36.8065143 132.9361820  59.8477411  37.5518680 132.3801994  59.6206760
  36.8516088 133.6627960  59.2262602   7.0863295  92.4046421 105.5952454
   6.3197219  92.4203396 105.0222683   6.9082940  93.0778408 106.2520123
  17.9126942 145.4496861  78.3062077  17.0865059 145.0161552  78.0924416
  17.7517200 145.8683205  79.1518211  42.2153330 139.5873165  96.6768265
  42.8325510 140.2371597  96.3407040  42.4860239 139.4467068  97.5841236
   3.5992110  96.2719440  75.6116486   3.8805556  96.4733219  76.5041304
   2.8534842  96.8522835  75.4589033   1.1880750 119.0985298  56.0475111
   0.9601828 118.7616158  56.9139910   0.3584059 119.4101334  55.6858730
   8.5893029 112.4091434 102.5686741   8.9763767 113.0703926 101.9949436
   8.9413089 112.6089859 103.4360790  50.3616714 135.3304386  86.7774487
  49.7027779 134.7455025  86.4033604  49.9391651 135.7035446  87.5510788
   0.9168446 115.4083633  86.5962696   0.7955471 115.9536648  87.3735523
   1.8314205 115.5443001  86.3486767 102.9962391 123.6278820  95.5392647
 103.8623018 123.2864571  95.3165627 102.7886886 124.2357731  94.8295975
  35.9610343   4.3053799  60.3171492  36.6534901   4.0796738  59.6960258
  35.8105564   5.2404862  60.1786995 101.8549246   1.5662747 108.9673519
 101.7839450   2.4590283 109.3052483 102.5694055   1.1758023 109.4706154
  44.0225363 131.5334606  51.3624525  43.6396074 131.5066528  52.2393084
  43.7790823 130.6954861  50.9690523  40.7321310  92.5686264  72.0995426
  41.2656116  93.1520748  72.6391935  41.3680983  92.0463467  71.6106701
  11.0050464 133.3445835  87.9211330  10.1049471 133.0457211  88.0505085
  11.2317359 133.0474758  87.0398998 120.4549236 119.4924736  70.4674244
 121.3952584 119.3179703  70.5068207 120.3460327 120.0447273  69.6932268
  38.5041285  11.0823040  53.8474369  38.8810468  10.4063588  54.4106913
  37.8760529  10.6134110  53.2979918  40.8291960 113.1779289  65.0756359
  41.1424398 114.0414143  65.3448963  41.0348988 113.1289101  64.1420841
  29.2471790 102.9692841  89.3265820  29.3454695 102.0936489  89.7005272
  29.5108962 103.5614777  90.0308514  25.2579141  96.1832333  66.4039612
  24.9687910  95.2859688  66.5699768  25.0713515  96.3271999  65.4762220
  46.2552738 131.3718128  64.5000410  45.9856510 130.9027863  65.2896929
  45.6493759 132.1105289  64.4415951  63.1747770   8.0179673  84.4802284
  63.1767845   8.9266186  84.7811794  62.2507238   7.8166180  84.3325233
  17.3140264 134.5530510  90.3811455  17.3091054 135.1754093  91.1083889
  18.2361066 134.4796562  90.1349545  39.2079520  98.7009239   3.7208978
  39.9427748  98.1452274   3.4611551  38.5087729  98.4758186   3.1071321
  69.2425728  69.4408417  -0.1558932  69.9359751  69.3169546   0.4922429
  68.9894724  70.3593159  -0.0632724  27.6123643   0.7405835  69.8124552
  27.5740910  -0.1428528  69.4459581  26.9176006   0.7571202  70.4706812
  40.8480692  83.7213421   9.2643777  40.8448553  83.3493328  10.1463262
  39.9469113  83.6194324   8.9581624 123.4669676 122.3004150  82.2348499
 123.6618928 122.3425388  83.1710434 124.1468292 122.8347683  81.8243694
  50.3477764  18.6882000  97.4569130  49.9125862  18.1708508  98.1345463
  51.2697697  18.6926251  97.7140903  24.2662454  90.2866936 103.3570480
  25.1919508  90.3808403 103.5816288  24.0850806  89.3540859 103.4739113
   5.9299898   5.7694607  64.5867634   5.7729137   5.3105622  63.7615538
   6.2450588   6.6342049  64.3237305 124.0757580 142.1070194  70.1972580
 124.9772381 142.3607159  70.3952599 123.5748311 142.3847771  70.9641743
  38.9306331 112.3255730  67.3785686  39.0421844 111.6231155  66.7379904
  38.9438033 113.1287384  66.8580055  38.3743000 141.1802387  89.7238731
  37.6799369 141.4074612  89.1054344  37.9597068 140.5733776  90.3371048
  56.4695263 107.4776459  80.2614212  55.9559584 106.6968250  80.0545502
  56.7967367 107.3213387  81.1472797  28.0598474  96.2643528  66.4474678
  28.5269380  97.0881176  66.3079214  27.1576309  96.5282154  66.6280651
  27.4761415   8.5728913  64.1663837  26.9938755   7.9687577  64.7308969
  28.2075310   8.8728695  64.7061205  25.1194477 138.6524200  61.7467022
  26.0690975 138.6766720  61.6292000  24.7674131 138.6723042  60.8568096
  33.9946461  10.8108025  80.6122971  34.4549704  10.4668980  81.3778400
  34.6899271  11.0185032  79.9880505  83.0752277 110.6192398  75.6672573
  82.3143005 110.0778198  75.8772421  83.0514050 110.7065868  74.7143507
  19.1332936  79.6994495  75.5899811  19.8682857  79.6311665  76.1993694
  19.3513358  79.0923834  74.8827600  28.8956356  96.3199520   1.2837545
  28.7098002  95.6425095   0.6335393  29.6498466  95.9856033   1.7691461
  22.7567315 117.0335388  84.1162205  22.9201961 117.5165367  84.9263000
  23.4861684 117.2717094  83.5440159  47.3493433 130.8988857 101.7751789
  47.1661901 130.5466461 100.9041882  46.7744160 130.4043865 102.3592758
  92.4550766  77.9799891  70.2495337  92.9750914  78.6463594  70.6987190
  92.1298880  77.4164581  70.9516144  54.9213696  92.8825378 106.2961102
  54.4140244  92.6787758 107.0818043  55.1660252  93.8020134 106.4007473
  16.6326380 128.4858131  82.8336906  16.7078638 129.3301010  83.2783794
  17.5346828 128.1754494  82.7547932   9.8565656 128.7146854  91.7114735
   9.1764849 129.0501595  91.1273670  10.2317357 129.4967365  92.1163082
  15.9200513 121.7172718  82.9843140  16.7415285 121.2725639  83.1932354
  16.0877824 122.6376915  83.1866169  28.5671425  83.8839722  74.0129471
  29.3795776  84.2383862  73.6516047  28.6292005  84.0532684  74.9530077
  64.1575098 115.0714684  90.5922794  64.9607658 114.6014404  90.8160973
  63.4859228 114.3907928  90.5487823   3.8640669 107.6726151  92.6187325
   4.3204090 106.8648720  92.8544044   2.9565793 107.4026680  92.4779320
  32.2389531 102.2477913  81.2631226  32.7286148 102.8979397  81.7668819
  32.8576398 101.9437695  80.5990219  52.3192978 107.9222679  43.5302448
  52.6146221 108.6962891  43.0507565  51.3738918 108.0423069  43.6198616
  32.6507211 110.6670856  83.9194965  32.0587802 110.1389027  84.4550896
  32.4139237 111.5721035  84.1222286  43.2322693  68.8006687  81.6663742
  42.7749348  69.3815994  81.0584354  42.5498962  68.4933853  82.2631836
  36.1735249  94.8303890  44.1926003  36.3105917  93.8879490  44.0964270
  36.5571928  95.2101135  43.4021330  38.0572915 124.4776249  70.8916950
  38.9031744 124.1266251  71.1701107  38.2330275 125.3975773  70.6941271
  33.0159092  94.5980740  77.1959925  33.9448667  94.3692493  77.2261524
  32.7247119  94.3040657  76.3328648  21.0289288 126.4325905  97.0293999
  21.5951347 125.8524418  97.5383854  21.5026617 127.2638035  96.9994068
  17.3898447 115.6165314 102.0316792  18.1317461 115.1443291 102.4096203
  17.1817958 116.2919044 102.6772976  20.4412007  97.7915764  97.0382500
  21.0362124  97.1354866  97.4012089  20.3537750  98.4454346  97.7318287
  26.2281036 119.7078323  20.8743707  26.0278893 120.1781654  20.0650922
  25.6380510 120.0885010  21.5248815  25.3888845 108.7027740  58.7647581
  25.2874660 107.7696323  58.5771847  24.7422600 109.1314411  58.2040882
  15.5931950 119.5844746  99.9468327  16.4019060 119.1646767 100.2400684
  15.3129685 119.0645790  99.1935635  19.3469691   0.7726841  10.9200136
  18.8713193  -0.0273437  11.1434690  19.1061127   1.3943081  11.6068975
  42.9056072  65.3308296  96.9392395  43.1736183  65.2390623  96.0249233
  41.9525194  65.4114962  96.9025135  13.9836943 140.0466824  65.6070614
  14.8878264 140.0600243  65.9210682  13.4990203 139.5861340  66.2920523
  18.4983182   2.2140103   8.0186216  18.4385896   1.7136269   8.8324300
  18.5241151   3.1282597   8.3009473  33.0996490   3.8382893  72.6693344
  33.2707763   4.6860485  73.0795097  32.1590924   3.7023335  72.7838039
  35.7352805 122.4641132  92.2190189  35.0497317 122.8965092  91.7098141
  36.1406803 121.8526363  91.6042233  32.0853186 111.3539982  58.2010412
  32.4731779 111.2301064  59.0673256  31.7546082 110.4885006  57.9606724
   8.0294567  91.4479828  93.9245796   8.0467379  91.9717312  94.7255993
   8.7295628  90.8060551  94.0429878  23.9355469 140.7955360  87.7103615
  24.1822004 141.4115715  88.4002113  23.4296560 141.3205051  87.0901012
  65.2556133 117.6634312  73.2921696  64.7872353 116.8671036  73.0417490
  66.1672449 117.3863506  73.3837271  37.9871368 113.9892197  81.1595345
  38.2999730 114.8392010  81.4692211  38.2799530 113.3685875  81.8268490
  36.4161801 120.7465267  44.0779209  35.9874678 120.2672386  44.7869539
  35.6950927 121.1172676  43.5691833   3.6666808 113.8607597 102.1273613
   2.7760011 114.1228008 102.3602867   3.8723233 113.1475830 102.7317715
  20.2240729 109.9145126  92.9451561  20.3669643 109.1069603  93.4387970
  19.9142456 109.6200371  92.0886898   2.3373058  96.3870335  71.7752075
   2.5787243  96.2384892  70.8609390   2.7571079  97.2168255  72.0019960
  24.2480326 120.0721264  82.1497726  23.4769058 119.9087906  81.6067028
  24.7142124 120.7757759  81.6983318  83.9936037 136.1773586  78.0020761
  84.2686386 135.7347298  78.8049889  83.0372877 136.1434269  78.0254126
  15.8340824 114.3729782  79.9031258  15.4521108 115.0653744  80.4425049
  15.2316368 113.6352730  79.9984264  46.6242599 130.6613064  91.4086723
  46.8393421 131.2765121  90.7076073  47.1938562 129.9085903  91.2499046
  51.6543531 111.5531254  79.0107250  51.3037586 111.3044834  78.1554508
  52.0793152 112.3973179  78.8591671  29.1978717 112.9547215  68.6358881
  29.7885227 113.5907173  69.0394640  28.8533258 112.4477196  69.3710518
  23.1951976  13.3394604  88.2959557  22.5158620  12.9169064  88.8214970
  22.9472804  13.1540852  87.3901939  38.7576604 120.7402992  68.3943701
  39.4405484 120.9364700  67.7529573  38.2208920 121.5323257  68.4225655
   5.4542732  63.1644630  86.5648079   5.6487465  64.0510082  86.2607479
   6.0938984  62.6116133  86.1159515  46.2992477  15.2232533  71.4918995
  47.1410370  15.0692158  71.9207382  46.4301682  14.9230557  70.5924749
  40.6602192 135.1790714  51.7650700  41.2299395 135.8276463  51.3515568
  40.0005531 135.6982708  52.2249746 113.6470122  89.5073795  61.3933802
 113.9588959  88.6462688  61.6716814 113.8445551  89.5426846  60.4574537
  12.2231376 123.4468365  31.2714052  11.5244734 123.5006523  31.9234824
  12.0846832 124.2086220  30.7085991  17.9077482 139.6205997  40.1790476
  18.2194340 140.3526497  40.7112026  18.3927763 139.6981335  39.3574834
   4.7673291 111.9706059  39.7295403   4.2739016 112.4251366  40.4123068
   4.1270447 111.3909435  39.3169188  31.6010332 125.3392220  53.8561583
  30.9575367 125.2921391  53.1491041  31.0813832 125.5080128  54.6421003
  16.7077768 131.2690163  66.4543200  16.0668623 130.7828140  66.9730330
  17.4792206 130.7026958  66.4346933  45.6245136 112.9325199  55.5897665
  45.9314775 113.8303947  55.7155037  46.2597322 112.5442696  54.9881077
 118.4061266 135.4336739  61.1294889 119.0357680 136.0281181  61.5374327
 118.2996703 135.7711220  60.2400923   3.8100976 125.2589512  97.5303459
   3.8030535 125.5458450  96.6171837   3.9170122 124.3089581  97.4821186
  47.2925282 136.1611080  26.2664938  46.8875837 135.9979820  27.1183395
  48.1188488 135.6789780  26.2978435  57.9753971 109.9726009  52.5769567
  57.1592951 109.9785519  53.0771303  58.4995413 109.2816353  52.9820251
  16.4324236 139.1378784  68.3553410  16.5561664 139.8891830  67.7752829
  17.1203411 138.5229015  68.1007910  37.5654173  87.6641369  95.6516361
  38.3107638  87.2166634  95.2510738  37.4744177  88.4741402  95.1498032
  58.1935501 101.3226032  59.7355080  58.3342218 100.8326721  58.9253187
  58.4331703 102.2228718  59.5156765  11.8574214 136.3798428  66.1761522
  12.1982944 135.4936314  66.0550499  10.9199095 136.2575150  66.3256121
  24.9330711 109.1631889  70.7512522  24.2473698 109.8167515  70.8887291
  25.4328442 109.1650295  71.5676212  36.4071369  97.0076847  59.9268198
  36.4857626  97.8900051  60.2895403  35.8407354  97.1125984  59.1623497
  27.8932619 115.5321026  66.3896084  27.0232749 115.5112171  66.7882538
  28.4516048 115.9356594  67.0541573 123.3526001 117.6605892  98.5406017
 122.8455982 116.8887997  98.2885456 122.8973085 118.3926105  98.1245708
  27.5795388  94.5559978  54.5755577  28.4634972  94.5864105  54.9415112
  27.0442152  94.1785145  55.2735329  17.7231061 110.2029419  91.0311890
  17.4688458 110.3426647  90.1190090  17.4604952 109.3015575  91.2176514
 116.7312062 104.0247822  28.3712864 117.0574487 103.1268501  28.4304738
 115.8965117 104.0077019  28.8395023   2.1256873   5.2706223  63.9421272
   2.3251441   5.5891495  63.0617952   1.1700608   5.2226048  63.9686632
  28.8870144 118.1913662  95.5801392  29.2633200 118.9702034  95.9900665
  28.0168653 118.1117344  95.9709549  32.1101785 100.5556679  74.6580744
  32.2510028  99.9824715  73.9045143  31.8029213 101.3789845  74.2786360
  24.6325922 116.5109730  23.4911060  24.1206861 116.4075851  24.2932868
  24.9497557 117.4135017  23.5240293  72.0837021 133.5428333  39.4007874
  72.3219061 132.6251793  39.2688274  71.1632252 133.5161591  39.6620226
  31.7429852 115.7299709  56.0293150  31.8035555 114.7747040  56.0351372
  32.1235180 115.9991837  56.8653488  24.5296121 128.3832169  81.6086388
  24.3915224 129.3010139  81.8427753  25.0716782 128.4160709  80.8203983
  30.0376940 109.3981838  84.8348331  30.5305243 108.6402607  85.1493263
  29.6916676 109.8052311  85.6290722  23.7587404   3.6074620  86.6749096
  24.6190453   3.6188107  86.2554169  23.6356473   2.6972466  86.9443512
  11.4225852  90.6946468  69.2782211  11.5961313  89.8834133  68.8007164
  10.6301129  90.5108261  69.7826290   8.6014634 146.3450432  96.5776730
   8.7003994 145.8773994  97.4069786   7.6669419 146.2856770  96.3792324
  21.7227411 118.9223957  48.6550665  21.9827938 119.1985703  49.5338917
  21.7785048 119.7190380  48.1273508  40.7686710 106.0077190  58.3857775
  39.9123454 106.4125919  58.5236645  41.3875246 106.7368889  58.4253454
  32.2276139  93.1577492  55.9538889  32.5090837  93.4622955  56.8165922
  32.1878433  92.2050381  56.0374355  53.2393217 132.1503258  59.9423265
  52.5727510 131.5227985  59.6627998  53.8988686 131.6173077  60.3863096
   8.0510229 117.0285416  88.9633083   7.9199827 116.8781567  89.8994923
   8.6566722 117.7686214  88.9220715  60.5615997 129.5236969  61.1852884
  60.7655716 130.4530716  61.0808706  60.7421589 129.3409920  62.1073771
   3.9384335 133.4123135  89.8128319   3.4623271 132.6053333  90.0086212
   4.3236747 133.6721611  90.6496716 124.7792071 129.7824383  65.9773636
 123.9622173 129.5172691  65.5549335 125.2975275 128.9789581  66.0220003
  54.8145628 121.2627220  61.7394543  54.8761940 122.0515633  61.2007856
  54.0129280 121.3824368  62.2486544  34.4090891 139.0910053  57.8323936
  34.4059825 138.5702419  58.6355305  34.4975471 139.9952602  58.1336069
   4.3798703 118.2648945  66.0942650   3.8059396 118.4623051  65.3540850
   5.2131176 118.6781693  65.8681250  48.9315987 143.5626316  51.6622877
  49.5739269 143.2964611  52.3201656  48.4655714 144.2952347  52.0652151
  19.9753809   1.6592484  75.2822447  19.1245329   1.9141274  75.6390715
  20.4421210   1.2772732  76.0255337 118.6964620 108.0085278  79.8478556
 117.7852584 107.7382755  79.7342634 118.9972830 108.2145882  78.9628267
  41.0589933 111.7940044  72.5411654  40.9391022 111.4066315  71.6740990
  40.2084303 111.6928005  72.9683971  27.6236844 129.6237183  84.3752289
  28.2421041 129.4504929  85.0850010  27.2867298 128.7605572  84.1351414
  62.5798512 146.3213825  61.4010954  62.7656698 145.5780602  61.9748354
  62.3425055 145.9238434  60.5633259  29.3850565 108.8434601  49.6647644
  28.4373808 108.8300323  49.7987843  29.7021866 109.5189190  50.2642775
  44.7540045 116.2269688  52.8830385  44.3974161 115.8081055  53.6663866
  44.8201275 117.1531010  53.1156826 123.4940963 120.3228664  24.3655682
 123.8151116 120.7121563  23.5521603 123.1104890 119.4881725  24.0965509
  22.9190373 145.6161308   8.7736360  22.7442074 144.7161961   8.4983388
  23.8327789 145.7673264   8.5318796   6.9743943 145.7454300  60.5227804
   7.6129150 145.8803272  61.2230110   6.4560330 144.9947643  60.8126593
  42.2016621 117.6675510  54.4075108  41.6337061 117.6430702  53.6374044
  42.0360470 116.8370724  54.8537397  27.3414063  92.8579044  44.3943691
  27.5297165  91.9194126  44.3984318  27.1267986  93.0630684  45.3043604
  32.7559638 114.2673206  74.8500299  32.5474882 114.1892338  75.7809830
  33.1551075 113.4275341  74.6227074  22.8812981  93.6469460 100.7931328
  22.1613073  93.9293671 100.2291393  22.4643540  93.0972576 101.4566326
  29.9903083 123.4527493  84.7805595  29.7980571 122.5306702  84.9509430
  30.3335261 123.4647369  83.8870907   8.0707097 126.3266468  44.8460627
   8.9738774 126.5654945  44.6375561   7.8026539 126.9608784  45.5109882
  37.2331238 117.5921440  59.2867994  37.8150916 117.8735447  59.9927425
  37.3243403 116.6395187  59.2665720  35.2674723 124.8115158  47.4055910
  35.5242085 124.7709560  48.3268261  34.3368649 124.5874691  47.4062157
   0.8135369   0.8534699  74.8691416   0.1625551   0.5117207  75.4820538
   0.3270001   0.9944992  74.0569687  22.2237515 137.5329304  46.5109062
  21.7599320 138.0063820  47.2015190  22.1056485 136.6093254  46.7327976
  10.6353843 109.8526859  77.1201801  10.3715956 109.6512032  78.0179834
  11.4267421 110.3825474  77.2162437  21.7312717 128.8770866  74.3086004
  20.8391976 128.9883137  73.9798689  21.6213846 128.4597588  75.1629972
 119.1292608  87.4844551  59.9572849 118.1797892  87.4531174  59.8400068
 119.4827587  87.1105671  59.1501427  54.6254873 103.3790874  77.0859623
  55.4588127 103.3773041  77.5569153  54.4748783 104.2991543  76.8691397
  33.9809275 101.5377235  27.9285860  33.2199502 101.5202045  28.5089636
  33.6103797 101.6249752  27.0503426  57.2574854 130.3638172  70.8081341
  56.7514372 130.9758472  71.3425159  57.8726673 129.9621677  71.4216995
  46.7380476 141.7233753  55.1653624  47.3315763 142.4297047  55.4204130
  47.0782709 140.9502888  55.6157112  36.9097352 105.1558590  59.2763042
  36.9807553 105.2578354  58.3272028  37.4694395 104.4063377  59.4792128
 114.0876467  93.3643246  72.9711056 114.7779841  93.7969780  72.4686289
 114.5513005  92.9162216  73.6785316  31.1636567 136.3628578  79.9797964
  30.7699943 136.0741901  80.8031654  32.0729303 136.5596008  80.2050686
  54.8067474 130.5965519  49.8778439  55.6484604 130.4321384  49.4527292
  54.5456171 129.7453690  50.2293015  14.9089396 135.5891228  50.2828312
  15.4353929 135.2206612  50.9922838  14.2842495 136.1657524  50.7227087
  47.5072861 135.5217171  71.9780779  47.9874039 135.1731491  71.2269306
  47.4868202 134.7991371  72.6055193  17.5719655 103.1883526  36.9900584
  17.7551246 102.2488499  36.9843602  17.8127635 103.4846401  36.1123013
  26.7366529 112.0298958  37.1688771  27.2307611 112.1552467  36.3587093
  25.8372736 111.8761444  36.8795514   8.0379087  97.3861217  74.0465450
   7.3937398  96.6852760  73.9460897   7.5433463  98.1903839  73.8890457
  43.6695194   5.5219155  48.2976627  44.0612125   4.7351055  48.6768103
  42.9034615   5.2022438  47.8210115  26.7128372  91.0734844  51.3594484
  25.9960628  91.7016220  51.4483547  26.5918946  90.6936646  50.4891968
  32.0630479 118.4671974  40.5341005  32.7292371 118.9105892  40.0089025
  31.6091681 117.8970146  39.9135256  49.7629976 104.4753170  78.2011318
  50.6263971 104.7663212  78.4945440  49.4827843 103.8474274  78.8670635
  28.5388255 114.2451859  64.1414642  28.1795073 114.5423031  64.9774313
  27.8592730 113.6783314  63.7766027   6.0892594 112.5137901  51.6817951
   5.9891564 112.5839138  52.6311588   6.2206018 111.5789986  51.5232038
 118.0296088 111.9053268 108.4829300 118.6965639 112.5773525 108.6236268
 118.3734620 111.1300182 108.9266468  31.5690589 118.7712193  18.7296236
  31.8458867 119.2687607  19.4990742  30.6686473 119.0551949  18.5719907
  12.1842527 136.7880630  49.4017792  11.6131854 137.5065708  49.1300011
  12.9256320 136.8297577  48.7977505  13.0774629 133.0353832  34.4220757
  12.6050985 132.9094124  33.5991311  12.5928915 133.7268543  34.8729563
  34.0482378  12.4179440  58.2812357  33.3349943  12.6188450  58.8871670
  34.0958500  11.4619427  58.2758904  43.2898998 103.3423042  38.7716770
  43.7663555 103.8383770  39.4373560  43.0234480 102.5381279  39.2172647
  36.7621064 145.1601028  50.1271725  35.9373355 144.7467899  49.8719072
  37.2994184 144.4394398  50.4560661  10.6442618 123.5186481  73.2174301
  10.1637208 123.1030560  73.9333916  10.7448983 124.4296169  73.4935474
   5.7405156 105.7771587  52.7550411   6.2689447 105.9885883  53.5246468
   5.0940299 106.4814568  52.7075481 110.2113850  90.8947468  58.2433939
 110.6987709  91.0554123  59.0513992 109.4479758  90.3883266  58.5208464
  18.2494259  12.1703129  28.4026933  18.3108532  11.9200592  29.3245578
  18.7428689  11.4946442  27.9377031 116.9341952  86.3823700  73.4244013
 116.6107244  86.9823456  74.0964413 117.4546135  85.7401752  73.9070797
  60.2609491   3.4485321  52.1439791  60.6051397   3.1902104  51.2889719
  60.8383703   3.0182152  52.7745724  23.9883566 127.6493073  60.7926989
  24.2182994 126.8220901  60.3695345  24.1180062 128.3103561  60.1126766
 120.8036462 113.3488178  61.8488407 120.1798160 114.0731716  61.8975449
 120.2743829 112.5661755  62.0024204  21.1796379  11.0624581  42.5298119
  20.9829664  10.2364903  42.0878506  21.5864420  11.6047554  41.8540430
 113.5118765  80.8611870  51.5196133 114.0355534  81.4129353  50.9386110
 114.0524930  80.7571030  52.3026419 122.3595882 127.1178246  72.3694277
 122.6944847 126.9847298  73.2562017 122.9299859 126.5848732  71.8154907
   1.7592795 121.4976978  83.0291557   2.6663500 121.6968155  83.2611179
   1.7882401 121.3065243  82.0916843  42.2184229 143.9174366  72.8704309
  43.0968285 143.8505268  72.4960470  41.7773247 143.1151199  72.5912476
  16.0047054 118.3678913  72.5109005  16.5277493 117.5711632  72.4220991
  15.2307129 118.0927563  73.0022955   6.9475251 135.4368782  68.9318562
   6.7747581 135.6721115  69.8434782   6.0836703 135.4249382  68.5197353
 111.9714982  99.9027538  80.9934616 111.6545863  99.0017986  80.9296322
 112.6031334  99.8841095  81.7124367  11.7767823  85.3405666  71.1568546
  12.3753595  86.0870075  71.1291313  11.8156362  84.9695301  70.2753496
  30.9688711 114.9501419  59.3185616  31.2412930 114.9180126  60.2356100
  31.6820669 115.4070854  58.8727093  22.4411368 106.8616009  48.8283873
  22.2715974 107.7875805  48.6550379  22.5145984 106.4649582  47.9603386
 105.0270898  87.9249191  59.7208691 105.1169831  88.8542557  59.5099354
 104.5773620  87.5498676  58.9636993 117.8111965 125.3773403  52.0297909
 118.1120730 124.5547676  52.4158907 116.9695950 125.5469131  52.4530935
  34.7594881  93.1899357  82.5248814  34.8928332  93.7022114  83.3223915
  33.8444304  93.3451080  82.2907352  21.8107057 127.9365826  83.3356380
  22.3482609 128.6230755  83.7306023  22.1938682 127.1193027  83.6542034
  29.3081903 133.2172298  79.3055964  29.2140341 133.4327984  80.2334404
  30.1539326 132.7727222  79.2476034  43.8960886  71.8238735  45.3894663
  44.8217201  71.6160679  45.2619600  43.4513760  71.3947487  44.6584940
   9.9262697 104.1856194  42.2685003  10.5128467 104.8667526  41.9395399
  10.3086495 103.3670425  41.9523430  34.1898632 108.0429077  79.2264414
  34.5789814 107.2740555  79.6431875  33.4297276 108.2508755  79.7697449
 120.9119595   3.2606011   8.8229219 120.1940060   3.8344746   8.5556451
 120.7318393   2.4303608   8.3819047   6.1155486 119.3498898  43.9388514
   6.9892287 119.6885872  43.7433958   5.8697063 118.8558197  43.1567478
 110.5726034 110.7076931  65.2802038 110.6906862 111.0019016  66.1833811
 111.4437408 110.7775402  64.8897219   7.9760176 132.6435757  68.5184002
   7.7872086 133.5709095  68.6620522   7.1158701 132.2382545  68.4084320
  43.2529402 115.4355526  41.0822439  42.3447323 115.7378578  41.0831594
  43.4321260 115.2182770  40.1674128   7.3997957  92.7456570  79.1191769
   7.5253797  93.5649776  78.6404514   6.6995293  92.9376125  79.7428846
  28.6983776 117.0573902  76.9843006  29.1556787 117.2981739  77.7899837
  28.3104920 117.8760815  76.6752338   9.7520351  23.9881306  27.3888612
  10.3835499  23.7348538  26.7156076  10.2643847  24.4938450  28.0197287
 123.1505567 122.9272175  69.4416046 122.6367528 122.2508907  69.0002108
 123.8264467 122.4431133  69.9159956   7.2743469 137.8856754  65.4035711
   7.1436810 137.8934002  64.4553661   6.8721980 137.0670795  65.6940985
  43.2399130 143.9294147  66.1903238  42.3393679 143.7249660  66.4422226
  43.4193707 143.3489704  65.4506540   0.6900843 122.8003883  55.0350142
   0.5536333 123.7319565  54.8624325   1.5604642 122.6163292  54.6817493
  15.3638077 108.1886387  85.9470654  16.2637353 108.4708023  86.1106014
  14.9737477 108.1153393  86.8181038  52.0542288 115.3236294  75.4629660
  52.7160025 114.6498871  75.6189919  51.8804073 115.6936169  76.3284922
  26.3728213  73.5134792  93.0162048  26.8572974  72.8148031  93.4559250
  26.7735744  73.5737276  92.1490192   1.6432786 125.6910992  15.9181130
   2.5396773 125.3580093  15.8762598   1.3944739 125.8247280  15.0035250
  26.6179991 127.3820496  45.0909710  27.1784782 126.6764164  45.4137373
  27.2287726 128.0420780  44.7630405  58.3279562 125.5288315  53.3579159
  58.9504957 125.6074905  52.6350832  58.4178257 124.6229935  53.6539173
  64.8457003  91.0519886  62.4784803  64.8965120  90.5774498  61.6487455
  64.0944481  90.6664562  62.9292727  36.9948602 139.1374969   6.7156831
  37.1148133 138.7983608   7.6027147  36.5814281 139.9918461   6.8397752
  29.5327950  92.6809502  51.2170458  28.5898972  92.7714443  51.0792494
  29.6106553  92.0546341  51.9366980  31.9190288  97.8143597  36.9458079
  31.2010765  97.8307152  36.3129497  32.0867729  98.7361813  37.1415949
  46.1826468  12.2886830  63.6891603  45.4063559  11.9411259  63.2500648
  46.8993998  11.7321091  63.3846521  44.5699453 138.1903076  75.5914259
  44.4649839 137.5421619  74.8949242  43.7790012 138.7269878  75.5403566
  19.2032194 120.8543205  47.3635864  19.2907763 119.9290180  47.1346951
  19.7444296 121.3123703  46.7205381  23.1692314 116.7864513 102.5457382
  22.3342299 116.6693878 102.9988384  22.9250979 117.0265293 101.6518784
  23.8447785 110.1604652  57.3111820  23.5638356 110.3574753  56.4175987
  23.3729672 110.7911396  57.8551292  47.1556473 121.8342972  90.8463669
  47.8708649 121.7852020  91.4806271  46.9800949 122.7708530  90.7553482
  59.5674610 126.9462395  84.5846462  60.3200579 126.8805218  85.1724434
  59.9512529 127.0836830  83.7185860  26.9781280 106.0560608  67.0857286
  27.8441572 105.9540653  66.6909885  26.3893008 106.1831284  66.3418388
  38.2698321  33.2287197  89.1683102  37.3588157  33.0630093  89.4108391
  38.7690639  32.5658207  89.6453571  11.5543926  93.5133076  48.7615585
  11.6481149  94.2336369  49.3849230  10.6216502  93.5021973  48.5468531
 106.0047502 136.4673328  56.1858702 106.8310375 136.0665512  55.9159422
 106.2381334 137.0164108  56.9343853 123.6494922 138.0783463  75.1429033
 124.4928599 138.1842041  74.7027254 123.4616577 138.9415550  75.5114460
  12.4155056 143.1220055  82.6252937  12.6154208 143.1435871  81.6894531
  11.4594889 143.0964947  82.6654625  42.6193094 100.8384037  43.6625624
  41.7674351 100.5562878  43.9956522  42.8986597 101.5239716  44.2693472
 110.4219419 138.6984730  68.0853653 110.5307455 139.4625664  68.6515427
 109.4750411 138.6183834  67.9704905  55.4506159   1.0838013 101.9471836
  54.6456385   0.5701142 102.0132923  55.2990150   1.6725235 101.2078190
  56.2092161 113.0630779  38.6840558  55.8336449 113.4717083  39.4639254
  57.1550465 113.0991745  38.8266635  58.2943153 136.4485264  80.2825165
  57.7764368 136.8112564  81.0011673  58.6877346 135.6557465  80.6471443
   6.1851341 104.3621349  41.5779400   6.8251157 104.1266537  40.9062243
   6.7141509 104.6268749  42.3304605  56.4272404 139.8427868  70.1698494
  56.1897612 138.9378643  70.3721952  56.7977476 140.1811695  70.9849882
 121.6377754 118.0439186  90.6395817 120.8203352 118.5335922  90.5488014
 122.2653777 118.5231209  90.0985527 120.6424955 105.9202385  31.7773581
 119.8768432 105.4230213  31.4896345 121.3161600 105.7200241  31.1274958
  56.8388367  91.9256592  40.2057409  57.6470804  91.4190865  40.2854633
  56.2394333  91.5205193  40.8324862  49.7679043 125.6339455  45.5379915
  50.0791216 125.7527256  44.6406221  50.5255127 125.2890778  46.0105705
  42.2930050  83.8185215  96.6715145  43.0006933  84.1687012  96.1304188
  42.1578312  82.9296207  96.3431644  11.6114783  95.7192230  89.1485500
  11.7555785  95.8255100  88.2082462  10.8301687  95.1697254  89.2105198
  29.0563512 121.2633228  51.6664314  28.1871653 120.8720875  51.5787649
  29.3894815 120.9231377  52.4968100 124.0774884 109.2162991  77.0742321
 124.3705621 109.8121357  77.7636719 123.8164144 109.7918224  76.3553047
  50.7422161  98.4731483  46.5511417  50.1916361  97.7880669  46.1719894
  51.6178989  98.2934380  46.2089252  59.9636412 113.0645275  62.7386189
  60.0017023 112.8638649  61.8034601  60.5670261 112.4406147  63.1422091
  20.0425434 116.5457726   7.2905093  19.1070616 116.4399815   7.1175557
  20.2236605 117.4610138   7.0765936 116.8714309 134.9874306  86.8902206
 116.3401992 135.7033157  87.2388363 117.6446832 134.9664307  87.4540234
  12.7929366 110.8271980  40.0590897  11.9353986 111.0964775  39.7299290
  12.8374040 111.1958408  40.9413338  49.1083336  80.7362938  35.9562135
  49.6341896  80.2066612  35.3568816  48.5805130  81.2929535  35.3837037
  33.9398623 130.3723812  73.4983921  33.6282301 130.3450012  74.4030285
  34.6747327 129.7593212  73.4795618  35.3298402 101.9251633  94.3970203
  35.2573562 102.5329590  93.6611080  35.3995061 101.0621357  93.9889050
   6.7889339 103.8719845  74.2663431   7.5644869 104.0457726  73.7329149
   6.5384895 104.7290516  74.6112299  39.0885782 140.0188828  43.6000347
  38.5919785 140.7670689  43.2686329  39.4801068 140.3332806  44.4149494
  58.4639549 129.3292999  57.3513699  58.6352396 128.8137150  56.5632963
  57.6840067 129.8414230  57.1377230  54.6262932   0.6902390  64.9445724
  55.1628590   0.4500370  65.6999731  53.9511395   1.2659436  65.3037071
  38.6819839  86.5600491  60.8071280  39.0281034  87.4506092  60.8649921
  37.7545285  86.6488171  61.0266304  39.0138006 127.5665951  19.4567144
  38.2915235 126.9490147  19.5713139  39.6646523 127.2968769  20.1046920
  37.0220852 114.6232414  77.3360825  36.6521668 114.2277908  78.1253862
  36.6913557 114.0818119  76.6193533  18.8653374 103.6610031  31.2790942
  18.3908069 104.4507217  31.5386963  18.3330488 102.9401875  31.6157389
  40.1261187 122.4383831  96.9738388  40.3135443 121.4997101  96.9745731
  39.4015551 122.5374699  96.3562489  25.5693102 146.2261200  74.4163799
  25.0890565 146.3453579  73.5970068  26.1523676 145.4861832  74.2467546
 120.8922890 102.5642014  75.1273060 121.2355012 102.9966450  75.9092426
 120.0313378 102.9603481  74.9929142   8.3118576   1.3589840  82.3142910
   8.5307646   1.1334687  83.2184219   8.9970756   1.9718628  82.0476818
  29.0723515 103.6423874  59.1925478  29.4362688 104.3447399  58.6535645
  28.2484770 103.9982986  59.5254087  10.3444445  79.0831947  90.7613659
   9.8029029  78.6850739  91.4428806  11.1064982  78.5078478  90.6944084
  22.6942849   1.6378098  50.5335569  22.0304537   1.8261891  51.1969376
  22.9697227   0.7399540  50.7185459  29.4499636  39.1913014  93.3091259
  29.6841192  39.9674969  92.8002834  28.5268784  39.3181210  93.5283470
  50.0046635 116.7046833  63.5234404  49.1392183 116.9773388  63.2186508
  50.0320244 116.9762516  64.4408989  59.6288872 111.0872841  81.7515755
  58.7166214 110.8107853  81.8384552  59.5905256 111.8705463  81.2027073
  10.5018139  90.3189850  93.6478901  10.7790637  91.2244892  93.7872791
  11.2758505  89.7964764  93.8578510  56.1624575  98.6155224  70.8409643
  55.5641937  98.4522533  71.5701103  56.8530846  99.1622448  71.2156153
  24.3399596 111.6369724  40.0635386  23.4399462 111.3764858  39.8676991
  24.8182774 110.8109093  40.1347637  32.8346610 132.1394348  63.2419062
  32.7766681 132.9905510  63.6760235  32.3072791 131.5558910  63.7874174
 116.6143835  99.2806625  67.1023417 116.7390872  99.4836807  66.1752701
 117.5011600  99.1646194  67.4435091  37.0676327 122.0589828  50.8934927
  36.9467044 122.2837448  51.8160439  38.0142260 122.1029091  50.7583666
  23.9704323  88.4615135  61.4054394  24.7817540  88.5647964  61.9027519
  23.2871985  88.3961773  62.0726395  44.8974895   0.4245835  47.3177910
  45.7613897   0.2345066  47.6835489  44.4336748  -0.4120464  47.3517036
  21.7084432 116.5829945  88.9305019  21.6191483 117.2294617  88.2302570
  22.3047256 115.9245396  88.5739803   3.6348054 103.9951324  46.0347509
   3.9717904 103.2014656  45.6190968   4.3474042 104.2894650  46.6020250
  13.3558309 123.0394077  35.5096269  14.0990663 123.5634136  35.2108812
  13.4405458 122.2118092  35.0361848  28.7400651 102.7380371  61.8977928
  28.3096743 101.9110012  61.6809797  28.8914180 103.1584072  61.0512638
  15.8600998 137.3395348  25.2977324  16.7154229 137.4209881  24.8758054
  15.3891432 138.1317806  25.0393200  29.3195081 110.4760647  63.5457945
  29.3502283 110.9990025  64.3469381  30.2181768 110.4893780  63.2164764
  31.1616564 142.0607948  81.2726879  31.8244553 141.3795185  81.3858032
  30.6269169 141.7553997  80.5398750   1.8313652 113.6088371  66.5804529
   2.6872036 114.0025043  66.4107561   1.2142192 114.1613865  66.1008215
  24.4522738  16.8692189  75.3352928  24.9324751  16.0485058  75.2253914
  24.6873307  17.3890286  74.5666695   5.0505823 136.7117500  88.6234283
   4.6423090 135.9543228  89.0427780   4.7821516 137.4567986  89.1610909
  25.2315092 128.0913830  23.6125231  26.0480380 128.0670738  23.1136036
  24.6016502 127.6238060  23.0639887  45.8923483 110.1696014  55.1484251
  45.7432508 110.6229687  54.3186951  46.5594149 109.5135212  54.9463797
  20.2616310 144.5157909  45.8310699  20.2452183 144.6027946  46.7841673
  20.5316138 145.3785419  45.5164242  29.6011281 118.7942123  11.1643755
  30.3098345 118.5718441  10.5606186  28.9662600 119.2658424  10.6251740
  26.6058183 121.4975739  30.0064182  26.5970588 120.6828308  29.5040703
  25.6945395 121.7904758  30.0036311  15.9528089 136.4625740  22.2223043
  16.8706071 136.4538956  21.9506383  15.9862876 136.4802551  23.1787539
  30.6328797 119.3091583  64.5782757  31.1329794 119.5401764  63.7954855
  31.1956739 119.5693970  65.3075027  17.3819172 129.5143890  52.0051336
  17.7784717 128.8675117  51.4215851  17.7927327 129.3542194  52.8547287
  19.1552925 140.6518555  65.2479315  20.0973916 140.8029366  65.3244591
  18.9956045 140.6076717  64.3051815  12.7668619  81.1483002  46.5848541
  13.1734729  81.7608356  47.1977997  12.6633894  81.6511345  45.7769632
   2.3868883 105.8599949  44.2483091   2.5699744 105.6513977  43.3322287
   2.5685385 105.0471210  44.7199726   5.7380706 143.6978149  75.0662327
   5.1367784 144.4130325  74.8585224   6.1851376 143.5132408  74.2402220
  82.8151417 117.3688698  36.8834639  83.2205009 117.5162506  36.0289502
  82.4688148 116.4778996  36.8338037  18.2878184 100.6862831  29.7500682
  17.6588356 101.3013935  29.3729043  17.8238976 100.2921200  30.4887414
 119.8002741 103.5037136  45.3540897 120.7567949 103.5219955  45.3230143
 119.5405049 104.4216633  45.2758980  62.3334885 105.0530243  30.2824116
  62.0507383 105.0017262  29.3693662  61.5822172 104.7363472  30.7839465
  21.1902976 132.6049614  89.6570492  20.5997658 133.3539772  89.5765018
  20.6816530 131.9491291  90.1339149  47.0758677 117.3190308  37.1912622
  47.5246048 116.8918228  36.4616346  47.1556234 116.7000008  37.9169846
 120.4298998   0.8866196  54.4958210 119.8390049   0.1335793  54.4961500
 121.2758500   0.5273896  54.7633123  15.7278347   2.6208859  56.7489624
  16.0979688   2.1380215  57.4879360  14.8483872   2.8641301  57.0381546
  11.3346279 112.0516872  64.1370487  11.6145778 112.8933716  64.4968081
  12.1493363 111.5712833  63.9897585  54.2007875 126.0195827  44.5878839
  53.9685583 125.1417065  44.2851496  55.0927258 125.9291267  44.9232769
  55.1038504 123.6045456  60.3205109  54.5601463 124.1316414  60.9059954
  55.0079966 124.0217304  59.4643545 106.3357562 120.9329796  83.2178020
 106.2125666 121.0031033  84.1644478 107.2153813 121.2779427  83.0645370
  33.7435818 126.0612106  75.4373550  33.4498668 126.6319942  76.1474085
  34.5339155 125.6423187  75.7781363  44.8039722  94.1495609  19.7591364
  45.3233051  94.6623802  20.3784466  44.7266722  93.2873917  20.1676869
  49.5526314 132.0461559  32.8302193  50.4898357 132.2083473  32.7226543
  49.5050287 131.3204956  33.4526181  23.0415368 116.7469311  29.0419793
  22.2765923 116.5009785  29.5621705  23.3960938 117.5168514  29.4866610
  14.2441702 137.2242546  58.7802458  15.0872874 137.6191711  58.5579109
  14.0311444 137.5834370  59.6415520  32.4523735 100.3389263  38.4305191
  33.3809304 100.1072693  38.4491348  32.4109483 101.1179638  37.8758907
  23.1001401  98.3528614  19.7814512  23.4377646  99.1949081  20.0867295
  22.3075485  98.5754395  19.2930961  21.2253499 133.7714291  84.7872734
  21.4012766 134.2781353  83.9944744  21.7157245 134.2232323  85.4740334
  33.9155459 136.9647694  30.5914783  33.5645294 137.8000546  30.2827477
  33.4174204 136.3034248  30.1111293  80.9297848 125.6536198  27.9096007
  80.8935261 124.8298740  28.3957791  81.3101101 125.4160786  27.0639324
  12.0035791  91.4652634  43.4277487  11.9395590  92.3578548  43.7674856
  11.5599608  90.9270668  44.0833235  13.3904600 118.6959362  58.9956188
  13.5739100 117.9697990  59.5916939  12.5543630 119.0495682  59.2991209
 104.7438032 117.8712845  40.7551479 105.5292649 117.5427532  40.3177118
 104.0226955 117.6037216  40.1853704  28.0930233 119.3142891  40.6218863
  28.1902170 119.1247940  39.6886778  28.5677481 118.6081791  41.0603809
 109.6829826 145.3483009  65.5636215 108.7509007 145.3659725  65.7807493
 109.7566873 145.8927536  64.7798109  43.6617517 123.5391045  28.5400057
  43.2459259 122.9320717  27.9277682  43.2253599 124.3760681  28.3810091
   5.3510529 130.8754635  36.5356255   4.6256757 130.3824139  36.9189811
   5.1375318 130.9303474  35.6041598  60.9088516 120.7467937  66.0389233
  60.1126814 120.2997875  65.7516432  61.6168499 120.2915764  65.5831289
  53.7104225  19.6923809  64.6957493  54.2573738  19.6009426  63.9155436
  53.7248230  20.6295758  64.8898602  55.9549570 101.3392925  41.5738249
  56.4593983 100.6229496  41.1883163  56.2401342 102.1176910  41.0952711
  40.8378649 122.3887634   3.9210215  40.6095028 121.5460396   4.3133253
  40.8480978 123.0006599   4.6570277  77.1631336 112.1217537  54.8558950
  76.2664175 111.7982960  54.7692823  77.4472046 112.2838879  53.9563131
  26.1424232 123.2191944  65.0730562  26.6567016 122.8544140  64.3528557
  25.4955649 122.5423527  65.2722931  37.4007821 146.1492729  19.8544192
  36.8493247 145.7776546  20.5429196  37.7861881 145.3886127  19.4195688
  35.4465914 129.2873859  49.8701286  35.5629206 128.9095020  48.9984083
  34.6369338 129.7938633  49.8055267  33.3760905  11.4107685  72.6418686
  32.5190616  11.8298321  72.7200937  34.0007377  12.1354084  72.6726961
  34.3150735 114.0493488  28.8261437  33.8768625 113.2954311  29.2208743
  34.1864371 113.9352036  27.8845215  42.4006557 108.0468369  58.1016445
  42.8659248 107.7677059  57.3130751  43.0258226 108.6055088  58.5634804
 122.0413888 116.7519760  25.7267833 121.8373258 116.2662506  24.9276161
 121.9617087 116.1046696  26.4274168   0.9165102  67.6008396  52.2141743
   1.6336258  68.1003552  52.6046467   0.8490621  66.8148785  52.7563429
  49.1121674 103.0334187  80.4458904  48.2874918 102.8626251  80.9008217
  49.7190905 103.2922935  81.1393261  34.4848990 131.1961842  51.8603992
  34.0500784 131.2373447  51.0086584  34.6621990 132.1100521  52.0832205
  22.6391363 113.0432987  52.4189425  21.8719196 113.6139393  52.3743868
  22.3975277 112.2761726  51.8999290   0.9672479 129.5476437  54.2772627
   1.4939752 129.7645378  53.5080099   1.5262267 128.9678288  54.7945547
  48.1949234 142.6344490  64.5305395  47.9382753 142.6736259  65.4518604
  48.9773655 142.0831203  64.5231056  32.5353289 136.8733406  35.8671832
  33.4120893 136.7071438  36.2134528  32.6167274 136.7207241  34.9257421
  18.9608586 116.5001011  15.2334750  18.6927879 116.3260841  14.3312073
  18.9703715 117.4549007  15.3005934  30.3643489 135.8686161  31.6328669
  29.8403621 135.6449604  32.4020529  30.0285149 136.7203903  31.3536978
  31.3005257 120.8064175  98.4785494  30.4257751 120.6786060  98.1115278
  31.5569973 121.6814041  98.1872388  74.6843767 104.2250729  41.4441729
  74.7144794 103.5896873  40.7289076  74.5939255 105.0724030  41.0081863
  45.6525183 126.9993401  20.2206159  45.0481224 127.4105263  19.6026611
  45.7762289 126.1130524  19.8808885  31.1940575 118.4559917  60.5834150
  31.7839336 119.0770626  61.0106707  30.4932833 118.3145523  61.2199259
   6.2100065 111.2624931  13.5984552   5.7611442 110.7556534  14.2751205
   7.0939887 111.3910961  13.9423573  34.4779420 126.8270683  45.7399654
  34.5564365 126.1191559  46.3794422  33.5822940 126.7538071  45.4102945
  44.3802404 113.4815788 108.6453342  44.3011093 112.8508472 107.9296875
  43.8934040 113.0858707 109.3682671  91.2833185 134.1677094  31.4800930
  91.0930056 134.7647095  32.2036958  91.9587750 134.6159458  30.9710979
  39.4636989 109.6998787  39.3370748  39.6454549 108.9812660  39.9427104
  39.5139217 109.2999172  38.4688926  48.1124878 122.3009682  78.9280796
  47.5398636 121.7768764  78.3680248  48.9530754 122.3091984  78.4702826
  39.0835476   1.6562729  79.5603275  38.9337325   2.2270756  80.3139591
  38.2528472   1.6644173  79.0848207  24.9418449 133.2159615  73.9617538
  24.0805006 132.9792881  74.3057156  25.0746250 132.6246357  73.2208538
  56.5092039 119.7605896  55.0468349  57.1776009 120.0111008  55.6845856
  56.8857574 119.0099239  54.5875597  10.2355921  91.8708897   7.9686368
  10.8037889  92.0528793   7.2201288   9.7393596  91.0944748   7.7094603
  22.1276093 104.6713161  69.9623632  22.9820943 104.7107220  70.3919363
  22.2186637 103.9754963  69.3113756  24.6713972 120.2348423  40.3796101
  24.6573186 120.5883026  41.2690496  24.6557760 119.2852402  40.4989767
  27.7822185 111.6176796  26.8340182  28.3591866 111.4764118  26.0834289
  26.9584846 111.9177818  26.4497805  30.2853775  89.6907616  36.7106223
  30.2613592  90.6254768  36.9154739  30.7109308  89.6440506  35.8544946
  23.5212827  10.9757786  56.7260933  23.6250377  10.0634938  56.9966793
  24.3690157  11.2117749  56.3494158  32.6043320 126.5707588  30.7377625
  32.3754716 127.4496460  30.4354095  31.7966390 126.0662842  30.6409645
  40.6961727 129.3953609  49.0688562  39.8410463 129.1538525  49.4247532
  40.5538940 129.4564152  48.1242609  33.4321475  91.0024738  32.7059031
  33.7370133  91.8396378  32.3559880  34.0598249  90.7885647  33.3961916
  32.9728961 108.7685299  50.0100517  32.8759027 108.9120483  49.0686512
  32.1980858 109.1773605  50.3957367  49.8521900 142.7758121  97.3776635
  50.7106113 143.1934071  97.4480911  49.4883156 143.1128693  96.5589937
   5.7434678 125.2858829  43.5753632   6.6341954 125.6039524  43.7225628
   5.6568903 125.2483749  42.6228237  19.0034461 141.5480232  41.9776058
  19.1615391 141.1878586  42.8502607  19.8771942 141.7303848  41.6318607
  32.7506018  94.7558594  57.9936743  33.2301140  94.4929504  58.7792826
  32.0368004  95.3033447  58.3207512   3.7934703 143.5475540  67.5623512
   4.4372857 143.0745888  68.0896378   4.0808868 143.4162140  66.6588163
  24.8984981 103.6730385  49.5563316  24.6864939 103.9050961  50.4604578
  25.8323908 103.4639740  49.5754051  24.5883751 134.0671825  43.4116840
  25.0232601 134.8990440  43.5990429  24.0293264 134.2537212  42.6574326
   5.0193417  84.7257423   9.8952830   5.3953254  84.7427177   9.0151805
   5.2983999  83.8853645  10.2587831  52.0790625 106.2507248  49.6685076
  51.5969086 105.8058739  50.3655481  52.0521593 105.6404877  48.9315414
   5.4819900 113.5205936   2.7761915   4.5865339 113.2708168   3.0042318
   5.4186457 113.8456059   1.8780875  20.4892921 121.5897369  42.9201174
  19.8230052 122.2500324  42.7295732  20.7668114 121.2743664  42.0600271
  42.2933817 126.3146877  81.9600677  41.8398333 126.2554073  81.1192226
  43.0876780 126.8135452  81.7691135  43.5886335  16.7470723  83.2206631
  43.2526875  16.0134487  83.7355900  43.4045506  17.5192814  83.7555027
  29.9472332 121.3210678  61.8759775  29.6668315 120.4117966  61.9800758
  30.1236129 121.4116001  60.9395313  24.8124838  74.1469097  17.9659081
  25.0921893  74.1802263  17.0510936  25.2772522  73.3940649  18.3312070
  41.8162918 128.9043713  63.8051414  42.2293472 128.6901474  64.6416378
  41.9639874 129.8441124  63.6988020  69.2278719 117.3876190  19.8456907
  69.6415091 116.7665291  20.4451704  68.3721972 117.5642490  20.2366590
  59.8467588 129.5430660  45.3327799  59.6956253 128.6182404  45.1376104
  60.5360985 129.8069286  44.7233391  37.9595351 103.5459900  47.0582056
  37.9420161 104.3084812  47.6365900  38.6487818 103.7424374  46.4237165
  10.3164756  11.2125378  54.0624857  10.5695593  11.1634522  54.9843121
   9.4372839  11.5908127  54.0753031  81.2739372 127.8494167 106.0561549
  82.0339394 127.6270390 105.5184101  81.5086651 128.6795139 106.4709660
   5.4089266 132.5748444  67.5989819   4.9913597 133.4258938  67.7316189
   4.6921864 131.9933224  67.3453140 115.0311798  88.9544582  30.1994658
 114.1562611  88.6264706  30.4072595 115.5569083  88.7390995  30.9698319
   7.3227829 116.5207577  36.9695997   6.9843310 115.6809425  37.2800803
   7.5127542 117.0125484  37.7685237  40.4209566 113.8824272  40.2592564
  40.7371569 114.6805096  39.8357940  40.3924704 114.1007233  41.1907959
   0.1295293 124.5352077  76.0935926  -0.1118327 123.7235641  76.5399265
   1.0395786 124.6871853  76.3484335  44.2355490   0.3739624   9.4955713
  43.3027077   0.4110222   9.7069043  44.5938396   1.1879521   9.8495352
  39.2763877 105.4331112  48.9774227  38.9328289 106.1085033  48.3925819
  38.6545181 105.4070282  49.7046280   1.9048035 106.3320541  21.6095376
   1.7559667 105.3918743  21.5088558   2.8464347 106.4104462  21.7625618
  10.4937649 112.0964622  44.4170666   9.5943016 112.3352337  44.6410894
  10.5077684 111.1407471  44.4685364  18.7945640 107.2848892  26.2187529
  19.4283664 107.1594429  25.5125022  18.9116275 108.1963825  26.4865327
   6.5986180  90.1042461  43.1324720   6.9130683  89.8705101  42.2591305
   5.7084328  90.4253197  42.9885387 122.7765102 102.2053051  53.0630255
 123.2080241 102.6638412  52.3420763 122.8127067 102.8215027  53.7946081
  55.0109434 125.8840466  36.7662239  55.9450769 126.0667610  36.6650462
  54.6320486 126.0936928  35.9125710  61.5496588  22.5262432  50.1184273
  61.0364342  23.2097988  50.5492163  61.3598490  22.6355725  49.1866302
   0.0983026 143.7492657   8.8934463   0.3551124 142.8304672   8.9715594
   0.5899595 144.0719986   8.1382352  21.6214442 122.5657368 109.5920535
  20.8625436 122.0197487 109.3866327  22.3151922 122.2363186 109.0207126
  30.2361250 109.3832684  46.7323685  30.9818935 108.8958836  46.3823462
  30.2526951 109.2038727  47.6724625 100.9182949 105.4325867  16.2376916
 100.4607315 105.0172043  16.9686627 101.0766096 106.3293171  16.5327358
 106.4666063 126.8889713  51.7788887 105.9901077 127.1440601  52.5688982
 106.9080693 126.0740376  52.0180988  31.8829465   1.0548954  27.4978447
  31.0814905   1.4962273  27.7791405  32.5480270   1.3454228  28.1219411
  37.0708966 133.8050175 108.8085619  37.2671556 132.9009914 108.5626952
  37.9229546 134.2410660 108.8178522  17.3638964 120.0282955  30.2739882
  18.2171035 119.7845364  29.9150252  16.8631446 120.3313923  29.5166183
   9.3851119 139.2164421  42.4216557   8.5659564 139.0440655  41.9574356
   9.8579317 138.3847713  42.3900032  49.5277500  94.8692799  40.8537292
  48.7892389  94.2956829  41.0582161  49.8228359  95.1925278  41.7050028
 114.1885049  92.8970814  20.8110929 114.2675073  92.2724915  21.5321183
 115.0567389  92.9089546  20.4082775   7.6719099 122.2955036  38.1415248
   7.8602618 123.1251144  37.7027774   7.7036291 121.6423035  37.4425578
   1.0259360 116.0391521  51.7532444   1.6152443 115.2998447  51.9028330
   1.2432438 116.3442421  50.8723736  26.6303229   7.9376583  24.8186088
  26.2122822   8.6707287  25.2703762  26.6164398   8.1865483  23.8944340
  41.2674952 116.1798954  48.1545782  41.8654823 115.4551029  48.3371115
  41.8147850 116.8410015  47.7307272  32.3605347  50.4549599  47.0260382
  31.6928291  50.6692362  46.3745070  32.8681970  51.2606812  47.1226311
  23.3283710 136.5806103  36.7258453  23.2388592 135.6663895  36.4567137
  22.4670219 136.9642258  36.5610743   6.1907315 132.5960064  61.3091230
   5.8394527 133.4857464  61.2745476   6.6457140 132.5506496  62.1500540
  20.5941224  84.5757675  38.0178523  20.4020286  83.6415863  37.9363894
  19.7344160  84.9934387  38.0697155  32.3998880 126.0774326  63.9670897
  32.9332376 125.8198738  63.2151365  31.9613409 126.8804455  63.6858654
  18.3130884 145.9845257  33.1158590  18.1015599 145.0592136  33.2395267
  19.0452480 146.1444950  33.7113261  28.5483265 118.9223671  45.5161381
  28.6226463 119.8723030  45.4248095  29.2888188 118.6763954  46.0705757
   1.2157891  77.6550007  43.9729309   1.2015992  78.3875847  44.5888519
   1.6652048  76.9539404  44.4449186  43.7949800 103.9055157  69.4892550
  43.0090475 103.7989998  70.0251579  43.6088848 104.6669483  68.9398766
  22.5182009  87.7184296  56.3383341  21.8401980  87.8936863  55.6857777
  23.1389713  87.1438026  55.8903646   2.4784835 108.9874554  29.5008659
   3.3829737 108.9829350  29.1876435   2.3628782 108.1305122  29.9113584
   6.1106098  91.0806465  14.1612303   5.3510821  90.7841110  13.6598158
   6.3256514  91.9351673  13.7873554  36.3576508 119.1869736  51.3938951
  36.8551278 119.9977970  51.5002584  36.3612795 119.0257645  50.4503727
   1.3876162 145.5169487  78.9590025   1.4601827 146.3576412  79.4109058
   1.8061492 144.8906517  79.5495987  53.4586620 123.2083225  43.8484573
  53.4057236 122.2668839  44.0131426  53.0331326 123.3272266  42.9993296
  57.2914839 121.1523151  16.0839725  56.4951754 120.6346321  16.2028122
  57.7874851 121.0175991  16.8914795  17.6787663 123.0846691  77.6862192
  17.1223807 123.6753178  77.1784782  18.0441391 122.4830532  77.0375299
  35.9411645 144.9269867 106.3606992  36.0442233 145.7143974 106.8951183
  35.4081297 145.2098846 105.6176826  40.4495907 108.0455875  23.3885789
  39.9157691 108.5425186  22.7686334  40.8925056 107.3891640  22.8508353
  33.6174822 133.0021095  77.8172684  32.9119158 132.6867104  78.3820105
  33.2234526 133.7180424  77.3188591  16.6074991 123.8832378  50.0670099
  16.8455911 123.9798450  50.9890795  16.9102848 123.0061054  49.8320913
  40.4882336 136.5483761  44.6741533  40.1488018 136.3152409  43.8100529
  39.7075939 136.6502190  45.2186346  43.4034824 132.0099449  54.9620867
  43.8331366 131.3214779  54.4545031  42.5830889 132.1738625  54.4969893
   8.9397413 133.0764866  50.7285070   9.3751323 133.3740520  49.9296856
   9.6143103 133.1352615  51.4050674  47.9805422 139.6462059  34.0804482
  47.1153688 140.0525761  34.1311121  48.0923128 139.2144108  34.9273777
  40.9871006 110.5626774  33.7769127  40.6356335 111.0465527  33.0295372
  40.6454849 111.0239124  34.5429349  30.5853844 127.1519089  50.4164839
  31.4473438 126.7362785  50.3937864  30.7580066 128.0452824  50.7136440
  16.0413110 134.1092205  62.8669405  16.0888791 133.1566811  62.9484558
  15.2339602 134.2677212  62.3777676  49.4802856 140.3735447  55.5944490
  49.3326759 139.4504929  55.3885126  49.7983742 140.3696346  56.4972401
  37.7533531 117.7887058  34.8431444  37.0248866 117.1707439  34.9039149
  37.3682785 118.5757351  34.4577408  35.1836872 103.3469582  19.3562889
  34.5790672 103.9776993  18.9653480  34.6447325 102.8466034  19.9689937
  41.1238527 128.7498569  36.2155104  40.5116558 128.8910484  35.4933524
  41.8937206 128.3575726  35.8036351  23.2917953 131.9282150  32.0228314
  24.0682197 132.2850132  32.4542212  23.6332464 131.2569618  31.4320159
  20.7721329 109.6432972  21.8635464  19.9315846 109.6364117  22.3214364
  20.5606246 109.3713379  20.9704971  27.5487280 139.1094112  42.2283268
  28.0109668 138.3201694  42.5105572  28.1257010 139.5039558  41.5743589
 118.2932294 114.1747665  34.8920965 119.0094680 114.0992737  35.5226016
 117.5391228 113.7904072  35.3391123  -0.0102026 111.4640617  47.5894022
   0.5465065 110.7901669  47.1993208   0.0213251 111.2861919  48.5294008
   7.0851350 105.4918003  25.0508833   7.7530706 105.9421825  24.5339203
   6.8151551 106.1352444  25.7061100  61.0489321 110.9141827  11.3743341
  61.8550158 110.5275440  11.0323191  60.4456758 110.9068203  10.6311953
  46.4225483 126.4473629  68.8548946  46.6864824 127.1824455  69.4082785
  47.2461033 126.0888195  68.5240793 102.2633213 140.3318214  32.5769734
 102.0777697 141.1260414  32.0759511 102.8896684 140.6108284  33.2448649
  10.1251352 117.2423935  41.1645746  10.2545738 117.9878426  41.7509127
   9.7882056 116.5480232  41.7307520  13.5422921  89.7116756  12.9364824
  14.0054512  89.6168995  13.7687886  13.5702169  90.6505966  12.7524090
  38.4984946 103.0372906  59.5152617  39.4520450 102.9918480  59.5853090
  38.2273984 102.1347904  59.3472528  44.4987249 105.6287670  40.1300716
  44.2464161 106.0187054  39.2931008  45.3959751 105.3252316  39.9920893
  32.5816202 125.7382393  47.7418041  31.7235851 125.9798241  48.0905771
  33.2052302 126.0761833  48.3845615  35.9505081 129.4428539  33.3610201
  35.4901457 129.7436523  32.5775528  35.4093933 128.7284946  33.6973333
  41.4601564  63.4436178  37.5166559  41.9933891  63.5431623  38.3053136
  41.2149620  62.5183868  37.5085235  50.0289011 108.0747318  37.1007729
  50.0402117 107.3617077  36.4622569  50.0063181 108.8710785  36.5701556
   9.3238294  81.3293266  69.5615339   8.4539557  81.3139153  69.9606752
   9.6910721  80.4666328  69.7541809  41.0818243   5.9401684  61.6218185
  41.8139887   6.3151818  61.1323977  40.9359312   6.5535717  62.3420143
  21.1157346 134.9038506  58.1146812  20.3295565 134.3906212  57.9282665
  21.8305230 134.3942070  57.7331448  33.0872488 122.4818516  75.1890278
  33.4100962 123.1350422  74.5682669  33.7056637 121.7549896  75.1151419
  24.0113378 109.4834328  83.1978607  23.7074733 110.2618694  82.7310371
  24.5050669 109.8279190  83.9420319  74.9920034 116.3938236  70.4146338
  75.5616951 115.6256199  70.3751755  74.3001461 116.2118435  69.7786665
   3.3483845 110.6930161  51.1176920   2.6593596 110.1623821  51.5175819
   3.8414717 110.0766850  50.5761719 123.0621157 140.0017643  68.6055803
 123.3497361 140.7424736  69.1392994 122.1076656 140.0729179  68.5916281
  76.2873030 121.3019371  34.5955348  76.6347218 121.9296741  33.9619136
  75.9443521 121.8438148  35.3061604  50.4952192 114.0362930  66.1448956
  49.6991110 114.5379925  65.9695387  50.9909773 114.5800114  66.7571259
  24.1071153   3.9373951  76.5939236  23.5674715   3.7414627  75.8280087
  24.3134499   4.8682862  76.5097475  15.4403985 125.5543041  39.7122121
  15.7678676 126.4468861  39.8231077  14.8892546 125.4042244  40.4802942
  17.4943137  20.5191212  21.7137551  16.9979894  19.7075062  21.8195105
  18.3543348  20.2352887  21.4038610   6.6756338  84.2573547  45.9083939
   6.3209414  83.6551952  45.2543020   6.0621840  84.2034149  46.6411972
  30.6429625 140.6341648  74.4274950  29.9098468 140.2815342  74.9318981
  31.0306978 141.2964725  74.9995470  37.7550030 106.5452766  79.3746519
  38.2327294 105.9649467  78.7820101  37.5510883 107.3149776  78.8434076
  39.2151046  86.3887882  63.8548136  39.1479516  86.3733768  62.9000950
  38.3289433  86.1949730  64.1604090  12.8230321 130.3554726  23.6464143
  13.5898173 130.7311535  24.0790081  12.2633159 130.0605106  24.3647099
  17.2986579 109.7563934  15.8058202  16.6591001 109.4013500  15.1884508
  17.9954529 110.1092052  15.2524364   0.2554308 119.3754673  37.1776772
   0.9509325 119.9265766  36.8188047   0.5914268 119.0883255  38.0267286
   7.6039213   4.5539456  39.8532748   8.5159767   4.7959214  39.6925354
   7.4908447   3.7244301  39.3892264  51.6786528 114.2351913  72.8527212
  51.8460512 114.6800995  73.6835432  50.7575846 114.4162369  72.6654100
  12.6589870 144.5322132  32.5328755  12.4181640 144.6968174  31.6212034
  12.8848183 145.3950119  32.8804708  30.7860136  66.1767292 100.7487156
  30.2763319  66.8821812 101.1472031  30.9417987  65.5601788 101.4641389
  45.1998663  20.6339436  32.6258230  44.8184443  20.6011563  31.7485118
  44.6589184  20.0385456  33.1445742   9.6157610 144.3788719  26.6656256
   9.6792352 143.7230492  27.3599625   8.9388293 144.0416908  26.0788488
  30.1357841  92.5587940  36.9811201  29.8713017  92.9323578  36.1404467
  30.9367061  93.0297947  37.2111464  35.2553773  93.7724209  75.9837532
  34.9491286  94.3159962  75.2578259  35.6616235  93.0155563  75.5614424
  47.9101086 110.4178715  46.3590908  47.6801157 110.5294323  45.4366541
  48.8643646 110.3428555  46.3606310  41.4295816  84.0496922  36.1612821
  42.2630453  83.9743137  36.6259193  41.6029835  84.6758842  35.4583955
  42.0567608 131.6535950  68.0995274  41.6717768 132.4306107  68.5048199
  41.3588476 130.9990311  68.1258488  17.3251450 120.7855034  11.7108560
  16.9455850 120.7577705  10.8325636  17.3538435 119.8698711  11.9883955
  44.5439577  76.0216379  58.8399458  44.6439791  76.9735479  58.8304949
  44.4952250  75.7951355  59.7686863  27.6026773 110.1250267  20.4727268
  27.8592634 109.5480537  21.1921048  26.6913962 110.3503990  20.6598258
  53.4090328 146.0334492   2.1242166  54.3346643 146.0405445   1.8805183
  53.4129190 146.0688400   3.0807543  22.0936656 132.3717403  28.7886238
  21.4622259 131.8217564  29.2523432  22.6621199 131.7512798  28.3324122
  32.5970030 132.6698303  70.8339024  33.0474353 132.7673340  71.6728544
  33.2550645 132.9054356  70.1799345 117.8644616 117.1841240   9.0866077
 118.4848345 117.8101826   8.7132204 117.8831131 116.4402962   8.4844327
   4.5428377 104.7324753  11.7717063   5.3137273 104.5154572  11.2474322
   4.1604489 103.8845730  11.9977152  32.6717687 126.7076015 102.9570129
  31.8728089 127.1279430 103.2751449  32.3829865 125.8505249 102.6435670
  18.9032829  87.0981979  40.0755262  18.8852561  86.2635517  40.5437851
  19.1370881  87.7426243  40.7435703  18.0044472 143.4477615  33.7429690
  18.6466491 142.8647327  33.3381510  17.1620786 143.1540108  33.3960438
  25.7472515 137.9902649  17.3319077  26.6862464 138.0950737  17.4853325
  25.4745531 138.8198376  16.9399035  21.3612604   3.4489899  32.1474648
  21.0407090   2.9140072  31.4213300  20.6181026   4.0049630  32.3816442
  52.4733019  90.6096649  48.9352894  52.6955652  90.8043671  49.8457384
  52.9388189  91.2743855  48.4276772 116.6711754 126.1343288   6.7364800
 117.1100832 126.6322994   7.4261338 116.2935991 126.8011475   6.1628729
  12.5215161 133.4536362  67.3828030  11.6614735 133.0967140  67.6045465
  13.0930865 133.1592751  68.0919456   1.7372604 111.6783428  34.2828035
   1.5077996 111.2670517  35.1161194   1.5864129 112.6124859  34.4272065
  20.7030511 130.1755142  42.5243902  20.9737563 131.0373783  42.2079468
  20.3836203 130.3358650  43.4123564  26.7439747 123.8189220   8.5976917
  25.9440494 123.3921909   8.9046943  26.9627976 123.3617878   7.7856708
  33.1615233 117.9178524  14.3669426  32.3304892 117.6484489  13.9757431
  32.9250503 118.2299995  15.2403712  37.0829415 101.5733337  14.6036148
  37.6192951 101.4556408  15.3876460  37.5671864 102.2077465  14.0751648
  32.0827889 120.3460026  23.8337708  31.2300754 120.3920364  23.4013462
  32.7035570 120.1864243  23.1228447   4.4291046 135.0186634  55.0010872
   3.8639590 134.8154640  55.7464361   4.8157668 134.1776276  54.7573853
  38.2125878 143.9804077   0.9559292  37.3156142 143.6463833   0.9660171
  38.4903669 143.9484787   1.8713802   5.6511962 114.3660545 109.9039124
   5.8412367 113.5471916 109.4461176   6.5040469 114.7896767 110.0010175
  60.8487129  68.5419893   9.1428971  61.5075016  68.0616951   8.6413532
  60.8373165  69.4145250   8.7494713   3.2344714  91.7913628  17.5621915
   3.1741440  92.3137856  18.3619845   4.1473424  91.8782043  17.2876787
  55.7358789 129.2958832  68.6540699  55.0818682 129.9768162  68.4964705
  56.3314629 129.6801281  69.2973948  54.8953485   4.8199253  30.0002122
  54.1101408   5.0875931  29.5226765  55.0822973   5.5545693  30.5846715
  41.5642405 121.0928345  19.3082643  40.7770920 120.5746078  19.4757676
  41.8750715 121.3442230  20.1779914  37.8808999 128.5819530  35.1459956
  36.9820833 128.9001560  35.0616789  37.8404236 127.9333401  35.8487701
  11.7846417 139.0162086   3.4828153  12.5265455 138.4414864   3.6712438
  11.3769495 139.1683483   4.3353826  41.2634277 125.1585579   9.2457414
  42.1706104 125.4567623   9.3114930  41.2627697 124.2989159   9.6667427
  25.2977753  97.7687550  41.4531708  25.8263254  98.2975960  42.0508289
  25.6489062  97.9657269  40.5847597  40.5083370  93.9317703   9.8203045
  40.9638739  93.0965519   9.9258071  40.4846191  94.0737915   8.8739961
  19.0384114 105.3551102  22.7632999  19.5696735 105.8846855  23.3578897
  19.5440662 105.3269005  21.9510508  41.1645174  94.7116280  50.3408003
  40.6240559  94.8597717  51.1168098  40.5414343  94.4582176  49.6597862
  29.2303061 124.0297222  52.5798655  28.8410711 123.2319450  52.2217083
  28.9531541 124.7218323  51.9795322 103.9486236 109.1632366  21.5392685
 103.1073946 109.4718075  21.8759394 104.5299477 109.1754723  22.2996259
  20.4192758 126.0172558  27.0605040  21.3713598 125.9575844  26.9817233
  20.2360320 125.7474804  27.9604316  56.4819574   4.1436558  97.1421274
  57.1372271   3.4522610  97.0482024  56.5617561   4.6598416  96.3399967
 124.6717645 132.6694489  37.1736479 123.8426680 132.2693157  37.4357891
 124.7138692 132.5349140  36.2268853  49.9704456 123.5121536  28.1376362
  50.1048231 122.7428055  28.6910534  50.8305454 123.6849594  27.7547622
   3.2573473 117.0947742  28.7172723   3.4834468 117.2939014  27.8087258
   3.6281931 116.2259102  28.8714671  40.4801607 118.1776333 108.9111709
  40.0392389 118.6886692 108.2324537  41.4130306 118.2999325 108.7350088
 111.6421992   3.8160591 106.3534796 112.0184917   3.9167767 105.4791271
 110.7002360   3.7396508 106.2014949  70.1197910   1.8287545  18.9668596
  69.5589447   2.5495320  19.2535198  70.9850216   2.0458966  19.3139303
   0.7416933 126.1029434  21.4190292   0.7831159 126.3098145  20.4853678
   0.0568431 126.6773605  21.7614651   4.2520487   2.3325520  19.8672664
   4.2394027   2.8191643  20.6914496   4.9393079   2.7537041  19.3509901
  25.6120849 136.7257023  49.0776157  25.1895523 137.3523045  48.4901953
  24.9405622 136.0646248  49.2457533  34.6924686 143.3109570  52.1119070
  34.4859672 142.3835564  52.2281790  34.4263911 143.7206173  52.9350805
  29.5628786 140.1028442   1.8396299  29.3881440 140.0050068   0.9036133
  28.9539385 139.4967365   2.2615945  11.4369226 105.3646755   8.1699800
  10.8313787 106.0799694   8.3646661  10.9013069 104.7144127   7.7155429
  17.6013541 141.7649174 108.0863141  17.5178826 141.1252594 107.3791411
  16.8843675 141.5552330 108.6848069  82.1589947 128.1004143  79.9778207
  82.7091694 128.7899685  80.3493651  82.1695423 127.4050999  80.6355914
   3.4508792 137.8203106  94.9450346   3.1612375 138.3715248  94.2180511
   4.0193465 138.3885860  95.4647847 115.8319837 106.1815643  21.0425448
 115.8750773 106.4738178  20.1320720 115.2211881 106.7887020  21.4603281
  43.5137224 114.2765808  48.1835079  43.0110312 114.1681385  47.3761797
  44.0127659 113.4639263  48.2659006  25.6764936 119.0691090   7.7109087
  25.5552912 119.7206402   7.0202214  25.0078368 119.2827225   8.3616781
  42.8701687 118.9486217   9.0401763  43.0429077 119.0226936   8.1016105
  43.7369251 118.8630772   9.4372183  23.1852818 118.3422852  70.0849915
  23.1891465 119.0436268  69.4335794  24.0723968 118.3444405  70.4445124
  48.1739616 124.4389153  37.2209620  48.0524015 125.1581573  36.6011620
  48.7953997 124.7796345  37.8643560  22.7398205 101.9121742  56.0376024
  22.6465654 100.9726048  56.1948872  21.9270992 102.1633720  55.5987263
  23.8784838 129.2443562   4.8811910  23.9221382 128.3581924   4.5219803
  23.4811831 129.1333771   5.7449418  42.3194885 124.9616337  21.0935473
  41.6922998 124.2698956  21.3041806  42.1408081 125.1762867  20.1780009
  43.4824181 114.3554974  11.3599169  42.7736187 114.9985027  11.3405597
  43.0383730 113.5121346  11.4482701  35.6750107 103.4831238  65.4407883
  35.2392316 104.0087891  66.1116123  35.4534125 102.5789738  65.6635714
  96.5236086 102.5906277  37.1978331  95.9255905 103.3192444  37.0313358
  97.3957581 102.9604626  37.0606947   7.8074199 130.6759262  50.4805899
   8.2000148 131.4968014  50.7776737   7.4554914 130.8786488  49.6138239
   8.1443495  97.4680233   9.9755353   8.4239411  98.3675289   9.8054069
   8.8907570  96.9308853   9.7098327  16.4183700  83.6535454  95.2380022
  16.8233752  82.9832458  95.7883676  15.9818673  84.2395210  95.8563276
  39.5644593 112.0990181  31.6997504  39.8775387 112.4321175  30.8587623
  38.6113477 112.0859146  31.6123438  17.5704753 110.3764820  18.5128796
  17.6862991 110.3211308  17.5643253  18.0670452 111.1533928  18.7698793
 109.0339369  17.9405384  31.9821167 109.6219129  18.0078297  31.2297964
 109.6152062  17.9553585  32.7424717  19.5524132 124.5330334  15.0770068
  18.8702297 124.0317535  14.6302652  20.3731179 124.1757584  14.7378457
  48.6113691 106.3114738  21.6125870  47.8729343 106.6123962  21.0830641
  49.3857813 106.5798569  21.1181235  20.1537633   2.4205475  23.2302904
  20.7131720   1.6797524  23.4637880  19.3377614   2.0195084  22.9310608
  42.3709869 112.0402336  58.0687904  42.3875904 111.1817074  57.6458406
  43.2909870 112.2396469  58.2421827 113.1794364 140.1452351  44.4630051
 112.6507468 140.9402657  44.5312166 113.2837397 139.8486614  45.3671026
  17.7402771  97.0934582  22.1905231  18.5318434  97.6088810  22.3454142
  18.0359578  96.1837769  22.2264099  32.5659013 144.5921421  13.9470935
  32.4802971 143.6598587  14.1464376  33.4985352 144.7144985  13.7697279
  60.9426403  96.1089325  16.3683748  61.3589048  95.2527237  16.2690973
  60.1600552  96.0598755  15.8193934   6.7780930 143.6615658 104.5040836
   6.1353004 142.9823303 104.2999014   6.8243551 144.1940212 103.7099924
  33.6864328  91.5368557  49.1285849  33.5655379  92.2880840  49.7093439
  34.0050125  91.9161606  48.3095169  36.9058442 140.9066200   1.7853972
  36.4289856 140.1139164   2.0312563  37.7089643 140.8739185   2.3051685
  23.6487579 119.8385429   9.5010346  22.6964402 119.9351025   9.4997108
  23.8867331 119.8239899  10.4280663  42.4731112 118.4445000  43.3587837
  43.4214354 118.5745239  43.3579063  42.1815252 118.8022614  42.5202036
  35.8646607   0.6978970 107.9870557  35.8846235   1.3576107 108.6803164
  35.1176548   0.9455567 107.4421894   4.8843640 110.6398582  16.0063791
   4.2404434 109.9610233  16.2083244   4.6478274 111.3715267  16.5764093
 120.8038486 115.6202698  13.1144261 120.2623940 115.0013447  13.6043155
 120.3254036 115.7628059  12.2977221 119.1682923  14.1895275  17.1112990
 119.5600135  13.3445053  17.3320448 119.8353053  14.6331578  16.5873671
  18.3876610 112.8973770  44.4048977  18.0490458 113.5555172  45.0118732
  17.6194143 112.6074123  43.9130116  33.4992957 119.2832661  98.9554425
  32.7015948 119.7868538  99.1176482  33.4993434 119.1325569  98.0101820
 120.0250182  94.9709797   8.6386263 119.3955833  94.9639320   7.9175204
 119.6770490  94.3377781   9.2664802  54.5554018 112.7682686   9.3993688
  55.2428675 112.1852970   9.0772265  54.2896271 112.3859692  10.2356958
  55.2659798 112.9845810  19.3234909  54.5362520 112.4238586  19.0601945
  55.0040388 113.8633060  19.0488136  35.7553387 115.7715130  27.0292807
  34.9847174 116.3388157  27.0060730  35.7690239 115.4224300  27.9204535
 110.3157479 121.4995384  34.6269846 110.0475497 121.1732864  35.4859734
 111.2721795 121.5117073  34.6633315   2.7597371 105.1356316  27.8965354
   2.9975373 105.2377033  26.9749784   2.8647316 104.1999245  28.0687594
 120.7851113 107.4624157   6.5905327 120.2682058 107.8963470   5.9117508
 120.7285494 108.0479240   7.3456591   0.1713767 122.7611542 107.5433550
   0.9610844 122.3070335 107.2494727   0.4402831 123.2177544 108.3404993
   7.8827631  69.9355030  19.9503064   7.7002424  70.8510208  20.1618481
   8.5244894  69.9768543  19.2412865  45.1255608 111.7712784  28.3199596
  44.6888399 111.0784054  27.8245401  46.0147095 111.7946243  27.9662633
 102.9067940 131.2820911  18.8391531 102.9767675 132.0375443  18.2555258
 103.7859458 130.9035969  18.8474584  10.8961892   4.0493279  15.3597212
  11.0275483   3.9524155  16.3029003  10.1423204   3.4927445  15.1644552
  90.8624954 100.9727764  31.5349913  90.4848737 100.9755516  30.6554317
  90.3315348 101.6001701  32.0255876  44.7197247 118.7816238 104.7149053
  43.9686680 119.3685150 104.6271082  45.3280830 119.2544746 105.2828314
  15.2509773 139.7478294  40.0388479  16.2077940 139.7706795  40.0533915
  15.0280559 139.6374607  39.1145325 114.0325612 140.8953953 101.1167880
 114.8373348 140.3933907 101.2454840 114.2587823 141.7846298 101.3893982
  34.4323039 100.9583187  -0.0451499  34.2956591 101.9035816  -0.1086474
  34.5527887 100.7960510   0.8904696  16.1062145  96.3772583  62.8998995
  15.2238142  96.6859531  62.6942205  16.4752889  96.1255264  62.0533514
   5.3866160 109.7445869  23.6482811   5.3105128 109.1880894  22.8731990
   6.3016754 109.6588612  23.9157701  61.4272356 110.0343895  26.8240237
  60.5443716 110.3968239  26.7503595  61.8680286 110.6037521  27.4546981
  47.0495796 133.4799862  98.7440702  47.6300526 133.1244087  99.4170090
  47.6085758 134.0610790  98.2282361 119.4157148  85.9325409 109.7453638
 118.9738554  85.5734921 108.9759003 120.0719467  86.5304565 109.3874721
  95.7621951 118.1356716 107.2763880  96.6426176 117.9859924 106.9318803
  95.3782434 117.2612095 107.3405673  42.4597263 138.6339569  31.1465526
  42.3806953 138.3487606  32.0568538  41.6211128 138.4002018  30.7486606
 101.8922896 144.5406246  29.0037251 101.3039488 143.7862396  29.0351987
 102.6073188 144.2629910  28.4311128  31.7746758 107.8640175  22.1782112
  30.8766127 107.5907803  21.9909811  32.1102357 107.1929073  22.7725506
  37.2724700 108.0173111  27.4358702  37.8681850 107.5006866  26.8932319
  36.4392662 107.5483608  27.3901176   6.0767817 116.7100430   8.1401187
   5.7830477 117.6086617   8.2899332   6.9230795 116.6575050   8.5842490
  46.3667727  95.0084114  24.8523879  46.7354679  94.1473675  24.6551561
  45.6712341  94.8317432  25.4858303  12.4468148 137.3665047  16.5506864
  13.2043219 136.9063950  16.1891472  12.6315701 137.4327946  17.4875438
  47.9676867 134.8677158  49.4531536  47.6084995 134.0219116  49.1851521
  48.7498522 134.6464539  49.9586153   6.1250329  79.8762703   9.2767090
   6.4530605  79.2103672   9.8810303   5.5159813  79.4047737   8.7083948
  47.3288393  17.2215062  68.9632853  48.2783556  17.2767048  69.0710362
  47.0655298  18.1043988  68.7036332  38.0016422 136.2669849  83.3248838
  37.4547267 136.6197395  84.0267905  38.4640837 137.0288563  82.9756912
   1.1100636 116.4777946   9.9367082   1.3321620 117.3571301   9.6306509
   1.9528162 116.0300159  10.0108361  12.8446567  82.5594139  44.2998791
  12.1177137  83.1774330  44.2234802  12.8618801  82.1046162  43.4578037
  10.3617907   2.0029526  27.2565150  10.6339622   2.2648983  28.1360269
   9.6726751   1.3547688  27.4021482  25.0623059   5.9531479 104.0422943
  25.7032800   5.2423077 104.0324619  24.5501709   5.8249169 103.2438543
  40.7633877 117.1333504  40.2243280  40.9075880 118.0702686  40.3570700
  39.8677754 116.9835949  40.5271339  23.7179399  84.1484451  37.7627325
  23.6904144  83.1918526  37.7427363  22.8013945  84.4128323  37.8419757
  10.1121294 138.4256172  36.5310192  10.1149046 138.8419533  37.3929310
   9.3858051 137.8032684  36.5679836  41.0789394 142.1143436  20.1137042
  41.5691090 142.0660400  20.9344530  41.7516899 142.1179199  19.4328022
  27.2278738 135.7101727   2.6339105  27.8683972 136.3986588   2.4551672
  27.7255225 134.8956394   2.5624222  14.1711271  82.4961281  40.7148647
  14.5643413  82.8376293  41.5179825  13.3388698  82.9627514  40.6384659
  51.3143778 133.5160923   8.9073342  50.4117966 133.7841320   8.7348825
  51.8427753 134.2681789   8.6401290  15.5425417 123.4064865  85.6257042
  15.9053469 122.6600266  86.1025675  16.3069201 123.9260483  85.3766903
  49.6577024  84.4805336  37.4388671  50.1641369  84.2759323  36.6528034
  48.7445974  84.4159508  37.1590495 116.9335628 134.5484447  33.8221121
 117.8035671 134.7723007  34.1525888 117.0720387 133.7592983  33.2983732
  40.0792980 126.2371731  47.6473618  39.3152618 126.7937469  47.4966812
  40.0402689 125.5828476  46.9498158  15.2745521  96.1825657 102.8947529
  14.6688485  96.8322945 103.2514187  15.0616026  95.3747272 103.3619490
  39.8989797  98.5924435 108.7493830  40.5502415  98.8379669 109.4065031
  39.0594649  98.8270569 109.1448637 111.5644581  12.4082547  28.7954164
 112.3574120  12.2675782  28.2780528 110.8515078  12.1255379  28.2226968
  29.1456699   6.6735535  24.8558784  28.2764101   6.9632798  25.1327968
  28.9976859   6.2430458  24.0138602  13.5107875 106.5172672  21.0617304
  13.2019293 105.6171417  20.9586835  14.4267285 106.4275551  21.3248610
   2.8230426 102.4006081  15.2007747   2.5017807 101.9919395  16.0045218
   3.5329446 102.9735565  15.4906070   4.3723145 105.5985832  22.6815677
   4.8690546 106.4055824  22.5465369   4.5794597 105.0592804  21.9183636
  46.3551378 139.2629910  56.2547445  46.1289549 139.0003204  57.1469784
  47.2130203 138.8680172  56.0989904  29.0946102 105.9575653  57.4213457
  29.0274262 106.8065166  57.8583813  28.2593656 105.8563995  56.9648790
  31.5883732 130.0521088  61.0473299  31.3864613 129.3048763  61.6104603
  32.5431323 130.0494766  60.9790564  11.4588785  33.6663800  42.5852203
  12.0951974  33.7471371  43.2957220  11.5732491  32.7728062  42.2616816
   6.3160062 130.3779697   4.2816496   5.6420612 131.0574818   4.2988276
   6.8984771 130.5999184   5.0080788   1.4669631 126.9328976   9.9755174
   1.2865710 126.0115051  10.1618671   0.7862463 127.4108028  10.4492867
  47.0047760 109.3427849   8.3567464  47.2516584 109.2587090   9.2777318
  47.8063059 109.1399002   7.8744376  14.9442339  91.3423061 106.2394106
  14.2750669  91.1098194 105.5956718  15.7176673  91.5519047 105.7158672
 123.9419956 134.6264362 107.6037835 123.0275071 134.4369507 107.8136300
 124.0932228 135.5016708 107.9606309  28.0745363 112.9903316   8.3969200
  28.3481693 112.7778053   9.2892140  27.1245694 113.0920982   8.4555465
  20.2972126 125.3668118  43.1295967  19.7831154 124.7057533  43.5932159
  21.1735106 125.2978802  43.5085201  49.0748978 139.0351200  36.7052698
  49.9194384 139.1425896  37.1427965  48.6133671 138.3828926  37.2323632
  56.1762619  11.2016850 108.9857220  56.5367842  11.1600380 109.8714541
  55.5806398  11.9507580 109.0045422   8.8762641 144.9072266  19.1156268
   8.2749426 144.2090225  19.3747747   9.1519469 145.3047276  19.9415970
  19.3949699 134.1686440  39.8445940  18.7919343 133.4257412  39.8185253
  19.2179084 134.5914841  40.6848812  26.5001559  90.2899647  37.6158571
  26.6111541  90.2307224  36.6669607  27.1249080  89.6571350  37.9700518
  28.7357187 127.3932457  34.8244858  28.0409384 126.7426300  34.7234178
  29.5154619 126.8800449  35.0362778  67.9059172 128.1037998  20.9303236
  67.7120352 127.2654343  20.5110645  68.8056421 128.0123520  21.2439537
  38.5208893 128.0449581  49.8596811  38.1110644 127.5280666  49.1660738
  37.8860521 128.0307198  50.5759287  38.8659739 115.8978653  29.1947436
  38.5074925 115.0156784  29.2921114  38.1417251 116.4779663  29.4296265
  11.9014943 124.5914745  59.3112326  12.2566557 125.3590584  58.8630009
  12.0832527 124.7496510  60.2376080  33.0050588 105.1525021  19.4290590
  32.4570513 105.9309673  19.5286083  32.3862123 104.4459534  19.2445290
 123.0761609  95.3074646   7.4183047 122.5921231  94.6371365   6.9360232
 122.9018957  95.1127911   8.3391547  61.9471312  97.0930099  28.2134390
  62.2506666  96.8685436  29.0930486  62.1734142  96.3309479  27.6802468
  98.2062811 103.6405087  17.1784544  97.3703904 103.9438534  17.5327086
  98.7002415 103.3503437  17.9452944  36.8962336 109.8817635  57.9731798
  36.6802788 109.1605759  57.3820019  36.2978554 110.5851841  57.7214479
  20.5964375 125.6579399  64.0974283  20.1822567 126.3381672  63.5664177
  19.9535012 125.4612923  64.7787476  20.6890416   0.9210186  95.9795948
  21.2676954   0.8533745  95.2201101  20.6526828   1.8583279  96.1702772
  52.1969366 123.9026165  46.2902164  52.7590084 124.1218281  47.0333529
  52.7890253 123.8877773  45.5382586  56.9171190  13.2228737  50.9028578
  57.0069122  12.9673748  49.9847651  56.9979095  14.1766148  50.8950615
  14.9842656  86.3150883  29.7917104  14.3351483  85.9692192  29.1791272
  14.4679570  86.6423321  30.5283022  50.8616209 107.7330971  20.6655979
  51.3067055 108.1488037  21.4040589  51.5626192 107.5330257  20.0452709
  12.1262634 127.0409775  36.6586542  12.9244590 126.5342331  36.8080616
  12.4331164 127.9381847  36.5279293  40.9660816 114.2021084 109.6252918
  40.6843042 114.7063255 108.8620092  40.3954077 113.4336376 109.6286829
  59.8188162 102.2502232  11.4376402  60.2934742 102.1976185  10.6080818
  60.5040550 102.3330307  12.1008325  18.8910830 123.3498859  18.7984943
  19.4532406 123.1378651  18.0533385  19.1867316 124.2146397  19.0831470
  14.8197067 121.0525131 108.9828175  14.9860096 121.9868469 108.8579320
  15.2710247 120.8358574 109.7986639  35.0835156 132.4315262  65.8616781
  34.6226048 131.5934372  65.8990479  35.7998490 132.2836018  65.2442503
  30.0126648 118.0376148  55.8228874  30.4729795 117.2043610  55.7227230
  30.0365639 118.2128716  56.7636061  54.1659498 110.9934139  17.0016420
  53.2283688 110.9887218  16.8089056  54.5213795 110.2740860  16.4796603
  15.7745862 118.3008671   4.7659329  15.3136253 117.4976730   4.5238036
  15.8754694 118.7768936   3.9416432  17.4353218 134.4432831  42.2392941
  18.0501449 133.7227631  42.3773861  17.4566209 134.9367809  43.0591965
  27.6531816  82.6247215  27.2090006  28.0666256  82.0271778  27.8320956
  26.7367315  82.3494339  27.1851635   6.3616645 114.0635681  31.5461683
   5.6895208 114.2079544  32.2122073   7.0628333 114.6727276  31.7774892
  28.8598561 112.7821445  60.4685307  28.9374161 111.8627834  60.7234621
  29.6977043 113.1715679  60.7187080  52.0768166 104.9273396  57.2629833
  52.7747679 105.5245304  57.5321722  52.3692989 104.0665722  57.5625706
  58.3949280   0.3648548   6.6305274  58.4127760   1.2872677   6.3754314
  57.8976679   0.3521042   7.4483311  18.4473598   2.7361946 105.3150707
  18.7258673   1.8226986 105.3798359  19.2499220   3.2176094 105.1141559
  28.2434034 145.8496666  22.0043993  27.7151823 145.6217384  21.2393737
  27.6450920 146.3347912  22.5726533  22.8270769 112.1202564  13.5618007
  23.1029439 113.0333805  13.6413693  22.4380302 112.0627594  12.6891220
 118.4625179  86.9332886  52.2532940 118.6207688  87.0828152  53.1854057
 118.7908793  86.0484791  52.0935249  35.3620148  99.5491219  13.5805523
  35.8349347  99.1834736  12.8329682  35.8647513 100.3260422  13.8252532
  42.5591898 105.5950451 108.5947681  42.5343990 104.8793507 107.9596371
  42.1538687 105.2309895 109.3817943   7.9716885 137.1878529   6.7963439
   8.7192267 136.8126869   7.2618163   8.3423245 137.9125595   6.2926871
  12.8667688  76.9527912  16.8296945  12.0495725  77.3251724  16.4984071
  12.6500499  76.0430384  17.0337057 114.6972007 115.1802063  32.6423931
 115.5533344 115.4386520  32.3011136 114.3960530 114.4981098  32.0421600
 121.9475008 113.3796215 104.6941277 122.1912370 112.4727821 104.8797789
 122.0791171 113.4746838 103.7507977  32.8326964 111.7646027  29.5272756
  33.1747484 110.9224892  29.8274040  31.9282222 111.7809677  29.8401451
  15.7370222  78.0276012  43.0566788  15.2186227  77.2237873  43.0938339
  15.4625106  78.5254478  43.8267612  19.5283151  99.6976185  27.5503516
  18.8071680  99.1165733  27.3083305  19.1950166 100.1946926  28.2973862
   7.7656704 104.7750092  43.7105513   8.4832746 104.9265480  43.0954838
   8.1994206 104.5683289  44.5384312  28.7717557 137.0370674  43.5084295
  28.8831854 137.0639229  44.4587421  29.6576381 137.1387577  43.1604338
  48.5429668 110.5172062  41.2049389  48.6751938 109.5889759  41.0122156
  48.3158493 110.9071159  40.3607702   5.7264262 118.2322979  34.8085117
   4.9127537 118.0227184  34.3499875   5.9585476 117.4241638  35.2659774
  18.1446517  96.7433548  33.0474710  17.7372777  96.7784882  33.9129448
  17.8720653  95.8989048  32.6885509  24.0733790 139.5912838   5.8224720
  23.8933682 139.9948692   4.9733865  24.4031477 138.7187004   5.6078124
  26.8017602  98.7685108  43.4034586  27.4504089  98.0697155  43.3187485
  26.1675596  98.4312057  44.0361071  53.0449533 127.4282074   8.8397008
  53.7801313 126.9273090   9.1930306  53.4345818 127.9785252   8.1603098
  30.0824404 128.5008144  98.9654835  29.7346854 129.1858196  99.5365151
  29.4560575 127.7814579  99.0454658   5.5799329 133.1807613  22.0043659
   6.1843258 132.6260662  22.4975753   6.1317194 133.6196423  21.3569498
  21.2272906 111.7924786 107.2994753  20.3529692 112.0309353 107.6075836
  21.1097932 110.9388733 106.8825930  14.3441284 132.1365452  17.6100504
  14.9474919 131.7797661  18.2618880  13.5088980 131.7079067  17.7968383
  55.8422375 108.9598274   8.3281130  55.5145025 109.0400124   9.2238760
  56.4853334 108.2521248   8.3708149 124.2320804  93.8873196  96.0224076
 124.5676428  94.7285366  96.3322266 124.7471565  93.6981773  95.2380892
 122.4125492 115.8725739  32.2999573 122.9259453 115.7828522  33.1028318
 122.6578338 116.7304707  31.9534278  51.1512995  10.6765442   6.6303092
  51.4249182   9.9296551   6.0978371  51.3597965  11.4418488   6.0945261
  18.1719029 124.4578934   3.4634060  17.4568033 124.8321247   2.9487991
  17.8495264 124.4685364   4.3646231  43.0975914  78.9828682  32.3430872
  42.1750784  78.7317514  32.3893309  43.4291506  78.5345221  31.5650845
  27.3465490 108.0006218  47.5060511  28.2225847 108.3829594  47.4549246
  26.9080734 108.4979820  48.1964207  38.6137843  87.0988083 107.7198147
  37.7507734  87.0373058 108.1292810  38.9503074  87.9508972 107.9971711
  15.6579089 103.8147640   3.8943583  16.2328267 104.1691208   3.2160249
  16.1725628 103.8736343   4.6992794   4.9420777  14.4512539   6.0707206
   5.7228005  15.0016003   6.1324966   4.3097326  14.8658352   6.6576546
  11.2977505 113.5479355  26.6320086  11.3102579 113.0850410  25.7942700
  11.6726077 114.4067574  26.4367270  39.8731565 107.3842907 104.2627951
  39.3893957 106.7131805 103.7813141  39.1979814 107.9813385 104.5851382
   3.0423808 142.8082561  14.6042538   2.5156844 142.9516888  13.8179636
   2.4039952 142.5927067  15.2841294 113.3900148 115.8525181  99.2731949
 113.5063512 115.0949478  99.8465892 114.2788250 116.0951996  99.0136632
  23.8530159   0.8913594  22.5538015  24.0949965   0.1636391  21.9809985
  23.0302238   0.6150894  22.9574370  14.2414069 102.8315830  99.6786317
  14.8024011 103.1118393  98.9554616  14.1439629 103.6129570 100.2228715
  26.9651508 118.2890320  90.5989846  26.5360594 118.6853218  91.3573166
  27.4330306 119.0131092  90.1830157   8.7636173 107.2865677  23.6175394
   9.5065755 106.7252445  23.8392615   8.7782091 107.3367786  22.6617694
 107.7308161 143.7662315  89.1612800 107.2745413 144.3752766  88.5806616
 107.2478885 143.8145447  89.9863132  30.6782675 143.3513451  36.2217760
  30.3673649 144.2183685  36.4822388  29.9327612 142.9550934  35.7707405
  13.2651341 104.2296982   0.1841157  12.5149059 103.9947701   0.7301933
  13.7142193 103.3996487   0.0241756  18.1909060 110.4390907  51.3473082
  17.5074804 110.4366207  50.6771183  17.9997468 109.6720982  51.8871450
  34.1353917 122.9813004  45.3406715  34.8319197 123.2627296  45.9338617
  33.7421393 122.2243977  45.7750416  24.3382859 108.9765835   0.6503654
  24.1277575 109.8142242   1.0629907  24.8079658 109.2146873  -0.1489703
  19.7372890 131.0454082  32.8566766  20.2211714 131.2235928  33.6631131
  20.4156756 130.9172535  32.1936560  26.7216468 121.2934399  99.0951284
  25.9556746 121.0347843  98.5826667  26.6210747 120.8301353  99.9266698
  94.7226185 120.2750969  99.1333278  95.0403685 119.4405174  99.4779190
  93.7836022 120.2689171  99.3189176  12.6333928  60.9724188  22.7240920
  13.0402160  60.5796814  23.4964180  12.4429178  60.2303648  22.1502376
   2.4229817 135.8620548  90.3769394   2.0173752 135.9932041  91.2339791
   3.0036268 136.6153336  90.2689680  32.7750945 116.9438648  17.2771633
  33.6846519 117.0311451  17.5623322  32.3321629 117.7045822  17.6531315
  17.2963703   2.3410111 109.3929790  17.9827917   1.6911774 109.5439009
  16.9794834   2.1538620 108.5093562 107.7410299 119.6335411   1.7247507
 108.0630583 119.7823048   0.8357082 107.9823501 118.7277412   1.9184622
  17.0713401 115.6750488  73.0860710  17.8759432 116.1883163  73.0125332
  17.2833550 114.8371029  72.6748323  41.6379118 145.1531029  50.7002974
  41.2481022 144.4140720  50.2332687  42.4337006 144.7949982  51.0936356
  49.5686531 129.0618706  15.7728136  50.2530336 128.9101505  15.1210165
  49.5232010 130.0144482  15.8550906 110.5978805 104.4033337   5.7232440
 111.1093718 103.8585472   6.3214219 111.2460858 104.9624157   5.2948922
  31.3916206 106.5902805   5.9314680  31.8744183 106.0465622   5.3089732
  31.2118483 107.3997593   5.4532850  13.6714387 124.0983486 100.7265493
  14.2187452 123.9400005  99.9573847  13.7662303 123.3060074 101.2551835
  24.2854118 142.0760441  39.5036030  24.5844769 141.1876297  39.6972823
  24.2349601 142.5035095  40.3585672   1.0458189 102.0135593   9.2328876
   1.7355230 102.6297951   8.9863348   0.2312407 102.4636555   9.0090346
  38.9734817 113.2899380   9.5278406  38.5343385 112.4416161   9.4667059
  39.2596817 113.3463287  10.4395092  21.7831397  89.6632767  42.9642487
  22.2245455  90.3747940  42.5004148  21.8543530  89.8997593  43.8890409
 107.1408374 127.6682758   4.4750553 107.4034018 126.8768120   4.0050852
 106.8845577 128.2817936   3.7864754  22.7667737 104.7828102   4.6095642
  22.6373911 104.1403484   3.9118949  22.3208165 104.4058323   5.3680152
  20.3132224 122.0742130  97.2596296  21.0275984 121.4400196  97.3204836
  19.5460165 121.5495396  97.0308264  48.4670258 111.8405247 103.2168117
  49.0309477 112.3915577 103.7595662  48.1452370 111.1653805 103.8141944
  34.9331594 134.6736717  15.2422512  35.7349968 134.4710445  15.7241595
  34.5881081 133.8197231  14.9815917  22.5127697   1.4682656  12.3253667
  22.2314501   0.5603295  12.2124541  21.6973782   1.9667702  12.3787642
  13.3159757 129.8695278 104.2601522  13.5576606 129.2742825 103.5505744
  12.4245679 129.6121883 104.4955131  38.6761642 106.4167690  25.6883407
  38.7879300 105.5500889  26.0789800  39.5350432 106.6267872  25.3216600
  98.5171861 115.5526066  17.9475451  98.5568113 114.6994400  17.5153732
  98.9129395 116.1575317  17.3201120   5.2258605 137.3152637 108.0380165
   5.3940207 137.6911259 108.9021232   4.4358331 136.7878151 108.1558698
  14.9996316 126.2944317  13.0562150  15.5718970 126.4455605  12.3039496
  14.3359339 126.9813633  12.9940939  32.2025108  88.6507130 104.7527488
  31.5996432  88.0310345 105.1635724  32.7887774  88.9192867 105.4601326
 122.9143848 115.4018688  28.2455397 123.5895637 116.0696507  28.3657002
 123.3854581 114.5709705  28.3082438  29.1135740 146.0778618  80.4520329
  28.8474774 146.5609264  81.2343868  30.0693321 146.1303902  80.4516371
  20.5903172  95.2595901  10.8991277  21.2886381  94.6674347  11.1782908
  20.1680398  94.8051167  10.1701784  19.8549247 130.7317066  22.9481220
  20.2930593 131.5038872  23.3059072  20.5371308 130.0608730  22.9197431
  35.4595470  75.9307480   9.9924403  34.6841836  75.3711510  10.0359762
  35.3194904  76.5875626  10.6745040   1.9158895  86.3338470  99.7741350
   1.4361911  86.4837742 100.5887779   2.0564274  85.3873348  99.7496625
   6.0986406 124.2910480  16.7125404   5.6527257 123.5133457  17.0480525
   6.3274491 124.7923183  17.4952352  23.0372882 117.6822472  15.7200110
  23.9829731 117.5376797  15.6882048  22.6733470 116.8326283  15.9688497
  46.0892630  85.0761795   2.0493536  46.9761562  85.3482723   2.2851798
  45.5386257  85.4178047   2.7538538  24.3177247  85.6587029  16.3657844
  23.4054208  85.4681492  16.1475646  24.7863340  85.5685329  15.5360222
  16.1043489   0.3126889  19.0294516  15.2554119   0.7135086  19.2162335
  16.3461053   0.6539803  18.1684601 121.8212185 124.5538425  27.5925374
 122.0666511 124.5939445  26.6682053 121.5205935 123.6543083  27.7217221
   8.4568864 126.7239189 103.8839301   9.2582542 126.2372398 103.6910983
   8.7404323 127.4334240 104.4604989   5.3470480 107.0047665 108.5483908
   4.7287840 107.7325439 108.6141604   4.7976619 106.2375355 108.3878666
  11.6635263 122.6184464  12.9849267  11.6022539 121.9072247  13.6226153
  10.8919716 122.5089073  12.4291062  28.3302546 133.5994244  16.8882132
  27.9516554 134.3236446  17.3866093  27.8669572 132.8235149  17.2037458
  31.5832877  12.1844273  20.2749991  32.0837235  11.4473038  20.6249094
  30.8407187  12.2748070  20.8722043  10.0051153  84.4705963  37.7666569
  10.5165207  85.2797127  37.7610064  10.2118289  84.0507603  36.9316483
  36.5430307  85.7755184  18.2442737  36.9439387  85.3232574  17.5020039
  37.1385527  85.6105709  18.9752865   5.8104312 122.1529579   6.7385787
   5.0565708 122.0185471   6.1642450   5.6955534 123.0393696   7.0810980
  15.6388843  35.7852536 103.8825538  15.7442510  35.7655506 104.8337331
  15.9947646  36.6340618 103.6196794  94.4623799 135.0570583  84.1076907
  95.2460212 135.4652596  84.4758066  94.7957248 134.4574738  83.4401449
  54.5885086 105.8574009  94.2809268  53.6906481 106.1876202  94.3130263
  54.5603466 105.1490879  93.6377069  32.2110581  70.2797127   8.3933616
  31.6211772  70.2630806   7.6397079  32.7672696  69.5091057   8.2792252
   5.6216848 107.2901440   9.5639026   5.9540623 107.1890736  10.4558337
   4.6724716 107.2023869   9.6506429  25.6234908 134.4169903 103.6890783
  25.4412341 134.6324730 102.7744284  24.7710752 134.1784668 104.0533956
  14.3211770 111.0055351  12.7578080  13.5597575 111.0409927  12.1788311
  14.1167235 111.6225719  13.4604502  32.1523046 129.1133690  17.4760973
  32.4731970 128.9856529  16.5833759  31.5227652 129.8307991  17.4039817
  54.0485668  85.4757500  28.1181073  54.0703058  84.6877575  27.5751162
  54.1932535  86.1946297  27.5028777   3.2197344 121.4687634  49.3492699
   2.3125580 121.7528439  49.2371988   3.2317618 121.0371590  50.2035570
  45.2505636 142.1498108   2.1640807  44.5185328 142.3040962   1.5669550
  44.9017429 141.5457630   2.8195801  31.7558932 120.2083874 105.4471018
  32.1903419 121.0456371 105.2843054  32.4702644 119.5730209 105.4941162
  37.0918584 120.9591007  10.2850890  36.3105226 120.6572628   9.8218006
  37.7220201 120.2460480  10.1817572  49.0594769 117.7682972   9.0733838
  48.5661459 118.2250023   9.7547668  49.4151306 118.4679604   8.5254633
  37.9452252 127.5298119  30.2057338  37.0242810 127.7328014  30.3697133
  38.3523321 128.3803463  30.0411439  98.0319137 117.9442596  25.9224892
  98.3398504 117.0562744  26.1038375  97.0877761 117.8493404  25.7966876
  15.1154387 135.9045029  68.4410151  15.5120683 135.0359917  68.3731469
  15.7139099 136.4790916  67.9636105  29.8151827 131.2583351  90.9263142
  29.8086023 131.9926071  90.3122827  30.7111645 131.2351418  91.2623390
  11.1776364 140.7398796   7.5742400  11.0892105 141.3914680   8.2698345
  12.1217251 140.6639194   7.4358207  52.7055407 109.7767639   5.6814069
  53.6245489 109.9428368   5.4714650  52.2331858 109.9942970   4.8777956
  25.2081728 126.4160824   4.1400999  25.6319499 125.5592632   4.0900385
  24.9305081 126.5987778   3.2424590  37.6625109 110.2857780  28.9167476
  38.4056759 110.8106041  28.6192584  37.7350068 109.4676495  28.4251833
 103.6600799 127.1950150   7.2938436 103.6542673 126.9723606   8.2247704
 104.5870203 127.2961521   7.0775497  20.3129601 100.3790474  98.0280002
  20.5347943 100.6880569  97.1496280  19.4085085 100.0746632  97.9535075
  34.9336767 120.0941753 101.9689878  34.4114900 119.3169212 102.1675547
  35.2999973 120.3586197 102.8128555   4.3992347 118.0370522  32.2866392
   5.3514206 117.9949570  32.1983147   4.1233736 118.6580086  31.6124392
  41.9399786 130.9421825  39.4393730  41.3778687 130.2397156  39.1125584
  42.5018978 131.1642933  38.6969829  28.4590411  98.9330864   3.1967911
  28.8003874  99.8226738   3.1053674  28.0289817  98.9282703   4.0519273
   3.3079219  86.6897297  18.2993877   2.6872844  87.1086788  18.8956428
   3.5019737  87.3610115  17.6452053  20.0635886 105.6036568  95.5490550
  20.4377198 105.8187008  96.4034637  19.2950439 106.1694050  95.4748698
  30.6920457 131.3662434  27.2351360  30.1465392 131.7202187  27.9375243
  30.4975319 131.9196701  26.4787555   7.0439315 133.7505245  98.8769838
   7.7346271 134.2356491  99.3284532   6.5963519 134.4093037  98.3460280
   2.5168017   8.3128529  34.2250752   3.4130144   8.6476117  34.1939473
   2.5845063   7.4921112  34.7129607  38.5102153 118.4290028  95.3348013
  37.9107857 119.1072464  95.6460890  39.3009901 118.5484695  95.8607598
   7.8063291  14.9582844  27.9344344   6.9017422  14.9205761  28.2451296
   7.8267288  14.3646031  27.1838617  36.6138053 126.3649750 108.5138307
  36.3708305 125.5922699 108.0038007  36.1051702 126.2887573 109.3211185
  63.1202412 132.3788643  29.5742226  63.7580442 132.1234703  30.2407169
  63.1050539 131.6426563  28.9626646  40.2592278 113.9793873  17.7485073
  40.4112148 113.2397747  18.3368158  39.8140264 114.6298409  18.2915795
   7.7347666  88.2433414   8.8603616   8.0345672  87.3932934   9.1824949
   7.5317252  88.0916405   7.9373264  38.5076809 120.6612778  16.8704188
  39.2201686 120.4433060  16.2695169  37.7483130 120.1951790  16.5206397
  25.2153492 104.7367191  99.7247049  26.0590291 105.1352787  99.5111939
  25.4380488 103.9821815 100.2699687  47.0146894  69.3727446  31.6230845
  46.2226486  69.6145630  31.1430526  46.7507792  68.6252356  32.1595645
  49.8631859 108.5819626  98.5972603  48.9398146 108.3300304  98.6096295
  50.3230381 107.7925301  98.3116766  45.2287054 119.7050095  22.0351529
  45.8372498 119.6587467  21.2977505  45.2322865 118.8219070  22.4044085
  46.2375069 115.2580643  10.4265869  46.0518122 115.7687473   9.6385866
  45.3772497 114.9760151  10.7374609 112.4772317 135.3691959 106.2089568
 113.2614870 135.5918026 105.7073423 112.1367711 134.5818138 105.7842710
 122.7347738 111.5371227  23.4351420 123.3143812 112.2896290  23.3167815
 122.9899349 111.1689758  24.2810726 114.5921750 116.0366344  25.1082873
 114.4366784 116.3263035  24.2093182 114.9167360 115.1406384  25.0184631
  38.6859679  93.1548214 107.2820871  39.5328188  92.7203083 107.3834322
  38.1950641  92.9085445 108.0660492  50.4613209 105.8432961   0.7796358
  51.2812424 105.3802490   0.9515342  49.8199368 105.4124355   1.3446319
   1.4099166 145.0845814  88.9467558   2.1313673 145.2690220  89.5481881
   1.3929166 144.1299534  88.8787135   3.3084124   8.4076672  94.4903156
   4.2044777   8.2104569  94.7630914   2.9568124   7.5670510  94.1970953
  22.4703622 102.8470993  81.6331967  21.5312409 102.7391911  81.4827403
  22.7031636 102.1275425  82.2199472  51.2374067 102.8545952  24.9246383
  50.8163261 103.5504627  24.4199681  50.7662773 102.8442955  25.7578015
  33.9714074 104.4021416   5.8483124  34.7883797 104.2247391   6.3144827
  33.9326239 105.3566360   5.7877350 109.0304346  81.8575859   0.1449455
 109.2859442  82.5194931   0.7874541 108.1436533  82.1064758  -0.1156362
  55.9657240  99.0772247  15.3151882  55.3787661  98.3220577  15.2772021
  55.4508018  99.7593498  15.7462156  15.8041620 123.9676285  98.7874862
  16.0653770 123.8058949  97.8809317  16.4142489 124.6372604  99.0967091
  59.7855616 110.5169582 105.1860284  59.6232748 110.1218987 104.3293961
  59.9066591 111.4483070 105.0011941  52.8456354 113.0714130  32.5075579
  52.2884798 112.5204086  31.9578171  53.7224913 112.7008533  32.4073124
 114.0792841  17.5624256  20.3802276 113.4884960  16.8329411  20.1929855
 114.9501593  17.1657734  20.4021430  29.4257379 138.6219025  32.1395922
  28.9485359 139.4469643  32.0514035  29.8002744 138.6547470  33.0198622
   2.4499889 132.0571709  10.8873999   2.8981268 131.7719650  10.0911188
   2.3818645 131.2651825  11.4206386  19.0260422  94.4938946  27.9178095
  19.2500007  94.8259926  27.0484495  19.7022593  94.8523712  28.4926629
  68.4607744 130.1421928  34.4331455  68.9145565 130.5766487  35.1553416
  67.8253889 130.7888317  34.1259360   7.4242997 140.0664806 104.7156986
   7.1101773 140.8866310 104.3350264   6.9485879 139.9885750 105.5426576
   2.9437083 108.2803917  87.8044113   3.1433171 107.5016022  88.3239039
   2.8504297 108.9812565  88.4496339  19.6985662  99.4941998 107.7144040
  18.8886654  99.4642258 107.2050964  19.7939599  98.6086369 108.0649709
  39.7895169 101.7885780   9.5783383  40.0186253 101.0562515  10.1505673
  38.8923264 102.0134640   9.8247212  34.3468952 144.4830418  46.8894196
  33.5095096 144.3664646  46.4406109  34.3241286 145.3852463  47.2083902
  51.4584064 125.3371239  51.3205194  52.1190739 125.5681992  51.9734764
  50.7035303 125.0505733  51.8346071  82.7306938  82.2014332 107.8538450
  82.4327087  83.0714893 108.1192304  81.9766712  81.6324711 108.0086415
  25.3378344 108.6860466   9.3533891  25.5681300 108.1380081  10.1036203
  25.1490879 109.5443630   9.7327352  77.4028969 114.2740250  10.8911061
  78.1753874 114.6103096  11.3454282  77.7407598 113.9373970  10.0611925
  11.5426517 106.4708233 106.7633455  12.4408269 106.3167858 107.0562368
  11.2916923 105.6587696 106.3231053  20.1754403  96.7690849 108.3076789
  19.5103014  96.2832165 108.7952743  20.2219701  96.3266850 107.4601253
  31.5962887  81.1374378  45.1066351  31.5088439  81.6084480  45.9353304
  31.9644499  81.7821121  44.5024109  19.7366083  84.8511124   2.2309455
  19.2148137  85.3728104   1.6211998  20.1021099  84.1486740   1.6931511
  59.9680281 121.4027977  22.6634431  59.5556879 121.8259907  23.4165120
  59.5367670 120.5504704  22.6018429 114.7237319 131.7609882  28.4931612
 115.6660039 131.9004345  28.5875607 114.5531887 131.8999577  27.5615835
  45.7569408 119.7204590  25.4548383  45.4135132 120.3532982  26.0855627
  45.0688696 119.0592480  25.3801227  51.5108633 110.6747627  12.3033941
  50.7973862 110.9215260  11.7149282  51.6238737 109.7348595  12.1618366
  57.6127672 142.7950287 106.6984027  57.8759432 143.4730339 106.0760786
  57.6044035 143.2386494 107.5465601  15.4003453 109.0608692  14.1804171
  14.6138930 108.5222530  14.2677021  15.1585126 109.7370720  13.5475647
  21.2308741 100.0043774  13.0605352  20.5192018  99.3683147  13.1325483
  21.8300843  99.6218014  12.4195862  49.7182322 108.3352184  26.1380172
  50.0595140 107.5168991  26.4987278  49.2053413 108.0656338  25.3761125
  28.5314846  71.7745161  64.6798992  28.0428886  72.5969505  64.7131348
  28.6221194  71.5873575  63.7455606  37.9987764  86.8744373  23.3589792
  38.8134027  87.2425747  23.7011671  37.7117300  86.2594414  24.0339780
  23.3215928  98.4562016 100.9390732  23.4690642  99.1343403 101.5983256
  23.4376264  97.6325035 101.4126571  38.6117887  86.0062218 105.1943176
  38.6740184  86.6424942 104.4819190  38.5030508  86.5387344 105.9822484
  88.5522956 120.8978653  25.6269026  88.8950653 121.6005516  26.1791444
  88.7186331 121.1938190  24.7319317  28.1779838 113.7932682  35.0867844
  28.0483413 114.6877480  34.7716212  28.7292457 113.8904381  35.8632517
  18.3580244 112.8727150   3.1469050  18.6773336 112.0584297   3.5357669
  18.0140412 113.3728218   3.8870376  23.2235718  96.3152027   8.0172914
  23.7270570  96.1238956   8.8085788  22.9667759  95.4557610   7.6831651
  64.0186167 109.7856426  12.8328300  63.2776117 109.7121716  13.4342861
  64.0116453 108.9635181  12.3426378 118.5516644 136.5357590   2.1804401
 118.3829433 136.5043545   1.2387511 118.2045460 135.7083035   2.5136915
 123.1530080 115.2589893  14.5060849 123.8487591 115.6864452  14.0066409
 122.3460231 115.5129528  14.0582991  31.0693789   2.2350197 108.2687790
  31.4012527   2.8803711 108.8929693  30.3054070   2.6549511 107.8735133
  20.4862285 129.3100452  36.5110588  21.3864446 129.5868778  36.3401556
  20.5750918 128.5374355  37.0691085  58.6263704  69.7562647  14.5025325
  58.9390087  68.8595915  14.6228087  58.0821943  69.7167158  13.7160623
   3.6096686 109.9755096  47.9012156   3.7538618 110.8489513  47.5371552
   4.4871554 109.6553421  48.1103611  48.3986521 131.8797588   5.0173348
  47.7576542 132.4725819   5.4096615  48.2668829 131.0486507   5.4735315
  28.8864303   2.3857479  15.2742577  29.5795608   2.1178131  14.6709228
  29.2101336   3.1969719  15.6658673  42.1554422 137.5073242  17.7674675
  42.9813337 137.0829010  17.5350749  42.2949409 138.4316635  17.5616157
  69.0867949 108.7683010   8.2037807  69.9425745 109.0893745   8.4879965
  69.0451908 107.8714180   8.5356116   3.7217763 108.7091923  76.8230756
   3.8488063 107.8299141  76.4667495   4.2709696 109.2709064  76.2761768
  43.1000710 122.1190071  83.5979613  42.1794987 121.8666840  83.6694630
  43.5843229 121.3268089  83.8306698  33.0631781 128.7069798  14.6233559
  33.7704134 128.4797859  14.0196705  32.5376678 129.3489265  14.1458857
  33.7798524  86.8008423  28.9329076  33.6026073  85.8792114  29.1210985
  33.3048797  87.2796345  29.6121621  35.0947285 127.9987049  29.6686196
  34.9788594 128.1767178  28.7352824  35.1656389 127.0457268  29.7236967
  15.5740619  91.7931843  29.1696835  15.8132720  92.4488163  28.5145831
  15.1391864  92.2926998  29.8607707  52.4154615 120.9104443  16.7742372
  51.6394901 121.4445877  16.6045499  52.1519470 120.3235912  17.4830341
  10.7543218 101.9001865  96.4182004  11.2135613 102.5344372  96.9687017
  10.7363808 102.3045635  95.5508014  12.6028454  81.4392376  20.2590394
  12.4457049  81.0328484  19.4067538  13.1782651  82.1801090  20.0686836
  28.0725765  95.1115799  28.9567113  27.3483658  95.3528786  28.3791971
  28.4678793  94.3467331  28.5384059   3.5798863 129.0574551  37.5379491
   3.4770536 129.2959881  38.4592319   3.3800659 128.1217861  37.5090551
  33.5301065  10.3016167  15.9476316  33.4410620  11.0126286  15.3129947
  33.8954663   9.5747357  15.4432595 108.2211251 100.4787064  97.4322935
 107.3316307 100.1357937  97.3460098 108.5145087 100.1704979  98.2897135
  35.1950479 142.9198456  82.5975164  36.0961437 142.6352978  82.4449047
  35.2807760 143.7147331  83.1238517  18.1616080 133.6907959  14.5071387
  17.9525959 134.0093327  13.6290288  18.2643545 134.4847775  15.0317931
  32.5030208  99.5909309  45.6725121  33.1484056  98.9302540  45.4210854
  32.8579617  99.9805832  46.4715242  51.5319061 112.0081997  30.3087139
  51.8091965 112.8988934  30.0942016  52.1039820 111.4467144  29.7855639
  25.8942771 123.7442207   4.6053544  25.8013034 123.0756474   3.9266816
  26.2863088 123.2811165   5.3456727  10.3933144  77.0079231   1.6528264
  10.3094423  76.0545254   1.6678468  10.2854407  77.2433710   0.7313291
  41.7179346 131.6656780   8.7100068  41.9811440 131.8027020   7.7999631
  42.4093008 132.0821381   9.2246000  36.8186903  87.6819420   9.6122686
  36.5091324  86.8516254   9.2503492  36.3863373  88.3507252   9.0812055
  34.3702340 130.9772682  18.4392587  34.2629862 131.7230415  17.8488771
  33.4966779 130.5902958  18.4974519 110.9035701  95.2936840  86.8828487
 110.3679795  94.5071602  86.9865799 111.5820259  95.2115631  87.5530624
  35.6773448  87.1366310   1.8544332  35.9423041  87.3520756   0.9602300
  34.9015379  86.5860939   1.7483083  13.1098616 122.2095203  85.9375286
  13.8614655 122.6640034  85.5570412  12.3483837 122.6295185  85.5375385
  24.9971318  88.1920338  12.7506486  24.4692636  88.9647198  12.9519883
  24.3924046  87.4565887  12.8489629  45.3745222  66.4409828  87.4971104
  44.6867180  66.4685822  88.1622314  44.9040794  66.4790106  86.6643620
  72.3134279  84.4398975 102.4990177  72.1136332  83.6331558 102.9738522
  71.4754248  84.7110176 102.1242142  24.0201187  81.4990616 103.3132648
  23.7247181  80.8994961 102.6280689  24.7283697  81.0292530 103.7536049
 123.4436964 115.4528332  84.9000645 122.9004615 114.9956608  85.5420303
 124.2836059 115.5769634  85.3420830 120.0529561 113.9398289   0.4604379
 120.1854709 113.7872314   1.3960592 120.8531827 113.6135483   0.0488511
  37.4497390  86.5770721 101.9652462  37.4070883  87.0664883 102.7867508
  37.8025413  87.2022247 101.3320446  22.7098894  91.0261345   3.3474294
  22.6202464  90.1668358   3.7594930  22.0640731  91.0215282   2.6409379
  15.6558394  69.5987272 107.9431438  15.5682874  69.6403265 108.8954258
  16.5374529  69.9283981 107.7690506  15.4008675 141.0058403   3.6415426
  15.1414943 141.3774681   4.4846574  16.2701881 141.3707638   3.4762040
  27.5854897 106.5675545  61.7287350  26.9010735 106.5067196  61.0623217
  27.5621176 105.7205868  62.1740818  54.4705153 105.5271626 100.5002785
  54.9166965 105.3595829  99.6701717  53.5891628 105.8018303 100.2472878
  38.4661794  76.7396355  25.4954187  38.8800979  76.2494946  24.7850267
  39.1982269  77.0924139  26.0012761  26.9129109 128.4228992   2.8038637
  27.5994682 128.6012936   3.4465543  26.1015844 128.4305573   3.3117238
  16.5365803 126.5424442  97.7426243  17.0296133 126.5955448  98.5613632
  15.6257474 126.6813469  98.0020905  40.5918503 115.8538246  89.1995239
  39.8062468 115.8116341  89.7447586  41.2963820 115.5473995  89.7704601
  25.1077461  77.4930668  91.6999722  25.9518862  77.3326778  92.1217918
  25.3324485  77.8817320  90.8545876  22.3937583  75.8628464  19.4056741
  22.8275561  76.5757084  18.9367620  22.9384875  75.0952530  19.2316095
  33.9755082  93.8394165  16.3476602  34.7636271  94.3331242  16.1210481
  33.7627602  93.3499432  15.5530683  35.1460123 106.3125038  27.8117696
  35.5647802 105.4546070  27.8816549  34.4109821 106.2707710  28.4235135
 115.9094889 103.8977623 105.5522251 115.5261899 104.2067719 106.3730907
 115.9898902 104.6852398 105.0140381  25.5722046  81.9942570 105.8833790
  26.4232683  82.0641804 106.3158417  25.5619860  81.1103058 105.5162907
  34.8966718  86.5416241  89.5090008  34.3282008  86.5402699  90.2791119
  34.8090291  87.4238586  89.1481590  75.7616138 105.8295536 102.9044437
  75.7157660 105.6917095 101.9583321  76.5807486 105.4103661 103.1681442
  13.3413017  94.1051579  95.0692272  12.6309109  93.6686611  94.5990753
  12.9343617  94.8841000  95.4485512  48.2036972  92.4608994  16.1767999
  48.9907122  92.8208542  15.7678071  48.3628511  92.5442791  17.1169893
  21.6075444 102.6268578  13.8608877  21.6123247 101.7518044  13.4729616
  22.0985866 103.1662941  13.2411138  10.8469319 114.3960953   6.7228357
  10.5517101 113.4896660   6.6364805  10.4768467 114.6902657   7.5551359
  30.1934791  83.9123249 103.4606075  29.8829079  83.2845688 104.1130638
  30.4238296  83.3754730 102.7023506   0.1211210  78.3647442  80.0906086
   0.7657146  78.5312033  79.4028425   0.5910703  78.5379457  80.9063244
 114.4542272  97.0887661  96.3016319 115.3381628  97.1119404  95.9350872
 114.0487737  97.9019737  96.0007286 111.2625904  78.8967180 104.7841835
 111.9947214  79.5080233 104.7034454 111.4034242  78.4642506 105.6264305
  13.4785116  83.8481522  22.3255006  14.1754270  83.5343361  22.9017488
  13.0131054  84.5023060  22.8467599  25.8052278 121.7091846 105.8808231
  26.7562842 121.6439533 105.7943821  25.4741144 121.5723896 104.9931908
  28.1726527  99.8513317  11.5428201  27.2789764 100.1773834  11.4366762
  28.3470798  99.3641186  10.7375757  52.7517271  72.6695347  58.9034176
  52.6038551  72.8073788  59.8390245  53.6586571  72.9408979  58.7617350
  23.4822917  93.5005569   4.1017858  23.9390779  93.7759495   3.3069650
  23.1301785  92.6364136   3.8884679  30.6925488 127.4308491  89.0803719
  31.3420320 127.2772598  89.7665310  30.4966474 128.3658314  89.1409588
   8.7784213  57.5156403   2.0146982   7.8419113  57.3332644   2.0916501
   9.1607881  57.1447897   2.8099958  24.0109825 139.5306015  19.2654744
  24.5116806 140.0867748  18.6686460  24.3193817 138.6433125  19.0814916
  26.0943151  79.3621206   3.0267087  26.9664550  79.6815968   3.2580987
  26.2386537  78.4621143   2.7344934  39.9342132 126.0739231  74.6094370
  39.6211267 126.3054371  75.4838610  40.1872063 125.1535797  74.6815109
  49.8779297  93.1577492  78.4685278  49.8701048  93.9649773  78.9828825
  50.6546450  92.6878548  78.7720728  36.2120199 130.2251530 103.1943703
  36.3741660 129.5693588 103.8725090  35.6695604 130.8858871 103.6249638
  60.9066725 128.7236977  63.8345528  61.2168741 127.9239559  64.2593002
  61.6835165 129.2796803  63.7742853  17.8458214  74.8717308  23.2648984
  17.7169824  73.9368010  23.1050912  16.9864810  75.2624512  23.1064550
   9.6043718  77.0582533  16.7567769   9.5093459  76.2893915  17.3189584
   9.2190593  76.7933464  15.9215490  47.4971199  85.1709843  88.2035923
  47.4184704  85.8842468  87.5701141  47.0081043  85.4748058  88.9683056
  52.6930475  98.3990288  56.7175809  52.7708387  98.1022549  57.6242963
  52.2115564  97.6988983  56.2768880  35.1266265 100.2632427   2.4201242
  35.9491158 100.6439781   2.7279893  35.2266407  99.3232632   2.5707284
  30.5919623  76.8963814  94.7675228  31.1130595  76.9187307  93.9649105
  29.9627113  76.1893177  94.6249390  49.2800379 117.9193783 106.5877628
  48.6822748 117.5979996 107.2627640  49.6377230 118.7296772 106.9506741
  40.9964228 103.1332779  18.6767045  41.7303753 103.4356213  19.2116205
  41.2565613 103.3340836  17.7776853  10.2749813  72.8903246  74.4997454
  10.8505595  72.1669292  74.2514610  10.3693998  73.5258865  73.7902546
  49.1698885 128.1366634  80.8341408  49.6490192 128.8709736  80.4501534
  49.0541029 127.5213814  80.1100922 124.3174603  26.6241097  17.0977060
 124.1008465  27.5150537  17.3725358 123.4707368  26.2183309  16.9116060
   0.7325490  95.9507751  66.0976839   0.7551630  95.3669548  66.8558931
  -0.1374270  96.3488579  66.1277819  30.6335926 108.2535744  98.9624405
  30.8790946 107.6690674  99.6795940  30.4778218 109.0983868  99.3846321
   4.1963279 109.9057388  12.3865358   4.6716115 109.0771675  12.4482671
   4.8513719 110.5733395  12.5901166   2.7988487  39.4039750  52.7613020
   2.5184166  39.2257953  51.8636131   1.9838172  39.4607687  53.2600307
  23.4612513 115.2344608  13.6162511  23.5421896 116.1585712  13.3802263
  22.8300071 115.2254295  14.3357507  18.7918413 124.3937874  97.5843048
  19.4313002 123.6818409  97.6056862  19.2926419 125.1569653  97.2962189
  17.3670149 122.2962475  89.3814182  17.2928798 121.8881893  88.5187340
  17.5017321 121.5633774  89.9822426  38.5014296 126.3184547  77.6842833
  38.2750368 127.1650505  78.0693197  37.6576495 125.9101295  77.4905205
  53.9735985 104.0522861  96.5401649  54.6029663 103.9785576  97.2575855
  54.2833805 104.7974777  96.0254288  29.1163206  79.4749594   3.8757554
  29.7445154  80.1890564   3.7677518  28.3499002  79.8882484   4.2732660
  22.5182843 109.4488811  48.3924103  23.4075594 109.6357918  48.0915976
  21.9630861 109.6524334  47.6397133  35.3395462  92.6679993   1.1516897
  35.3703547  92.0512581   1.8830720  36.1894679  92.5724792   0.7218782
  54.2506933  73.2804585 107.3742199  54.5981836  73.4735060 106.5034676
  54.7160578  72.4900723 107.6479912 116.1987574 139.6962929  72.1967173
 115.9178097 138.8645554  71.8152523 115.5605263 139.8702145  72.8885555
   8.1916881 103.0819607  89.7530651   7.4423653 103.2226753  90.3318119
   8.5536838 102.2403145  90.0302505 114.1110427 117.0742321  10.5815641
 114.1786332 117.1716881  11.5313855 114.5844621 117.8278351  10.2291719
   0.8220111 124.9794102  50.0871507   0.1406994 125.1654530  50.7332364
   0.5034944 125.3835869  49.2800466  61.1403894 114.4808102  98.1862068
  60.4774809 114.4597530  98.8763809  61.1630630 115.3950977  97.9037094
  53.4168959 122.1072197  28.8879815  52.8212404 121.4744091  28.4867708
  54.2090988 122.0633125  28.3525125  29.1247058 131.9767952  32.1101228
  29.8906469 132.1993923  32.6392785  28.9651084 131.0516930  32.2970430
  47.6929569  83.1495857  96.5077114  47.2605371  82.2957706  96.4917374
  47.2401094  83.6600113  95.8364201  38.9757037  95.2861500  95.1957130
  39.7605753  95.3018951  95.7434082  39.3027735  95.4108906  94.3048191
  46.0295391  95.2717209  21.7515127  45.6722069  95.3246021  22.6379339
  46.6797495  95.9731388  21.7131463  27.2044015  77.1495008  14.6793214
  26.4474869  76.7255831  15.0838033  27.8408194  76.4438868  14.5639459
  32.6962233 117.7102470 109.1151428  32.5694394 117.3053265 108.2571220
  33.2671404 117.1022797 109.5848942  21.4175057  88.6069870   1.3994924
  20.5233192  88.9398479   1.3229123  21.5587139  88.5143185   2.3416654
  17.8335965  80.3335476  81.5728283  17.8225327  79.3989849  81.3661861
  18.7502348  80.5239201  81.7722416  41.6971064  76.7969370  95.6898975
  41.2330675  76.9518375  94.8671532  41.1438847  77.2032166  96.3570690
  17.0374644 130.7675648  95.7506847  17.3491812 129.9032307  96.0189915
  16.1282063 130.7972908  96.0483360 124.2365190  76.5887785  72.4952459
 124.5973173  75.7685947  72.1585608 124.2667556  77.1878242  71.7492819
  34.4262290 131.2777233 107.1416283  33.8378882 130.6129551 106.7836285
  34.2180967 131.3038445 108.0755615   5.8075982  86.0970306  83.0943108
   5.7764465  87.0475101  82.9854774   6.2888020  85.9651279  83.9111805
   5.3689921  80.8960152 102.9759598   5.3009146  79.9980593 102.6515102
   6.0324860  81.3024616 102.4184608  13.5864377  88.7415981  89.1063690
  14.2911911  89.2516899  88.7071800  13.2151532  89.3238544  89.7692108
  24.7238708  82.5482082  34.0341035  25.5892754  82.7949238  33.7078515
  24.3843079  83.3460903  34.4394628  24.7110915 104.5368290   7.4598161
  25.4259920 103.9664268   7.1773568  24.7411990 105.2768040   6.8533746
  25.7297707  94.9954700   9.9317399  26.1909318  94.2367744   9.5740453
  26.1903834  95.7503510   9.5653859  39.3058681 111.9616127  85.6800938
  40.0982141 111.4250755  85.6566048  39.0251517 111.9343185  86.5948009
  11.5142822  58.7546968  14.6807519  11.6781139  58.6778879  13.7408105
  11.7721784  59.6509266  14.8963682  31.3798761 120.9106159 102.5794792
  31.5716529 120.4091263 103.3719158  30.4734015 120.6872559 102.3681831
  22.5118995 116.1516953  95.2254295  22.6496172 116.7564106  94.4963264
  21.8234348 115.5610085  94.9199104   2.1680957 104.5216560  67.5968170
   1.4155659 104.0818119  67.9923820   2.3870766 105.2215099  68.2120180
 123.2767757  90.0204659  98.6013508 123.4044529  90.9198952  98.2997608
 122.3281043  89.9305439  98.6917305  31.9285822  76.9679689  10.5134336
  31.0977173  76.5044355  10.4083864  32.5863028  76.2738657  10.5565206
  26.4187670 113.6025333 108.8203430  27.2333908 114.0384293 109.0705681
  26.1893773 113.9901257 107.9757214  30.8617043  92.8558445 106.1402416
  31.0942531  92.2896004 105.4043674  30.2925467  92.3151970 106.6879559
  21.8629265 135.7504749   4.0648595  22.4331951 134.9928474   4.1953412
  22.1184611 136.3640499   4.7536699  17.2495317  67.6620865  11.5948621
  17.2703552  68.0711937  12.4599782  16.4218819  67.1815586  11.5770093
  20.1344824  97.4732780 101.8433952  20.9817076  97.3626232 102.2749043
  19.6145988  97.9841518 102.4638462  22.3157573 119.8205185  59.1147995
  22.1094537 120.1796722  58.2518530  23.2717705 119.7767544  59.1337061
  28.8581920  87.7888775  30.7379857  28.4785032  88.6665058  30.7807866
  29.2044520  87.6345921  31.6169206  49.6848726 110.0837708 109.4754314
  50.3165197 109.5041656 109.0496349  49.9172211 110.0507927 110.4034138
  27.7431870 134.4099045  86.3098717  26.8330359 134.6384335  86.4986324
  27.6839876 133.6638737  85.7130718  31.2441611 109.8517799   6.2115423
  32.1030188 109.5915318   6.5445081  31.1048388 110.7291031   6.5680925
 119.2196572 119.5235920 105.7416344 119.7840915 120.2195740 105.4050922
 119.7759396 119.0372944 106.3501549  47.0628834 102.6500225  91.5225220
  47.5127029 102.7957821  90.6902599  46.3653183 102.0291996  91.3122368
  28.1455016  87.7034473  95.4642010  27.3938918  88.2758617  95.6180191
  28.8201332  88.2835960  95.1113033 112.3514909  69.6606684  81.2470436
 111.5696568  69.7469234  80.7015800 112.3200900  70.4176331  81.8320560
  40.7563925  83.9467621   1.2850896  41.4694691  83.6575508   0.7157842
  39.9912381  83.9828014   0.7110921   6.5850025 125.6910992   4.5887128
   5.8167177 126.2557411   4.5041601   6.2817270 124.8295403   4.3024007
  70.6875944 102.7954197  87.2269344  69.7731400 102.9670620  87.0021152
  70.9353209 102.0547199  86.6735554 110.7409877 106.6763210  90.0771523
 111.5675277 107.0313072  90.4043388 110.0668592 107.1886349  90.5236053
  47.1083021  73.9937067  24.7823087  47.3418379  74.6365643  25.4519597
  47.2594929  73.1462193  25.2008001  21.8150330  74.0142202  92.8919983
  22.2634506  74.8543262  92.9888344  21.4870095  74.0200663  91.9927788
  20.5055475  82.4998379  93.9209461  20.4094362  82.5691414  94.8707867
  21.2119341  83.1091785  93.7065983  50.6887913  69.4233847  12.2133962
  51.4737320  68.8963318  12.0640222  50.9937048  70.1638842  12.7377263
 116.8818749 105.8360577  77.1121836 117.0756871 106.0705376  76.2046099
 117.7091367 105.4966640  77.4537659  63.7806988  79.2585039  95.2006912
  64.6113539  78.9374971  94.8496914  63.2456255  78.4719610  95.3069115
  24.3407369  91.0218143  76.5501976  25.2156401  90.6624222  76.6971970
  24.1016960  90.7194519  75.6740332  25.6191492  93.1612492   5.7160989
  24.9170947  93.4585094   5.1373235  25.1665497  92.7168846   6.4329854
  16.1285114  86.6460705  66.7743254  16.5069926  85.7890320  66.9704247
  15.1842606  86.5170002  66.8635511  41.2097836  88.9236069 105.5178833
  41.1418724  88.4883022 104.6681023  41.4036894  88.2172108 106.1340332
   0.4048086  75.6756496  66.7626667   0.9953275  74.9445486  66.9443512
   0.2202609  75.6073761  65.8259058   6.3465959  95.6384468  10.5548230
   5.6870693  96.1144543  11.0594789   7.0050025  96.2986374  10.3382913
  41.4852428  88.3302975  41.6738931  41.5367126  88.1102085  42.6040212
  41.6873741  87.5108624  41.2223283  36.3231158 109.4895744   7.4712316
  37.0867252 109.2126274   7.9776231  36.5238214 110.3873825   7.2068635
  48.9727831 110.4687786  79.9191284  49.8801756 110.6868839  79.7062922
  49.0005875 109.5449352  80.1680946  71.3820505 122.4497223  25.2093641
  72.0557785 122.1531200  25.8212129  70.6236792 122.6394749  25.7617227
  30.6324863  55.3505468  41.2302629  29.8508549  55.7701254  40.8707658
  30.9292984  55.9464025  41.9180814  17.1256840  91.9830036 104.4750595
  17.0915818  91.6229343 103.5888195  18.0581164  92.1206665 104.6419334
  49.2862797 105.7352734  11.8511430  49.7029257 106.5450287  11.5563051
  48.6229420 105.5512905  11.1860410  28.7573981  98.5221577  84.3532181
  28.8778234  99.3091393  83.8218117  28.1546283  97.9796791  83.8446617
  43.7992382  68.8008070  85.1545143  43.0230236  68.3004141  84.9028587
  44.3726301  68.7542772  84.3894768   0.5462077 139.9029541  16.7163125
   0.5377589 139.7141457  15.7779542   1.0545313 140.7103348  16.7935983
  12.8728187 132.4125004  14.7072831  13.7527514 132.2828007  14.3535558
  12.9838490 132.3466682  15.6557409  29.9558568  89.0613174  85.8050251
  29.1305327  89.3322849  85.4029655  30.2898407  89.8544216  86.2241650
  32.6362491  80.1928806  89.7377300  32.1889138  79.8395729  88.9687729
  33.1721282  80.9083366  89.3954086  47.8614426 115.2616405  79.1794252
  47.5170135 114.4692612  79.5914030  47.1043491 115.6539631  78.7445450
  49.2442560 110.1821041  53.0839586  49.9185896 110.2154064  52.4054289
  48.4721661 109.8346138  52.6374626   6.8574858  84.3708038  29.3299905
   7.4633539  85.0981045  29.4720498   6.9374138  83.8348770  30.1190606
  32.9840875 103.2041740  77.0035124  32.8650832 103.5177612  76.1069965
  32.5426221 103.8573933  77.5463200  17.1432817 117.2032928  97.9552650
  17.5355256 117.7941132  98.5981464  16.9709861 116.3982582  98.4436035
  15.3144205  73.4516621  97.3118973  14.7708738  72.7132607  97.0370293
  14.6966922  74.1735315  97.4282932  30.5199051 114.7237492  70.5444860
  30.8053994 115.5694103  70.1986790  29.8064017 114.9391270  71.1451149
 122.8340597  98.1939507  93.8100052 122.7093407  97.3040962  94.1399097
 122.3421175  98.2162380  92.9891968   4.8366174 100.6243229 105.5257702
   4.8490754 100.6873989 104.5707321   4.5000365 101.4716148 105.8173943
  32.5632954  97.6489353  12.2242013  32.8552341  97.3496151  13.0852548
  31.7685151  98.1517887  12.4022142  34.6096897 126.5555668  12.5107328
  33.7945890 126.0586452  12.5808469  34.6294570 126.8563175  11.6022245
  46.3134384 104.9268436   0.8520929  46.6378736 105.7702541   1.1677305
  45.3674698 104.9662113   0.9928933  30.7677531 104.6255112  24.4067231
  30.5369925 104.9075603  25.2918378  31.5082288 105.1812553  24.1636697
  23.0906010  82.9592800 106.5917683  24.0251350  82.8316784 106.4286804
  22.8861690  82.3509789 107.3019791 122.7205112  91.4758110  80.0391293
 123.4461566  92.0261765  79.7445774 121.9382486  91.9055080  79.6932220
   8.7857783 127.0965958   3.7500421   8.0638498 126.6882515   4.2278520
   8.5888463 126.9280243   2.8286115  36.8723559  94.0000153 105.2277946
  37.4311209  93.8081169 104.4746685  37.4114013  93.7811852 105.9879017
  24.2546654  96.7459679  96.0369110  24.0150762  97.4244022  96.6682243
  24.5832014  96.0246658  96.5735817  20.9810066  99.3486023  76.5226650
  20.6341553  99.1254044  75.6588888  20.3161693  99.9196911  76.9074821
  43.8405561 122.0740986  88.6281586  44.6699333 121.7073631  88.9345455
  44.0685415 122.9465103  88.3069801  32.0536160 101.0052586  23.1502572
  31.6915512 100.1621246  23.4227601  31.3122129 101.4702225  22.7624933
  47.2868109 100.5106640  76.9950628  47.0304585 101.2583542  77.5349426
  46.8035650 100.6288433  76.1772919  39.2155910  89.8799992   7.2272245
  39.4981623  88.9931965   7.4507657  39.3092108  90.3737164   8.0419103
  23.6595249  56.7919874  85.3207207  22.9414988  56.6032887  85.9249306
  23.2267427  57.0782757  84.5163822  50.9844685 108.4703255  63.2648039
  51.7268705 107.8680420  63.3130169  50.2938890 107.9653645  62.8354549
  64.2662811 122.2002506  13.2378999  63.6637449 122.6729870  12.6637117
  64.0436411 122.5014496  14.1187803 122.6101432 140.4123116  16.7982141
 123.5619453 140.3391838  16.8686143 122.4503922 141.3477898  16.6733114
  33.2568169 105.5478096  92.2712994  33.4718871 105.9592819  93.1083584
  32.3094416 105.4154587  92.3058796  37.0598412  80.8405495  86.4609909
  37.0311809  80.0196743  86.9524956  36.2886977  80.8077908  85.8948612
  31.7546463  85.5688858  94.8907661  32.5284266  86.1226177  94.9950695
  31.8184710  85.2341557  93.9962864  16.6145635 123.1300735  96.1700916
  16.5286016 123.8792324  95.5805111  17.3859429 123.3299351  96.7004299
  14.5918226  63.9812136   8.3622018  14.6108520  64.1838741   9.2975084
  14.7124207  63.0325699   8.3201734   9.2015982 125.2277470  93.1410217
   8.5262978 125.8861256  92.9774761   8.7242430 124.4783306  93.4970188
  15.9761167 107.8149605  40.8896732  15.5841303 107.3868179  40.1285744
  15.5412912 108.6664486  40.9358501  44.7454643  84.2570019  95.2684975
  44.4821167  84.8023987  94.5272636  44.7251701  83.3629608  94.9271774
  47.0065355 141.7638016  11.3231317  47.8430986 142.1383858  11.5989534
  46.3571596 142.1902752  11.8822995 106.3803787 130.6238461  96.8340015
 106.9106633 130.5580711  96.0398293 106.9891912 130.4258442  97.5455952
  28.4473205  73.0108213 104.5179176  28.4526157  73.4257364 103.6553288
  29.3123055  73.2015562 104.8807526  20.0996280  82.8025055  89.2901802
  20.9498286  82.6437950  89.7003078  19.6776462  83.4489441  89.8561096
  44.1859961 117.3665047  69.4853783  44.0951633 117.4907303  68.5406303
  44.0353775 116.4307976  69.6194935   8.2624906  78.8177204 106.6079903
   8.8341141  78.7331724 105.8448887   7.7205265  78.0289412 106.5898514
  18.6478150 109.9159527  74.9095392  17.8829265 110.3698254  75.2633429
  18.5217690 109.9378777  73.9609241 120.0514454   7.6332264  70.4932165
 120.0487033   6.8866330  71.0922384 120.1055927   8.3989220  71.0650635
  66.8098307  82.2872162  86.8621349  67.2462225  82.4098873  86.0190773
  66.5908194  83.1735516  87.1496677 124.0477454  88.2426834  83.3961201
 124.8142680  88.7293530  83.0930996 123.5286643  88.8879967  83.8760662
  22.1691275 119.2687130   0.8930341  21.2448955 119.4886017   1.0099737
  22.6405907 119.9626732   1.3538877  35.6420302 113.2045460  83.2364273
  36.4704204 112.8556919  82.9073238  35.5740356 114.0735054  82.8407955
  39.6876359  64.8605490   8.0667726  39.1070080  65.6081104   7.9244272
  39.8581076  64.8656273   9.0086595  31.3640285  91.2249851 101.4190769
  30.7686210  91.0650826 100.6868553  32.0746088  91.7431736 101.0412025
  48.5279226 127.5036716  59.5482731  48.2554483 127.6922226  58.6502504
  49.1456127 128.2026863  59.7629166  56.5310669  82.1630573  95.5145264
  55.8817625  82.7173615  95.9474182  57.2021008  82.7737141  95.2095032
  62.3482800  85.1968575  29.2949430  63.1222534  85.7594681  29.3208162
  62.4445438  84.6941280  28.4860936   7.6865447  72.6115799  76.7290974
   8.0866909  72.1769190  77.4822140   6.7994475  72.2541666  76.6897392
  17.0582104 108.5185432  60.9153891  16.5998292 109.3493366  61.0415363
  16.5720403 107.8928185  61.4523554  29.7416043 108.3575916  95.0309753
  30.5854940 108.3494663  95.4826546  29.4535112 107.4448872  95.0452423
   3.3317909  84.1086578  62.9671669   2.4369872  84.1644192  63.3024979
   3.8579059  84.5872402  63.6077881  47.5709009 124.6177959  95.0445843
  47.7311134 125.5586052  95.1184273  48.3780813 124.2118454  95.3606415
  22.5522017  79.0037966  69.9761915  22.6262307  79.3874121  70.8500290
  21.9973063  79.6154928  69.4923019 118.9183748  94.7832108  62.1498966
 118.3769632  94.2909241  61.5328407 119.3115235  95.4782009  61.6220284
  22.2266841 107.7304173  85.2396488  22.8747082 107.4247932  84.6049118
  22.1762156 108.6751842  85.0944138  16.6902590  89.1279125  65.7268190
  16.6541624  89.1228008  64.7703123  16.3122892  88.2873344  65.9852600
  13.9978349 113.1953144   0.8360425  13.7528682 113.2679749   1.7585031
  14.8752654 112.8130436   0.8506242 111.0991008  70.0316525  70.7587433
 111.7569131  70.2514172  71.4184570 110.3263349  69.7813892  71.2651348
 108.8463718 107.1929264  53.3835268 109.2833001 107.2513008  54.2331886
 107.9186422 107.3199654  53.5820484   0.7482189  58.2191086  98.9426422
   0.0204247  58.6744022  98.5192585   1.5030175  58.4017324  98.3830357
  63.6607218 124.9448967  81.7697334  63.1286764 125.5597973  81.2646961
  63.0666924 124.6096039  82.4412441  52.5042343 119.1111183  52.8673172
  52.7316380 119.9027157  52.3795652  51.5492153 119.1332245  52.9279613
   3.0063483  71.5841055  85.9994030   2.8575784  70.8647251  85.3857327
   2.1671876  72.0429134  86.0385799  52.4851751 100.0816536  96.0754490
  53.0881977 100.8249283  96.0868835  51.6203356 100.4765606  95.9643936
 108.8725478  98.3554840  99.7558308 108.9378340  97.6398849  99.1234589
 109.2715389  98.0075359 100.5533123 113.8052947 101.7441082  94.1184139
 113.1830735 101.9453716  93.4194469 113.4814639 102.2324657  94.8752975
 114.8811061 105.3573513   6.9004194 115.2989549 105.9044743   7.5654737
 114.4050593 105.9756947   6.3461057  72.7201939 103.6143780  62.3959064
  73.4537649 103.0362797  62.1863699  72.0441246 103.3840561  61.7586374
  45.5076313  94.0354633  85.8263302  46.3971901  94.2241573  85.5274773
  45.5529881  93.1408024  86.1635876  46.1612892 103.9076805  12.1214429
  46.7115831 103.2350540  11.7202226  46.2123919 104.6497154  11.5189592
  27.2354364  79.3599606  85.1118374  27.1638751  79.2964983  84.1594219
  26.5138221  79.9340868  85.3685093   9.9526364 103.7555122  80.0914574
   9.0784991 103.5627937  80.4305363  10.0327349 103.2078362  79.3105268
  36.4095640 100.5399036  88.6405087  36.0700321 100.8305359  89.4869614
  37.3604369 100.5419731  88.7503624   9.2798364 127.4064732  58.3198214
   8.4949070 127.8118610  58.6883020   9.9133354 127.4153519  59.0373373
  31.8755412  77.7048922  72.7544737  31.5750623  77.0022869  72.1780252
  31.9857931  78.4590912  72.1754551  14.3854117 142.7964401  71.2527418
  15.0242853 142.1501827  70.9520340  13.5499120 142.4887657  70.9013081
  51.7526579 110.6412125  61.7579985  51.6160440 111.4800262  62.1984100
  51.8370342 110.0075626  62.4704552  25.4374576 135.4630756  15.7758275
  25.7757854 136.1930656  16.2943689  25.8480740 135.5683422  14.9176065
  11.4943862  69.7452021  87.6324177  12.0075440  69.6784210  86.8271542
  10.7202733  70.2494526  87.3819923 123.7373911 120.8045006 102.3035336
 124.0215055 120.5654049 101.4212894 124.5392168 120.7880783 102.8260612
  60.9259558 140.9788418  89.0819168  60.6418133 140.7387066  88.1999683
  60.1458502 141.3531113  89.4912910   6.2110162 115.8161831  83.1277847
   6.5801209 114.9336624  83.0937386   6.9730937 116.3952160  83.1142044
  26.6725898 118.0152225  80.2441597  27.6126742 117.9119587  80.0964737
  26.3322163 117.1206570  80.2553654  16.5736294 103.6144161 109.0727615
  17.3924589 103.1343842 109.1965103  16.4520061 104.0955544 109.8912621
  69.7185469 107.4289131  91.4284325  68.7951183 107.2223759  91.5728378
  70.1327801 106.5797138  91.2751102  45.2950430  80.8424854  68.0311918
  45.0212526  80.9990692  68.9349365  46.2515163  80.8376217  68.0681181
   1.9562902  77.8405523  12.2363130   2.1102175  78.7331152  11.9266931
   2.7947858  77.3959398  12.1119157  25.0457454 114.6013260  52.7511930
  24.3825316 113.9465618  52.5328588  25.7152057 114.4989300  52.0747566
  34.5644140 107.2785950  54.5168686  34.5869350 108.0290508  55.1106262
  34.5422673 107.6660633  53.6418724  24.7131610  61.5354776  99.5655727
  25.0010014  61.2536812 100.4338837  24.4632840  60.7252169  99.1214180
  41.0710621   2.9728203  67.6534176  41.1182451   2.0630150  67.9471207
  40.6928396   2.9218178  66.7755938  22.4002790  12.3342018  53.3155870
  21.8889880  11.9880371  52.5841618  23.2049251  11.8157845  53.3119106
  36.2419701 117.1565819  76.1876345  36.3789272 117.0238876  75.2496195
  36.6080642 116.3723087  76.5964413  23.3773327 106.5301800  98.4600639
  24.0968084 105.9440899  98.6947632  23.3544588 106.5101528  97.5033379
  25.3799558  79.8086596  81.4221478  25.0396109  79.6059656  82.2935295
  25.8951068  79.0387392  81.1811638  36.3664865  96.2320042  95.1565742
  36.5729713  96.4803600  94.2555141  37.2165585  96.0419655  95.5534363
  16.4709711  90.1975441  16.9832650  16.5108287  89.2752838  16.7301217
  16.4543557  90.1827335  17.9402105  45.9310532  92.0784664  68.0903435
  46.2816572  91.1934471  67.9901028  44.9913788  91.9505405  68.2202721
  16.9536209 121.2943459  55.5504417  16.1447537 120.8252144  55.7551003
  17.4690080 120.6710625  55.0384569  42.9111528 133.8748169  59.7424316
  42.0113564 133.7498951  60.0440788  42.8485107 134.5637798  59.0808868
  39.7387004 114.6904278  85.0612450  40.3878403 114.9759674  85.7041454
  39.6108603 113.7601471  85.2469063  25.0611472 120.1443958  59.0231323
  25.6559706 120.7728004  58.6138439  25.6041551 119.3738461  59.1893578
  17.8601468 102.6700497  99.6290207  17.9295492 101.7156124  99.6075726
  17.4397290 102.8608418 100.4675198  28.7497687  93.7502384  67.8014660
  29.6869016  93.8025284  67.9892921  28.5641384  94.5365334  67.2881365
  29.7009969  69.5845366  86.9527531  30.1008487  69.8934364  86.1397743
  28.7618494  69.5721436  86.7681313  39.0489817 108.3976936  86.4938736
  39.6148109 109.0738201  86.1211586  39.2935061 107.5976086  86.0287857
 118.0284203  57.8405476  64.7245741 117.9794872  56.8908930  64.6150780
 117.7557964  58.1936550  63.8776827   5.3696144 112.0007706  86.8327427
   5.1640743 112.9329109  86.7613029   4.5615241 111.5569115  86.5754318
  15.6932068  85.6163311  51.6442442  15.8603823  86.5565014  51.7102623
  16.3685429  85.2140427  52.1904325  28.6350942 120.5872154 102.8074551
  28.2298613 121.4494514 102.9000187  28.2132363 120.0509930 103.4788227
   2.1975401 117.3305702  81.2424564   1.5697914 116.6440010  81.4678192
   3.0523401 116.9051933  81.3102913  63.6023903  84.7320175  81.5694046
  64.2746782  84.2197895  81.1200905  63.9486027  84.8591805  82.4526978
  51.4834499  96.5151024  92.2502804  50.6110334  96.4347363  92.6358414
  51.3758898  97.1536922  91.5453911 124.0048864 108.7719154  73.3673525
 123.7409224 109.3117428  74.1124344 123.6117791 107.9164505  73.5401869
  51.1766958  98.2889557  89.9560547  51.3822317  99.1322136  89.5524502
  50.2973413  98.4038353  90.3162956   4.8291427 113.6106682   8.4953824
   4.8132202 114.0860844   7.6647416   4.7325033 112.6913071   8.2470456
  31.4346981  88.7309170  77.5196791  31.1287451  87.8957462  77.8733969
  31.7585111  89.2098904  78.2825422   2.9384026 109.6206760  95.2141666
   3.2203960 109.6802616  94.3013859   2.8912327 108.6808395  95.3894138
  13.7492514  66.9993210  92.6874733  13.3508527  67.6565695  93.2580280
  13.5890913  66.1671209  93.1324673  34.5526481  71.6483498  71.5008974
  34.0610051  71.5194750  70.6897783  34.1832876  71.0081577  72.1091413
  44.4108486 118.3243465  94.2033958  43.6119032 118.4132862  93.6837673
  44.2332554 117.5907707  94.7920895   6.7582232 144.7220135  83.1884384
   5.9285766 144.9315739  82.7594757   7.3336929 144.4460392  82.4750614
  26.2958741  47.2663689  69.9588537  26.7346001  46.9116020  70.7320881
  25.5410504  46.6926193  69.8273945 122.2590602 115.5090427  89.6994781
 122.1157253 116.4237976  89.9421883 122.3046317 115.5192184  88.7434196
  21.4199400 108.5827732   2.7762739  20.9771109 107.7562332   2.5840131
  22.0476341 108.3636665   3.4649125  26.0276604  78.3171606  89.0092659
  26.3600516  79.1261339  88.6202812  25.1522779  78.2139826  88.6360550
 118.5906798  82.2949982  79.9323082 119.5262731  82.4291134  80.0836658
 118.4183890  82.7299118  79.0972090  38.5256696  96.7792988   7.4335996
  38.5047579  96.0489178   6.8152753  38.3824134  97.5555992   6.8922368
  17.3161292  89.0755844 100.6016159  17.9163599  89.1746807  99.8626041
  16.5364504  88.6684799 100.2239990  66.6745281  82.8281116  90.2651501
  65.8961248  82.5774097  89.7676849  66.8518305  83.7289906  89.9945736
  55.1899099  96.7453098  76.8674850  55.8909893  96.1736679  77.1804571
  54.3835449  96.2976074  77.1235561  45.5325365  78.6941910  75.1041317
  46.1629391  78.6095572  75.8194399  45.6986094  77.9335594  74.5472717
  14.0033054 111.5099430  98.3992767  13.6959767 112.1557331  99.0354633
  13.2100987 111.2234783  97.9465103   1.3696015   9.0507965  83.9133167
   0.9815387   9.5676880  83.2073021   0.6355748   8.8485508  84.4934273
   5.3835773  96.3552380  99.0411091   5.3022748  97.2659683  99.3242836
   4.8229915  96.2939453  98.2676697  22.5743890  74.2464638  98.8776302
  23.2967734  74.8721886  98.8240910  22.8217459  73.5431385  98.2773113
  61.6784382 100.6056786  91.1788368  61.9145298 100.4013062  90.2740002
  61.7554140  99.7708893  91.6408348   8.0831152 114.7392464  87.4121475
   8.1259221 115.5556965  87.9099560   7.1869767 114.7097492  87.0770359
  49.7947979 101.1162281  74.6365643  49.5397997 100.5519867  75.3665257
  50.6743145 101.4183617  74.8632765  64.1034412 113.2615280  69.0707684
  64.7633553 113.7079239  68.5402298  63.2671595 113.5464573  68.7024212
  32.9565573 116.5651512  73.3190918  32.8080869 115.7152271  73.7336111
  33.2731605 117.1252441  74.0278149  29.3920803 103.9130402  85.5191898
  30.1007152 104.0208340  86.1535740  28.6187100 103.7301826  86.0527515
 114.8657758 114.7653580  73.0146170 115.7430119 114.8473167  73.3887482
 114.4943542 113.9934921  73.4418011  17.8928316 130.4189301  99.2936993
  18.5325027 130.7830334  98.6817551  17.1079648 130.9514618  99.1647720
 120.9233517  94.0544128  57.2202396 121.3794035  94.5120049  56.5139389
 120.1096625  94.5448017  57.3371458  16.2841380  64.4424582   3.3225862
  17.1182740  63.9732647   3.3400766  15.6427109  63.8022423   3.6306802
  45.9756374  69.3126631  95.3816891  45.1483631  69.1539240  95.8362770
  45.8969069  68.8228893  94.5630646  15.0423956  95.2881336  86.9455719
  14.7961152  96.2014866  87.0917606  14.2391336  94.8702049  86.6351891
  16.2258029 131.4055252  63.4808493  16.0506177 130.5344009  63.1249237
  16.3595676 131.2591934  64.4172907  39.0488648 121.2937260  81.2397194
  39.6518087 121.9674397  81.5540504  38.4407830 121.7638206  80.6692123
  15.3462064 105.6551361  98.3661938  14.5790696 105.8813953  98.8920593
  15.6624031 106.4939594  98.0305958   9.5641613 111.6977024  74.8739338
  10.0696766 111.1067390  75.4320097   9.2444032 112.3750019  75.4699707
   8.7563270  47.7312756  85.5719662   7.9562092  48.1556463  85.8817196
   9.4486260  48.3688021  85.7466602  26.3185096 114.1723919 106.1343002
  26.8609834 114.7904110 105.6443882  26.8409872 113.3711624 106.1700630
 112.7895529 116.6228485  52.4158096 113.2010347 115.7588577  52.4367189
 113.1371028 117.0723629  53.1861162  45.8362389  81.4385796  11.4660302
  46.7115068  81.2693691  11.1174527  45.9732914  82.0946884  12.1493760
   8.0918521  74.9446774 103.8574505   7.9552388  75.6845808 104.4491482
   9.0429008  74.8798370 103.7706470 122.8371318 100.0351715  35.3746676
 122.7060588 100.8671856  35.8294201 122.3032943  99.4085407  35.8631253
  72.7315378 125.1858902  46.7564678  71.8808365 125.6090832  46.6405010
  73.2468081 125.4734135  46.0027695  35.9556675  94.7760391  91.5730762
  35.0323868  94.9769783  91.7260838  36.4288211  95.3515625  92.1740150
  23.1842518  89.7827625  64.6528149  22.5129509  90.0850391  65.2645540
  22.7154565  89.6508980  63.8287592  36.7342138 104.1673470  82.5689983
  37.4850225 104.2862892  81.9872952  36.6809273 103.2207680  82.7007866
   9.5866179 112.3808384  95.4801273  10.4502225 112.0259571  95.6910229
   9.7105300 113.3299828  95.4827690  12.5390971 101.8233109  89.4110775
  12.2601032 101.7017460  90.3186131  12.5551450 100.9390450  89.0449429
  68.7852621 100.3320217  59.0858364  68.6360168  99.7438240  58.3455849
  68.0589437 100.9542942  59.0475225  99.6062202  87.1370506  60.6469965
 100.1562924  87.9080296  60.5082941 100.1161045  86.4111900  60.2873087
  59.2329741 120.5083656  97.4432182  59.5026064 119.6706009  97.0668030
  58.5048151 120.7952785  96.8921280   3.7184995 116.9774342  76.5472889
   4.5155832 116.4509201  76.6078854   3.0106270 116.3352203  76.4951563
  17.4471486 124.4958401  79.9934292  16.6828454 125.0399208  79.8035479
  17.7315676 124.1753006  79.1375113  45.1221943 102.0742607  50.2271223
  44.4305849 102.3693371  49.6348047  44.7199535 102.0974445  51.0953951
  31.4204884  92.5915432  96.3509560  31.5159845  93.2492733  95.6621170
  31.4117026  93.0960941  97.1643353  28.6306930  25.0006466  94.2065144
  28.1107283  25.7882672  94.0467739  29.5145607  25.3272229  94.3749142
  11.9401014  89.4734955   9.1525785  12.5195742  89.7344589   8.4367982
  12.5293148  89.1331196   9.8257867  17.2865355 107.6141071  81.6096210
  16.9848692 107.7287292  80.7084560  18.1426847 107.1946812  81.5240860
   3.9689681  18.3830624  73.0196667   4.6557260  19.0415745  73.1243801
   4.4397548  17.5507527  72.9767752  33.2450151  76.5922594  90.3624725
  32.4540687  76.1955452  90.7275105  33.5113597  77.2397470  91.0151958
  29.2566133 103.9968300   2.2598592  28.9466143 104.7600174   1.7723314
  29.0602660 104.2007828   3.1742326  32.9964995 144.2131233  65.9254694
  32.8941584 143.2855606  66.1385345  33.7240934 144.2372417  65.3039742
  41.9431162  93.4972000  13.0808965  41.4788246  92.7373409  12.7297822
  42.8696442  93.2739639  12.9917661  41.2584305  98.2478905  76.9470119
  41.7581606  97.4427032  76.8121910  40.3535891  98.0035973  76.7525434
  28.4747291 114.7682858  72.3989820  28.6307096 113.8463116  72.6035976
  28.0603218 115.1215458  73.1861925  23.4928441 122.2163773  72.0984364
  22.7135253 122.1762562  71.5441036  23.8465071 123.0935955  71.9513130
  19.4753337 102.4410915   4.0630857  19.2055357 103.1259537   4.6749727
  20.2676964 102.0709038   4.4521276  12.5366533 127.3710632   1.1219922
  12.8267550 127.2710228   2.0286695  12.5632811 126.4842224   0.7627717
  24.0741444 117.0010948  10.4925481  23.4578609 116.2758350  10.3904477
  24.8995638 116.6649723  10.1433603  23.9638066 109.6633053  14.2350808
  23.5345840 110.5142498  14.1462842  24.8938441 109.8495770  14.1063730
  27.6522589  85.4678917  93.8854122  28.0564570  86.2273026  94.3051147
  27.8400445  85.5809975  92.9536533   3.5418415 101.0990715  62.4873877
   4.1614205 101.1802292  63.2124853   3.0153811 100.3304386  62.7070856
  58.7987709 134.7008610 109.4427872  59.2523670 133.8764191 109.2673492
  57.9019356 134.4407368 109.6531773  70.2932358  88.7324905  78.6566734
  70.6733418  88.9872456  79.4974136  70.6787634  89.3401718  78.0255461
  40.9935188 105.5810642 100.2904320  41.0542154 106.4806747 100.6117725
  41.1492014 105.6521225  99.3486595 113.3567352 108.0795288   1.7102090
 113.3009381 108.4526920   2.5899068 113.8792116 108.7104797   1.2150899
  14.6849930 112.0302010  80.4495621  15.4583871 111.4688396  80.5040264
  14.1805816 111.6727543  79.7187805  43.6582899  72.0236588  95.3034401
  43.3332157  72.8297281  95.7044506  43.7309551  71.4063883  96.0313988
 124.9477484  89.1690636  70.1090956 124.7976674  88.6351395  69.3289518
 124.1771192  89.7341251  70.1644945  17.8904450 134.6171284  57.7573395
  18.0671728 135.1529121  58.5305977  17.6106119 133.7724400  58.1100893
 123.4496160 109.8648167  89.2687225 122.8483973 109.3517685  88.7287712
 124.2993739 109.4403744  89.1504383  27.3204446  91.1483097  62.8247499
  27.0853782  90.2424812  62.6236200  28.2629609  91.1925697  62.6637077
  22.2037101  62.2877359  75.4219437  22.2900486  61.3570452  75.6283283
  23.0364418  62.5202274  75.0111675  16.9752610  55.3193140  33.3211040
  17.4519551  54.7510862  33.9261794  17.4977112  55.3071165  32.5191522
  20.1591301 118.6901474  68.5520887  19.7961986 117.9184341  68.1173801
  20.5355430 118.3524036  69.3647861  29.6301651 113.8145161  86.7757988
  28.9189720 113.8925934  87.4116802  30.3180170 114.3877316  87.1142006
 113.3063239 142.5339031  75.1550722 113.7237198 143.3433914  74.8605442
 112.3970229 142.6148129  74.8672199 115.5273194 121.9906330   4.4877664
 114.7323961 121.7570877   4.0084115 115.3503073 122.8655624   4.8333112
  46.0082340  85.7048607 100.3332996  45.1106548  85.7149410 100.6656933
  46.0976315  84.8505688  99.9108887  30.8018017  94.9638081  50.7812786
  30.3150868  94.9699879  49.9570847  30.5412364  94.1471577  51.2071991
  46.7755508  81.9816685  60.2186394  47.2497845  82.3977280  60.9385157
  47.3915052  81.3397598  59.8653936  29.4353437  91.1019516 107.8207397
  29.7629738  91.3445282 108.6867905  29.8062038  90.2345276 107.6586723
  50.4462242 104.0920162  73.6214972  51.1237621 103.8730526  74.2612028
  49.7306585 104.4532776  74.1446495  29.8783827 105.7602310  65.5480146
  29.9422812 106.6926765  65.3413868  30.2163982 105.6890106  66.4407110
   5.7009357 105.4553413 102.0759964   6.3146245 105.0318432 102.6762199
   5.1661986 104.7384262 101.7349339  20.4748249 124.1215611  88.0540180
  20.8643103 123.2822704  88.2992268  19.9783194 124.3901539  88.8270378
  46.8747854  82.7965736  86.8349838  45.9472609  83.0202579  86.7581463
  47.2726679  83.5632038  87.2475243  34.8600411 138.3107948  78.8221836
  34.7049713 138.5277653  79.7414780  35.2164173 139.1143227  78.4432650
  10.5745971  94.2057419  53.2907248  10.3511167  93.3441734  52.9385996
   9.8209125  94.4473076  53.8290882  21.5173841 113.2683086  60.6143665
  22.1471977 113.4354210  61.3155365  22.0547056 113.0026913  59.8680687
  35.3775930  93.0992699 107.7530956  34.5145607  93.4464455 107.9786491
  35.5497479  93.4377289 106.8744373  49.4199944  87.7247906  79.0833187
  49.4045925  88.3226871  78.3359814  48.7905693  88.0971050  79.7009230
  38.7116289 112.0662403  82.9847145  38.6594701 112.0814133  83.9403725
  39.6422744 111.9433403  82.7975559   3.3534405  93.2632637  96.6785336
   4.2918113  93.4402657  96.7445660   3.2464665  92.3924065  97.0611477
  33.8198400 124.4915485  69.2999935  34.5060396 123.8257790  69.2541456
  33.5136366 124.5824432  68.3976555   9.0100449  92.7386761  96.1178303
   8.9772069  92.7945900  97.0728302   9.4813877  93.5268211  95.8478355
  57.7125025  87.6848888  92.4685669  56.8284750  87.3233700  92.5321102
  58.2871342  86.9202137  92.5045681  25.9253716 106.7503929  85.4660130
  26.2817550 107.5083065  85.9294701  25.9567332 106.0407925  86.1076546
  33.3666110  91.3024330  99.1507816  32.4938059  91.1936665  98.7731361
  33.5418606  92.2409725  99.0825176  45.7767725 102.1837807  71.0259008
  45.5907059 102.9419041  71.5798473  45.0178671 102.1186924  70.4462004
  30.2452850  92.9954815  44.6771526  29.5455432  93.6341572  44.5404196
  30.3999448  93.0081844  45.6216908  63.8542128 106.8668461  84.6053886
  63.2186842 106.8380260  83.8901997  64.4828558 107.5382328  84.3402863
   2.7012146  67.3298550 107.6095295   2.3379472  66.8116188 106.8914032
   3.4732556  67.7524662 107.2332573  24.1228652 139.3273449  95.9351254
  23.9488339 138.6465359  96.5850830  24.0375972 138.8814163  95.0924492
  65.4414892  73.5880613  66.3689232  65.7565069  72.7041674  66.5579319
  66.1522293  73.9947462  65.8732557 112.5040490 101.5803909  98.2544708
 112.2258920 102.0971775  97.4982929 112.9253621 102.2137356  98.8355064
  18.6162531  80.4368305  16.8423978  18.1979764  79.5768118  16.8018857
  19.4766212  80.3037071  16.4445630   0.9652120  74.5807981  61.1295748
   0.6415951  73.6985445  61.3116074   1.2722595  74.5411444  60.2238274
  34.1696882  90.7477093 109.2305374  34.5359373  91.4480400 109.7705650
  33.4519196  90.3918076 109.7543430 122.9351220 130.1736641  32.9909635
 123.2537361 129.4876385  33.5775566 122.6870056 129.7091579  32.1916509
  33.0868483  84.9229336 104.5555115  32.6921582  84.9357986 103.6835670
  34.0295100  84.8969746 104.3913555  24.0217876 127.5728703  95.4386616
  24.3488240 128.4681892  95.3509903  24.6841264 127.1265221  95.9662151
   9.7261983  96.6668606 102.2639751   9.2735034  97.4637890 102.5400257
  10.6421566  96.8188953 102.4966621  23.4020519  88.9408970  71.5237761
  23.8002491  88.1544209  71.1507750  23.6731100  89.6475601  70.9377813
  29.3498540  76.4118624  65.8822346  29.0996003  75.5405521  66.1895132
  30.0682282  76.6720057  66.4588594  40.2748585  76.2961340  33.5205650
  39.3281960  76.2198162  33.6399007  40.3859091  77.0788908  32.9809451
  48.6021614 118.0248737  80.8205605  48.7522173 118.9005661  80.4643631
  47.8854465 117.6715374  80.2935886  22.7429152 100.5794334  79.1106749
  22.9260993 100.6874657  78.1773996  22.1006584 101.2608624  79.3091440
  36.8341684 136.7191982  89.5981312  36.7613721 137.4118233  88.9414692
  37.2258854 135.9833431  89.1276932  16.0216463 103.6724949  94.7398281
  15.0654757 103.6291790  94.7494316  16.2834203 103.3804417  95.6129932
  42.0175600  73.8910770  66.1846542  41.3671446  74.0848780  65.5096483
  42.6140881  73.2675123  65.7704687  20.0182128 135.4715157  97.0122433
  20.4104996 134.6084499  96.8801022  20.1847482 135.6718159  97.9333210
  46.5994024 121.6724586 103.8944340  46.9243813 121.1593151 104.6342373
  46.2084103 121.0253239 103.3074284  47.5683832 126.7307854  35.6569266
  47.7069044 127.4579525  35.0500655  46.6806364 126.4268303  35.4678535
 117.9625387 104.1126156  80.5426407 117.7641625 103.8114643  79.6559715
 117.1772910 104.5869732  80.8157825   7.1443027  98.4724045  37.5322938
   6.8983108  98.6641979  38.4372449   6.3413453  98.6136436  37.0307541
 122.8319599  95.3283024  63.8538885 122.5449616  94.4312286  63.6832094
 123.7458084  95.2399826  64.1246557  29.6786690 128.8558769  78.5737991
  30.5482483 128.9813709  78.9536810  29.0744066 129.1400242  79.2596292
  48.4427118  87.5453854  72.0486069  48.5787487  87.4519634  71.1057425
  48.7874699  86.7341900  72.4218798  36.6387749  66.4451218  55.5290508
  35.9632683  65.8753586  55.1612282  36.2837601  66.7233753  56.3733101
  26.0709763 105.4260445  90.0859833  25.4283762 104.9168682  90.5799866
  26.2124753 106.2110615  90.6150913  51.0164595 112.4690914  89.0088177
  50.3018808 111.8327045  88.9838028  51.7042446 112.0371437  89.5153809
  22.0684314  85.0418472  77.7121115  22.6075244  84.3139648  78.0216169
  21.2278533  84.9221897  78.1540871   0.2260240 115.1495266   5.7459298
   0.1215206 114.9472618   4.8162023   0.8610613 115.8654785   5.7653848
  38.2285285 104.2602730  89.1446209  38.6372948 104.3490219  90.0055885
  38.3609796 105.1116562  88.7276840  43.4810829  73.6814690   0.8786146
  42.9643822  73.7433434   0.0752298  44.3783092  73.5410833   0.5761091
  34.0095687  86.4237499  80.1638222  34.4849586  87.2502136  80.0789547
  33.1159687  86.6833878  80.3880882  35.1577306 118.9037323  86.7392254
  34.5606756 118.7240887  86.0129452  34.6816611 118.6147213  87.5177288
  38.8123536  99.3064880  51.9853783  39.0342379  98.4163380  51.7121744
  37.8575540  99.3434620  51.9286108  25.8333135 117.4812889  61.1396980
  24.9076843 117.2891617  60.9895992  26.1819029 117.6749611  60.2695179
  20.9372687  69.5260143  70.2160931  20.1250219  69.1984177  70.6023073
  21.5264845  68.7716770  70.2218103  20.9521008 131.6009331  54.7002172
  20.9643126 130.7652664  55.1668453  20.0855899 131.9644356  54.8825741
  25.0454330  98.2974911  35.6474209  25.5355120  99.0328407  36.0152650
  25.6459713  97.9013252  35.0160432   7.9661566 138.9986706  68.6123896
   8.2960492 139.6266842  67.9697323   7.0413262 138.8917732  68.3899212
 106.8294818  83.1540394  50.5529547 107.3775250  82.9616547  49.7921181
 106.1099905  82.5253868  50.4949760  66.0727739 103.1834984  50.6751537
  65.4522514 103.5051441  50.0211382  65.5597162 103.1187725  51.4806414
  21.1227894  98.8781071  57.4878311  21.2821412  99.0193653  56.5546227
  21.8857241  99.2602062  57.9216146   2.6532251  75.6447458  90.5598259
   1.8086930  75.7932138  90.1344395   2.6689598  76.2689018  91.2853718
  14.5782256  87.0449829  36.7994833  15.4735959  87.3403740  36.9646740
  14.3402231  87.4552345  35.9680533  43.5475111  85.1172066 101.2395573
  42.8972149  85.6962299 101.6371441  43.6034966  84.3727684 101.8386459
  33.2221961  93.9832687  29.1306591  32.8396749  93.2941818  29.6738577
  33.2059264  93.6253166  28.2430553   6.0766232 122.9065418  85.2459717
   6.2096852 122.8073788  86.1886787   6.8252969 123.4252930  84.9516678
  33.7397814 109.2418194  96.9954300  34.1655231 109.3185997  96.1415768
  33.9611125 110.0559902  97.4475002  42.4240208  96.9153595  63.5502005
  42.7062321  97.0150852  62.6410007  41.6857481  97.5180626  63.6393070
   4.8480526  92.7385807  76.8299437   5.0630701  92.1802235  77.5770950
   5.6098187  92.6720619  76.2541676  20.0266743  93.8471031  51.9344234
  20.0052071  94.1357708  51.0220385  19.5637918  93.0092716  51.9315195
  30.6920648  86.8560123  92.2792530  29.8763657  86.4407063  91.9992733
  31.1782694  87.0003510  91.4674568  14.7778463  63.4451199  78.9276314
  14.8018730  63.7346411  78.0155802  14.2355919  64.0970612  79.3716669
  53.7676382 144.6837711  40.9813261  53.1938267 143.9176369  40.9790182
  54.6338367 144.3336296  41.1895037  44.4364071  76.6886950  71.5940094
  44.5646381  75.8367205  71.1769676  44.1685963  77.2670555  70.8798599
  40.6437588  74.8272228  53.9562941  39.9883652  74.1651392  54.1761446
  41.4668369  74.3413734  53.9040232  90.8317947 124.0480709  65.8441162
  90.9002876 123.9721394  66.7958355  90.1397991 123.4319115  65.6038666
  53.8222313  78.2189465  51.3990831  54.5011663  78.8108301  51.7230463
  53.3923006  77.8921890  52.1894169 109.4373221  97.7449322  48.8774538
 110.3540868  97.5007057  49.0044498 109.2644615  97.5552750  47.9552937
  27.3348403 116.0254669  29.4291830  27.6318169 115.3071880  28.8705087
  26.6443372 115.6397915  29.9683452  44.5604658 116.8109322  39.0335131
  44.6882010 117.0552921  39.9501371  43.8899517 117.4155807  38.7156415
   2.5266799  94.5233822 102.3228741   2.6429936  94.0499115 101.4991474
   2.4675362  95.4430771 102.0642185  11.5414214 107.6173878  58.3862829
  12.4641752 107.8356361  58.2554150  11.3071012 108.0499840  59.2073727
   6.9469643  98.3728600  44.3697262   6.2756824  97.7273083  44.5907927
   7.6841080  98.1570911  44.9409485   0.9703936  91.8883801  75.9651566
   0.2183258  92.3427773  75.5854845   1.6339235  92.5701714  76.0706234
  39.5227313  75.0069523  79.2512369  38.7719059  75.2960014  79.7698355
  39.4303894  75.4689074  78.4179878  10.9808433 132.5655365  38.4349275
  10.8229089 131.6470432  38.6532354  11.9343579 132.6443100  38.4060001
  24.0454268  99.1536427  58.0149269  24.6346045  98.4862328  58.3665943
  23.9856601  99.8101044  58.7089872  13.3482862  80.2861214  55.2765131
  14.1837692  79.8226786  55.2180338  12.8316772  79.7712708  55.8964062
  13.2407308  59.2127943  51.8158054  13.5065126  58.8782549  52.6723528
  12.4997616  59.7890759  52.0031452   6.4665222 144.2883968  57.8759718
   7.3545420 144.3380928  58.2297802   5.9301394 144.7685814  58.5067987
  14.2111695  77.5205612  62.9473352  14.7796345  78.0243015  62.3648167
  13.9980960  78.1265402  63.6569977  13.4344459  20.9111576  12.0010889
  14.2195237  21.3115673  12.3746622  13.5347366  21.0238438  11.0558510
 121.7494742 100.2987957  55.1358700 122.4716835  99.7201824  55.3805113
 122.1232874 100.8824825  54.4757128   6.3291007 110.1510143  77.9721594
   5.4104108 110.0639248  78.2264328   6.7216218 110.6770611  78.6688948
  29.3118548 100.1950359  25.4262257  29.0851068 100.5210304  24.5552802
  30.0796938 100.7066250  25.6810427 120.1320226  46.5917063  63.3170176
 120.8047322  46.9234800  63.9116812 120.2813033  45.6466103  63.2899046
  18.2380998  99.4569016  50.9314060  17.9228258  99.6631622  51.8113422
  17.5184262  99.7106171  50.3535366  30.1417279 101.7646694  41.8772602
  31.0204124 101.3850307  41.8812943  29.5850229 101.0762024  41.5135050
   3.8759130 111.8130970  71.5914822   3.2336947 111.1576366  71.8638086
   3.4850314 112.6500702  71.8423223  45.2742577  92.4151134  77.7189970
  45.6419039  91.6060066  77.3634624  45.2288437  92.2630405  78.6629486
  19.8063779 102.4138451  81.5172100  19.0531993 102.7003193  82.0338249
  19.6831107 101.4698982  81.4171600  53.8504791  78.5479927  54.2179823
  54.7676373  78.3571243  54.0214586  53.6467934  77.9943037  54.9717569
  54.2205763  94.4826126  61.8908501  55.1400900  94.7467327  61.8598461
  54.1676855  93.8864231  62.6378345  16.2641764 140.7803059  70.8096504
  17.2063482 140.9268093  70.7255077  16.1313164 139.8872662  70.4917622
  30.7995248 110.0240517  73.1569576  31.6569638 109.9136829  73.5678673
  30.9957337 110.3340912  72.2728729  34.8709369 104.1821194  47.2982693
  35.0853801 103.2684326  47.1100330  35.0739026 104.2892265  48.2275534
 102.6195902  81.9153214  76.5743208 102.6711435  81.0564518  76.9937563
 101.6959423  82.0139885  76.3432932  34.9622273 128.8850212  92.4094105
  34.9544168 129.0051842  91.4598179  35.3039122 127.9998970  92.5360298
  36.5700722  89.9165630  69.5955133  36.0974646  90.7486629  69.6174955
  37.1532559  89.9522400  70.3537083  31.3459754  79.0207720  81.8452072
  31.3009596  78.7354994  80.9326172  31.0330510  78.2681799  82.3471165
  37.9569077  92.6801109  61.7800426  38.7509274  92.6072979  62.3096323
  37.9721689  93.5776138  61.4476538  40.8865881 131.1888599  88.7629890
  41.6531229 131.0029221  89.3052769  40.3430223 131.7609596  89.3047142
  15.5052745  90.5269623  39.8407054  15.2486336  90.3859329  40.7520103
  16.4510548  90.6696892  39.8775673  33.8823366  67.4176788  42.7436495
  33.1687903  67.7428293  43.2926130  33.8056612  67.9169989  41.9306087
  56.9295788  82.8366661  68.0611944  57.6126909  82.2195244  67.7990341
  56.6604948  82.5408745  68.9308643  40.4432726  70.5169058  64.3365240
  39.5807242  70.6684637  63.9501667  40.2593708  70.0876427  65.1720762
  22.3138857 113.9602089  72.1944809  23.1777382 113.9427567  72.6064110
  22.3941851 114.6109486  71.4971113  14.7562015 105.9068775  48.9286137
  14.1861510 106.1120224  48.1875420  15.5769980 105.6211567  48.5275030
  25.3640318 104.6001720  76.2248373  26.1192203 104.4641685  76.7970467
  24.6060848 104.4290924  76.7838383  22.0668101 103.7176704  74.9661064
  22.7395725 104.1653061  74.4530249  22.1469593 102.7974319  74.7151756
  27.0839882 110.3004646  29.0720201  27.2480059 110.5336666  28.1582665
  26.7601156 109.4004822  29.0350938 123.2885464  85.2270317  77.9703093
 123.7177621  85.1716232  77.1165323 123.7666356  84.6056938  78.5195017
  30.4319191 112.5062561  91.3342476  30.6149054 112.1132469  90.4808521
  30.3101444 111.7595768  91.9206524  36.1373878  99.8441887  81.0061836
  35.4187369  99.5149231  80.4664040  36.4980721  99.0636635  81.4268112
   0.3901742 130.4368114  71.5573454   0.2356666 131.3789558  71.4887047
   0.3446428 130.1202774  70.6551456  18.8207603  91.6323471  59.5633602
  18.8269317  91.2415600  60.4371357  18.5667312  90.9154701  58.9821625
  16.6477036  97.5611115 100.6660175  15.9361362  97.7868176 100.0668812
  16.2069392  97.3128223 101.4786148  37.2937465 107.7685642  17.3203254
  36.3795280 107.4867344  17.3520982  37.4004149 108.1371593  16.4434040
  32.5550508  74.8332500  33.6168408  32.1954727  75.3602266  34.3304467
  33.1908274  75.4084349  33.1911778  16.6105640 107.5367641  63.7767982
  15.8438420 106.9970798  63.9694309  16.8467534 107.9264832  64.6185589
  39.7402072  47.6938915  40.7427740  40.4951859  48.1468773  41.1183262
  40.0882530  46.8525219  40.4474831  44.1672993 121.5114307  49.6408129
  43.7369442 120.7966423  50.1099634  43.5386372 122.2324848  49.6740484
  73.0233192 121.7854595  69.8447323  72.9507971 122.1606827  70.7223320
  72.9654074 120.8400631  69.9829197  13.6332226  92.8825569  73.1081629
  13.9783001  91.9937229  73.0237389  13.4871125  93.1693840  72.2067165
  25.9183145  92.3317623  46.5349197  25.8541369  91.5169144  47.0330381
  25.7173109  93.0179596  47.1712875  98.6726040 127.7450943  66.5558386
  99.2611498 127.4537754  67.2522449  98.5007162 126.9561005  66.0418510
   9.5736957 110.5289841  65.7465315   9.7262079 110.6111240  66.6879272
  10.3739786 110.8661556  65.3439283  26.0509920  71.5802574  54.6239519
  25.4170752  70.8639526  54.5880651  25.5296969  72.3691177  54.4750118
  35.4219794  90.9404469  73.3423328  35.5521679  91.8532658  73.0853558
  36.1061072  90.4603577  72.8757238  35.8623767 121.0876179  78.0519629
  36.6811371 121.3424301  77.6266050  36.1353111 120.5412483  78.7890005
  11.8445706 112.4918461  83.8613224  12.5442719 112.8260994  83.3001518
  11.3787353 111.8605232  83.3129978   5.3918082 124.4765377  65.7951021
   6.1540473 124.1979218  65.2875614   5.3476065 125.4232311  65.6607437
 109.8765082 125.7319546  92.4254990 110.2426929 124.8491192  92.4778366
 109.4511289 125.7644081  91.5686321  26.3633394  70.1197004  70.3789616
  26.1695910  69.4163752  70.9986639  27.0404840  69.7563124  69.8082972
  46.1357450 128.7737083  85.2263546  45.7078218 129.6151161  85.3849506
  47.0430231 128.9113426  85.4986382  49.5830154 108.9301014  82.3654270
  48.7679815 109.1379547  82.8223228  49.5828819 107.9752922  82.2977734
  14.1500783 138.3761978  69.5178413  15.0011683 138.7008667  69.2237949
  14.2175162 137.4244118  69.4417810  42.8527546 119.5087147 107.5655937
  42.4243212 119.9168587 108.3179855  43.7387562 119.8709583 107.5688839
  35.6255293 102.6542282  80.5278873  35.1096010 102.3697758  79.7734690
  35.9145498 101.8405342  80.9409237  15.4985309  90.2068520  87.6251221
  15.7104719  91.0750008  87.2821426  15.8661938  89.5994091  86.9831944
  26.8145514 134.1982651  65.0935984  26.4216137 133.7745857  64.3304968
  26.8236017 135.1294994  64.8723459  18.9568043 106.5722179  68.0912590
  18.5290086 107.4284077  68.1043100  19.8884761 106.7713737  67.9987478
  42.9614449 128.9335823  85.6528282  43.5491514 129.5883274  85.2758121
  43.4028912 128.0983734  85.4986095  19.2858291 127.5783443  41.5101767
  19.8127627 126.9360161  41.9855642  19.4968879 128.4150314  41.9244719
   8.9994299 104.2329502  46.3463449   8.9372116 104.5906734  47.2320080
   9.5725393 103.4714603  46.4353180  46.7714787  92.0949078  23.0506778
  46.2169743  92.4433422  22.3525739  46.1636114  91.6446114  23.6371636
  50.7142544  92.7213097  97.0637035  50.6957674  93.2190895  97.8810883
  49.8353386  92.3494625  96.9898033  22.6582837  98.5476685  61.3235521
  21.9685173  98.8878918  60.7537270  22.4916983  97.6060009  61.3652945
  23.9848590 106.7992783  51.2292767  23.5362124 106.7268658  50.3868389
  24.0738869 105.8954811  51.5316916   2.0931350  98.8692570  78.5340881
   2.7997571  99.5136356  78.4930515   1.5659440  99.1394615  79.2859459
 119.9275542  92.1570683  48.7947416 119.5797420  92.3073101  49.6737671
 119.2659617  92.5253868  48.2091999  16.3350952  96.5710354  54.0259409
  15.9677660  96.0375690  54.7307205  17.2729611  96.3806057  54.0453196
  55.7447290  77.9727554  48.6894131  55.2005243  77.7009869  47.9503489
  55.4790974  77.3973894  49.4067860 111.0341997 118.7609673  30.2483368
 110.6249375 118.9650440  31.0892200 111.4724965 119.5724201  29.9920750
  20.0821257 114.2085743  69.6741247  20.9079456 114.6896744  69.6212339
  20.2477956 113.5182571  70.3161860  20.2064681 122.4394512  55.1727581
  20.2445316 122.9144669  54.3426085  20.0049186 123.1112766  55.8241034
  17.3998928 111.4168549  86.6747665  16.9706535 111.0654545  87.4548340
  17.7945757 110.6530571  86.2539768  41.6409492 118.5485077  78.4664726
  40.7312822 118.2912064  78.6166096  41.8255281 119.1882229  79.1541719
  33.1584764 106.2273979  88.7472630  33.4882545 106.8635273  88.1125927
  32.8720474 106.7575264  89.4910049  22.4005198 114.4333363  87.1960068
  21.9111204 113.9531803  87.8639603  23.1243563 113.8512707  86.9647121
  47.8487158  89.6849060  73.6272764  47.8152609  90.3935242  72.9846478
  48.1601810  88.9271545  73.1322575  24.3485236 104.8211479  71.3390160
  24.2552614 105.1458263  72.2346258  24.8225069 105.5151272  70.8808041
 118.9245040 109.3869686  21.3253164 118.0768210 109.8275375  21.2656546
 119.3487800 109.5693874  20.4868984   6.2274754  92.0753479  53.4256697
   6.9327450  91.6189957  52.9667854   5.4425848  91.8790722  52.9141474
 121.0598541  71.2843704  78.2136869 120.9267632  70.8615923  77.3652887
 120.5091498  72.0665836  78.1805086   0.2206722 135.6585026  51.8512011
   0.4734705 136.5706921  51.7089415   0.5571480 135.4498386  52.7226782
  41.0971785  99.2720795 106.1366749  40.3815222  98.7672138 106.5229130
  41.2971878  99.9424648 106.7899799  23.5184455 129.9082088  35.7809281
  23.8846564 129.4947243  34.9991655  24.2829823 130.1880169  36.2843418
  43.7133932 139.4028091  55.5944347  43.5688400 138.7907219  54.8728514
  44.6450090 139.3181801  55.7973146  60.1731300  82.6030064  55.8836412
  59.8316193  83.3945370  55.4676008  61.1022615  82.7869225  56.0219145
  29.9351358 129.6231461  36.7211485  29.6294475 128.8795280  36.2017131
  30.8872199 129.5263004  36.7408538  20.1812148 101.9366741  61.2307215
  19.6619081 102.6842880  61.5267420  20.5124998 102.2000885  60.3721762
  41.5240097 115.9844303  86.6467190  41.1539793 115.9783745  87.5294876
  42.4711466 115.9659100  86.7838955  44.4999075  88.4218216  20.3719521
  45.2720022  88.9250946  20.6304312  44.4730902  87.6905251  20.9889746
  36.5789247  82.7324677  66.9695425  36.2729764  81.9267654  67.3860359
  37.4932456  82.5554752  66.7483473  20.8727694 138.7021542  62.3116922
  20.9616423 138.2532406  61.4709711  21.5732908 139.3544579  62.3101330
  15.7513666 103.4644508  75.5702639  16.4107645 104.0775394  75.2453804
  15.2712750 103.1924057  74.7881269 110.1495022 104.3294716  98.5457134
 110.9274585 104.0141392  98.0857277 109.4401402 103.7714005  98.2269669
   8.6200428 119.5896721  72.5060225   7.9989797 119.1656494  73.0982399
   9.4406676 119.6156406  72.9980946  15.5971587 111.5282154  59.1803265
  16.2538338 111.7932987  58.5363197  14.9803352 110.9889603  58.6853933
  48.0263805  92.7756691  51.6406202  48.6490965  93.4977150  51.5563917
  47.2843361  93.1532097  52.1129227  60.4845333  87.8996849  51.6477633
  60.6849670  88.8231659  51.4952946  61.1922979  87.4257278  51.2111139
  20.7857633  82.0017529  40.4764843  21.0257721  82.8133392  40.9236383
  21.5460229  81.7936516  39.9334121  14.8231995  84.0220165  45.9084177
  14.2492795  84.7876358  45.9344149  15.6758416  84.3521023  46.1917496
 108.7873382 110.1313972  30.3756928 109.1428692 109.9837303  31.2520623
 109.3216199 109.5796871  29.8043823  27.5806236 119.6005821  55.8194685
  28.3826685 119.3574715  56.2819195  27.0752811 120.0986290  56.4619684
 114.6483571  91.0845375  45.4816866 113.7373132  90.8840179  45.6962204
 115.1498581  90.7398319  46.2205410  20.1062369  79.2868328  89.7558308
  20.4278755  79.8100090  90.4900455  19.1681123  79.4738150  89.7213078
  16.2295389 119.0996265  36.8716621  17.0105863 118.8608646  37.3708534
  16.5264964 119.1297722  35.9621906  14.8343134  85.6987000  91.1163044
  15.2584362  85.1776409  91.7981052  15.1123357  85.2914715  90.2958775
  32.2299075 117.6920509  70.6859922  33.0153108 117.6473331  70.1406717
  32.5192833 117.3922920  71.5477610  18.1161642  66.8069220  96.3958454
  19.0431714  66.7264509  96.1713219  18.0951273  67.4588251  97.0964241
  40.7623577  59.4733620  44.3744230  39.8320413  59.6911860  44.4318438
  40.8311605  58.9197683  43.5965872   9.2900515  94.4579124  92.6459122
   8.4429187  94.1103172  92.3670292   9.1500562  94.7312641  93.5525131
  28.7655926  13.9332180  59.3118763  27.8489447  13.6880665  59.1857958
  28.9371061  14.5794087  58.6268616  12.9064333  94.6019554  33.4634614
  13.2492375  93.8345623  33.9215279  13.1938970  95.3454494  33.9933896
  16.1045253  99.4944382  75.5762148  15.3383005  99.8122215  76.0538626
  16.4101624  98.7440109  76.0857916 123.9461534 125.5573654  38.6195898
 123.4924640 126.3648224  38.8612676 124.6707010 125.4942799  39.2419100
  22.3968554  90.4464722  95.0842190  21.4780951  90.1821709  95.0366783
  22.3851609  91.2654591  95.5795479  23.2440495  12.5479489  83.0572701
  24.1734266  12.3615151  82.9241180  22.9583788  12.9421978  82.2331429
  20.1593089  94.3017673  73.3563328  19.7259915  94.2601395  74.2088175
  20.6795216  93.4994507  73.3126450  24.1305327  96.9436073  47.5171614
  24.4482064  96.0860443  47.7998114  24.7426510  97.2118378  46.8318892
  10.6273401 106.2852478  45.4010963  10.1587152 106.4712524  44.5874500
  10.2123761 105.4922867  45.7405853  12.5385952 117.0511913  55.5447865
  11.8720007 117.5980759  55.9604836  12.2026944 116.1588001  55.6286573
  10.2641082 115.0986290  95.5678844  10.0157440 115.6401157  94.8186684
  11.0965240 115.4668522  95.8640766  11.1784744 112.8236961  49.7459745
  11.3344276 113.5583305  50.3394556  11.3121927 113.1895828  48.8716316
  42.1030235 120.3598213  80.3196144  42.0631361 121.2968731  80.5108356
  41.8308210 119.9373341  81.1342525  54.7513485 101.2194157  37.2705889
  54.7806835 101.7345142  38.0768418  54.4615936 100.3514004  37.5513434
   9.7969717  81.9561291  57.0150948   9.0457261  82.2882748  56.5236235
   9.6132976  82.1948528  57.9236650  21.0088277 118.4608078  62.7867174
  20.1876879 118.1613350  63.1769419  21.5644789 117.6815605  62.7704334
 104.8849351  83.7450695  67.6626492 104.8332710  83.2875443  66.8234634
 105.6507809  84.3131447  67.5789738  12.4388790 100.2169991  59.4545937
  12.2827125 100.3625965  60.3876781  12.1237373 101.0157013  59.0315199
  37.5133753  70.6381321  74.3820524  38.0633116  69.9557924  74.7670412
  37.6175070  70.5249929  73.4372854  26.9693208  96.4641285  83.4874249
  26.2934566  96.0022926  83.9835644  27.0482683  95.9690380  82.6720238
 108.9308197 111.4345455  73.2888842 108.5107369 110.8211517  72.6859665
 108.2034058 111.8924522  73.7100983  65.7332754 100.0269699  76.2423611
  66.6765356  99.8792458  76.3106585  65.4407692 100.1298428  77.1479511
  37.1715999 122.7171898  74.9400234  37.0704794 123.6206150  74.6403122
  37.7865934 122.7748394  75.6712484 119.5127363  96.5941429  67.0408964
 118.7265766  96.0515308  67.1022129 119.7690273  96.5412903  66.1201620
   6.4608490  69.3070126  59.1936827   7.2096705  68.7195396  59.0918303
   6.4332193  69.8038101  58.3759642  40.2181435 118.9323616  70.2128506
  39.5536137 119.5007324  69.8235178  40.5162096 118.3816051  69.4889307
  48.0689383 111.9884300  62.0625257  47.1213198 112.0673370  62.1721840
  48.3984995 111.8152428  62.9443598  55.9776402 114.3536472  61.7694330
  55.2006817 114.9100971  61.8236017  55.7570457 113.5827351  62.2921801
  31.5862131 136.1884499  48.3698130  31.2656760 136.6343307  49.1538286
  32.5300884 136.1096668  48.5080957  71.8680477 111.0547352  74.3108892
  72.1251106 110.7174397  75.1690149  71.0889673 110.5494976  74.0785170
  30.3443193 122.3605537  34.7455931  30.5031157 123.0127144  35.4280233
  29.3998885 122.3974037  34.5941925   9.0082145 117.8494835  60.4020882
   9.6942598 117.1830654  60.4402399   8.6300558 117.7541637  59.5279360
  34.4682598  92.3625660  19.6867505  33.6064935  92.1490955  19.3289510
  34.8018861  91.5298843  20.0207654  42.0022678  81.0970974  88.5470200
  42.6336336  81.7363739  88.8770676  41.2926674  81.6268921  88.1836700
   7.9500532  93.9194107  41.9567633   8.2579666  93.1130886  41.5429163
   8.6622590  94.5446682  41.8224192  10.3430188  72.1919394  87.3490715
  11.1401796  72.2088242  87.8786755   9.6365511  72.3534679  87.9744053
 112.3342699 129.4084549  88.9030266 112.4161214 128.9876175  89.7588444
 111.7407400 128.8399601  88.4123516  32.7247071 103.5267067  45.6220150
  33.3136225 103.6214733  44.8733950  33.2111549 103.8981724  46.3579559
  46.7654467  68.1378078  72.9159784  46.1142874  67.7270699  73.4847641
  46.9144726  68.9993143  73.3056355  15.0049758  84.2120647  76.7121935
  14.7892320  83.2796955  76.7312717  14.1985083  84.6386433  76.4225817
 114.1522712  97.6888561  85.9212780 113.2947881  97.6388264  85.4988384
 114.7749133  97.4803257  85.2248096  26.5562105 112.4845600  80.8483410
  27.1265817 111.7752647  80.5520248  25.6969500 112.0748997  80.9487057
   9.8874480  82.3987007 108.7807751  10.3889871  83.0304718 109.2960930
   9.3063068  82.9361439 108.2425785   6.8303424  89.4904804  32.6513338
   6.4146370  88.6389828  32.7869272   6.7057228  89.9525738  33.4802914
  44.7892475  89.6214390  49.7209883  45.6674147  89.9240208  49.9522877
  44.2033577  90.1498890  50.2629328  49.0079594   6.3435631  65.5522490
  49.4770479   6.2232762  66.3779116  48.4346437   7.0937519  65.7095909
   7.4879384  79.7966194  48.6947060   7.7196324  79.1170835  49.3277740
   7.2743505  79.3160629  47.8949070 105.5713112 114.0725040  54.8348093
 105.7679660 113.1365395  54.8740387 105.9550161 114.3633938  54.0075302
  19.7568274 106.2892723  81.0961914  19.6525025 105.4756451  80.6028748
  20.4868245 106.1168861  81.6908550 120.4331119 141.5575504  41.9024372
 119.4916493 141.5374279  41.7307520 120.8360398 141.4647102  41.0391521
 112.0588226  51.5831947  77.8308487 111.1812145  51.2122488  77.9226875
 112.5787920  50.8763790  77.4483967 121.7299614  86.7071915  38.6003327
 120.8650235  86.3299942  38.4395838 122.3112336  85.9503460  38.6748052
   0.3632993 102.4432087  46.5240431   1.1138411 103.0121899  46.3532066
   0.0818389 102.1512222  45.6570005  52.7759075  80.8320713  74.8276377
  53.4359503  81.3712597  75.2633572  52.4065208  80.2935219  75.5274582
  34.2124557 116.3860893  31.9127107  34.3267059 117.0233154  32.6177812
  33.3716130 115.9690952  32.1006703  16.4536595  93.1462860  76.1899567
  16.3767815  92.2515774  76.5213346  15.5504823  93.4225178  76.0343933
  37.6133084  88.6672974 100.0982380  36.7132378  88.3494282 100.0270653
  37.6384830  89.4427586  99.5376587  32.4200463  84.0640545  97.1994209
  32.0076990  83.2088280  97.3210430  31.9559717  84.4502449  96.4566422
  14.6712172 104.3715382  42.7978802  14.3590939 103.9756775  43.6115742
  14.4824851 103.7170887  42.1253443  25.3232384  94.4353390  48.2727289
  24.9075174  94.4683552  49.1343069  26.2455559  94.6253300  48.4443855
  27.7779675 118.5341930  72.6183748  27.3469925 119.3650723  72.4180746
  28.5667086 118.5366440  72.0760536   6.3548589  96.0879898  31.6123986
   6.4656436  95.8074379  30.7039666   5.5690801  96.6344643  31.6001749
  33.5076356 110.8836460  76.2668419  33.5856318 109.9364185  76.3804579
  33.6467028 111.2422657  77.1433592  40.4315090  86.3780785  98.6207294
  39.5137095  86.5958786  98.7833214  40.6390810  86.8162823  97.7954197
  49.9346161 107.2152996  39.9433470  50.6057739 106.5332508  39.9191976
  49.8635006 107.5135612  39.0365839  19.8779655  11.3166313  35.2814126
  20.1154208  10.6348687  35.9099436  19.6929312  12.0855599  35.8206129
  25.5726790 114.4468594  30.8296657  25.2181435 115.0740528  31.4598727
  25.1662087 113.6133194  31.0667706  32.7248096 109.7337627  40.5610847
  33.0794072 109.0052700  40.0513840  31.9842744 109.3560123  41.0355854
  15.8924675 113.7135792  51.9353628  15.8224046 114.0594769  52.8251266
  15.0492549 113.2894516  51.7761850   8.1317061 109.1836166  61.2249088
   7.6267397 108.5873604  60.6719923   7.5779176 109.3251228  61.9927120
 100.2653951  69.0254784  65.8637047 100.2954239  68.0905342  65.6607056
  99.4751090  69.3405485  65.4250574  15.6034529  87.2337055  99.5603943
  14.7355521  87.4318886  99.9121094  15.4760945  86.4392090  99.0419483
   5.0524461 116.2427998  53.2849264   4.3679771 116.5863991  53.8590908
   5.4519153 117.0209503  52.8961611  10.0302672  86.0905838  49.0593290
  10.2250266  85.3549385  48.4786940   9.1572016  86.3801384  48.7944794
  11.7201233  86.6736889  37.4657536  12.6603866  86.7263412  37.2943974
  11.3376808  87.3568630  36.9150829  30.6378174 128.4140491  63.0347395
  30.6778932 129.1469574  63.6491346  29.7132206 128.1670189  63.0165768
  22.2350454  47.4786663  33.5717440  21.8355727  48.3318329  33.7413335
  22.8742361  47.6468611  32.8793716 114.7848035 120.8152676  30.3865528
 115.0659294 120.2619743  29.6578145 115.4707909 121.4785480  30.4621935
  39.4051886  68.0397987  49.9636221  39.2752624  67.0962906  50.0592422
  39.3355989  68.3826637  50.8545971  28.7252164  95.4864597  46.3072395
  29.2065167  96.2586403  46.6044331  28.9196587  94.8162174  46.9623709
  57.4625301  86.5667820   5.8461610  58.0997419  86.7803192   5.1645509
  57.1418571  85.6963539   5.6100408  46.0742855 101.4822960  47.6842594
  45.8787441 101.8328667  48.5532188  46.7843485 100.8576679  47.8322077
  30.8947778  56.1928749  59.6525288  30.6834221  55.5751944  58.9524984
  30.9522986  55.6518364  60.4400539  40.0956488  92.5720882  55.9033537
  40.3464317  92.4942970  54.9828720  39.1649699  92.3487854  55.9177303
  32.4282646  83.7874126  43.2738352  32.7260494  84.5835209  42.8336620
  33.0565453  83.6571598  43.9841366  38.5204363 110.3951263  60.3241253
  38.8603210 109.5505524  60.6197596  37.8434968 110.1706791  59.6856833
   7.2540337  86.7127991  45.0566483   7.0943886  85.8887863  45.5168200
   6.6526723  86.6918087  44.3122339  34.1046929  89.5935631  25.0559735
  33.4267926  90.0932884  24.6010470  34.6380997  89.2198181  24.3545270
  50.6015158  77.8822374  39.9970984  50.2604532  77.0944071  40.4204559
  50.2902508  78.6025620  40.5452585  28.9583087  59.1757107  40.5997992
  29.7737527  59.6766663  40.5815887  28.8601685  58.8453579  39.7067881
  40.0759172  96.2885571  62.0284081  39.4611883  95.8436966  61.4449406
  40.6557369  95.5937195  62.3402309  39.5095944  64.8609686  57.3524427
  40.0058460  64.3118238  57.9594040  38.6150932  64.5236969  57.4009228
 124.1002978  90.4700375  27.0455146 124.3899923  89.5595741  26.9874811
 123.5380385  90.4935837  27.8198171  36.1471176 106.1135006  30.6248665
  36.4830565 105.3302860  30.1890302  36.5853310 106.8404102  30.1823711
  25.3512311 116.4949799   6.6502166  25.1594043 117.4324512   6.6745251
  25.1397300 116.2303638   5.7549649  45.6691408  96.8330574  57.5499773
  46.0829401  96.2359619  58.1732607  46.3118696  96.9287872  56.8471479
  13.1796503 121.0918522  25.8567595  12.4118078 121.6633415  25.8500886
  13.1022334 120.5772972  25.0533438  43.0029106 103.3925247  90.7151707
  43.8114452 103.2945061  90.2122840  42.7297115 102.4953556  90.9066936
  19.7783267  63.3866930  72.2061110  19.0455818  63.1562138  71.6349697
  19.8985052  64.3270636  72.0738554  21.5788078  99.4096375  63.6816597
  21.9780803  99.3764782  62.8123426  20.7010698  99.0490627  63.5559988
  21.9582152 113.7617683  26.7916036  22.8051925 113.9882088  27.1757674
  21.3946533 114.5075035  26.9977522  33.5778570  86.3847256  23.8035440
  33.6786485  85.7603550  24.5220375  34.4060063  86.8643761  23.7851024
 109.9521501 123.4474659  96.5095711 109.0334076 123.3711338  96.7670918
 110.3697318 122.6691151  96.8783855  16.7614102  90.5881882  19.6375358
  16.3483405  91.4286709  19.8354864  16.8975568  90.1808548  20.4929757
   4.3240663 103.6557293  30.0058413   4.5101276 102.7692890  29.6962619
   4.9552965 104.2079639  29.5445228  28.6716866 122.9373264  59.1582918
  29.5120764 122.5125313  58.9864683  28.9024425 123.8311386  59.4114637
  20.3650737 106.4814568  77.3800945  19.8940742 105.7413006  77.7629423
  21.1489010 106.5726471  77.9218769  29.3571115 100.5983829  46.9132471
  29.7923040 100.9798813  47.6756763  29.9177670 100.8346844  46.1742926
  26.7086101 101.5603924  47.0801640  26.6592932 102.3961735  46.6162014
  27.6299596 101.3076782  47.0211363  66.6228104 103.0778122  32.3614144
  66.8125534 103.4300709  31.4918494  66.2592220 102.2084141  32.1935368
  29.8888040 100.9080219  53.6153412  29.4342875 101.3579464  52.9031515
  30.2667785 100.1303482  53.2047272  45.9908867  86.7790127  33.8557267
  46.7477322  86.8431187  34.4382238  45.6595755  85.8911228  33.9903378
  29.2625737  94.5556068  64.0963888  28.9322972  95.1201057  64.7953033
  29.9286985  94.0144348  64.5202398  41.3131046 117.2044373  51.8924618
  41.9773102 116.5202045  51.9754553  40.6338072 116.8134403  51.3430023
  44.1556215 103.5837841  35.9667683  43.6213112 103.5529804  36.7603636
  45.0447178 103.7447262  36.2827373  21.0366583 102.0886040  31.1170340
  20.6981564 101.2740993  31.4888310  20.2638984 102.6438618  31.0132647
  41.4992857 115.4942989  38.2805943  41.5295029 116.3907337  38.6148572
  41.2483454 115.5896091  37.3618031  36.0300565 135.8277607  55.3712559
  35.8201957 134.9662113  55.7317066  35.1836443 136.2682724  55.2953386
  58.2801485  83.6091805  51.4033937  58.3793497  84.3875408  50.8551788
  57.4958563  83.7815285  51.9243670  10.7542038   6.1270504  75.9116459
  11.0019529   5.6016236  75.1508713  11.0013628   7.0212441  75.6759214
  45.8288050  74.5013428  51.2770700  46.6159058  74.7911119  51.7383099
  45.1897192  75.1964712  51.4339018  37.0029092  90.5270576 107.4022312
  36.4050126  91.2741184 107.3765611  37.4967504  90.5873108 106.5844780
  19.8647726 106.1461830  33.4746146  19.4150114 106.8295002  32.9775906
  20.5870724 105.8742619  32.9084253  44.2235756  87.4873638  27.5463414
  44.7788763  88.2163811  27.2699094  43.9851618  87.6969147  28.4493828
  40.6688547  74.6070623  68.4907341  40.8604240  73.8975763  69.1040516
  41.3233376  74.5090818  67.7991533 102.2406144 112.0955849  55.4432487
 102.7455277 112.9019451  55.3380013 101.6402907 112.2814083  56.1652708
  10.0013518  98.8279629  69.1179705  10.9161830  98.8210678  68.8364267
  10.0404859  99.0209293  70.0547028  27.3517776 134.0204811  31.0364532
  27.8440738 134.3903351  31.7693186  27.3621607 133.0762577  31.1931634
  27.1369028  74.1377735  40.5972338  26.9739389  73.3490372  41.1145020
  26.8609929  74.8575830  41.1646652  15.9705210  83.8414097  29.9098825
  15.7488561  84.7509575  30.1094699  15.2971172  83.5612679  29.2899823
  27.0661306  98.9365101  39.3386388  26.3419151  98.5188866  38.8724470
  27.8525734  98.6081982  38.9028072  43.2371378 130.6073093  47.6312494
  43.4969330 129.6963978  47.4934912  42.2869301 130.6054497  47.5157881
  32.1448541  80.7895088  19.6393478  31.4946795  80.9206390  20.3294992
  32.2985101  81.6655159  19.2854667 121.2360040 106.1720562  61.7759180
 121.7035413 105.8643246  60.9994316 120.3467680 106.3454723  61.4670229
  16.1606169 114.5442677  54.3819332  15.8723426 114.9580193  55.1955318
  16.5766156 113.7290001  54.6621418  17.3766518 119.1667938  60.0934362
  18.3081734 119.2056751  60.3102016  17.1462321 120.0671959  59.8644972
 123.4803601 118.2675457  39.7521567 123.3155685 119.2037868  39.6402025
 123.0493560 118.0455017  40.5774832  14.9736083 111.0558701  18.2104385
  15.8561134 110.7048988  18.0911171  14.5342779 110.8878231  17.3767829
  50.0592661 119.7048855  43.3130455  49.4263315 119.0290546  43.5557079
  49.5339632 120.4980087  43.2070255  52.9694271  72.4228096  33.2574677
  53.9241457  72.4791765  33.2970572  52.7074242  72.1712208  34.1430664
  21.0281467 106.2480927  57.2623730  21.5777659 105.8230400  56.6039848
  20.6702185 107.0156288  56.8162632  41.5178347 128.8907051  57.1186209
  40.5836344 128.8327026  56.9182920  41.8975973 129.3382359  56.3624907
  35.6474566 123.9084911  57.8376245  34.8421359 124.3777943  57.6198006
  35.9521484 123.5549450  57.0019245   5.2780199  59.0832329  44.5491838
   4.5069942  58.5997486  44.2525482   5.6743264  58.5183907  45.2126026
  29.6041703  95.3556728  10.8039784  28.7634087  95.7162189  10.5222702
  30.0791121  95.1908779   9.9894208 124.1001706 108.9242935  40.1555014
 123.1867085 109.0343475  39.8914838 124.3632907 109.7879314  40.4735184
  39.6934819  68.2269859  66.1466742  39.3022299  67.8500605  66.9347572
  40.6239414  68.3077621  66.3563299  17.5402081 112.8913879  14.4591177
  18.1262004 113.3409119  13.8502038  17.7966845 113.2161903  15.3222263
  25.1931381 104.8429871  47.1122265  25.9517336 105.4248428  47.0651722
  25.2393675 104.4595242  47.9880381  31.6250944  78.7879658  39.5782733
  32.1184611  77.9695368  39.6329880  31.3189769  78.8229656  38.6720181
  23.8010669  95.5431557  15.8896399  23.8868046  95.9960079  15.0507069
  24.6994948  95.3232956  16.1360598   6.0114092 117.2786808  18.1468356
   6.9004756 117.0222378  18.3918405   5.4483742 116.6437149  18.5895932
  17.7393758 136.8961143  67.0713568  18.5205019 137.1013546  66.5575933
  17.1578062 136.4505196  66.4553595  37.4618483 121.1342430  72.7716684
  38.3083797 121.5097237  72.5295210  37.1096087 121.7389679  73.4247208
  51.0005569  96.2610912  56.2620974  51.2525368  96.1316872  55.3477716
  50.1305628  95.8675194  56.3287735  36.8393946 103.3513260  55.2229738
  36.7214727 104.2662144  55.4785061  36.0902953 103.1619930  54.6579647
  13.2794082  79.4412470  28.7525153  13.4090877  79.9781752  29.5342588
  13.9643312  78.7745333  28.8035488  39.6718693  75.2283382  39.4101024
  39.8853016  76.0583115  39.8365092  38.8544130  75.4020929  38.9434075
  41.5196562  86.3806820  57.2002220  41.2764597  85.7460213  56.5262079
  42.4754620  86.3408089  57.2330379   4.4471732 138.7625885  42.3800659
   5.2021712 139.1464520  41.9341326   3.6915076 139.2121029  42.0017338
  13.8576329 140.7759666  78.6927891  13.9860630 141.4350510  78.0106306
  14.0945804 139.9485016  78.2739973  16.2996912 116.6056442  26.3100696
  16.9112456 116.4597321  25.5883074  15.7931197 115.7951641  26.3623452
  50.8487320  95.0579453  80.3864002  51.4829874  94.6872139  81.0000038
  50.0801516  95.2504063  80.9235001  50.6349516  99.4391346  30.7923698
  51.1519909  99.3606949  31.5940881  51.2854481  99.5179367  30.0946045
  25.8431816 111.5114784  45.0304079  26.4106822 111.5522575  44.2606592
  25.4819393 112.3944378  45.1086903   1.1039673 145.6592941  62.7469921
   0.2162027 146.0132694  62.6940107   1.0003736 144.8185062  63.1926107
  61.4992476 100.4043484  79.9091291  61.7620182 100.8046532  79.0803146
  60.9843206  99.6391964  79.6529341  30.7753897  86.8858624  69.3532372
  30.1524425  87.6123142  69.3323946  30.8907819  86.6428661  68.4346151
  26.7041302  83.3610344  17.3448968  26.0348296  82.8451920  16.8952644
  26.3579535  83.4842205  18.2287621  25.3172374 124.3068790  58.6936283
  25.3559780 124.6210670  59.5969629  24.8049831 123.4997559  58.7425327
  45.2091932  89.8082542  61.1331415  45.4876137  89.3916416  61.9487095
  45.4778433  89.1964245  60.4477835 108.8877685 116.9674873  31.9723678
 109.3943948 117.6882839  32.3465538 107.9892606 117.2961998  31.9430017
 122.3009127 113.6629772  30.5555201 121.7141006 113.1427860  31.1044097
 122.4783102 114.4489002  31.0723257  27.6984811 108.3919144  18.6157274
  27.4929786 109.0797329  19.2489004  27.0221615 107.7288914  18.7543797
   8.0256563 119.4571304  57.9693604   7.3448497 119.6742153  58.6062336
   8.3971542 120.3028107  57.7182484  21.8612576  80.7521057  80.7399845
  22.5547338  80.2195454  81.1294746  21.4606404  80.1813602  80.0842476
  16.3618743 131.0426998  56.0401011  15.9515512 131.1648178  55.1839781
  15.6534147 131.1853027  56.6677809  17.3348975  89.2422009  71.9356298
  17.9767191  89.2618370  72.6454973  17.6484823  88.5546207  71.3481569
  45.6258965 109.0371323  41.7471457  46.0763216 109.8189640  42.0666409
  46.3212824 108.3889008  41.6355085  68.2597637  88.1736183  46.9977808
  69.0123177  87.5882149  46.9129562  68.0430508  88.1515980  47.9298639
  23.4314156  94.1696644  33.7768269  22.9724312  94.3447590  34.5983529
  22.7673817  93.7763977  33.2105803  28.3629203 105.1523113  28.6981654
  27.5576496 105.1224232  28.1815648  28.4715533 106.0773087  28.9191103
  20.1725411  97.6163864  51.2434816  19.3919218  98.1570530  51.3640881
  20.4217315  97.7559376  50.3298855  21.6135836 127.2017193  21.1121488
  21.4114475 127.9068279  21.7271256  21.9652390 127.6488304  20.3423023
  17.2955024 117.7264595  28.4227324  16.8450093 117.3827076  27.6512885
  16.6848969 118.3642864  28.7922740 117.1512706  98.7551212   5.5907649
 117.7949119  98.1219101   5.9085685 117.1306587  98.6206913   4.6432751
  22.2718644 133.1184959  64.3093014  21.8786597 133.3689213  63.4732962
  21.5460038 133.1445694  64.9327421  34.1587353 136.1428642  49.0560913
  34.9625087 136.2979889  49.5521975  34.4607902 135.8559608  48.1943035
 123.6635212  82.6575470  99.1963931 123.4082945  82.2740364  98.3573409
 123.9435978  81.9108295  99.7257420  45.3648090  62.8767824  41.7596483
  45.8930540  62.0914602  41.6166210  44.4829226  62.5448608  41.9279718
  27.0252347 139.9272060  24.0228319  26.4691353 140.5656338  23.5762882
  26.4611745 139.1639709  24.1474938  74.0234184  94.7836781  65.3619671
  73.7038708  95.5262566  64.8494291  73.8506889  95.0281429  66.2711620
  30.2623034 102.2575951  73.3722687  30.0971222 101.9676590  72.4751186
  29.4020677 102.2405243  73.7917137  20.9862280  91.3538647  65.7347012
  20.1772618  91.5185165  65.2502441  21.6463900  91.8810940  65.2847528
 121.4709300 118.4013939  67.5421286 121.8227232 117.6893616  67.0078230
 120.6967998 118.0260372  67.9617262  96.7336411 123.4109306  37.4720335
  96.6897101 122.9404736  38.3044815  97.4493856 122.9895401  36.9962502
   8.6432862  97.6305771  51.8139791   9.4631201  97.2425747  52.1198463
   8.5998446  98.4783363  52.2562981  69.3573618 136.6528320  34.7256160
  69.0973568 137.3651695  34.1414881  69.3041801 137.0312405  35.6032348
 120.2818639  96.0244465  74.8519850 120.6711269  95.6242847  74.0744400
 119.3396831  96.0073471  74.6839523  28.8482046  77.3980665  59.1452646
  29.5172668  76.7231750  59.2597771  29.1058135  77.8575468  58.3460474
   7.1711624 103.7950993  60.8658409   8.0912274 104.0574265  60.8957911
   6.7943215 104.1509819  61.6705608   3.8307571  99.3837547  38.5518718
   4.3286008 100.0232315  39.0612364   4.0339729  99.5931816  37.6402378
  25.0657248 146.7690372  48.7537098  25.4309940 145.9984684  49.1884804
  24.4251466 146.4148903  48.1368876  57.1727896 130.2001667  81.0319996
  56.7270279 130.5985737  80.2844715  57.0166779 130.8072948  81.7553616
  27.3618722  94.9201202  81.2779140  26.7943764  94.5830536  80.5846882
  27.9246593  95.5573368  80.8380890  37.0953178 122.6982689  83.9518293
  36.5216279 122.2614002  83.3223447  36.7884755 123.6048412  83.9665016
  46.5846586 104.1898632  36.7593050  46.9037962 104.8280907  36.1213040
  46.8959904 104.5181847  37.6028156  50.2889633  95.3760147  26.2522435
  50.3044319  96.1418915  26.8261981  49.4104290  95.0121880  26.3619590
  46.3235521  81.1236954  44.6004438  45.6954002  80.6130886  44.0896130
  45.8260536  81.4236164  45.3612185  10.9061253 111.1745834  72.2496700
  10.4302073 110.5405998  71.7131996  10.4126465 111.2133884  73.0689383
   5.2305502  25.5990963  97.5626429   5.6323802  25.1767903  98.3218714
   5.0279742  24.8779087  96.9667538  43.8740158 100.1308155  76.5172720
  43.7584877 100.5998611  77.3436403  43.0332804  99.6983242  76.3677883
  55.7121229  99.4373226  30.3564024  56.1552668  99.9033737  31.0653830
  56.4070511  99.2399216  29.7284365   3.0404076  86.6165447  71.4986134
   3.6812598  86.0829258  71.9685030   2.5470853  87.0608902  72.1881247
  48.5059595  82.9187012  67.1300793  48.9511442  82.6078224  66.3417912
  48.3906698  82.1336269  67.6654148  29.7790408 124.2118168  39.7569132
  30.3036523 123.7293720  40.3958654  30.4188681 124.7126961  39.2509723
  13.9614844 101.6989326  50.9285975  14.7083914 101.2735176  50.5074263
  13.2424724 101.0751343  50.8279085   1.2533702  89.3692207  37.8706956
   0.5786395  88.6987495  37.7637601   1.5634727  89.5409012  36.9815421
  57.1539974 133.9393711  63.1232166  56.3599491 133.4050560  63.1382799
  57.8398561 133.3408451  62.8272486 123.1439329  96.9120502  28.0167961
 123.4160077  96.9405174  27.0995188 123.1281123  97.8291416  28.2905006
  23.1696987  81.1581230  39.1377997  23.3769345  80.6622314  38.3457279
  24.0010691  81.2157440  39.6086860  11.1330652 105.6847191  28.9598155
  11.9821680 105.2429295  28.9687204  10.6031466 105.1728535  28.3487415
 117.3841894 117.4188042  55.8616829 117.8275908 118.2637882  55.7866669
 116.6677738 117.4672222  55.2287245   8.4357047 128.0552578  50.4098368
   8.1413722 128.9644432  50.4645395   7.9609275 127.6944447  49.6610880
   5.5514747  75.5270052  49.0074158   5.3499496  76.4307165  49.2501545
   6.5054369  75.5064440  48.9314842  28.5904217  83.5778332  24.7957468
  27.6749468  83.7837410  24.6067095  28.5607409  83.0857182  25.6162238
  26.0144448 127.4966049  83.8465405  25.7382345 126.5804577  83.8712883
  25.4435682 127.9013252  83.1934452   5.2550054 101.0724354  29.6657062
   5.2643025 100.1167488  29.7185922   5.5302572 101.2654114  28.7694764
  25.9875679  96.9487000  70.8867788  26.8964505  96.6484547  70.8825779
  25.9504271  97.6095200  70.1952791 124.2219636  98.2901764  54.6093798
 123.8371816  98.3859921  53.7381792 124.3552450  97.3476601  54.7100067
   2.2649646  68.6932230  42.1557093   1.9469248  68.6684322  43.0581856
   2.6384547  69.5690441  42.0573521  30.8551550  77.7189445  52.4852943
  30.7151008  78.5830402  52.0980597  30.6475616  77.1044970  51.7813158
 124.7135937  91.5072060  48.5801315 124.0495986  90.9278202  48.9538336
 124.2606166  91.9654751  47.8722954  35.7282043  82.9808235  50.6517935
  35.2555132  82.4376202  51.2824488  35.5556798  83.8793945  50.9329176
 116.8715984 108.0860996  57.4253654 117.4376047 107.3753071  57.1243000
 116.1985613 108.1593132  56.7486858  42.2719431  99.3365097  19.8824835
  43.2029438  99.2240810  19.6905696  42.0844364 100.2424335  19.6367645
 123.0037648  68.4664059 104.0475371 123.8081179  67.9675102 103.9048877
 122.7030399  68.1932735 104.9142524  11.4043796  80.4031563  39.0545464
  11.7713499  81.2848949  38.9904952  12.0404983  79.8458290  38.6062407
  49.0440035 146.6753483  64.5292187  48.2144594 146.2606812  64.7661448
  49.4636822 146.0507011  63.9376879   9.0516764  84.7722054  13.6184716
   8.2426554  84.8941994  13.1216466   9.1716862  85.5980682  14.0872800
  38.5072923  63.1845236  53.4882259  39.0838122  63.7104893  54.0424967
  39.1026306  62.6845169  52.9298353  60.6881618  82.9218578  42.9398727
  61.5315008  82.5844479  43.2418013  60.0425577  82.4842167  43.4947586
  21.1245012 101.3190365  37.9354930  20.8227992 101.8836021  38.6471581
  21.8816519 101.7772579  37.5708199  42.4588108  98.4318924  51.2279654
  42.4110079  97.9126072  52.0306396  43.1918764  98.0544186  50.7417965
  38.0399728  93.9652348  76.7542791  37.0831704  93.9847946  76.7348671
  38.3012748  94.1264629  75.8476591  38.0667591  81.1231899  11.8527532
  37.3882914  80.9902000  12.5147390  38.0982542  80.2957821  11.3724911
  64.3757248 123.3165741  58.8688231  64.6687698 123.6534119  59.7155237
  64.3015385 124.0934944  58.3146477  32.6020360 106.6571522  31.3249421
  32.8511119 106.1944389  32.1249938  32.7500749 107.5810719  31.5266585
  44.2980623 104.5941067  53.7261963  44.2251301 103.6707592  53.4846640
  44.1732168 105.0674248  52.9036331  34.8121858  69.9998903  50.0218725
  34.9473405  69.0691805  49.8437023  33.8731360  70.1343298  49.8940277
  14.9153042 109.6202183  21.9348955  15.3925323 108.9701462  21.4192510
  14.5730853 110.2358150  21.2866998  20.8236837  58.4957361  52.3159647
  20.9210348  57.9258966  51.5530491  21.2126112  59.3273211  52.0449638
  61.8419647  77.0427179  39.0424109  61.0878325  77.0232868  39.6315932
  62.0613956  77.9711866  38.9647770  13.4868324 105.5102539  60.2368021
  13.7667692 105.1816559  61.0911369  12.8173947 106.1638069  60.4391766
  24.6089506 107.6973629  55.2594900  23.9018297 108.3259964  55.1144552
  25.3829980 108.2389355  55.4137087   4.2543831  51.8440580  37.6089025
   4.4907162  51.2403965  38.3131528   4.9850109  51.7910910  36.9927764
  21.5061975 106.9516563  67.8863001  22.2557735 107.5409222  67.8018093
  21.8228483 106.2394619  68.4419537  34.3009901  80.6177139  23.2228327
  33.3727431  80.8493614  23.1923866  34.3961620  79.9236488  22.5705719
  16.2908375 119.2602158  53.0995035  17.1068764 118.9370918  53.4814787
  15.6612253 118.5545826  53.2474661  13.4533525 142.9882336  51.6913462
  13.1503928 143.0354786  52.5981045  14.0265286 142.2219181  51.6699409
  43.0467939 103.2552147  44.7722435  43.1057405 104.1742897  44.5113850
  42.6010418 103.2747078  45.6190920  16.8595135 133.8715076  97.5539780
  16.4983010 133.0083084  97.7555847  17.4611473 134.0539169  98.2757759
  45.7218790 115.4578018  42.4930906  44.9283743 115.3153801  41.9770479
  46.2856531 115.9832954  41.9254303  62.6841402  58.8255501  31.2789845
  62.7772188  59.6975660  31.6625977  62.8053236  58.2258606  32.0151353
  27.8808784 131.3791275   6.5112370  26.9658661 131.5217876   6.2690878
  28.1873226 132.2369099   6.8053967  61.2581158 114.8706532  54.4839144
  60.9427452 113.9916611  54.2738295  60.5107307 115.3001690  54.9000502
  22.4436092 107.7196980  26.6197896  23.0631399 108.3037663  27.0571399
  21.8220973 107.4734402  27.3048544  27.9808140  98.0461216  59.2679167
  27.7085423  98.2555485  58.3744764  27.7074265  97.1376133  59.3948793
  22.0419836 124.1623211  61.3556576  22.8685999 123.9820862  60.9079361
  22.2858596 124.7225952  62.0924377  28.8193893  58.8804293  46.6674328
  29.1333175  58.9476109  45.7656717  28.8948298  59.7694302  47.0141602
  26.2418675 138.3036900  75.2832079  26.2511706 137.7134037  74.5297480
  25.3132343 138.4672928  75.4478502   2.8410250 124.4285011  28.9104223
   2.5303012 125.0467014  28.2489729   3.2621536 123.7313271  28.4076047
  21.4018035 106.4876270  39.5652461  20.6883955 107.0654488  39.8361754
  21.0823441 106.0719585  38.7643766  31.8039012 137.0216370  57.6963568
  31.6068649 137.6648998  58.3772564  32.6732659 136.6914749  57.9231358
  64.1733027 122.8999996  29.7752285  64.0472460 123.7915039  30.1001310
  64.1812372 122.9912090  28.8224173  43.5144281 120.0860882  85.9599018
  43.9276552 120.5992413  86.6542721  44.2310286 119.8693275  85.3634739
  44.6003675 111.2869740  64.7778749  45.2373266 111.5601826  65.4380798
  43.7511921 111.3890076  65.2076674  48.1574202 112.1166039  39.0678740
  47.7572727 112.8993511  39.4465733  47.5423336 111.8373871  38.3896828
  30.0901413 101.1271572  58.8320684  29.9068975 100.6834030  59.6601582
  29.9040365 102.0494175  59.0082455  56.0236740  91.5802574  66.0307789
  56.5745449  91.1132240  65.4025602  55.2473783  91.0282993  66.1253309
 117.6049859 117.2597218  34.0642929 117.5741345 116.3593292  34.3876886
 116.7796100 117.6472282  34.3555307  18.8854492  80.2831364  12.8845978
  18.0706966  80.2383423  13.3850014  19.0875936  81.2176418  12.8392172
  14.6874738 115.8384037  14.8773706  14.8088586 116.1725235  15.7661128
  14.6688735 114.8868656  14.9796760  36.0160041 103.3786583  26.7056036
  35.6941271 103.4050751  25.8045340  35.3534007 102.8784943  27.1820664
   9.1439390 142.0594025  31.7410254   9.8621714 142.1967220  32.3586965
   8.3627510 142.0013809  32.2911263   5.4965156 107.5034332  12.7738535
   6.4273876 107.4016094  12.9721987   5.0563210 106.9033909  13.3758605
  49.5209265 131.9217110  16.6076469  48.7134457 132.3888779  16.3932621
  49.8587322 132.3705196  17.3826909   6.8448359 122.3472786 105.7859584
   6.7581779 121.4285374 105.5317002   6.6744250 122.8357601 104.9806198
   8.8768411  72.8333902  14.6075964   8.6708564  73.7678146  14.5821691
   8.1214833  72.4332523  15.0383580  62.5957346  72.3939896  21.7921567
  62.6982641  72.3044157  20.8446884  61.6540003  72.3079538  21.9403577
  23.5719991 101.7449093  18.5678470  22.8445435 102.3407459  18.7467802
  23.7264538 101.2986755  19.4004619 103.4084458  82.3888874  22.9126287
 103.5655374  83.0107307  22.2020912 102.8632874  81.7078114  22.5187016
  13.6710441 111.7090702  25.5666089  13.1694329 111.4314747  24.8000860
  13.3771765 111.1282063  26.2683702  25.2017426 137.3900795  38.6731219
  24.6240473 137.2445583  37.9239082  25.2882910 136.5279293  39.0798497
  11.6067839 129.4047451  46.0189438  12.4444473 129.0125656  46.2654114
  11.0328496 129.2325592  46.7653942  15.2633595 130.1004219  33.7961698
  15.5407238 129.2695141  34.1820240  15.2896297 129.9465561  32.8517818
  35.9110522  74.4439936  20.1053238  36.7559099  74.8035002  19.8347712
  35.3737855  74.4731092  19.3136609  41.0801220  86.7887974  31.7123938
  40.6703472  87.6535130  31.6884685  40.4143381  86.1984062  31.3596821
   8.6021060  79.7345400 109.3577922   9.1651636  80.3649902 108.9086472
   8.1877601  79.2381334 108.6520090  49.5931530  93.3291817  37.4873829
  50.1965523  92.8891659  38.0861545  48.7356329  92.9588032  37.6964641
   5.3360933  65.0039768  40.8287334   5.6819606  65.8033323  41.2257719
   6.0785764  64.6325588  40.3522873 109.6482415 119.1955376  45.1348352
 110.5282671 119.2834473  45.5009794 109.7661049 119.3264103  44.1939783
  38.9493084 135.3203678 106.2658408  39.6596622 135.6366825 105.7076522
  39.3505239 135.2173328 107.1287670  27.4745297  89.6589088  19.4911885
  27.3243356  89.2206192  20.3287935  28.0526590  89.0661335  19.0109670
  64.5157433 130.8705807  19.9674010  65.2236986 130.4255009  20.4331589
  64.5787287 131.7826366  20.2509880  16.9408894 106.0276413  30.7981491
  16.8065023 105.8526516  29.8667264  16.0946822 105.8359337  31.2023973
   3.7650746  99.2505169   9.9791330   3.3396062  98.7518787  10.6766796
   3.6655980 100.1650715  10.2435553   9.2486686 118.0050182  16.5403152
   9.7873545 118.5114861  15.9324205   9.1361880 117.1568489  16.1111283
  16.7171681 121.1936569  27.9721212  17.3332870 121.9242191  28.0260277
  17.0719242 120.6314850  27.2833991  37.3822713  94.7167110  12.4555349
  36.6190529  95.1920605  12.7838218  37.3640704  94.8588085  11.5091157
   2.0614809  59.1236830 105.7054057   2.7685344  59.5220900 105.1978847
   1.7639656  59.8208523 106.2899327  33.8986015 123.5546589  40.8260536
  33.4633493 124.3460369  41.1430788  33.2939005 123.1916142  40.1789331
   3.4650755 109.7644043  34.1095257   2.8869295 110.5209064  34.0111113
   4.3061152 110.0586033  33.7597656   3.7503374  96.8395805  31.4838505
   3.9876419  97.7244759  31.7611146   2.8793326  96.9348240  31.0984802
  27.2923374 131.6404819 101.8946602  26.9686413 130.7801819 102.1617647
  26.9956946 131.7376423 100.9897878  35.9393001 109.8952007  36.4477849
  35.9629703 109.0981388  35.9182906  35.6943965 109.5942688  37.3228240
  43.9802742 105.9886360  24.2087293  44.7463989 106.4509678  24.5486379
  43.8692188 106.3293457  23.3211398  44.9005318  81.6170788  25.5326986
  45.3154039  80.7584858  25.6158900  45.2047157  82.1052170  26.2978315
  12.2324097  14.8857479  38.7623215  12.2933340  14.4519406  39.6133971
  11.6064334  15.5966549  38.9001179  35.7724118  89.5376110  46.6575003
  35.7991505  89.1466427  45.7841921  35.9059024  88.8009167  47.2539091
 117.5439662  99.8384953  13.7307942 116.6468585  99.6625805  14.0144861
 117.9824120 100.1697445  14.5145488  11.8042576 103.2577419  62.3692417
  11.0755372 103.1364822  62.9779196  11.4056039 103.6533546  61.5941286
  33.4085965 124.7293472  16.3924408  34.1255021 125.2399445  16.0161817
  32.6233172 125.2423668  16.2017035  32.0040250  90.5879784  43.7759113
  32.3529959  90.1948643  44.5758581  31.7260504  91.4646149  44.0413761
 113.3042485  78.6115551  23.6009598 112.6396746  77.9996014  23.9173174
 114.1339666  78.2400036  23.9005423  58.1457758  68.0078697 104.7374698
  58.3701229  68.3856487 103.8870683  58.5426521  67.1369171 104.7248551
 105.5930526 122.5080299  41.5864134 105.1093764 123.0993462  41.0096693
 105.1221806 122.5471020  42.4188709  12.8204393 115.4298592  46.1098003
  13.4164453 115.3970337  46.8580866  12.1091604 116.0033703  46.3951063
  39.4142318 108.6121368  36.8790817  38.9930797 107.8164101  37.2041774
  38.9136672 108.8458157  36.0973787  13.0011714 113.1896877   3.3873695
  13.3118558 113.1957817   4.2927259  12.1422052 112.7696419   3.4317344
  11.0646856  73.2513762  37.4719381  11.9771791  73.0637074  37.6918674
  10.6095791  72.4204779  37.6087451  22.2183418 112.1288872   4.3330339
  21.3316441 111.7751026   4.2634633  22.6335478 111.8997669   3.5015661
 118.8633878  79.9884987   2.2182709 118.2486505  79.6295595   1.5783562
 119.6098620  79.3897676   2.1952751  40.5588865 129.0396881   2.3463823
  41.0052395 129.8757076   2.4808320  40.6443119 128.5850811   3.1843948
  21.2918735  82.4336529  34.1363382  20.9865665  81.9609642  33.3620071
  21.1464691  81.8254375  34.8610234  31.3588166 101.8126202  25.8755708
  30.8443880 102.3298454  26.4953065  32.0142508 102.4239254  25.5395055
 118.4124178  91.4169788  20.9389758 118.0586184  91.2904644  21.8193460
 117.9486931  92.1837234  20.6023860  28.3874154 113.5823250  28.4876895
  27.9766822 112.9226685  27.9287720  29.3245125 113.3962727  28.4288168
  35.4834175  95.7430935  51.4163303  36.0467815  96.4854050  51.6350126
  35.5511284  95.1600933  52.1724796  36.5613294  96.9721031  45.7767296
  36.4505672  96.1259079  45.3432322  37.4585605  96.9549751  46.1097717
  26.4516377  66.3196278  43.7781096  25.9623337  65.5583096  43.4663248
  26.9044757  66.0086918  44.5620012   5.9883517 112.4440765  22.4642181
   6.9329321 112.4650288  22.6177120   5.6378734 111.9371223  23.1966090
 124.0191267  98.7158680  38.2237554 124.2036025  98.2681465  37.3980713
 123.3186047  99.3323612  38.0106163  10.0151348  86.8095493   5.8414781
   9.7256756  87.7119064   5.9763426   9.6028179  86.5461731   5.0187618
  40.1759052  66.5383148 108.7381257  40.5038548  66.6849756 107.8508987
  39.4464540  65.9287357 108.6261315  42.0867491  78.3544016  11.4207792
  41.5533352  79.0892744  11.1180282  42.7611399  78.2550955  10.7487893
   9.3988818  76.7916918  42.6238823   9.6410811  76.0273981  43.1467867
   9.5240825  76.5111017  41.7173386   4.5642781  99.7137928  59.5571899
   4.5451686  99.7416782  60.5137920   5.2854323 100.2947521  59.3149948
  17.4959302  83.0590725  16.3104069  16.5820551  82.8949642  16.0777462
  17.7863264  82.2478676  16.7273450  19.8433292 123.6032295  11.2788022
  19.6275258 123.0693817  10.5141675  20.7993865 123.5847187  11.3217270
  26.8927336  72.1902752  31.7788339  27.7171159  72.0953560  31.3017464
  26.8902636  73.1008434  32.0739508  12.8727126  69.6649599  66.0043526
  13.5443902  70.1704407  65.5465651  12.0706463  69.8275566  65.5078840
  38.9148331  79.3049097  16.8495083  38.4174776  80.0775623  17.1176219
  39.5413589  79.6349669  16.2054873  55.5741405 140.5334473  23.4907317
  55.9006357 139.8546886  24.0814185  54.6214771 140.4781532  23.5656333
  34.9536037  95.7357883  33.1068873  35.8930922  95.9190083  33.1019378
  34.8689580  94.9058533  32.6375484   1.1462422 107.1498871  76.9583893
   0.3865243 107.7286243  77.0226336   1.8997803 107.7322388  77.0547104
  45.3149748  59.2398453  47.6823854  44.7196913  59.6937370  47.0858526
  46.1773920  59.6043968  47.4834824  27.2017765 108.2598114  34.0376711
  27.5518322 108.2302666  33.1472683  26.2540436 108.3252525  33.9203858
  26.1868358  87.9671478  42.7771425  26.5853858  87.1006966  42.6955700
  25.6925607  88.0808163  41.9653511  27.0849061  76.9831228  18.1182373
  27.3346710  77.7190828  18.6769938  27.9169893  76.6130352  17.8234458
  37.2837019 117.0887566  25.3540349  37.9598713 116.7936134  25.9638834
  36.4680576 117.0230865  25.8506680  27.2477365 105.1363373  42.1658421
  27.0232749 104.8463726  43.0500174  26.6783500 105.8896255  42.0090389
  31.1957073  84.3707848  31.8881583  30.7023764  84.0574837  31.1300707
  32.1133232  84.2710876  31.6346359  16.4017212  75.2699375  30.6272721
  17.1761572  75.6269312  30.1924872  16.4493740  75.6117392  31.5200949
  26.9943714 124.4392490  49.8562670  26.8658566 124.7219086  48.9508247
  27.7720428 124.9152088  50.1476717  34.1379166 101.6417217  21.3616300
  33.4541035 101.3908863  21.9826865  34.7389150 100.8967590  21.3533306
  17.7093959 114.1610241  46.9493294  17.0007098 113.8514328  47.5133801
  18.4971607 114.0770435  47.4865532  17.8112328  98.1948662  93.6875960
  16.9586587  97.9115009  94.0178283  17.6714385  98.3327389  92.7507504
 108.1840236  82.3854542  96.1012598 107.6847810  82.8014374  96.8040737
 107.6492328  82.5156116  95.3181311  24.2787766  92.2337055  37.6736856
  24.7782278  91.4568138  37.4222589  24.9278378  92.8204441  38.0618644
  31.7446518 116.0800362   7.9829627  30.8397985 116.0324574   8.2915211
  32.0631433 116.9236660   8.3040369  20.6613255 109.1668415  56.8956614
  21.3458538 109.6278572  57.3805475  20.1757455 109.8603439  56.4489985
  24.5842695 120.1103878  27.8603649  24.1381907 119.8153305  28.6542082
  25.3470922 119.5368385  27.7870369  26.5065503  90.2185726   8.5214400
  26.2684584  90.1895618   9.4481015  25.9081697  89.6010208   8.1009543
   1.2527177 115.6178761 101.5283730   1.7790943 116.0574150 102.1961816
   0.3471455 115.7712936 101.7978802  44.5558071 101.4856339  16.4886224
  44.8053980 100.7146168  16.9980025  44.0149593 101.1390686  15.7789707
   5.7670295  82.3145962  17.9600537   5.6823611  81.5681458  18.5532451
   6.3567162  82.9161167  18.4146667  10.0381124  77.8133869  85.9872230
   9.9411941  76.8662405  86.0859617   9.1895413  78.1077766  85.6563219
  33.6274934 123.2688713  25.9173846  34.1086745 123.8499069  26.5065360
  33.9138317 122.3889256  26.1622024  33.3341980 105.0096893  36.1563373
  34.2670274 105.1673031  36.3020134  32.9172564 105.2610397  36.9804811
  33.8334465  87.0251846  60.1360703  33.4772182  87.4087811  59.3347073
  34.7044253  86.7160130  59.8869896  33.3387947  85.9830379   1.2255906
  32.5553679  86.1956024   0.7183529  33.7091398  85.2181816   0.7850525
  46.9461012 121.6550827  10.9735382  47.1778774 122.2305775  11.7024541
  47.6734400 121.7438793  10.3576422  38.8226199 103.3866787  13.2262886
  38.1850672 103.8517570  12.6845622  39.6392512 103.4342098  12.7292109
  22.4564242  64.0726614   0.4293365  21.7126393  63.9835644  -0.1665476
  22.2586751  63.4748650   1.1502878  70.2704620 101.8460751  96.0215958
  70.4312944 101.7856789  95.0799390  69.3443584 102.0775986  96.0920366
   1.7336288 107.5076485  61.4853668   1.9590981 107.9299259  60.6564713
   1.7387471 106.5713787  61.2863588  75.2799177  99.1219807  22.3314357
  74.7004175  99.5357227  22.9711437  76.0538054  99.6848965  22.3100233
   0.4571654  88.7394238  19.4446206   0.1492578  87.8376389  19.3540347
   1.3056892  88.6601448  19.8804593  21.6469431 102.4440765  58.7542582
  22.1903682 102.0208168  59.4189119  22.2613811 102.6870155  58.0616665
  38.2769799 118.3604431  10.0386584  37.8860807 118.0764294  10.8649540
  39.1995931 118.1168270  10.1139295  11.9619918 115.6499672 102.5723537
  12.4443889 116.2485027 102.0020213  11.2794816 115.2821159 102.0110151
 112.2262747  91.2987041  37.5082040 111.8446118  92.0492554  37.0529842
 112.0404977  91.4598370  38.4332728  30.4500079 119.6820831  53.3755732
  30.3430486 119.2332649  54.2142391  30.4750586 118.9773750  52.7282763
  26.0876083 113.8092136  69.6271610  25.9097934 113.1626987  70.3102684
  26.4886522 114.5440006  70.0913620  11.7412603 106.0128307  35.7677221
  10.9837794 105.7690334  35.2357292  12.1327639 106.7520714  35.3024435
 121.6295735  94.6337128 105.2232596 120.8376510  94.6666241 105.7599228
 122.3407105  94.5143795 105.8527636  28.0940342  92.6035309  58.7400341
  28.4256220  93.4983253  58.6650753  28.0976033  92.4247646  59.6803856
  29.7825789 112.2038269  43.5741949  30.1757956 112.8591728  42.9978895
  28.9273858 112.0237637  43.1837416  43.9103127 112.3615646  17.8949714
  44.0175295 112.1826839  16.9607675  43.0561876 111.9889355  18.1137061
  15.6480515  74.8915529 103.9066591  15.5891943  74.3419933 104.6881666
  16.2792015  74.4420004 103.3447107 123.6946861 126.4871311  42.7721739
 124.5900461 126.1838341  42.9224014 123.7900025 127.2278023  42.1733713
   0.1565002  88.4129906  44.5055532   0.1936649  89.3043423  44.1586685
   0.8725065  88.3726597  45.1395416  26.5108705 111.6633892  34.0000105
  26.9625926 112.4932003  34.1536212  25.6767654 111.7559528  34.4603705
  17.1136117 103.3233166  49.2766285  17.7670753 103.4321022  49.9675560
  17.1880448 104.1186237  48.7491989   4.1296184  90.7522392  41.7069626
   4.7482121  90.8532238  40.9835148   3.3925465  91.3160706  41.4723253
  10.6292367 145.9743118  78.8931640   9.9675661 146.6412640  78.7098774
  10.6281519 145.8915615  79.8467787   5.2196074 106.6713047  61.0497189
   5.3649551 106.4364529  61.9662094   4.3850768 106.2591457  60.8263016
  40.1909351 101.2692165   4.0944809  40.3682137 101.3090134   5.0342786
  39.8248649 100.3955936   3.9565864  32.8763151 110.1327419  53.5280848
  33.4477329 109.6567249  52.9254913  33.3406615 110.1124859  54.3648672
  27.9596663 114.7879410  44.6463680  28.0124521 113.8347530  44.7162533
  28.7340474 115.0342560  44.1405058  29.0710020  97.6779175 107.4206714
  29.0749741  97.8713417 108.3581146  28.1637073  97.4407005 107.2289022
  18.3026326 127.4385548  26.0540915  18.4300947 128.3551884  26.2985849
  19.1666257 127.0402241  26.1593533  42.4400949  60.4316282   4.4661468
  42.5202227  59.5718050   4.0532076  43.3195543  60.8057451   4.4130138
  58.5549116  90.6141376  30.8263135  57.8066063  90.4822159  31.4084315
  58.9064503  91.4681530  31.0779142  29.6425605  83.4091473  29.7808290
  30.0917506  83.2695961  28.9471722  29.1014624  84.1850376  29.6343994
  34.3590426  46.6607761  36.9122243  33.5304236  46.5184546  37.3697901
  34.1025496  46.9149780  36.0257554  19.4158518 125.6680489  20.4368091
  19.3804646 125.1346207  21.2308049  20.1814890 126.2293243  20.5592728
  38.7851262  80.1582336  27.8987360  39.2012405  79.7063065  27.1646833
  37.8870010  79.8272467  27.9057169   8.4088838 101.2082958  36.6461015
   8.6587256 100.3179359  36.3989782   8.2436544 101.6505337  35.8134222
  39.2126656  83.0154991  57.4857140  39.1992927  82.3654556  58.1882143
  38.2898545  83.1645489  57.2797203  42.3182249  90.8425903  43.4451580
  42.5414848  91.7731380  43.4667921  41.9583321  90.6623745  44.3136215
  38.3850217 115.6132603   6.1214644  39.1626692 116.1474419   5.9597915
  38.3488011 115.0117302   5.3777683  29.6263051 116.7923641  52.4074697
  29.0020370 117.1588516  53.0337334  29.0892148 116.5286922  51.6603136
  12.1454859 115.6644154 105.4093897  11.8811095 116.4309978 104.9007710
  13.0154848 115.4444027 105.0763293  42.3705816  59.3183565  46.6537666
  42.9332113  60.0543261  46.4128780  41.9023848  59.1009378  45.8476973
   4.6088329  73.7833261  35.7900429   4.7631180  72.9956865  35.2684569
   3.6606407  73.8028812  35.9195852  48.1701279 139.1941166  11.6427922
  48.5687304 138.7849712  12.4108684  47.9825163 140.0910473  11.9194639
 122.9496298  88.9313030  37.2695851 122.3303678  89.0048122  36.5434003
 122.4586473  88.4837437  37.9586816  37.1752596 116.8358135  39.7890186
  36.6545987 116.2751865  40.3642082  36.9244075 117.7270317  40.0320101
 110.0686151  78.8364410  10.6653845 109.2712087  78.8162279  11.1945021
 110.7446105  78.4723282  11.2369478  35.6362462 107.3919487  35.6037402
  36.2845516 106.6975403  35.7209468  35.4281259 107.3701382  34.6696949
  39.6890306  99.8371315  20.7464099  39.2693877  99.5230579  21.5473390
  40.5132961  99.3525219  20.7020020   1.6414869 109.5549679   8.3183128
   1.4893025 109.5982647   9.2623448   2.5830477 109.4046021   8.2341427
  65.0003862 107.4104023  20.4317236  64.1050673 107.5756168  20.1361823
  65.5000639 108.1625462  20.1141644  51.5005255 113.1058311  39.8550558
  51.1042643 113.1764126  38.9865947  50.7655859 112.9191113  40.4392052
  50.9361124 105.9242249  26.7420697  51.5384722 106.2806606  26.0891175
  51.4033175 105.1774025  27.1165061  19.0179503  80.2675819  27.9709053
  18.3487451  79.9114466  27.3864722  19.4995558  79.5000553  28.2794333
  10.5591416 126.5456104  63.1232929  10.7618642 125.6322479  62.9210472
   9.7160065 126.5094566  63.5750103  53.5032892  77.2043753  72.3129797
  54.0522528  76.4740086  72.0276213  53.5050678  77.1463156  73.2684135
  59.2186308 142.3856544  35.7650328  59.9594641 142.8939342  36.0952640
  58.6186266 143.0407429  35.4085398  13.8580191  69.5303917   4.4315869
  13.9049721  68.6051559   4.1908404  14.6510625  69.6848679   4.9448612
  14.2190111  61.7530060  29.6367145  14.8500490  61.3502455  30.2332067
  13.9958405  62.5864458  30.0512099   9.9391967 121.5132713   6.3648206
   9.7753513 121.3249302   5.4407465   9.4315147 122.3052788   6.5415072
  30.5245423 101.8854046  44.6917295  30.3887200 102.0696545  43.7623024
  31.2973690 102.3987484  44.9272251  48.8325024  74.7268677  32.0432305
  48.7594652  74.2634344  32.8775740  49.7470856  74.6125031  31.7849851
  44.8230839 100.5453777  29.8209167  44.4332504  99.7049618  30.0616956
  44.6154690 100.6483936  28.8922000  34.9996042 114.3365288 107.3161056
  35.5059290 114.9780750 106.8178191  34.7664380 114.7916603 108.1252547
  32.9515338  94.2958832  44.1020823  33.8816261  94.5080853  44.0238142
  32.6835275  94.0623665  43.2133293  73.4653187  87.8677464  30.3439450
  72.5167465  87.8988171  30.2195168  73.6073685  88.2656288  31.2028670
  17.8674066  96.4875031 104.2360737  18.4010959  95.7564640 104.5474913
  17.1724582  96.0751915 103.7229654  62.8884268  76.8103313 108.8195640
  62.5949240  76.7773819 109.7300591  63.7050962  77.3087406 108.8490599
  26.2498856  83.1511688  20.3670073  25.3082418  83.2978058  20.2773714
  26.6361499  84.0239906  20.2947497  21.9564843  90.8856297 106.5679481
  22.0095325  90.0885105 107.0952275  22.7563739  91.3667202 106.7799749
  24.1666675 111.5354824  28.6886740  23.9241743 112.4069977  28.3757782
  24.7912598 111.6998577  29.3951440  35.7892966  49.3110704  13.7243748
  35.6377745  48.9334345  12.8579664  36.1682987  50.1720476  13.5474336
  45.0922012  79.1433191  39.1579914  45.2348804  79.9267721  38.6268878
  44.3475389  78.7062454  38.7448621  27.3329449  77.2450829 105.5667781
  26.5270686  76.9182587 105.9667566  28.0217075  76.6835690 105.9225007
  21.1806202  84.7082996  29.7287345  21.2720490  85.1532936  30.5712605
  20.3618789  84.2182159  29.8043180  26.6783428  70.8514214 102.2826865
  27.5932574  70.6152344 102.1297845  26.6573215  71.1526442 103.1910112
 124.0237213  60.3770876   5.6337541 124.0625898  60.7949495   6.4940524
 123.5885372  61.0205030   5.0744098  24.6718502 145.0237656  21.4420795
  24.4615698 144.9082375  22.3687220  25.0421786 144.1828442  21.1738658
  45.4291296 119.2273045  31.6277003  45.4858828 118.5356808  30.9684086
  46.0587692 118.9688587  32.3007536 120.4195071  92.6824760  51.9179201
 121.1838461  93.1599140  51.5953255 119.9649540  93.3098316  52.4800920
  33.8506126 113.8676071  39.5899343  33.3849430 113.2140732  40.1117373
  34.3779182 113.3540916  38.9779902  34.8959470  86.9132233  16.2721193
  34.7499919  87.7589417  16.6960239  35.5366063  86.4728069  16.8305278
   6.9966769  96.9744587  16.5604174   6.4354515  97.3646069  15.8903122
   7.3543298  97.7225780  17.0385754  11.4503694  91.3476467  40.8741474
  12.1756160  90.8168411  40.5447626  11.6253150  91.4372635  41.8109512
  38.7345958  84.9930859  36.7907047  38.9884853  85.8484268  37.1373367
  39.4404221  84.4058800  37.0613146  74.3393803 118.3327007  31.6311860
  73.7274218 118.9004993  32.0995235  75.0702143 118.2159138  32.2382069
  36.6778588  75.3756666 107.2647946  37.2228551  76.0185146 107.7186140
  36.1370254  75.8965969 106.6711914  13.2865012 140.6274319  18.2832754
  13.2892883 139.7680950  18.7048972  14.2033815 140.7875729  18.0598569
  32.1656537  62.8354645  38.8409376  31.3662338  63.3594561  38.8918543
  32.7606797  63.2446861  39.4692016  40.7074356  43.6962891  37.0018339
  40.6130123  43.5242605  36.0649657  40.1040888  43.0820990  37.4201322
  45.6048679  12.1769028  13.9879811  45.3746986  12.7609139  13.2653546
  44.8408222  12.1962719  14.5642531 111.4203174 128.0401230  14.4118369
 111.9474656 127.3225212  14.7631073 111.3238758 127.8336716  13.4821546
  27.4273729 106.5024662  31.5167880  27.3309469 106.0900593  32.3751903
  28.3704734 106.4973354  31.3531852  10.8067751 125.5754185  41.7952871
  10.9771585 124.6522999  41.6080236  10.7990396 125.6284714  42.7509832
 118.3837969  75.1058817 107.9364579 118.3244074  75.9017324 107.4079429
 119.2938537  74.8240805 107.8436353  29.7152901  59.9015665  91.5410873
  29.1369319  60.6602049  91.4623328  30.4773378  60.2298641  92.0183035
  42.1761751  91.1203861  24.6690512  41.3913059  91.5715218  24.3581009
  41.8506622  90.4861355  25.3077984 106.2570936 117.7878857  17.4751294
 106.2717504 118.5585690  18.0426443 106.7153830 117.1129799  17.9758322
  97.9488630  97.1581268  26.7674446  97.6912255  98.0549335  26.9809675
  97.3823184  96.6103649  27.3107791   4.0486473  95.5337429  19.6336246
   3.3773664  94.8881721  19.8546588   4.5257330  95.1422596  18.9019382
  58.7195730 123.2723331  11.4972389  59.2888021 123.9570522  11.8484676
  58.1667376 123.0180740  12.2361314  19.1534698 105.6412125  45.9572601
  19.2139065 105.9450054  45.0515652  19.6311879 104.8117733  45.9640551
   0.1811949  82.4267769  49.8587465  -0.6139430  82.0474148  49.4844913
   0.8323811  82.3546886  49.1609001   5.9290016  73.8986397 106.0937958
   5.4004294  73.4733009 105.4185685   5.3079259  74.4451952 106.5752246
  12.4606788 115.6350803   9.8100978  12.2952628 115.2392006  10.6657541
  11.7991197 116.3224792   9.7323036  19.6365273 122.0935631  24.1205883
  19.9028349 121.5986824  24.8954511  18.7286687 121.8308353  23.9689374
  27.5722027 127.6115894  22.5928617  27.5718737 126.8420696  23.1621337
  28.4005499 127.5566578  22.1163583  43.2477760 142.7992630  50.3383160
  42.8577042 142.0713234  49.8543978  43.9878130 142.4086761  50.8030987
   8.5715008  94.9181080  38.2293177   8.2388908  94.9154568  39.1268682
   8.1507331  95.6742764  37.8201914  34.3429589  97.5909519  82.2216471
  35.2722216  97.3978710  82.3458275  34.1300035  97.2065258  81.3712987
  34.7938132 102.9483986  15.5299830  34.1610432 102.3213005  15.1798594
  35.6428289 102.6263428  15.2271843  44.8350000  83.7876511  48.8965511
  45.7788610  83.6308670  48.8686800  44.5686960  83.8101387  47.9774189
  17.9345012  92.7976990  99.2213043  17.4594390  93.5713863  99.5245346
  17.7728391  92.7717304  98.2782122 108.1589908 108.6486530  16.6988170
 107.6830167 108.8278103  17.5097311 107.8484136 107.7858067  16.4244354
  32.0927358  59.1858387  15.1627660  31.6535473  59.6584082  15.8698893
  32.9366326  58.9289570  15.5343616   5.3302729  83.5911846  48.1814432
   4.4220850  83.8633823  48.3131123   5.7665390  83.8056564  49.0060043
  36.7350602 116.6720009  95.2786442  37.3347616 117.4020195  95.1248213
  37.2230029 116.0770988  95.8480629 123.5376824  76.2443495  46.2329626
 124.3563928  76.0656404  45.7703543 123.7761829  76.8846941  46.9032669
  13.7071657 102.6961613  92.9343494  12.9274976 102.2804832  92.5661572
  14.3831635 102.0199966  92.8889104  29.1174459  61.4137363  47.9377699
  28.4629893  61.8419266  48.4896469  29.5849252  60.8268213  48.5321045
  35.3046918 106.2970257   8.1759894  34.4610310 106.2903786   8.6281204
  35.1530051 106.8272972   7.3936677 101.1262721 121.1293793  25.2309394
 100.5243296 120.9994411  24.4981265 100.7827467 120.5675220  25.9255910
 107.1363599  68.2268667  15.8262646 107.9331703  67.7420950  15.6110418
 106.7012209  68.3585405  14.9839175  53.7478638  88.6426163   5.5421960
  54.5062447  88.7253284   4.9640518  53.4433508  87.7447033   5.4108340
  55.8679438  89.2566109  18.0765986  55.7094240  88.5833168  17.4149549
  55.3482819  90.0057983  17.7852201   8.6813706  72.3136330  32.3849249
   9.2935288  72.7787828  32.9551244   8.0362099  72.9753494  32.1356773
  20.5128837 106.2278843  98.4163495  20.6401682 105.3998089  98.8793060
  21.3602209 106.6689682  98.4771355  47.3918056  98.2164001  52.2985029
  46.7655849  98.6053944  52.9090500  47.7615499  97.4734879  52.7755690
  33.8278627  84.5094013  31.3996458  34.1480494  84.0366745  30.6313729
  34.6210980  84.7866440  31.8580604   7.4978018  64.1949749   1.6053149
   7.0152038  64.3850946   2.4097934   8.0853528  64.9426985   1.4960937
   3.4748468 111.1882401   3.5354763   3.7685293 110.7094955   2.7603731
   2.9195535 111.8868637   3.1893507  44.8603725  99.7781944  19.3904996
  44.8753595 100.3971291  20.1205182  45.7629251  99.4668770  19.3218613
 112.5359184 130.8269691   8.4377736 112.9176504 130.5437469   9.2686141
 111.7117209 130.3441620   8.3759308  24.0380287 126.1222172   1.5656316
  24.2420721 125.9832191   0.6408191  23.2950592 125.5434227   1.7366017
 124.0704384 127.7971458  92.6585897 123.6251315 127.0480633  93.0545827
 124.9068210 127.8504562  93.1210324  94.2854947  54.9240065  13.3480024
  93.7180323  55.6918240  13.2796276  94.1693801  54.6197605  14.2481053
  46.8042994  76.0858488  20.2930713  46.8673801  75.2146482  19.9015772
  46.3755417  75.9390831  21.1361933  20.4215050  58.7595081  99.7251173
  19.6389723  58.9611673 100.2381536  20.6278825  57.8521967  99.9496736
   8.0021662 123.5601616   6.2371647   7.3882341 122.8267288   6.2746644
   7.5185013 124.2547512   5.7901347  37.7075052  71.9293737  19.4575012
  38.2444835  72.5925541  19.0238214  37.8564787  71.1313772  18.9503109
  62.2283077  67.5733852  84.6263465  62.6632071  66.7798424  84.3142804
  62.8293419  67.9357004  85.2772840  38.3272672  84.2896938   0.1879349
  37.4565649  84.6728897   0.0817502  38.1644416  83.4273052   0.5700362
   5.4192746  94.8700333  38.1296563   5.3520441  94.8993111  39.0840435
   4.9555841  94.0703106  37.8813076  18.8676620 112.2615814 108.7934524
  18.2696843 111.6953945 108.3055087  18.4739614 113.1321430 108.7356223
  28.8414526 105.1346207   4.7880036  29.7725034 104.9436474   4.9016249
  28.7223434 105.9944439   5.1914132  32.8498387 110.1349831  25.2103496
  32.7871704 110.4647160  24.3139219  33.0666852 109.2080879  25.1100039
  25.0540876  94.1533661   1.9974782  24.6520352  93.4115219   1.5455464
  24.7248316  94.9233246   1.5338027  43.9607477 126.1111927  22.7367043
  43.5001612 125.7503700  21.9791436  44.6436119 126.6660976  22.3598647
 121.7052907  65.5730534  32.4739432 121.0718170  64.9788952  32.0715547
 122.5098795  65.4406023  31.9726205  21.2873983  94.8065376   4.4706455
  20.6714129  94.9860382   3.7603128  22.0508623  94.4271088   4.0354553
  43.3541489  93.8770390  23.6451626  43.0914497  93.1009197  24.1399980
  43.3674431  94.5812225  24.2933798  27.8987408  81.7035675 107.5086980
  27.3649979  82.1088409 108.1921538  28.1398225  80.8496857 107.8678513
  11.0292244 125.5460835 103.7825825  10.9876108 124.6041107 103.9474508
  11.1419845 125.9361935 104.6493753  42.5812531  74.7347832   9.9117768
  42.8190470  75.6263065   9.6570784  43.2052708  74.5081854  10.6013334
  22.9241562  96.4279556  26.1932445  22.1636748  96.9610596  25.9614968
  22.6204038  95.5248451  26.1018276  15.0075269 118.5127735  22.1974254
  15.5700934 118.5597038  21.4244127  15.6000006 118.6620903  22.9342508
  48.6775160  75.6975126  36.4126992  48.2213259  76.1835527  35.7257581
  48.5371304  76.2148619  37.2057152  38.3592868  90.3026295 104.2384871
  38.2679009  91.0307121 103.6238589  39.2782927  90.0441933 104.1687086
  42.3211098  86.8046951 106.9958624  42.6966476  87.5096512 107.5233426
  41.9385958  86.2043953 107.6358318  65.4589748 128.9162064  15.0675142
  65.6994295 128.9289379  15.9939325  66.1973667 129.3322849  14.6226728
  46.3699389  77.0913172   4.8353672  46.7004347  76.4574289   5.4719162
  45.6371832  76.6448927   4.4110975  14.4404471 102.2768497  80.1425322
  13.5504377 102.0505428  80.4125293  14.7504783 102.8783226  80.8195409
  57.6877069  74.0824556  24.4839764  56.8917608  73.6346817  24.1972661
  58.2179117  73.3944464  24.8861718  48.7542486  77.8089762  18.6485422
  48.6248732  77.5289202  19.5546675  49.2731285  77.1085167  18.2531250
  29.5356345  71.1007690  13.7605917  29.8071885  71.8573904  13.2409632
  29.2454505  70.4576588  13.1137264  28.8908982 134.3504524   9.9338156
  29.7576141 134.6520042  10.2060318  28.6723590 133.6566544  10.5559957
   5.1812214  96.2381744  24.7391009   6.0143805  95.8330631  24.9798679
   4.5215914  95.7244968  25.2052093  24.4833231 103.3285618  38.4939456
  24.5509601 102.4153519  38.7727094  25.3793025 103.6615181  38.5448718
  31.9056940  60.3768730   6.3880002  31.2169194  60.1219034   5.7741487
  32.1678853  59.5574856   6.8076289  12.0131242 108.6442947  20.5660224
  12.6342428 109.2945957  20.2380753  12.5484765 107.8717422  20.7471061
  65.4614067 105.6137180  13.2368696  65.7941246 104.8605251  13.7249494
  65.2418661 106.2575340  13.9103246  37.3543048  65.6117344 104.9776270
  37.0013142  66.0170221 104.1855606  37.6933622  64.7663355 104.6833905
  27.7962136 144.0154648  31.7844343  28.4669352 144.1702366  31.1192966
  27.6732254 144.8673153  32.2033119 113.4816963 108.9537716 104.7990068
 112.7897090 108.6920261 105.4063594 114.2652924 109.0233707 105.3443178
   3.1547144  67.5990915 101.6083201   3.5830125  66.8040037 101.9255372
   3.6415458  68.3135748 102.0191028 108.4465057 125.0973892  29.3657136
 108.6022002 124.6169281  28.5526037 108.4751625 126.0189724  29.1086030
  60.9151649 124.9109554  99.3409630  61.3202000 124.0913677  99.6246227
  60.3837967 124.6658993  98.5834488   9.2786056  87.0955944  14.9881899
   9.6217537  87.9865456  14.9196434   8.9273345  87.0419502  15.8769882
   4.5108512  65.1271772  13.5492325   5.2239239  65.2186298  14.1812110
   3.7536579  64.8743534  14.0774071  23.8412046  93.0346489 104.9577221
  24.3656349  93.6205864 104.4119390  23.4752417  92.3985195 104.3431988
  25.3024030 129.7549629 101.8024733  24.6935892 129.8944950 101.0771378
  24.8541021 130.1204777 102.5651398  51.9824553  73.4838533 102.5768849
  51.3001442  73.0685997 102.0493885  51.8172836  74.4223404 102.4863621
  24.8549175 139.5313072 103.4352519  25.7704663 139.8048210 103.4917071
  24.5114946 139.9996948 102.6743969   6.8930793 119.6276474   6.5768802
   6.4285767 120.4181004   6.8519443   6.4523631 119.3591690   5.7707059
  22.9399920  77.6912642  98.1544622  22.7584362  78.2473135  97.3967811
  23.6520076  77.1197462  97.8670057  28.9469647 115.3210831 105.8095627
  29.7450924 114.8106956 105.9464186  29.2523289 116.2238789 105.7203721
  57.6322412  80.4804897   6.1126900  57.4740124  79.9407482   6.8872041
  58.2180786  81.1728096   6.4188296 114.6860165  93.2804680  12.1131516
 115.0732411  94.1504478  12.2102737 115.4365153  92.6921272  12.0304680
  19.8397350 133.0956745 105.8928832  20.6916142 133.3342838 105.5273663
  19.9926484 132.2576714 106.3294532   7.8004462  95.5335712 105.0016736
   7.3145473  95.0344276 105.6581708   7.3726153  96.3897038 104.9867337
  33.2898879 102.2467709   2.7416915  34.0526390 101.6904163   2.8995135
  32.5678277 101.6320133   2.6115662  25.2113152  74.1954184 104.9075311
  25.5895114  73.3219051 104.8066392  25.6877637  74.7368526 104.2781850
  55.4126358  95.4400158   8.6977369  55.1765347  96.1892891   9.2446119
  55.2688217  94.6785831   9.2596716   9.4676417  66.2427187  15.9012258
  10.2204490  66.4516735  16.4542639   9.0852153  65.4621840  16.3021541
 116.3070489 112.1315956  33.4609413 117.0344723 112.6629162  33.1372213
 116.6991497 111.5713692  34.1307425  24.2848086  89.7199917  99.1174074
  23.8373280  88.9145184  99.3766459  24.7305250  90.0128269  99.9122759
  40.6681776  59.1154528   9.0557152  41.3483238  59.4164896   8.4532136
  40.0785065  59.8641920   9.1446722  26.1946082 136.2530327  91.6886243
  25.7556987 135.9103775  90.9100493  27.1179771 136.3016987  91.4411327
  33.2313967 104.0220451 106.3213339  32.9812360 103.5482788 105.5281162
  32.6918769 103.6357784 107.0112213  10.1443219  95.6426334  25.6204677
  10.9832311  96.0824394  25.7584262  10.3742468  94.8157024  25.1967311
  31.2263322 117.1666336  43.3430862  30.4332733 117.5135803  42.9345322
  31.2205768 116.2348366  43.1241226  35.3723168  94.5473862   4.3454286
  34.9590373  95.0667381   5.0351405  34.6684599  94.3771458   3.7194595
  49.5577097  61.2794781  98.4711572  48.8028908  61.7486572  98.8266154
  49.9857140  61.9145012  97.8968819 124.1239443 113.6575985  22.5029087
 124.9944607 114.0148735  22.3274302 123.8262974 113.3251953  21.6560650
  44.8399448  59.0243673 102.0468619  45.3904009  59.2767525 101.3055571
  45.4141760  58.4983206 102.6034250  11.1449003  79.3150139  72.6313933
  10.7058787  78.8081074  73.3144292  10.8710670  80.2183628  72.7901467
  43.9372063  95.4354572 105.8137273  44.8308802  95.5744934 105.5002674
  43.6134720  96.3141823 106.0118901   1.2807447  97.1082687   0.9644663
   0.8735453  97.0290852   0.1018252   0.6013816  96.8259525   1.5768336
 123.4104823  14.6521168  67.7937031 123.3533639  14.3101101  66.9015074
 123.3576656  15.6021862  67.6898623 124.5186054  55.6176186  14.1566360
 125.4296223  55.4322624  13.9287663 124.0226660  54.8988581  13.7646365
   9.9090046  95.1882076  95.3346738  10.7563102  95.6332397  95.3505930
   9.2832011  95.8543587  95.6189951  42.4644804  76.7418480 103.2064893
  41.7431021  76.3149548 102.7443125  42.8051710  77.3808718 102.5805380
   6.3490766 129.9184513 105.0673639   6.1844355 129.7291374 105.9910973
   6.6131175 130.8384323 105.0547844  32.0536542  62.5150490  94.5598503
  32.4007726  63.3471346  94.2383333  32.6533175  62.2603226  95.2611002
  36.7529702  60.5738020  74.1819128  36.4009643  60.3568316  75.0451907
  36.8084002  59.7330904  73.7276443  12.3032236  99.1029835   6.0060775
  12.3006415  98.9705658   6.9540721  13.1220996  99.5667839   5.8312517
  28.6593509  80.2412891  28.2058883  28.4870434  79.3910217  28.6103463
  29.5781779  80.1987076  27.9409814  30.5216384 102.4048519  35.0449586
  29.9810171 101.6625309  34.7749138  29.9357009 102.9490471  35.5710387
  20.5919170 104.1646290 107.3794430  21.3226867 103.6586094 107.7346210
  20.9910440 104.9787617 107.0726674  10.7622766 124.1874886  33.9961481
  10.5278945 124.8746586  34.6199250  11.2852335 123.5690880  34.5063663
  51.5806675  77.8674841  98.9223632  51.1096478  78.1724358  98.1468805
  51.4078760  78.5355997  99.5856842 109.1843111  93.4566879  38.6856627
 108.4352190  93.7811756  39.1854596 109.9329717  93.5794640  39.2693281
  38.9301300 108.6097908  42.8991222  39.4930148 108.9205360  42.1900177
  38.0877900 108.4376240  42.4783421  39.5021677  87.5537491   8.8575727
  38.7541509  87.5170708   9.4536930  40.2464390  87.2722244   9.3895793
  46.9027281 109.7565746 101.5372529  47.6764202 109.9079418 102.0801332
  46.1937618 109.6154404 102.1646919  14.7748125  73.5171318   8.3535457
  14.9041915  73.5474920   9.3014759  15.6338775  73.7278223   7.9876930
  17.2311485  67.7311897 100.8877596  16.6947854  68.3307505 101.4064821
  17.1911573  66.9015026 101.3634213  29.6604109  92.8041744  28.5245752
  29.2094398  91.9758320  28.3611488  30.4025269  92.5671864  29.0807486
  80.8419132 107.9964542  24.0013647  81.4253807 108.7150097  24.2452455
  80.0130749 108.2039642  24.4328690  44.5336151 102.3300266  93.2186755
  45.1995564 103.0121899  93.3047208  43.9211607 102.5016022  93.9340016
  78.8616514  93.5146236   4.8706594  79.5032167  93.3691216   4.1753513
  78.1039715  92.9905033   4.6109375  43.5252428  81.0781193 107.0831128
  43.9923763  80.3337479 106.7037179  42.8661919  81.3066196 106.4276200
  10.7936692  88.3938599 109.4210766  10.1767921  88.7581635 110.0558815
  10.5186224  88.7619686 108.5813910  56.9784737  99.0392685   6.2230045
  57.8781796  99.0731144   5.8980197  57.0127535  99.4843864   7.0697176
   5.4278570 125.9808540  28.4846950   5.9875655 125.6525421  27.7810121
   4.5850152 125.5505466  28.3408642   9.9735463 111.7738914   6.9882947
  10.3655303 111.1258507   6.4029568   9.1402328 111.9978523   6.5739721
  12.2554171  96.5224361  95.7282873  12.1523762  97.4720001  95.6656095
  12.5870991  96.3754559  96.6140732  25.2632284 122.6449013  26.9640899
  25.4166961 121.8275356  27.4380088  25.7184434 122.5274181  26.1302996
  18.0546391  73.8057470  14.1200769  18.1318772  73.9006424  13.1707287
  17.1490097  74.0489674  14.3121994  12.5977993  97.1117496  24.3211412
  13.0344152  97.9152107  24.6040916  12.3319519  97.2886562  23.4187770
 115.2799029 136.0803986  62.2536230 115.6359751 136.4257908  63.0722475
 116.0277320 135.6661415  61.8230677  15.6823421  95.2138519  96.5388473
  16.2166274  95.8823299  96.9677015  14.8491788  95.2347851  97.0096263
  21.7674446 101.3262844  -0.0232473  22.3105240 101.8522453  -0.6103240
  21.4733005 101.9426823   0.6473988   8.7527579 100.2577019  97.4315020
   9.4842112 100.8483887  97.2517713   8.0264944 100.8381844  97.6591333
  56.7225504  83.9323521 107.5128269  56.3035727  83.2446671 106.9953456
  56.0479212  84.6045971 107.6087249  29.1486359  93.9701653  22.6383638
  29.1893387  94.4230366  23.4806705  28.8305378  93.0932522  22.8530264
 115.4301549  68.0989075  12.6748312 115.7086254  67.1979666  12.5105524
 114.5482368  68.1480408  12.3059964 115.3014380  84.2466736  50.9959412
 115.2308483  85.1506519  51.3026476 114.4000954  83.9245129  50.9905100
  42.5357533 114.7295952   2.1951081  43.1529713 115.4251575   1.9682521
  42.0721388 114.5449734   1.3782775  48.7095308  88.7382030  98.2690450
  49.5866203  88.9352512  97.9402276  48.6984921  89.1015148  99.1545483
  25.2955484 132.8958511  33.8916731  25.6545424 132.9390717  34.7779512
  25.4607487 133.7639332  33.5237432 121.5504909 108.3033276  14.3921232
 122.3724762 108.6854458  14.0846169 121.7310820 107.3654175  14.4549334
  41.3561344  28.2388067  53.0524158  41.8557453  28.6109543  52.3256969
  40.4459476  28.2691526  52.7576876  26.8015146 120.7348633  86.9224962
  26.1844563 120.6920528  86.1919888  27.4787807 121.3440704  86.6285475
  31.6522861 104.2564011   4.2390296  32.4906397 104.0779972   4.6651360
  31.6598916 103.7063122   3.4557194  15.6277895  77.9836845   4.0674496
  14.9055266  78.4519911   3.6488166  16.1224771  78.6646175   4.5233482
  48.1312513 108.6769104  23.4295511  48.2879591 109.5826530  23.1625128
  48.5666704 108.1507301  22.7588987  26.4429927   9.8276406  75.8603057
  25.5225492   9.9708062  75.6400403  26.7534757  10.6823235  76.1592253
  24.6988201  76.5943623  82.0825871  24.1156960  77.2679710  82.4325093
  24.3429017  76.3958263  81.2164839   0.1653570 110.4386330   1.9522169
  -0.2268265 110.8646107   1.1900055   0.9062616 110.9983635   2.1845952
   7.9266047  81.2721157 104.4705703   6.9744515  81.1957073 104.4089457
   8.0950129  82.2131348 104.4219937  12.5059760 108.2388306  25.5626965
  12.3492873 108.8016415  26.3209367  13.4594107 108.1832027  25.4986572
  45.1611519  70.4868603  14.9392676  45.8568192  70.9174919  15.4360974
  44.5034647  71.1696243  14.8069346  44.0573072  77.9428196  97.5836774
  44.8807573  78.2500362  97.2044953  43.6464834  77.4345398  96.8843170
  49.6074677  99.4032001  92.0763692  49.0889359  99.2760658  92.8708442
  50.5086756  99.4833660  92.3888274  29.4114733  74.2665339  83.4734234
  28.5180068  74.5501947  83.6670312  29.5782566  73.5587692  84.0959080
  16.8012106  92.7994347  40.9526443  17.5928283  92.5147629  40.4959917
  17.1046817  93.0480957  41.8257475  66.5296793 115.2677441  25.6485105
  66.3937807 115.6240463  26.5264702  67.4349928 115.4942417  25.4355931
  77.0092344 103.3550930  30.0332594  77.5248528 104.0690422  30.4082966
  76.1020422 103.6522579  30.1035118  17.8000188 135.9669781  60.0475121
  17.3883128 136.6939831  60.5146360  17.8462696 135.2624989  60.6938839
  35.8594608 141.4172554 103.6100748  36.3167691 141.6571808 104.4160154
  35.9159398 140.4622650 103.5778561   1.1675678  73.9309740 102.3206165
   1.3064907  73.2684326 101.6438820   1.7747992  73.6898136 103.0201479
  43.1437778  66.9456148  32.7441454  42.2615099  66.8992472  32.3757863
  43.1331491  66.3222361  33.4704494  39.8856401 134.7185040  32.2591615
  39.5716619 135.6111431  32.1147966  39.7389650 134.2749596  31.4237022
  59.3994951  85.5552959  42.6396370  59.9539566  84.7765923  42.6888657
  59.9929237  86.2549973  42.3667336  10.7199168 100.9652901   4.5952365
  11.2640572 100.3275299   5.0571942  10.9129810 100.8187485   3.6692327
  12.0466661  72.7095938   8.7290430  12.0682418  71.7711449   8.5417575
  12.9447734  73.0045605   8.5786092  17.7912128  86.9828796  50.1837587
  18.2156539  86.1311150  50.2866793  17.8146636  87.1498680  49.2415333
  34.4292164  82.0841217   2.0818798  35.3139043  81.9380188   2.4168669
  33.9538622  81.2834549   2.3036830  31.3504744 116.0271263  96.6264340
  32.0701122 116.1265087  97.2497138  31.3076735 116.8694210  96.1737212
  26.4880466   2.8111630   9.5303553  27.2278500   3.2313423   9.0917581
  25.7606196   3.4217720   9.4110638   4.0856600  82.5381374  65.8359003
   3.2284063  82.9555607  65.9201860   4.3864134  82.4245071  66.7374897
  28.4105563 103.8214970  19.2973804  28.0482626 103.1915951  19.9204373
  29.3588686 103.7417316  19.4001997  47.8281641  77.0778322  10.5191922
  48.1888771  77.2652769  11.3857865  47.6163292  76.1447144  10.5446458
  45.8358860 106.9564629  57.2584248  44.9459028 106.6805649  57.0392513
  46.0861015 107.5456333  56.5467358  62.1706963 122.0739174  59.6474370
  61.9240284 121.4310837  58.9824923  63.0187511 122.4077511  59.3548878
  26.0504103  76.7545700  21.6187048  26.9822526  76.9136524  21.7690229
  25.9586596  76.7511749  20.6659174   6.3403660  93.0093575  32.5345612
   5.4663247  93.2021618  32.1952820   6.3555187  93.4146690  33.4015846
   4.6703431  78.4496021   7.0415568   4.0104580  78.4284115   6.3484955
   5.4920954  78.2430649   6.5962511  61.4089346  63.7313604   3.2735410
  60.5796480  63.9300442   2.8387517  61.9525146  63.3444166   2.5872266
  15.7301605  94.6469307  24.2774630  16.2245965  94.0823746  23.6832857
  16.2556529  94.6716118  25.0771379   9.7538078  95.2642441  10.1532304
  10.4006672  94.5623589  10.0813580   8.9821398  94.8411560  10.5297351
  45.3533268  90.0166702 101.4699897  46.1744070  90.1724911 101.9366553
  45.6129742  89.5420074 100.6803640  27.7179837  89.2348099   2.6679698
  28.2275891  89.0822887   1.8721849  27.6882148  90.1876354   2.7543890
  12.1144485  50.9538174 106.2804403  12.3117125  51.7193413 105.7407262
  11.1675239  50.9930086 106.4147114  22.5624824  89.6438503   7.1523273
  22.4121809  89.3157768   6.2657547  21.7128491  89.9882793   7.4275047
  60.4740667  81.8076229  12.4431694  60.1284742  82.1267414  13.2768118
  61.3139105  81.4079380  12.6693237  22.5058746 109.1848278 101.8131974
  23.2330084 109.8005581 101.9048222  22.3904610 109.0894699 100.8677783
  18.3789968 116.2597466  24.8673964  19.2236960 116.5019417  24.4878483
  18.4205961 115.3076077  24.9564338  63.9689922  74.2932701  98.9166852
  63.5087299  73.9877462  99.6983799  63.7150288  75.2123737  98.8330969
  39.6060777 132.5188351   0.5332483  40.4227161 132.0475960   0.3681430
  38.9421248 132.0223904   0.0547780  28.6437583  71.5471458  89.4518360
  28.2463956  72.4028301  89.2901715  28.7535524  71.1656475  88.5808405
 116.2756152 128.0713749   4.9671298 115.4209489 128.4623337   5.1486009
 116.7553223 128.7524700   4.4957209  13.8108230 113.1447315   9.3791676
  13.7652671 114.0726757   9.1487759  14.5762777 113.0769539   9.9498844
 120.4122455  68.0584383   2.2692177 120.8113036  68.5986519   2.9512370
 119.7321401  68.6151409   1.8900491  17.9906332 122.3876953 107.6993578
  17.2657180 122.7981091 108.1708326  17.6010358 122.0819187 106.8802454
  33.9620304 128.3288956 106.1343246  33.7135339 127.7548504 106.8588620
  33.3634996 128.0928516 105.4256081  47.3364973  54.2183685  41.2741613
  47.7343464  54.0210629  42.1221113  46.8827963  55.0501633  41.4102077
  20.9407926  94.9302101  89.6504792  21.5881777  95.1141071  90.3311452
  20.2486658  95.5747890  89.7977968  27.3419285  93.7905025  87.3539456
  26.7242455  94.5178413  87.4293407  28.1786180  94.2072201  87.1477278
  20.5480909  76.5506697  25.6286979  20.0440931  77.3635149  25.5899644
  20.5938196  76.2536669  24.7198892 121.6381503  70.7014799  13.5821819
 121.6679174  70.9656525  12.6626396 121.2285245  71.4412212  14.0307593
  30.9257293  95.5988884 106.3754082  30.0105476  95.8542728 106.4914036
  30.8837128  94.7054005 106.0346031  34.8757386  49.9281693  93.7809849
  34.2281437  49.2530251  93.9835548  35.7191372  49.5126390  93.9605618
 118.2790352  90.6050491  89.1756153 118.4118605  90.1427841  88.3480263
 119.1353769  90.5824566  89.6026993 106.7453510  87.4341869  83.7648582
 107.1759624  87.0650005  84.5359039 107.4578840  87.8164959  83.2526398
  46.2803221 104.9094296 107.7029991  47.0735884 105.2805233 107.3166656
  46.4365530 104.9403095 108.6468601  21.0967708  87.9104710  58.4640169
  21.2341261  88.6495113  59.0566254  21.7641449  88.0194664  57.7865505
  16.0168970 119.9727345 103.0459881  16.7948997 120.3629684 102.6476574
  16.2819016 119.0790749 103.2636547  23.5923576  82.5276279  78.6766529
  23.9573240  82.4270058  77.7974987  24.3065977  82.2771263  79.2626047
  12.2947919  97.9380226   3.6302224  12.4758208  98.6678505   3.0379239
  12.3252964  98.3260345   4.5047227   2.6739475  63.1216145   6.8165246
   2.0911962  63.7717581   7.2088758   2.7506030  63.3902168   5.9009782
  60.6272411 105.0969505 101.4181423  60.8427382 105.6018925 100.6340313
  60.9352446 105.6391621 102.1443462  14.5416975  70.7481527 104.9448013
  15.3376055  71.2187624 104.6972275  14.3128335  71.1004972 105.8048630
  43.4931183 104.3017197  19.7604886  43.3315754 103.5780907  20.3658716
  44.2828417 104.0442657  19.2847863  51.0332298  76.4953947  10.3110639
  51.9696045  76.3078356  10.2458612  50.7488871  76.6132641   9.4047109
 100.7815499 117.6428890  23.3466474 101.1100501 117.6641273  24.2454664
 100.0420303 117.0358753  23.3762018  26.8622065  35.5051899  11.6859285
  26.0952568  34.9391174  11.5988389  26.5035224  36.3922882  11.7110673
  25.7645893 105.4792500  24.7577897  26.0340452 106.1280823  25.4079000
  24.9236298 105.1536179  25.0786916  41.7821646  56.4658451  77.8929234
  41.8779182  56.9096947  78.7355709  42.0180035  55.5558681  78.0733681
  18.1764102  73.6016321 102.3495960  18.8383996  73.0934477 102.8183746
  18.6343896  74.3960285 102.0749760 121.7001102 100.1849747  99.5319843
 121.3244641 100.8543015  98.9600277 121.1920384 100.2484035 100.3407288
  29.9375200  95.0472260 100.4800701  30.3427672  94.2412186 100.1601315
  30.6752133  95.6015587 100.7345390  17.0078397 127.4319458   0.4416601
  16.3504970 127.0018673   0.9886209  17.5608552 126.7175388   0.1253835
  28.8112831  89.2992210  98.0554581  28.2351828  88.5737228  98.2962704
  28.4285259  89.6526146  97.2524357  36.3606238  68.7347984  91.2938213
  37.1490645  69.1796112  90.9827900  36.2409973  68.0058098  90.6851292
  47.8475046  58.6286926 109.6225071  47.2360373  59.0988255 109.0556622
  48.6020136  59.2129135 109.6975994  18.1581652  65.5363655  88.3391762
  17.4392152  66.1602688  88.4396267  18.8521171  65.8777666  88.9031792
  12.3034978  93.4834862  28.7384549  12.3306286  93.7491035  29.6576635
  12.4387908  94.2956924  28.2503549  17.6275170  57.1412182  95.6497669
  18.1620193  57.5067568  96.3546944  17.7795756  57.7249479  94.9065495
   2.8413504  95.1295662  81.0202026   2.6089752  95.5630684  81.8413734
   3.0037072  94.2192364  81.2675381   7.3348546  84.9372196  42.2689819
   6.4602613  85.2410030  42.5119448   7.6740545  85.6210232  41.6914082
  11.6506588 102.8343582  57.9554987  12.5381553 103.1820774  57.8678989
  11.0836732 103.6009502  57.8712320  13.5177004 105.0106239  78.1744480
  13.0295432 105.6235409  77.6246643  13.1859899 105.1656818  79.0588427
  11.9785666  93.4489155   9.6616498  11.6234422  92.9561234  10.4014341
  11.5585577  93.0629253   8.8929979  47.4068069  78.8008642   8.5420076
  46.5148783  78.8279247   8.1956521  47.3720551  78.1494808   9.2425290
   4.2583433  88.5077095   7.5604478   3.9831996  89.1192627   6.8774072
   3.8367105  88.8319683   8.3562604  50.9652710  84.6692181  96.9862080
  51.5628672  85.2606964  97.4436474  50.1074457  85.0862789  97.0664024
  37.4176455  80.7360744  96.2063980  36.9277382  79.9468946  96.4375114
  38.2997561  80.4211807  96.0090256  64.5902300  89.5718575   0.5598108
  64.1000557  89.5600414  -0.2622660  64.3937254  88.7286472   0.9679834
  40.9595156  68.4982014  25.3077833  40.6115723  69.2133808  25.8404104
  41.8083286  68.8181639  25.0022165  15.1596332  51.8056059  98.2210922
  16.0073376  51.6882849  98.6498928  15.3778493  52.0688438  97.3270512
  53.9407873  65.3211164   9.6756879  54.6876621  65.5812836   9.1364995
  53.1909466  65.3624821   9.0821782  11.5960610  97.4892044  10.6559697
  11.2136757  96.7161083  10.2408449  12.0873761  97.9187489   9.9557344
   5.1631093  87.0750046  32.9949514   4.5251235  87.0969868  32.2817079
   5.4952377  86.1772728  32.9916326  25.2649570  87.0295334   0.6670610
  25.3811145  86.2538624   0.1183549  25.3308749  86.7007446   1.5636007
  55.6754398  92.4992275  94.6445179  55.5170822  93.0010128  93.8449192
  56.3556576  92.9906940  95.1049519  25.6810784 114.8604774  17.8527490
  25.0580263 114.1977024  18.1506769  26.4303970 114.7663498  18.4408799
   9.8846936  75.0735855  55.5167627  10.4077625  75.7604837  55.1034784
   9.5813555  74.5322895  54.7879171  53.1954527  60.2433634  10.9464113
  53.2942486  60.3233862   9.9976960  54.0763426  60.0431061  11.2629072
  46.5113926 144.5361614   2.5075094  45.9119177 144.6002960   3.2509748
  46.4220762 143.6323929   2.2050897  18.6082041  94.4226456  75.6824303
  17.7647543  94.0127182  75.8742189  18.9695632  94.6403885  76.5416336
  20.8202076 116.4046097 107.6989174  21.4079142 115.6814003 107.9175377
  21.4007974 117.1548653 107.5713730   3.3491474  89.7145176  69.7012424
   2.6320708  89.2691994  70.1525974   3.0188730  89.8631096  68.8151979
  16.4753473 103.1770706   7.0716802  17.4236012 103.1761360   6.9411126
  16.2064540 104.0729237   6.8682519  17.3161888  99.2111492   0.5685273
  17.7220750  98.3628273   0.7469693  17.6438475  99.7840118   1.2618581
 118.3339370  84.9237347  83.7384701 119.2600662  85.1138496  83.5889053
 118.0233944  84.5736599  82.9034615  16.3065767 103.4902191  97.2929668
  16.9811308 103.0822086  97.8358650  16.1793840 104.3564987  97.6797676
  46.6341877  63.9597988   4.1142980  47.4108982  63.6988878   3.6194459
  45.9815884  63.2913351   3.9057294  15.0576246  56.4104509  80.3832340
  15.0854516  57.2846079  79.9942589  14.8063397  56.5616274  81.2944031
  24.9406528  68.5005713  12.5227014  25.4912686  67.7207327  12.5927297
  24.3555713  68.3154917  11.7880956   8.8311535  85.8893490   9.8389474
   8.2324618  85.8398056  10.5841676   8.3224005  85.5548859   9.1003457
  36.0011959  67.5904417  50.3859083  35.8549809  66.6457462  50.4349462
  35.9514356  67.8879833  51.2943403   0.8070035  80.2301979 105.8663654
   1.7263564  80.4296017 105.6895542   0.7295774  80.2821541 106.8190098
  75.1763058  71.3309526 102.4663734  74.4652367  70.8298016 102.8656960
  75.7984352  70.6676722 102.1676445  24.4547701  87.3715305 103.7075996
  24.8359084  86.7043781 104.2784500  25.0810289  87.4579716 102.9888725
  20.7756138 117.3799610  18.2128946  21.1752486 116.5493393  17.9548494
  19.8880482 117.1448898  18.4834520 102.2931713  80.2228642  13.4976236
 102.4768395  80.0532818  12.5736467 102.4800057  79.3923473  13.9353219
  20.5044794 106.9306660  28.3171693  19.7037804 106.5949726  27.9141561
  20.1976156 107.4753952  29.0419713  31.7371917  90.8433437  70.5368900
  30.9416413  90.6437492  70.0434399  32.0111203  90.0013161  70.9004593
  26.8285441  91.5270138  86.1808109  27.2292876  92.1823025  86.7519855
  26.1226130  91.9963551  85.7362747 109.2414469 112.8648853  95.2852535
 109.9479050 112.9214382  95.9286404 109.1105802 111.9256401  95.1551723
  44.2116690  25.7992625 106.3573551  43.3459044  26.2074971 106.3628769
  44.7991562  26.4791203 106.6873264   5.7532382  86.6276741  93.1574345
   6.2923795  87.2961140  93.5802078   4.9677509  86.5739250  93.7018204
  52.0605946  80.5923939   1.7753068  51.9402122  80.4506397   2.7142659
  51.2400293  80.9915447   1.4862005  18.9149368  97.5996685  86.9328117
  18.2018042  97.8190041  86.3331699  18.9195883  96.6428566  86.9596291
  48.7968588  70.6964874   4.4889394  47.9771852  70.5474615   4.0176050
  49.3843317  71.0740900   3.8343278  11.7120636  85.6598663  20.8717481
  11.9420171  85.2624512  21.7116395  12.5070822  86.1169243  20.5973855
  54.0836477  50.7674932  23.0794183  54.4247150  51.3835955  23.7277356
  54.1787910  51.2229586  22.2429124 117.5203521  45.0202274  99.0493202
 117.3082638  44.6278191  98.2024002 116.9641984  45.7976913  99.0990639
  33.2477784  91.3786507  60.1956940  33.3262610  92.2953224  59.9315262
  34.1509914  91.0657787  60.2462101  26.7093754  71.9066525 108.7501240
  26.8769455  71.0282850 109.0916157  27.2967792  71.9875813 107.9986954
   5.8518702 108.3977509  87.1218300   5.8077306 108.2122421  88.0598450
   4.9617347 108.6603642  86.8874645  17.2619140  73.8324785  83.4987259
  17.4441373  74.1915989  84.3670940  17.9524171  73.1847525  83.3576870
  43.7500381  72.4702120 107.8503990  43.6082411  72.3846960 106.9076252
  42.8690004  72.5080633 108.2226467  13.6081254  58.2148838  74.7744799
  13.5207021  58.9193106  74.1323185  12.7079320  58.0022621  75.0208092
 114.7523082  83.5665131 108.4497929 114.2214543  82.9027557 108.8900948
 115.3791518  83.8516045 109.1146469  14.2812550 101.6410446  96.4119148
  13.5655522 102.2559357  96.2509441  14.8669553 102.1062756  97.0091915
  27.5009990  71.5839434   8.3785764  27.3989940  71.2812710   9.2809240
  26.6516638  71.9654179   8.1564561  27.6167345  91.0904408  78.7203217
  28.2976770  91.0583687  78.0483723  27.6955318  90.2552223  79.1812277
  15.0367939 104.7073650  81.7596912  14.3620849 104.9757862  82.3833466
  14.6686566 104.9203205  80.9021568 112.5982518  76.0592270  95.4247189
 112.4232203  75.9127378  94.4951344 113.3433897  75.4912090  95.6205559
  19.5575070  66.9960213  93.1516743  20.3425074  67.5015736  92.9409122
  18.8539517  67.6446390  93.1748390  18.7460399  91.7114639  13.2645360
  19.0333748  90.8613586  13.5976831  18.2397413  92.0914078  13.9825383
  44.5920753  98.2144451  99.4702816  44.5547533  97.6715279 100.2577305
  43.7340260  98.6367416  99.4296265  14.9237895  77.8341532  82.2166157
  14.4424367  77.9574490  81.3984966  14.5758402  78.5061073  82.8028297
  27.2760177  66.9234800  82.8886223  27.1618199  65.9731436  82.8815269
  26.5237236  67.2514486  83.3812904  22.6872444 107.9736042  73.7709236
  23.3383703 108.6739922  73.8123560  22.0192862 108.2296181  74.4069433
  22.7684164  76.7084599 106.2253571  22.3295259  77.5319099 106.4387512
  22.1122408  76.2052584 105.7432175  13.7285364  93.7984180  75.9708595
  13.9460480  93.7637520  75.0393486  13.5681021  94.7258759  76.1450005
  41.0640621  55.2039433   8.2427064  40.2978706  55.7532787   8.4082738
  40.7879305  54.3241119   8.4993688  42.4829292 113.3731461 100.6264019
  42.5543547 114.2971516 100.8658600  42.7953529 112.9008770 101.3981438
  47.0403433  90.4530907  91.1675835  46.8635511  90.6396675  90.2455425
  46.9134712  91.2921906  91.6103458  22.0875120  73.3363104  84.0850067
  22.9753637  73.4876299  84.4091320  21.7408109  74.2127848  83.9181900
 121.9042099  86.4941406  98.2141590 122.3946405  86.2343216  98.9940357
 121.2784288  85.7829666  98.0767918  28.8930297  86.0224438  49.0087461
  28.7973189  86.9747448  48.9943743  28.6769414  85.7465363  48.1180096
  38.2767582 113.5918045  20.9888879  38.1433415 113.0435085  21.7620698
  38.7572813 113.0324268  20.3786126  43.7487125 110.7749844 107.3674679
  43.3400106 110.8609676 108.2287407  44.2052460 109.9343681 107.4018478
  13.2421601  82.3324108   2.7342931  13.7513483  83.0512714   2.3598615
  12.4090505  82.3584747   2.2636834  11.4792848  75.4612827  35.9826795
  12.3943496  75.3377533  36.2349263  11.0196292  74.7209454  36.3787214
  11.3011801  78.2159328  94.9394321  11.2616718  78.2586575  95.8948612
  10.4871106  77.7812862  94.6852589   6.6437668  67.4106073  79.9601126
   7.0369852  67.6408148  80.8019066   6.5045261  66.4649773  80.0114059
   0.4067298  71.1989784 104.0317249  -0.0315380  70.6903076 103.3495140
   1.2915701  71.3393259 103.6946869  32.9713345  83.6078835  92.1427631
  33.0079007  83.1948090  93.0054760  33.8881135  83.7413406  91.9020653
  18.6398029  63.6300611   1.0021249  18.7425196  64.5794773   1.0676233
  19.0705383  63.3987522   0.1792089  25.9457755  98.4766960   2.3714486
  25.5612540  98.0358028   3.1290761  26.8452215  98.6684132   2.6369134
  21.1907363  58.9554882  93.1068707  20.6179667  59.1000843  92.3537064
  21.3784504  59.8340607  93.4371853  55.4757738  76.7321825   7.1647588
  55.5195427  77.1950626   6.3280717  56.3671923  76.7775631   7.5105134
   3.1368363 116.8961525 103.0813789   3.1741965 116.8469715 104.0365887
   3.9747033 117.2838306 102.8285599  13.5018539 110.9554100   6.7864076
  13.3571553 111.8961239   6.8881646  12.8996432 110.5514812   7.4112359
  28.5805202  69.2839813  76.6091585  28.9516258  69.8113155  77.3165655
  28.6121774  68.3856440  76.9381285  47.3226404  94.3842888  67.7590227
  47.9881382  93.7357330  67.9886007  46.4905405  93.9520645  67.9514170
  13.2294798  67.2640133  86.4163303  12.8287697  67.4789381  85.5740261
  13.3440161  68.1097126  86.8498135  34.4498348  48.3642054  86.3868237
  34.1640997  48.0372334  85.5337811  34.8320556  49.2214394  86.1989689
  24.3125296  44.6182966  94.6699905  23.3603549  44.6793365  94.5933914
  24.6376061  45.4205608  94.2614269  15.9032536  68.6471128  74.8276949
  16.5724957  67.9709816  74.9334860  16.3830328  69.4109726  74.5074415
  68.1894350  83.2906532  97.1022511  67.4883366  83.2111263  97.7490616
  68.1230354  82.4927235  96.5777206  15.0855017  97.0969296  16.9111005
  14.5547605  96.4772701  17.4116746  15.7204151  97.4337769  17.5432817
  31.9792366 102.5097656  94.4217110  31.5648150 102.8636265  95.2086544
  32.9182959 102.5789833  94.5937920  42.2022152 117.2446632  22.1712343
  41.3077736 116.9184875  22.0721666  42.2208881 117.6302910  23.0471269
 119.2555845 106.3322735  44.9032927 120.0177849 106.8975449  44.7777939
 118.9071143 106.5862942  45.7578516  33.4797096  82.8880692  80.8426285
  32.6016903  83.0502796  81.1876011  33.3956647  82.0733929  80.3471851
   0.5236331  70.7190275  93.5963249   0.1376486  71.2365007  94.3030548
   0.5016412  71.2990665  92.8352070  48.6521864  35.3655744  80.5039883
  48.9882660  35.5499530  79.6268988  48.0221224  36.0664749  80.6712914
  25.9824467  42.6257277  82.3099613  25.4622579  43.1382942  82.9287624
  25.6115746  41.7445803  82.3575783  36.5267611  76.8953085  21.2130681
  36.1237359  76.0613346  21.4545003  37.2581339  76.6524076  20.6453267
  42.1630812  47.5612307  13.8379899  41.3224173  47.9940128  13.9870588
  41.9857359  46.9259262  13.1443349  37.2221112  92.7264309  56.2082624
  37.3327994  93.6757660  56.2605429  36.6073370  92.5178719  56.9116783
  43.9790630  55.2632570  14.3366185  44.7514391  54.7423267  14.5564023
  44.3258810  56.0146141  13.8555662  31.6405201  63.6800575  11.1722890
  32.2419620  63.3576059  10.5010740  30.8312321  63.8696671  10.6975881
  36.7795610  88.0536938 104.0982056  35.8881569  88.2179165 103.7905407
  37.1699286  88.9241219 104.1769600  38.9302063  88.4485817  80.2436256
  39.1888309  89.1633701  79.6618938  38.5525966  87.7899837  79.6606159
  18.1253707  67.1102715  64.3901968  18.6801553  66.3302994  64.3806458
  18.3523417  67.5556469  65.2065039  35.2185273  87.5516129  26.7597810
  34.8354959  88.3735466  26.4532987  34.6258569  87.2538376  27.4499265
   7.2245157  46.5303278 101.9806862   7.0272809  47.4659443 102.0249081
   7.1859139  46.2341642 102.8900909  41.4696407  37.5417018  25.6513730
  40.5181170  37.4389267  25.6349984  41.6617632  38.1122231  24.9071828
  59.7089577  96.1458969  10.2182237  59.2240524  96.2264061  11.0395757
  59.0360880  96.1814785   9.5383588   3.4485996  75.4324198 106.2681007
   3.0060309  75.2824593 107.1034908   3.9221901  76.2549400 106.3922119
 122.1156845  77.7179813 103.9877224 122.9910571  77.8092861 104.3640423
 122.2246010  77.0838881 103.2789993  46.0657406  58.8558722  75.0550699
  45.9415531  58.3465672  74.2541838  45.8297253  59.7503233  74.8091221
 123.2314523 111.0411930  75.1282072 122.2769418 111.1128998  75.1281071
 123.5387123 111.9338703  74.9702358 117.8222770  61.8995380  80.2192879
 117.5969834  62.0402002  79.2996788 116.9789965  61.8758440  80.6715584
  57.0701075  73.8975048 106.0203934  57.5409365  73.4053373 106.6929436
  56.9143009  74.7550344 106.4161301  18.7299550  90.4092216  78.7011576
  19.4022095  89.8032856  79.0128469  18.9676261  90.5827332  77.7903128
  22.0622802  95.6293201 105.8028793  21.8117332  94.8254585 106.2581444
  22.7035928  96.0421848 106.3812256  19.7025144  78.3116102  78.6935616
  19.1952705  77.7022839  79.2298937  19.0477419  78.7672997  78.1645441
  21.7419267  91.4566517 102.7190971  21.5256906  91.0616875 101.8744183
  22.3434567  90.8341503 103.1276035  58.1961012  67.2407389  80.7305145
  57.9333925  66.3348532  80.8935642  57.7619791  67.7437353  81.4195442
  15.4319334  76.0099888  15.6822053  16.1547422  76.1711693  16.2886659
  14.6739101  75.8606672  16.2473050 117.4493689 106.3451576  88.1927490
 116.7049796 106.7431831  88.6440754 117.9124803 107.0836735  87.7973175
  42.3044586  83.1814957 108.9078903  42.9802084  82.8042316 108.3446312
  41.8558836  83.8175583 108.3507156  21.9556618 100.9644413  88.7652588
  21.1633945 100.4670811  88.5623360  22.4646592 100.3837872  89.3309402
  21.7219543  96.5573406  91.9611454  20.7971764  96.3111401  91.9811821
  21.7412639  97.4450874  92.3186016  16.6358852  83.3918953  70.7419348
  16.1362493  82.5968361  70.5562210  17.0632625  83.2158756  71.5801477
 118.7667663  83.1449413   5.4988710 119.1038955  83.6965466   4.7929612
 119.5425195  82.7133656   5.8568899  52.5195599  99.1180706  19.1851846
  53.2083416  98.8288784  19.7836629  51.9739389  98.3424187  19.0552369
  29.7130847  85.2191257  76.0999537  28.9792871  85.3407955  76.7024231
  29.8461556  86.0818672  75.7072639  48.1916380  77.1191978 104.3656254
  47.6597738  77.1679878 103.5712910  47.6083279  76.7370844 105.0213432
   6.7033488  73.5194921 102.2883701   7.2208577  73.9560556 102.9650021
   6.9375587  72.5947332 102.3670673  32.4457288  80.2243710   1.9745771
  32.0183420  79.6181822   1.3695184  31.8625832  80.2567577   2.7329484
 117.0222259  96.3268757 109.4093227 117.3887253  95.5832481 108.9308643
 116.6645790  96.8968964 108.7285900   6.5194505  73.2348537  55.8361769
   6.3084704  72.8147316  55.0023842   7.2863036  73.7748718  55.6449986
  35.0623918  66.0047770  13.8538400  35.3339672  66.0890770  12.9398576
  35.4767013  66.7457056  14.2961255 114.0789647  53.0720377   0.9480993
 113.6929864  53.7135220   0.3516427 114.7255058  53.5693741   1.4489690
  43.4855175  79.3417692  76.9714785  44.2442226  79.2096376  76.4030266
  42.9577112  79.9987745  76.5176201  59.1145039 109.2273712  13.4352437
  58.3265924 109.7702694  13.4613935  59.5867825 109.5279121  12.6588003
  33.6558461  36.2091756   7.4666444  33.1602454  35.8831239   8.2178441
  33.9428210  37.0834661   7.7302591  52.2623348  52.4485922  81.5305710
  52.2683668  51.4915514  81.5141869  52.2577333  52.6721764  82.4612808
  23.3110094  83.4655571   1.7478792  22.5876713  83.9916134   1.4068929
  24.0529871  83.6846161   1.1842195  16.4451230  78.0060768  11.7235223
  17.3783827  78.0795527  11.9231645  16.3261068  78.5371447  10.9360925
  22.7233338  86.2224293   7.7249566  23.3357239  85.5876637   7.3530904
  22.1879053  85.7114506   8.3319513   7.1963543  75.5258512  86.5580559
   6.3606083  75.7456732  86.9696903   7.0546818  74.6597195  86.1759949
  28.7743092   4.1468096 108.4043598  29.1916108   4.8292735 108.9300346
  27.8908300   4.4769570 108.2409477  35.2327728  94.3141365  96.7640686
  35.4763222  95.0396729  96.1891651  35.9609580  93.6970043  96.6925144
   2.9419938  67.1421957  11.8374864   2.4092820  66.8955755  12.5935499
   3.7402508  66.6215944  11.9268838  13.6035407  86.3409138  16.9538060
  13.1722689  86.2927055  16.1006204  13.4166467  85.4968262  17.3646776
  13.6211479  72.5373363 107.8987312  13.3534479  73.1373787 107.2026634
  12.8574228  72.4806643 108.4729671 106.2485141  66.7893887 108.2534409
 105.7732553  67.0190096 109.0519619 105.5791325  66.4297724 107.6713467
  40.1944542  89.7546482 101.3604259  39.4781137  89.9089718 100.7445717
  40.9556580  89.5862007 100.8050728  27.4426222  96.2548733  14.6124879
  27.0153046  95.5803108  14.0846578  28.2198167  96.4965916  14.1087285
  23.2605314  67.7315521  10.4324571  22.6407313  67.1800184  10.9098378
  22.7425861  68.4857321  10.1510755  29.1892743  79.4507885   9.2949716
  29.5592713  79.1915560  10.1388589  29.8717237  79.9845552   8.8880483
  34.5747709  94.5829773 103.8921070  35.3194880  94.5529175 104.4927120
  34.9589014  94.8108482 103.0454922 115.5711198  85.6709671  99.7838879
 115.3447658  86.6009235  99.7706127 114.7802210  85.2364922 100.1031685
  31.1080217  62.4304914 109.1508389  31.8486667  62.7664185 109.6556473
  30.3372955  62.8008032 109.5810509  63.4407663 104.6815681  21.9536058
  62.7400303 104.6183872  21.3046018  64.0639830 105.3008366  21.5736715
   3.5927472  37.8660774  96.9292164   3.2942459  38.7435937  97.1681595
   3.2274404  37.7180672  96.0569382 115.2828527 104.5329285  62.5800848
 114.6144027 104.8961735  61.9991684 115.2466113 103.5888863  62.4261427
   8.9242047  90.0185299   1.1416475   8.6039346  90.7035065   1.7285577
   8.5426986  90.2345181   0.2907506  13.6866212 105.1212978  86.5725899
  13.0129051 105.1845360  85.8955860  14.3608308 105.7429695  86.2983704
 115.4029543  89.4335461  19.9681798 114.8127866  88.7846851  19.5848886
 115.6699956  89.9804211  19.2293683  15.4616809  70.5590963  50.3551626
  15.0823092  70.1999331  51.1572313  16.2595451  71.0015202  50.6448269
  40.5016041  69.8429298  93.7901592  40.0473261  70.3224659  94.4829082
  40.0553465  68.9969730  93.7521553  43.7242937  66.4595413 105.6016350
  44.1030216  67.2776699 105.9232807  42.8219509  66.4715433 105.9207916
 116.9773400  40.7323217 108.8592052 117.0599300  40.9614277 107.9335022
 117.8743846  40.7546902 109.1924381  19.0976191 126.8201733  13.3622495
  19.1288304 126.1112881  14.0047017  19.4549131 127.5783348  13.8246003
  24.2453432  73.6072445   9.5152704  23.8315034  74.4491386   9.3250409
  24.4734073  73.2528448   8.6558477   8.7589002  54.7522688  76.0980177
   8.1316954  54.1381264  76.4796972   8.7828052  55.4842186  76.7143822
  35.2870345 114.8102570   2.2515718  34.5058584 114.3354797   2.5354520
  35.9828830 114.4921112   2.8267328   3.0793232  72.3920822  74.5874166
   3.4000474  73.2937241  74.5673752   2.2295198  72.4498034  75.0241470
  41.3468599  87.4974823  85.3808975  41.6581154  87.8599167  86.2103558
  40.9671164  88.2456112  84.9201012  26.4204383 112.9863834  67.0156908
  26.1599541 112.9494286  67.9360247  27.2980452 113.3682537  67.0303106
   4.8142430  83.2485676  51.9470263   3.9451241  83.6446095  51.8836641
   5.3502792  83.7473965  51.3305283   5.6024319  46.5969181  87.4580765
   5.9493256  46.5347385  88.3480358   5.6727368  47.5258064  87.2379684
 114.1940922  48.9078236  53.9378738 114.7533614  48.4649229  54.5760679
 113.3635110  48.4336948  53.9774609   4.6788040  35.2046442  90.2662659
   4.2732835  36.0659242  90.1663399   5.4929900  35.3766823  90.7392693
  67.9767704  75.9612370 100.9453773  68.8921881  75.6997585 100.8459949
  67.4784851  75.2388191 100.5631924   8.2138973  68.1797457  89.5578671
   7.3172492  68.2537460  89.2310905   8.7592345  68.2202721  88.7722492
  25.5402207  95.1437378 103.8402081  26.2983823  95.6142712 103.4937668
  24.9326444  95.8330059 104.1085052  24.3393445 116.7263222  97.3386860
  24.9930930 116.0336590  97.4339485  23.7525487 116.4090633  96.6522121
   8.8789266 109.2432022  85.7050037   8.8393140 109.9576283  86.3408089
   8.2755214 109.5070457  85.0103664  57.0706463  82.6142693  64.6471643
  57.0875359  83.5708904  64.6185541  56.3916254  82.3678207  64.0191317
  24.8535299  55.4114866 103.9513779  24.1404891  54.9397850 103.5209179
  24.6804404  56.3333559 103.7605095  66.4397812  62.9262686  78.9271069
  66.0851955  63.7602806  78.6190176  67.2279358  62.7920389  78.4007692
  48.6119938  69.7188187  76.1582565  48.6434507  69.6357298  75.2051878
  47.6829672  69.6403027  76.3749838  64.6187687  70.5721521  78.3584833
  64.1341734  70.2593136  77.5945902  63.9823771  70.5460262  79.0730143
  20.0384688  82.2003937  83.0337048  19.6465921  82.8697491  83.5946178
  20.9110069  82.5380993  82.8315639  28.5967708  46.1483431  99.0040493
  29.0082312  45.3044891  98.8173866  27.6886535  46.0397005  98.7216377
  28.5436893  80.1056290  92.5321579  27.9937935  80.7621861  92.9596806
  28.6237669  80.4117584  91.6287708  40.5553150 112.3907185 103.6179447
  40.8966303 111.5287685 103.8562298  41.1660004 112.7156162 102.9563332
   7.7908176 103.5170269  84.2677689   7.9800516 102.5973701  84.0816307
   8.3882332 103.7450886  84.9800301   6.5216792  83.1873226  32.2677445
   7.3268259  82.7650738  32.5672102   6.1354244  82.5601864  31.6564035
  29.6151400  74.4387817  75.0299883  28.6963844  74.6112251  75.2358580
  29.7267795  74.7685671  74.1383553  56.7765808  73.7198639  81.7535877
  56.5720415  72.8140497  81.5214252  56.9747877  74.1423941  80.9178734
  22.8120184  72.1831703  86.8861008  23.4781790  71.5111971  86.7414951
  22.2354317  72.1165466  86.1249638 122.2796746  74.3751907  94.9777889
 121.4004294  74.4730425  94.6123028 122.6974711  75.2230930  94.8269844
  35.3201532  77.1243715  80.7927513  35.8847046  77.5746727  80.1644611
  34.8769259  77.8293943  81.2646866  37.2867441 119.4885635  80.2234268
  37.1034551 119.3873978  81.1574459  38.1330729 119.9346542  80.1923656
  33.5256863  44.0547609  90.0346851  32.7691865  43.6871672  90.4916477
  33.4987473  43.6538744  89.1658974  57.4190617  64.8111343  92.8705883
  57.2426224  65.1636505  91.9983292  57.0078373  65.4350758  93.4687710
  17.8330660  85.0479698  82.0041943  18.0987382  84.5766830  82.7938366
  17.2679102  85.7513142  82.3237801  39.7112823  91.5530109  94.3208504
  39.6055984  90.6462479  94.0330410  39.8932648  92.0397758  93.5169983
   7.6327419  72.8713465  97.9232025   8.0094540  72.3646069  97.2037983
   7.0798033  72.2465849  98.3924103  67.4663544 109.9229145  61.1701965
  68.1188297 110.4647255  60.7263994  66.9401693 110.5449581  61.6726065
  21.0898352 101.4849758 100.2504063  20.5828691 101.0676098  99.5539665
  20.8115339 101.0382271 101.0499096   3.6913684  90.6997490  75.3345823
   2.7531865  90.8877850  75.3608179   4.1089937  91.5606689  75.3597641
  20.9478498  76.8660831  90.0722885  20.9275389  77.6387978  89.5077229
  21.1704922  77.2079086  90.9382057  16.9572806 100.7279110  87.2987366
  16.7784882 100.0488091  87.9491901  16.2102818 101.3230419  87.3622894
   4.1423351  96.4516068 105.3994846   3.9314687  97.3337173 105.7055187
   3.5062358  95.8872128 105.8388710  61.9972372  74.1534567  57.4215221
  61.1032486  74.4481516  57.2478199  62.4023342  74.0944147  56.5562868
  11.2775302  65.0673628  84.7349167  12.0069551  64.5135641  85.0132656
  10.5620444  64.8367929  85.3274918  39.5207953  95.6154823  87.9076195
  39.3845677  94.9506092  88.5826015  40.4160452  95.4675007  87.6028824
  53.2616711 125.6882668  55.9083509  53.8252878 125.4998875  56.6587400
  52.3875093 125.4209900  56.1923122  48.2154846  75.2265215  99.0326786
  49.1158199  75.0358343  99.2958641  47.8956032  74.4047165  98.6604595
  39.1503572 101.5998459 100.2488422  39.9034643 101.0767174 100.5234241
  38.3956599 101.1526299 100.6317997  14.9531519  86.4649677 109.0006447
  14.1679525  86.5744781 108.4642601  15.6744421  86.7151642 108.4232616
  30.3777003  80.9837532  73.9059496  29.6144724  80.5224133  74.2536259
  31.1173558  80.4120731  74.1116810  13.4761906  88.2230759  66.1270475
  13.1657708  87.3356247  66.3068056  12.9211366  88.7850761  66.6676950
  31.0762501  89.7360706  73.7850666  31.5355992  89.6476841  72.9499531
  31.7240572  90.1212883  74.3751431  35.4672861  80.2635574  94.1322422
  34.8246050  80.9709072  94.0787983  36.1367893  80.5930328  94.7317696
  25.1033068  82.0547867  93.8263321  24.7003531  82.0932198  92.9589367
  24.6154571  81.3721466  94.2870331  25.9504962  86.9859695  76.4297771
  25.0570130  86.9418335  76.0892296  26.1065698  86.1196613  76.8057728
 124.0976722  64.0187216  67.9085302 123.8063914  64.9180460  68.0588579
 124.3930171  64.0116405  66.9980621  43.3708382  85.3917885  43.7028837
  42.5975180  85.8893204  43.9687109  43.9753294  86.0518551  43.3635664
  49.6133518  97.1057701  67.8239059  49.5414400  97.1537018  68.7771940
  48.9294100  96.4890862  67.5628233  20.5984354  42.2158337  12.7575723
  20.6617475  42.5975370  11.8820516  20.4993153  42.9686022  13.3404485
  17.5390470 101.8376637  68.9962387  18.3296776 102.3077774  68.7314272
  16.8507445 102.1896267  68.4317970   9.0637571  75.6142235  73.6250257
   8.1322366  75.6025124  73.4051085   9.0918791  75.4082012  74.5593643
  44.5220947  87.2637367  71.3225555  45.2006626  87.0661259  70.6770134
  44.7708988  86.7557335  72.0947361 111.0655338 121.5620327  42.4300909
 110.4611725 121.6688728  41.6955423 111.5154428 120.7361603  42.2519112
  27.2372437 102.5257587  66.2771749  26.4661479 102.7345467  66.8044806
  27.9684401 102.9133224  66.7581940  15.7661068  95.1795673  56.0517168
  15.0458491  95.5890083  56.5311146  15.8227074  94.2952919  56.4137602
  34.0802741  66.4491272  85.2259254  33.8146305  65.7413006  85.8129883
  33.8543844  66.1324215  84.3513393  38.3484840  68.6001539 108.0906773
  38.4511065  68.6367750 107.1397018  38.5256314  67.6868010 108.3156967
  23.8674235  30.9669685  75.8716631  24.0223885  31.0683966  76.8107748
  24.4002056  30.2122426  75.6211376 103.2837910  65.7571030  51.3951397
 103.3373255  65.0065804  51.9868183 103.9616126  66.3567400  51.7069530
  13.0281568  74.2635822  94.5085335  13.8326514  73.8887024  94.1500854
  12.3452902  73.6359310  94.2719364  20.8411813 112.2807217  76.5162659
  19.9639010 111.9277287  76.3679123  20.9583807 112.9302788  75.8230257
  27.9253745  94.5765781  95.0957680  28.2998490  93.7905884  94.6979904
  26.9790268  94.4398975  95.0512695  37.7486730  95.9015465  69.9375296
  37.3210931  95.2941704  69.3337870  38.6687398  95.8936119  69.6736288
  15.9791839  70.5889463  58.4127760  16.0818136  71.5366459  58.4997320
  15.5902767  70.3129959  59.2427349  61.1957741  82.1484280  73.1468773
  60.6677532  81.5523148  73.6779833  62.0156050  82.2394943  73.6324835
  50.3011465  60.1010418  70.0020409  51.0729456  59.6982193  70.3999043
  50.6561804  60.7282639  69.3721390  54.6692181  75.6689787  42.2363043
  54.4289112  75.0329876  42.9100990  54.0118599  76.3603783  42.3142147
  52.5488424 102.7515125  83.3115959  53.1772757 102.1076679  82.9848480
  53.0118561 103.2006168  84.0188122  32.7101374  65.3207493 105.6463242
  33.2723308  65.7990837 106.2557220  33.2429624  64.5784235 105.3612328
  26.9806218  52.5308466  94.9768162  27.8742981  52.4166584  94.6534920
  26.4324856  52.4620390  94.1951275   4.9810314  80.0437069  60.5151558
   4.8684034  80.3727245  59.6233606   4.5890057  80.7176781  61.0703993
  45.7443905  69.2286253  52.6322889  45.1640034  69.9696255  52.4582100
  45.4703856  68.5577154  52.0069599  26.0173440  89.2906189  74.8348570
  26.2553716  88.5552406  75.3994799  26.2948656  89.0201855  73.9595985
  24.4622588  74.7024345  73.6684656  24.1897082  74.4616699  72.7830362
  23.6534309  74.6884727  74.1801596  19.8655403  82.9415703  65.5509090
  20.6034303  82.4401283  65.8977604  19.9346268  82.8435516  64.6012497
  27.9457617  98.4332275  74.1693878  27.5545382  99.2642879  74.4386816
  28.4085178  98.6384487  73.3570051  29.9070048  54.4093561  90.1366711
  29.1218877  54.6769524  90.6143951  30.3638506  53.8205719  90.7373905
 122.4769061  57.4886036  68.0317640 121.8690935  57.5236607  68.7703896
 122.1125353  58.1007910  67.3924780  33.9496326 112.0289803  73.8149071
  33.7049150 111.6334343  74.6514988  33.9150310 111.3057709  73.1888056
  61.6587257  62.0106697 109.4100857  62.1925116  61.2172508 109.3677711
  61.3572121  62.1446943 108.5115528  35.5569220  77.0713854  76.1862135
  36.4081669  76.8626738  75.8014345  34.9219680  76.8085766  75.5198812
 121.2431366  89.7609234  76.1869574 121.5825982  88.9658642  76.5979099
 120.5163730  89.4577122  75.6428003  64.3060350  67.8050375  72.5451422
  65.2250671  67.5841331  72.6961756  64.3055296  68.7537384  72.4178600
  16.1324489 105.1562214  78.8497019  15.3188610 105.1015282  78.3483887
  16.5271068 104.2886734  78.7611723  31.7877603  53.4814024  69.2139339
  31.2038827  53.1991243  68.5099173  32.6413608  53.1188107  68.9770317
 117.8054715  90.4506779  65.5106831 117.3887247  89.8638439  66.1416960
 117.1583385  91.1398983  65.3609419  45.3686047  91.4019299  86.3352108
  46.1180401  91.2621117  85.7563972  44.6117353  91.1269379  85.8177567
   3.7848914  93.7387180  67.4406290   4.2196885  94.1619205  66.7003059
   4.4777635  93.6223793  68.0907249 117.4882687  91.0865784  62.1169806
 117.1276403  91.6384983  62.8109360 118.4284998  91.2652874  62.1330929
  20.9495044  59.4179869   8.8738958  21.1483574  58.5043287   9.0786306
  21.7647028  59.8865175   9.0532152  14.9108839  81.3954163  76.6455698
  14.5641470  81.3303661  77.5353861  14.1836476  81.1254215  76.0847998
   1.4454868 108.6215496  65.8300495   1.4593221 107.7859783  65.3632975
   0.9168202 108.4516430  66.6097164  32.9990935  68.0043459  55.9854460
  32.4050403  68.5323143  56.5189123  32.5754380  67.1476889  55.9317446
 117.1411694  55.4126263 102.8949261 117.4664391  55.6549978 102.0279312
 117.5651670  56.0299921 103.4910202  41.8462896  99.4130039  79.2894459
  41.3939333  99.1630077  78.4837723  42.5027037  98.7282848  79.4179249
  30.3640556  65.6477022  75.9748793  31.2365627  65.8916712  76.2838173
  30.4592395  65.5696106  75.0256300 109.5240266  97.3841953 102.2677135
 108.8040835  96.9212437 102.6961994 110.3087801  97.0825672 102.7253342
 121.5322093 115.6379318  87.0066357 120.7129905 115.3969955  87.4391460
 121.2650425 116.2180901  86.2937069  16.4160073 115.2511024  66.4839125
  16.4894736 115.7582760  65.6754541  16.7747760 114.3920803  66.2612009
  44.4886875  81.4563179  84.5589161  43.6962223  81.7114544  85.0312996
  44.5631409  82.0975494  83.8521576  55.5558157  67.3439550  74.1841125
  56.0982609  66.6728973  74.5984316  54.8825693  66.8514919  73.7145853
 107.9381818  55.2794886  52.6956415 107.5836522  56.1681366  52.6664877
 107.5829989  54.8541927  51.9151306   1.1295629  89.0320492  92.3161888
   0.8978811  89.3865871  93.1745911   1.5269601  88.1824589  92.5072670
  20.3949261  75.2141666 101.4758968  21.3105083  75.1293755 101.2099075
  20.3846145  75.9718132 102.0607853  48.1360531  64.1223907  82.3353291
  49.0748453  64.0216970  82.1779823  47.8098202  63.2264233  82.4193001
   1.9706991 142.4438000  93.7348080   2.7413875 142.6974201  94.2426872
   1.3160609 142.2108078  94.3931293   8.9577752  70.8634424  45.4185820
   9.0948290  71.3077021  44.5818758   9.0786719  69.9350262  45.2194357
  32.5996304  67.0275402  82.2583103  32.8680706  67.1271849  81.3449383
  32.5705576  66.0809612  82.3974991  25.4922152  96.2969685  87.4877262
  24.9663544  96.5843868  86.7413425  26.1748838  96.9628334  87.5703239
   4.5436323  91.6876793  79.6170092   4.5449924  90.7357693  79.7174692
   4.0473112  92.0073318  80.3704834  33.5037851  82.1799374  94.7030544
  32.7524614  81.6465759  94.4436932  33.2388592  82.5802612  95.5311775
  43.3451462  82.8442478  56.2168741  43.0273342  82.4320316  57.0201826
  44.2961693  82.8717899  56.3218641  17.7972341  70.4980326  61.8043327
  17.8839648  69.6772718  61.3195038  18.6974394  70.7533503  62.0060110
 101.7468495  57.5533104  89.8790073 102.0338482  57.5798321  90.7917881
 100.7909316  57.5584078  89.9282551  21.7743587 102.5461578 103.8038158
  21.5233111 103.4664822 103.7250805  22.4317098 102.5358868 104.4995308
  34.7905254  81.8198586  88.5815334  35.1058173  82.4350739  87.9194641
  34.6029735  81.0180855  88.0934620  16.7796230 103.7359333  85.4527569
  16.4001584 103.0192280  85.9612465  17.7162445 103.5404396  85.4253006
  19.2025793 122.5216103  68.2128811  19.3723547 123.3891869  67.8458261
  19.6551597 121.9190788  67.6226664  45.0410843  82.8763103  78.7674427
  45.4892492  82.6377106  79.5788956  44.1208982  82.9594803  79.0175819
  10.5021787  88.1596279  98.2790756  11.2661386  88.7232685  98.1569767
   9.9133497  88.6711597  98.8339138  25.8297467 110.1059723  73.9880753
  26.7199278 109.7576714  73.9381027  25.7799554 110.5128288  74.8530769
  27.6301956  77.3161602 102.7224922  27.6047587  77.3796749 103.6772442
  28.4115529  77.8082848 102.4704456  25.7358241  66.2067366  80.3014565
  26.3851833  65.5190754  80.4487324  26.1596036  67.0068312  80.6120872
  55.8681250  88.6581802  89.7196102  55.1844549  89.0592861  90.2562046
  56.2941599  89.3961239  89.2835426 121.8702230  94.4427586  99.8302364
 121.7086638  93.9547539 100.6376934 122.7238745  94.8540592  99.9656868
  17.7184594  87.8074551  61.5434551  18.3841407  87.1395969  61.7079782
  16.8881309  87.3328972  61.5831757  31.4820910  92.1794128  92.8846359
  31.0756898  92.9514885  92.4909592  30.8016658  91.8119431  93.4487438
  40.0342417  92.1234417  87.5247383  39.4792652  91.3863850  87.7796555
  39.9572849  92.1627235  86.5714455   9.8856217 104.1647243  86.4365578
  10.2777183 104.2643738  87.3040581   9.1704905 104.8008156  86.4224339
  48.7485361  88.6167622  76.1744595  47.8248262  88.6960125  76.4126015
  48.7649584  88.7591553  75.2280521  40.3567314  89.1744614 108.4622955
  40.2211332  90.0495529 108.0988979  41.2714767  88.9725304 108.2655716
  36.8117380  62.9521799  63.9803982  36.9335890  63.7927055  64.4218779
  36.4553571  62.3759413  64.6565437  13.7101722 102.5594521  83.6688519
  13.1035471 102.7267075  82.9475594  13.1745064 102.6463604  84.4573593
  42.6679611  92.6449013  56.8110418  42.5460386  92.0405483  57.5432491
  41.7792702  92.8697109  56.5355110  34.5167780 124.8895073  62.5771189
  35.2984691 124.7801876  63.1186390  34.8431230 124.8644638  61.6776180
  13.0937994  56.5835428  66.8084145  13.5175025  57.2621202  66.2828302
  12.7455366  57.0511246  67.5675631  20.0080562  56.1072111  82.1950436
  20.8517933  55.7504177  82.4726009  20.1337695  56.3293839  81.2725067
  16.5286803  92.0082188  54.3728828  16.2787449  91.9141197  55.2920723
  15.6966841  92.0674896  53.9033079  22.4167728  95.6633568  58.2678509
  22.5533438  96.0475254  59.1338682  21.6518378  95.0979233  58.3745813
  29.4288731  87.6750088  83.0432129  29.3627787  88.2502460  82.2809982
  28.7213874  87.9609108  83.6211109  -0.0215843  54.8173141 103.2696056
   0.0830948  55.2185154 102.4068737   0.6284019  54.1148710 103.2875443
  20.5754948  72.7482700  62.7116442  20.9888315  71.9254160  62.9729748
  21.1573505  73.1062269  62.0411634  21.9011831  70.5720234  89.1829014
  21.1948967  71.1417770  89.4874859  22.4963045  71.1576223  88.7147808
  72.9003239  36.6596532  75.3747416  73.8175058  36.9106460  75.4843330
  72.9289722  35.7198310  75.1954508   1.5588617  84.1060352  65.8650637
   0.9791087  84.1510963  65.1047468   1.0293648  83.6906242  66.5457249
  13.3970189  79.3821049  64.8457623  12.9726100  80.2372646  64.7764111
  14.1653574  79.5398283  65.3944063 112.7209360  89.1481113  64.7112131
 113.3422977  88.7428379  64.1063166 111.8616743  88.9594269  64.3339872
  12.6573348  97.8912354  90.6572819  12.2180986  97.1926880  90.1721668
  12.8686047  97.4984264  91.5042210  14.3569803  91.6378689  96.6800976
  14.6370232  92.2154427  95.9700108  14.5621264  92.1236229  97.4789715
  24.2917991  94.0546131  75.7197332  24.5002460  93.1284428  75.8421564
  24.9572468  94.3711662  75.1088285  60.9075451  89.0704727  76.0680246
  60.6950235  89.5849609  75.2893257  60.7764149  88.1616306  75.7977581
  34.2318487  79.5886564  81.7365360  33.3657026  79.3184566  82.0415211
  34.0551805  80.1589203  80.9883213  30.1067829  75.0291920  71.0881281
  29.6913075  74.2790318  71.5134239  30.6444001  74.6445656  70.3958416
  61.6218138  39.2524219  82.0922375  61.1506319  38.4388947  82.2722244
  61.1541891  39.6415734  81.3532352  57.8573799  64.1067886   2.8515855
  57.9634380  63.6224699   2.0327989  57.0064211  64.5368481   2.7669851
  34.6076202  42.6391077 103.7885475  35.1352215  43.4377050 103.7779808
  33.7645841  42.9041243 103.4207344  20.4147506 113.8425827  74.0527010
  19.6499228 113.4475136  73.6341381  21.0606456 113.9167786  73.3501720
  16.7008078  78.0569029  84.5701885  16.1000800  78.0858088  85.3148556
  16.1300802  78.0607033  83.8017559  40.9092283  97.4781799  43.6754179
  40.2044106  97.2235298  43.0799246  41.3208008  96.6513634  43.9268541
  47.2299671  72.5716543  99.3629742  47.0803785  71.7196703  98.9531231
  46.3577890  72.9595232  99.4343758  56.8325949  58.7672758  73.9839458
  56.9498301  58.3475256  73.1317139  57.5209045  58.3914280  74.5327616
  15.5079079  53.7526083   0.4046480  15.1058078  53.4859085  -0.4220351
  15.5467916  54.7077227   0.3549329  11.2798429  78.6196470 106.5090084
  11.5446210  79.2478180 107.1809673  10.8446562  79.1511631 105.8424282
  60.6847429  72.3271036  82.9012966  60.1389933  73.0048704  83.3000755
  61.5222359  72.7602673  82.7363396   3.6277950  43.7370205  48.6373949
   2.9196408  43.5772514  49.2612696   4.4004303  43.8809681  49.1837883
  56.6002274  50.8102226  89.4666767  56.4314795  51.7126846  89.1959095
  57.0491219  50.8925724  90.3080750  54.4333076 107.2304344  73.9118910
  54.0104342 106.4168262  73.6371851  54.8117256 107.5868988  73.1081772
 115.7454938  93.5809422  52.9629993 114.9629135  93.6672401  52.4186182
 115.8707107  92.6363850  53.0544090  23.8779426 105.6085682  73.9353418
  23.3254075 106.3862133  74.0141106  24.5295691 105.7064247  74.6296310
  25.2584195  81.1753273  85.7019901  25.9350896  81.8436623  85.8100319
  24.7826123  81.1797619  86.5325451   0.5135328  60.6424570  85.3287125
   1.3494566  60.1773167  85.3619766  -0.0046163  60.2545881  86.0339165
  42.6105690  88.0285454  62.5224543  42.7124262  87.8435898  61.5888309
  43.5065317  88.0853748  62.8544998  43.9946938 126.9974136 100.9284401
  43.9771366 126.1350918 101.3435555  43.0942106 127.1416283 100.6376362
   6.8343812  64.4037485 100.9493256   7.7242434  64.2472458 101.2653732
   6.9003391  64.3223095  99.9978828  15.0131190  90.8089924   5.5755369
  15.9171343  90.5109501   5.6763307  14.7344100  90.4481983   4.7338811
 104.6259279  97.2442055  80.4974937 104.8674066  97.0453072  81.4021301
 103.6732120  97.1536541  80.4784679  42.1567345  94.6030903  82.3949528
  42.0834208  94.9074650  81.4904022  42.7492571  95.2291870  82.8110600
  21.2457108  82.9555035  45.3840113  20.9537959  83.5595894  46.0667276
  20.5301571  82.3253250  45.2998495  39.6002364  82.8019333  69.5225143
  39.6469140  82.6799107  70.4707575  40.1926517  83.5326767  69.3456173
  28.2913494  77.8001356  63.8893557  28.5757565  77.2608805  64.6272898
  29.0808749  78.2669067  63.6154842 111.8606252 112.5155163  66.8620920
 112.3822791 113.1923294  67.2934151 112.1790010 112.5066471  65.9594345
  17.0436072  73.3130980  89.9351215  16.2598991  73.7069559  90.3184032
  17.7400458  73.9458179  90.1108170  17.6414728  61.9254541 104.1922855
  17.2341084  61.8546200 105.0555706  17.0685804  61.4207411 103.6149693
 120.2095086 117.3027802   0.4608861 119.7129846 116.6755104  -0.0646838
 119.6487052 118.0773830   0.5024091  54.8429203  82.0881271  76.2444162
  55.6967688  81.8012333  75.9205866  55.0104427  82.3711395  77.1433449
  83.8883877  84.3815804  77.9745436  83.4869671  85.2429390  77.8598833
  84.4681358  84.4860268  78.7290096  13.0045617 120.0240326 100.0247288
  12.6814258 120.8234978  99.6091938  13.9474833 120.0328922  99.8602486
  20.9420919  90.8297443  45.4052687  21.6789722  91.0964012  45.9549332
  20.6107736  91.6480446  45.0353527  16.3419473  50.3969717  64.3876362
  16.8479800  50.7690477  65.1099443  16.9998360  50.1409912  63.7411928
  15.6294012 102.8615475  67.3800611  16.1925507 103.6348629  67.4128246
  14.7994447 103.1534958  67.7571106  15.0132656  84.9506283  80.1454163
  14.2246866  84.8388863  79.6144867  15.6349564  84.3170643  79.7871828
   5.0818467  71.6128969  71.0661602   4.1449559  71.5003157  70.9055567
   5.2983463  70.9347486  71.7060614  95.3973770  64.2849112   4.0018503
  96.1883068  63.8841963   3.6411897  94.6778870  63.7923908   3.6068956
  28.3782721  64.9421215  72.5827932  29.1387153  65.3016567  73.0396175
  27.7894068  65.6888008  72.4735117 114.4511778  55.8520889  34.3442631
 113.5869808  55.9783173  33.9525247 114.2925293  55.8780861  35.2878666
  15.1730907  83.8122940  83.5968590  15.2868319  84.4896793  82.9302025
  14.4596326  83.2671642  83.2651329   3.7494773  81.6075611  62.3991013
   3.6459619  82.5474930  62.5475979   3.0781192  81.2029266  62.9484463
  15.7798874 105.4619694  72.5944710  16.1868453 106.0411453  71.9501305
  16.1738002 105.7173729  73.4286356  20.5115438  77.5844860  17.9763929
  20.5361843  78.3040142  18.6071912  20.5409431  76.7932701  18.5143033
  54.2407703  70.9615231  96.0257912  54.3533659  71.2320471  95.1145458
  54.2037582  71.7825174  96.5165329  64.3261480  52.4735928  81.8342018
  64.9616814  51.8701029  81.4493275  63.4796238  52.0472717  81.7005062
  17.5363398  84.0437984  77.4986458  17.8245521  83.2438755  77.0590115
  16.6414952  84.1792774  77.1869850  15.7511187  73.1449223  67.2337580
  15.5903590  73.5623503  66.3875055  14.8976922  73.1458044  67.6672268
  15.4319525  60.5304193 102.3657894  15.0264657  61.1205339 103.0010700
  14.7026861  60.2162075 101.8313026 115.4872406  76.8027496  78.3624697
 116.0350270  77.1721125  77.6698399 115.9031070  75.9677458  78.5770798
  58.1280375  82.0923805  80.3415680  57.4703074  82.4077415  80.9613800
  58.7158060  82.8374195  80.2163410  53.7172270  76.3706732  78.9457226
  54.5910835  76.2031031  79.2986012  53.5153961  75.5924225  78.4262753
   2.0522796  81.1329269  39.7905564   1.1938422  80.7099915  39.8117018
   2.2600086  81.2067986  38.8590932  60.2333641  69.1942883  71.6351223
  60.6238079  68.3574247  71.8870115  59.2939711  69.0709782  71.7713881
  15.2475822 110.4875088  53.1326008  14.6741927 111.2536812  53.1117916
  14.8950601 109.9435902  53.8369560  38.4663320  81.9810963  50.9848166
  38.5185528  82.5931358  51.7189217  37.7910662  82.3483276  50.4143858
   0.4091116  90.3952503  63.3898544   1.1188968  90.5126095  62.7584553
   0.5345922  91.1002350  64.0250587  48.1052542  87.2889519  69.1285467
  47.4517107  87.8155041  68.6682701  48.8336945  87.8909302  69.2809820
  34.7847176  78.1739950  52.0887518  35.5515456  78.4047079  52.6131344
  34.5985746  77.2649431  52.3237133  36.2989640  66.9573832  58.1646013
  36.4946222  66.9038773  59.1000605  36.4349532  67.8787804  57.9437780
  31.7348742 126.4704037  11.6332666  30.8015585 126.6769314  11.6832200
  32.0334768 126.9031811  10.8334104  34.4237518  66.8776131  47.7290535
  35.3053832  66.6076803  47.4719667  34.2805076  66.4533520  48.5750532
  39.2122531  73.9596939  43.2572556  39.0072417  74.8792696  43.4263229
  38.8653493  73.7942171  42.3806095  33.5667157  66.5212631  63.8906288
  33.7689304  66.8965816  64.7476482  33.5006881  65.5799007  64.0509558
  56.7231369 126.7385960  69.4054747  56.9270182 126.9586658  70.3144503
  55.8121490 127.0096207  69.2919731  59.7489882  56.5620184  74.0610647
  58.9346743  56.3282871  74.5065880  59.6768045  56.1517191  73.1992817
   1.6902864  82.2089577  93.3004475   1.1251590  82.9812908  93.2812786
   2.1243869  82.2509098  94.1525173  61.9864607  85.3304958  85.2111053
  62.6965904  85.7172775  85.7233143  62.4210310  84.6990013  84.6378803
  23.7695336  81.3644218  42.7438164  23.7456179  82.1647072  43.2684183
  24.0615129  81.6534138  41.8792582  55.7069349  69.6427155  89.3271160
  55.1828098  69.6578217  90.1279163  55.1230907  69.9888611  88.6521721
  31.7862749  45.2101851  56.8747711  31.2389302  45.9176826  57.2154856
  31.3964725  44.9922991  56.0281229 123.2686426  83.8500690  73.9967585
 124.0941376  83.4393978  73.7395859 123.4538732  84.7890854  73.9833117
  35.6624293 100.6875896  43.1876469  36.0461187 100.9193707  44.0333986
  36.2921262 100.0817394  42.7969360  15.3043616 102.8504658  72.9736710
  15.4893649 103.7756348  72.8122425  16.0585821 102.3880672  72.6081944
  47.9526424  68.9938927  17.3091853  48.6765146  68.6770916  16.7689276
  47.7301311  69.8465443  16.9354141  16.8380940  75.0441027  95.5992413
  16.2209618  74.6441460  96.2119484  17.2340310  74.3032789  95.1402760
  17.8625190 114.2071247  82.2931290  17.3511684 114.0250111  81.5047169
  17.5969827 113.5278416  82.9130459  45.7917118  66.7834473  67.9851770
  44.9216413  66.7758846  67.5862360  45.6254101  66.7000723  68.9241266
 122.4329062  90.0519562  42.7325726 122.3808055  89.4077110  43.4385967
 122.3133189  89.5405197  41.9323444  44.0306664  80.3538704  20.7122087
  44.9277639  80.4680634  21.0259008  44.0300512  79.4913721  20.2970886
  26.8096900  80.4076862  42.7272844  26.2101054  79.7589302  43.0958652
  26.6816306  81.1868286  43.2683659   1.1581434  82.1709442  47.1593380
   1.8254101  81.7338276  46.6302681   0.3292704  81.9328785  46.7439747
 118.3013279  85.0746059  88.7617493 117.6934410  85.2477455  88.0429077
 117.7766562  85.1946735  89.5532894  23.8951540 107.9931927  62.6307631
  24.2502236 107.8384018  61.7554379  23.2883120 107.2671127  62.7749157
  51.7159367  66.9527340  70.6237984  52.1550655  67.0487833  71.4688826
  50.8791208  66.5384769  70.8344269  41.7622566  87.6898384  12.4901354
  41.7156887  87.4567986  11.5629077  41.1948919  87.0537853  12.9257500
  44.1097593  55.8596325  80.9349918  44.9257517  56.0641384  80.4783058
  43.4230709  56.0540295  80.2971077  41.8944883  41.8263626  83.4474945
  41.6113901  41.7959356  82.5336266  42.4627686  42.5950432  83.4967327
  57.0755386 107.6500511  75.1141071  57.3810291 108.1925964  74.3870926
  56.1277628 107.5965405  74.9912596  31.8664837  94.1326141  74.4388103
  31.2929893  94.8173237  74.0945768  32.7455711  94.5076847  74.3863201
   2.5909007 111.2638378  75.5843735   2.4947026 110.8719349  76.4523554
   3.3772072 110.8549500  75.2227688  27.4796534  78.6965227  67.9335690
  27.9934454  78.3116436  68.6435795  26.5976024  78.7821198  68.2953596
  26.1331940 106.6733074  80.3878117  25.7861876 106.7013073  81.2794590
  25.8618593 105.8190346  80.0519180   0.7351621  59.5674372  35.2080369
   0.0393125  59.2522812  34.6312332   1.4300853  58.9145756  35.1238704
  27.3829865  30.5587029  82.1496201  27.7797794  31.3843203  81.8718719
  26.8994880  30.7810450  82.9452515   4.1886991 120.1577854  96.5981960
   3.6724779 119.9291706  95.8252239   4.4340661 119.3150902  96.9801521
  30.9278870  65.6266642  45.7788038  30.5676603  66.3968945  46.2183571
  30.2389121  65.3521156  45.1736879  22.0526886  92.9804707  54.3992949
  21.3434744  93.5772610  54.1603613  22.2027230  93.1471729  55.3298473
 122.3293241  79.5184135  77.6552391 121.7801434  80.1372147  77.1738625
 121.7308450  78.8172388  77.9129410  12.6458263  71.9771862  57.0635271
  13.3804214  72.5885296  57.0100546  11.9730222  72.4531984  57.5503349
  28.2432318 121.6500092  67.6632118  28.2201529 121.4718342  66.7230272
  27.3807430 121.3808155  67.9792500 123.6064421  55.1466942  64.3727207
 122.8752797  55.4909515  63.8597679 123.1926168  54.6155596  65.0530720
  65.7167768  99.4425678  61.0204935  65.9885931  98.7701607  60.3958225
  66.2410212 100.2095604  60.7900143   7.2984523 125.7569599  84.8446846
   6.9628197 126.5533447  84.4331551   7.1941894 125.9104061  85.7837391
  20.1579785  89.0766525  32.9036951  19.4760060  89.5579243  32.4351597
  19.7135448  88.7186432  33.6721635 117.1211595  74.4925737  76.8844938
 116.8200488  73.7156153  76.4134312 116.8087769  75.2281427  76.3576269
  28.1999469  66.6369915  77.5164080  28.8957977  66.3096905  76.9464111
  28.2252550  66.0608292  78.2803631  10.2908528  95.4852104  78.3501148
   9.4900161  95.0153923  78.1173897  10.5847216  95.8791447  77.5287199
  17.3704422  82.0640182  75.4375792  17.9107916  81.2783718  75.3538418
  16.5101624  81.7362213  75.6996775  29.1723299  96.9050026  43.7521124
  28.8512921  96.1344624  43.2836819  28.7054920  96.8891239  44.5876026
  17.1534514 113.3173943  62.8339148  17.7769363 113.4850597  62.1272421
  17.6574731 112.8336143  63.4882450  49.4851255  61.8603706  50.7282925
  49.1711760  61.1845636  50.1274967  49.6256495  61.3991976  51.5552139
   5.6287557  83.0020905  94.5225811   6.3083422  83.5647488  94.1513538
   5.6051987  82.2406769  93.9429951  11.6854775 109.1558075  85.4693413
  10.7501233 109.3590450  85.4757404  11.7892587 108.4841633  86.1433983
  11.3840199  83.3684635  68.9941502  10.7890069  82.6802921  69.2918348
  12.2330499  82.9335022  68.9155149  45.5316210  98.2172585  87.5819969
  46.3265562  97.9855347  87.1017742  45.3029680  97.4226952  88.0643082
 119.7122980  86.8105030  44.2571449 118.9977259  87.2560120  43.8020182
 120.2333123  86.4166927  43.5573673  13.9349437  30.0786853  87.2227001
  14.2883205  30.7029319  87.8564835  13.1446493  29.7354627  87.6396751
   5.6148046  92.8604507  56.5286684   5.3510922  92.5568581  55.6600380
   5.0068152  93.5722733  56.7284012  52.1937943  93.1560802  66.2075949
  52.3571110  93.9367294  66.7368746  51.3948536  93.3593369  65.7211637
  31.1678648 124.0857887  87.2116661  30.3043294 124.4986248  87.2218513
  31.2724733 123.7714195  86.3136387 115.5487687  48.5072231  72.9158068
 114.6639890  48.8598251  73.0110455 116.1156214  49.1753244  73.3012295
  21.9118881  79.9246931  72.6388884  21.5802026  80.8179569  72.7299929
  21.2517309  79.3792868  73.0666161  36.8108726  57.7904415  59.9018478
  36.4704919  57.9879284  59.0292788  36.2718916  57.0618773  60.2099466
  50.6685972  67.4703169  97.0150757  50.6235027  67.5144434  96.0599518
  51.1939764  68.2302713  97.2654152  37.2220182  83.2581043  20.8692908
  37.1027541  84.2039585  20.9551668  38.1353688  83.1551552  20.6020355
  52.0032644  52.5375557  74.6666288  52.5847340  51.9171333  74.2270851
  52.1225739  52.3581648  75.5992699   1.0625421  79.2150784  60.2225685
   0.1389350  79.0603447  60.4206562   1.5369907  78.6937094  60.8701086
  39.6334577  68.4789228  85.3544331  38.9372659  67.9428577  84.9747181
  39.4412184  68.4921169  86.2920380  21.7870450  80.7899475  91.4458656
  21.3726282  81.0612965  92.2649193  22.6328945  81.2380219  91.4454842
  14.9182022  80.2976036  66.9523907  14.4604003  80.6476784  67.7166557
  15.6829023  80.8643150  66.8508959  27.1713376  73.9145660  65.4262209
  26.6645789  74.5336628  65.9517193  26.9864011  74.1619015  64.5202112
  11.0025573 101.2211227  22.5728846  11.0181677 101.1651134  21.6174531
  11.6328454 100.5612087  22.8618240   2.7957287 110.7119560  64.7187662
   2.5143623 109.8020458  64.6231747   2.7575010 110.8767605  65.6608963
  42.4969196  70.0657129  66.8208981  42.8794670  70.9052420  66.5657711
  41.9256783  70.2773046  67.5592375  50.4574633  67.7338076  27.1232653
  50.2823591  66.8827343  27.5248194  49.5944977  68.0608559  26.8691802
 112.6131434  83.5771942  50.8375454 112.1422321  84.3205643  51.2142134
 112.0568425  82.8212261  51.0253429  26.9561076  50.1278830  74.1133213
  26.6568279  49.9599504  75.0068903  26.2870646  50.7020617  73.7405825
  15.8956087  72.6915407 100.4852009  16.1915338  73.1690168  99.7101688
  16.5757895  72.8516817 101.1393738  99.2534370  77.4627972  60.5318594
 100.1466627  77.8051472  60.4975224  99.3341107  76.5536976  60.2433109
  19.2246330 116.7738056  42.9280472  20.1024604 117.0887852  43.1435347
  19.2220879 115.8594131  43.2110834  16.4292526  94.0439034  33.0863309
  17.2418535  93.5389328  33.1165290  16.0864186  93.9996052  33.9789319
  20.2413940 122.8977871  45.9800768  20.4516387 123.7458420  46.3710117
  19.7606945 123.1148434  45.1812983  30.3191257  81.6046143  40.4758263
  29.8536205  80.8624268  40.8614445  31.1201692  81.2239838  40.1157093
  15.7661569  68.4295177  46.7229986  15.2083993  68.9675045  47.2848797
  15.3053331  68.4013557  45.8844995  68.1764364  97.0040417  72.1372557
  68.0910873  96.8732071  71.1928892  69.1179085  97.0986843  72.2818232
  27.8075600  68.1286049  80.1846027  28.5278702  67.7735281  80.7054806
  28.0638814  67.9632950  79.2773008  33.9512563  84.7689342  87.7522278
  34.7238421  84.6386814  87.2023392  34.2490125  85.3538799  88.4489346
  21.6022921  55.5461740  44.4319773  20.7630157  55.0977802  44.5358324
  21.7710423  55.5234480  43.4900427  11.7496490  98.9560699  98.6981678
  11.3611186  99.2210293  97.8644562  11.1087203  98.3573723  99.0815735
 117.6974101  67.3856783  17.0937228 117.9254723  66.9832468  17.9317379
 116.8527240  66.9984007  16.8640459  25.8831930 103.3689880  21.8946052
  25.0623679 103.7862206  21.6330886  26.5214586 104.0822315  21.9058704
  47.9033089  96.7490578  62.1771574  48.0284309  96.3628769  61.3103008
  47.9213333  97.6936626  62.0234156 111.9100160  90.2160931  23.8721800
 112.5312156  90.7833672  24.3288445 111.2859375  90.8197403  23.4692264
  14.7040343  50.9755898  94.0249634  15.4237568  51.4596653  94.4298077
  14.3668842  50.4172993  94.7255802  38.3043289  95.1147175  60.3217220
  37.6464725  95.7479095  60.0344563  38.8352227  94.9506187  59.5423269
   5.9760529  86.0832310  56.7088318   6.5491211  86.0867119  55.9421396
   6.0335928  85.1895332  57.0468092  45.1532507 103.2923317  76.7569304
  45.3755379 104.2217064  76.8123722  45.5653763 102.9954815  75.9455967
  20.8447027 111.2761879  68.3998108  20.1588678 111.8426991  68.0463552
  20.3832960 110.6824303  68.9920855 121.9955740  67.7476263  76.5753078
 121.9471163  67.6584387  77.5271130 122.6404146  68.4403944  76.4321852
  35.8001971  49.3064213 103.8210106  35.3730106  49.0300035 104.6317673
  35.1910377  49.0482712 103.1292629  35.7293892 103.0755520  69.0488911
  35.2394223 103.5919380  68.4089613  36.2473059 103.7202835  69.5308733
  23.9321971  77.5543261  40.8217478  24.5404696  77.7215147  40.1018286
  23.0657649  77.5902843  40.4164886  39.6965027  48.4310436  30.4421282
  39.2830038  49.2904520  30.3604484  39.5771289  48.0252314  29.5834684
  28.8367248  83.6068821  70.7293558  29.3997574  84.1423702  71.2883472
  28.2289505  83.1842995  71.3362026  38.1473875  64.3694639  48.8953876
  37.2292423  64.5778751  48.7227392  38.6030579  64.6081305  48.0881500
  46.4401436  98.0619907  76.9471407  45.9970713  97.8810883  77.7761126
  46.7192984  98.9747620  77.0189762   5.0521773 100.1104832  71.3456678
   5.6083989 100.8668900  71.1594105   4.3593857 100.4555130  71.9088936
  50.9177685  99.6622467  76.5929270  50.7926035 100.2495384  77.3383474
  51.0497427  98.7999344  76.9869232  40.3199768 107.6819324  64.7855234
  40.2386332 107.6770592  63.8317966  39.5222211 107.2537518  65.0961351
   2.9669651  94.7248363  50.8417845   2.1934699  94.7666264  50.2794743
   2.6956868  94.1824436  51.5823507  35.8964586  42.3241091  43.2906628
  36.7046499  42.5651598  43.7433815  35.2059293  42.7741337  43.7773657
  14.2853594  75.0772429  83.5912132  14.2954946  75.6447458  82.8204536
  15.1516402  75.1894045  83.9826393   6.0438192 111.3580799  66.5593624
   6.3775730 112.0160294  65.9494877   5.2451533 111.7461205  66.9168377
 113.0518228  88.9932919  41.7067671 113.5935862  89.5728302  41.1711740
 112.6719946  88.3754444  41.0820818 103.5137791  98.5695648  36.9309711
 103.7861199  97.7084255  37.2479868 102.9816241  98.9288425  37.6408768
  31.4559531  65.2370644  60.8800936  32.2076464  64.9174118  61.3790989
  31.8409705  65.6719637  60.1192617  32.6058245 108.2510853  90.6453800
  32.7419448 108.8019466  91.4162636  31.8942738 107.6614761  90.8949566
  13.5895109  62.4800777  71.0545588  14.3573844  62.5687599  71.6191292
  13.1273174  63.3132696  71.1462355  42.5710154  77.1000385  66.7650700
  42.7430058  76.1618328  66.8452311  42.7320290  77.2950411  65.8418798
 111.8868036  83.4063435  88.1708622 112.6115150  83.0244541  87.6756954
 111.1015636  83.1265450  87.7003860  28.5732126 108.4805870  58.9091587
  28.6831832 108.8590622  59.7814560  27.6318789 108.3248425  58.8325834
  10.9618616 115.7491875  87.9557228  10.2184403 115.2123451  87.6811981
  11.6907692 115.4426861  87.4162960  39.4290400  82.2734642  66.4178991
  39.3018651  82.0476818  67.3393536  40.3693962  82.4334335  66.3380766
  28.7410188  92.0107841  93.9818478  27.8254747  92.2145748  93.7908363
  28.7192655  91.1231041  94.3392944 115.3555430 102.7810287  76.4817953
 114.9229378 103.5720158  76.1602020 115.2929336 102.8444195  77.4348402
  28.2861638  90.7003593  31.4471102  29.1528368  90.3535461  31.6588473
  28.1421185  91.3942623  32.0905256  24.2113590  84.4532299  19.2727113
  24.4844484  84.5183182  18.3576059  24.5416403  85.2546310  19.6788061
  20.7311535  98.4309387  45.6670570  20.1851797  97.7309322  45.3090858
  20.2074599  99.2242813  45.5548763  11.1010802  52.8238630  76.4174604
  10.3896463  52.4546194  76.9406748  10.7612431  53.6643553  76.1103439
  43.7895584  69.3377113  47.2353697  44.1134834  68.8805389  46.4592886
  44.5768452  69.6844053  47.6551485   5.0337952  97.5745010  65.6002522
   4.3271285  98.1628704  65.3344107   5.3637809  97.9500008  66.4165497
  26.3695025  29.6117115  91.4748478  25.9481525  29.9317741  90.6771946
  26.9021416  28.8715243  91.1839104  18.6660695 106.3362026  72.1620178
  18.6359489 106.4236259  73.1147432  19.5858908 106.4768410  71.9375610
  36.4219022 114.7202301  56.7746162  36.7014122 114.8086262  55.8634138
  35.6669664 115.3036880  56.8512487 113.5858232 102.4892139  40.0276613
 112.9576928 102.1792030  40.6800270 113.8232226 103.3683586  40.3225851
 114.5758981  84.9332905  82.3885441 114.0030212  84.7743225  83.1387234
 114.8731197  84.0622997  82.1253395  48.1609440  63.4737396  73.2557869
  48.7372398  64.1983271  73.4988546  48.6910009  62.9318142  72.6713324
   0.7993907  88.4479046  40.7891750  -0.1239894  88.2176876  40.8921337
   0.7951571  89.1907692  40.1855469  34.2817283  69.2384958  62.9645729
  34.3344021  68.3319330  63.2672358  34.7456861  69.2388201  62.1273279
  28.7905216  69.4863510  29.0954375  28.2275367  68.8938284  28.5972404
  29.6428466  69.4262123  28.6639762 121.3637829 109.7795677  39.5234060
 121.4280010 110.0713825  40.4327774 121.5162033 110.5707455  39.0066457
  23.4716368 112.0902157  94.9263763  24.3425298 112.3026657  94.5907593
  23.6248708 111.8068790  95.8277512  30.1090717  52.0860910  54.2628765
  30.0401664  52.4461269  53.3786488  29.5393062  52.6430559  54.7933388
  22.3090982  90.3383636  26.4201617  21.5533400  90.9251499  26.3928938
  22.5373006  90.2847004  27.3482132   7.5248086  76.6193581  55.7135820
   8.2957113  76.0525799  55.6870747   7.6143920  77.1816921  54.9441719
  20.0183964 118.5941315  57.1605873  20.8589959 118.9766598  56.9090033
  19.5111859 119.3319798  57.4990368  30.8075380  49.1472054  34.2331457
  30.5700111  49.8525476  33.6312318  30.5323577  49.4637442  35.0935578
   3.9743039  99.5248127  84.0607166   4.2469293 100.0416851  83.3025932
   4.7628301  99.4545650  84.5987892   9.9716526 127.9384232  94.3454456
  10.0916719 127.9382038  93.3957958   9.1796684 128.4571266  94.4866467
  14.3012047  68.3521938  62.7011395  14.4892013  68.9088774  63.4567785
  13.3485651  68.3820820  62.6127338  23.6274076 104.9412823  35.6027198
  22.9455209 104.8149300  34.9429464  23.2108188 105.4763603  36.2782788
 101.1877674  81.5320683  79.3732691 101.3876337  80.6983089  78.9476776
 101.9856138  82.0508099  79.2703962  35.3209424  93.2389641  52.4785233
  35.3832054  92.3246956  52.7550793  35.4381537  93.2104683  51.5289545
   7.2715050 109.2729282  65.5180693   8.1996280 109.4713497  65.6423473
   6.8137664 110.0310802  65.8812666 111.4413948  49.8055744  53.6309719
 111.9134337  49.2995024  52.9696798 111.4545936  49.2512989  54.4112539
  42.6796579  52.5713205  51.6595411  43.0953264  51.7171526  51.7772245
  41.9599628  52.4055958  51.0506058  30.6988502  65.0246477  50.3004789
  31.2578154  65.7487631  50.0186205  31.2161708  64.2392826  50.1221180
 107.8401620  57.1052074 108.5196781 107.0956296  57.3328733 107.9628372
 107.7788264  57.7086878 109.2601395   5.5242658  84.5929813  73.2527113
   5.0018406  84.2610645  73.9828730   5.7441270  85.4901028  73.5038519
   3.8142288 100.7717609  55.5162048   3.1519109 100.5120945  56.1566257
   3.3844870 100.6595516  54.6682882  52.6306152  92.5084019  78.9505959
  52.7023745  93.4556675  79.0679932  53.4134912  92.1547413  79.3728018
   3.4383723  80.3638744  34.6044397   2.6710287  80.5799103  34.0745854
   3.9475599  79.7668171  34.0562749  23.9932632  79.9542522  61.1080599
  23.8444781  79.8033428  60.1746130  24.8274016  80.4223061  61.1450434
  63.0209732 106.3259888  43.9999533  62.2061872 106.5103054  43.5326433
  63.3849525 105.5610847  43.5542297  24.1845560  51.0521603  84.8450184
  24.9436045  50.4839373  84.7138596  23.9501691  50.9301710  85.7650280
  15.9467685 100.9543037  48.8057756  16.3366830 101.8098354  48.9853811
  16.5551376 100.5371094  48.1957960   9.8430616  97.9353237  48.9928341
  10.7754886  97.7272892  48.9334011   9.5897591  97.6511288  49.8710728
  37.4868512  74.8740435  57.4605036  36.7930412  74.3134165  57.1132946
  37.5735092  75.5755091  56.8150043  24.6404147  83.2439423  44.9754572
  24.2225599  82.5674438  45.5083561  25.4864430  82.8683186  44.7317886
  31.5121293  65.8234835  69.5045424  31.5400934  65.3718901  70.3480530
  30.7789493  65.4191971  69.0406132  22.5108480  73.3704472  61.0451508
  22.5427604  73.5316896  60.1021719  23.2740426  72.8198004  61.2199497
  54.7146463  72.7982473  56.3539505  54.3115759  71.9563055  56.1420441
  55.6520510  72.6101685  56.4000893  39.0338469  62.5985003  40.7912159
  38.8965344  63.2757378  40.1288462  38.1551099  62.3953962  41.1118364
 122.3719049 101.1727524  73.1988811 121.9786564 101.4052868  74.0400219
 121.9105137 101.7164230  72.5603151 124.6432104 108.1248188  67.9761791
 124.4221393 107.6679611  68.7877512 123.7990734 108.4007645  67.6190853
  46.1833334  52.4527788  12.6412813  46.2812662  53.2959557  13.0836526
  46.7818356  51.8676949  13.1057206   5.6736350  57.9760361  63.9035988
   4.9210548  58.0841970  64.4851112   6.4218146  57.8876638  64.4940662
  51.8431616  73.2681131  64.5189142  52.5104475  73.0489540  65.1692438
  52.3058462  73.2380867  63.6815071  44.2466164  85.1372623  87.0927906
  44.1316414  85.9043884  87.6536274  44.9656010  85.3743839  86.5070724
  41.7712164  71.0608768  82.7001476  42.3861980  71.2532187  83.4079838
  42.0879173  71.5790892  81.9602871  23.8400722  88.7751770  51.1159134
  23.3458519  89.5853806  51.2406111  23.3227682  88.1073761  51.5661001
  23.9651823  93.8533211  50.7239246  23.4751105  94.6631622  50.8661175
  24.0302730  93.4570503  51.5928125  33.6199975  48.7590313  71.9754553
  34.5676947  48.8890600  72.0100355  33.4172416  48.7222242  71.0406971
  39.0275192  79.4844389  51.7503786  38.9510179  80.4266167  51.9009781
  38.7782907  79.0874720  52.5849628  49.4720411  81.9848156  53.1641769
  48.6092854  81.5736961  53.1105900  49.5985746  82.3888397  52.3056984
  24.3348265  67.8450871  45.0602388  24.2441773  67.1850109  45.7474947
  24.9814010  67.4767447  44.4581652  32.8682303 105.9553528  60.0360203
  32.8271341 105.0916100  60.4465008  33.1076598 105.7771683  59.1265392
  29.9948144  78.6981010  12.3861924  29.3630886  78.1075335  11.9758455
  29.5093155  79.5119429  12.5210325  46.5595484  91.2691975  45.6860781
  45.8982420  91.1629677  46.3699102  47.1023941  91.9971180  45.9888697
  24.4092488  75.0652456  22.8390956  23.5862875  75.4415512  22.5270629
  25.0843120  75.5008745  22.3187590  44.7900629  67.1750927  50.9054565
  43.8927555  67.3113728  50.6013203  45.2309465  66.7517567  50.1688194
  13.8674116 112.6220989  74.3974590  12.9501081 112.8944492  74.3727875
  14.2637956 113.0464268  73.6365080  15.9022987  79.3910551  55.8428001
  16.5810108  79.2697525  55.1788235  16.2346363  78.9287567  56.6122580
  21.3769007  64.1581059  58.3169365  20.8368492  63.4770346  57.9160404
  20.7469249  64.7736597  58.6917114  51.6173220  78.5314846  79.8071814
  50.7858181  78.0759525  79.9388218  52.2569656  77.8306770  79.6808386
  13.0067444 123.8845730  44.0012312  13.2416666 123.0028057  43.7121916
  12.4484396 123.7450981  44.7661304  10.4886329  73.5414791  57.9331160
   9.5573944  73.3363676  58.0165195  10.5615568  73.9843655  57.0876789
  84.0248871  66.9695282  24.2792511  84.1827393  66.1938572  23.7410617
  83.4168816  66.6718388  24.9559641  37.9347491 121.7129993  55.3792191
  38.2449174 122.2357082  56.1186790  38.7164044 121.5626907  54.8475647
 120.7146389  89.5784950  54.1973686 119.9753881  89.7842503  53.6251783
 121.1136079  90.4274750  54.3878794  25.3373647 107.0247746  82.7856636
  25.4374003 106.8524456  83.7218952  25.2208304 107.9730892  82.7277946
  34.1563034  68.7051439  86.7651463  34.0045977  67.9218531  86.2363052
  34.5632339  69.3265963  86.1614609   9.5945746  99.8843670  93.5292435
   9.3892455  98.9861584  93.2698441   8.7756163 100.2221107  93.8918304
 103.5261697  89.1853142  -0.1655730 103.2843537  89.6778297   0.6187669
 102.9214830  88.4434128  -0.1784381  12.7774572  92.5270653  59.8279190
  11.9229734  92.4473953  60.2518797  13.0678856  93.4143257  60.0392485
  23.7128401  71.0923052  38.7064791  23.5936594  70.8032656  39.6111822
  24.4905233  70.6224203  38.4053969  32.6686549  89.0140343  48.6438036
  33.2230639  89.7163200  48.9838886  32.2620201  88.6319637  49.4215584
  10.1475966  66.0748911  68.8561678  10.4061639  66.7034483  69.5301771
   9.2436653  66.3084412  68.6449909  51.4571428 118.2852840  13.3461738
  51.2285566 118.5972023  12.4705672  52.4132442 118.2395744  13.3421218
  48.1431580  43.9961481  17.7800775  48.4291172  43.3869696  17.0993698
  47.4000835  43.5589743  18.1959510   7.6111257 109.3586254  25.1375031
   7.6232809 109.0986919  26.0586548   8.0772173 108.6561108  24.6842289
 107.1251232  78.7495756  61.4569330 107.2635705  77.8975058  61.0433578
 106.2040944  78.7425184  61.7174864  46.9217920  99.3862629  15.5734456
  46.8851328 100.1147175  14.9535739  46.7314816  98.6116791  15.0442755
   9.2207044  88.2696438  56.3642979   9.2125469  88.8858318  57.0967388
   8.8441265  88.7606621  55.6340075  42.2581244  94.9450970  79.4434738
  42.4222422  94.0020752  79.4395351  41.3143778  95.0245476  79.3047094
  41.2437582 106.4999866  25.4973626  41.5741920 106.4604950  26.3948488
  42.0214891 106.6592884  24.9625826 120.2143855  93.9541054  17.4201894
 120.2573464  94.8629951  17.7173507 120.8562858  93.4945393  17.9614854
  24.9110866  55.2412033  33.3355784  24.4146752  54.5730972  33.8082743
  25.1840448  54.8089743  32.5263166  27.3530436  92.5501919  26.2014651
  26.4864945  92.5784683  26.6070795  27.5946021  91.6240978  26.2168717
 102.3832030  86.5645409  37.6356125 102.8666515  87.1881962  38.1774306
 103.0212445  86.2649345  36.9880271  50.2442360  98.5019207  50.9311724
  50.7650566  98.7959194  51.6785288  49.3383265  98.5511303  51.2363625
  56.7186451  89.3650436  50.9580088  56.7515182  88.4094429  50.9135532
  56.6861343  89.6463680  50.0436592  14.2278862  87.5883102  32.0315623
  13.9938664  88.1043625  32.8030252  15.1818275  87.6500702  31.9824457
  36.9615436  51.3920069  36.6542578  36.1314392  51.6676569  37.0430708
  36.7844987  50.5180836  36.3061976 121.4273674  72.0177650  45.7195711
 121.3709045  71.1808825  45.2584076 122.2421763  71.9616652  46.2187433
  18.4821498  87.6087189  57.3460150  18.8238370  87.6440334  56.4525747
  19.2050219  87.9190445  57.8913403  35.8250356  48.1216478  30.3032231
  35.7372284  48.7821054  29.6159697  36.2170815  47.3678827  29.8623514
  14.9499834 105.3092098  17.9477584  15.2077460 105.3858662  17.0291102
  14.0942442 105.7357216  17.9928017  17.6680207  60.6242990  46.9645023
  16.9825566  61.0710526  46.4677286  18.1453824  61.3295364  47.4015427
  44.4271612  88.3632946  52.6947021  44.1902494  89.2221165  52.3446608
  44.0684175  88.3590794  53.5821247 124.4191727 108.0907726  51.8156004
 124.9907956 108.5230923  51.1811066 124.6181313 107.1592236  51.7214584
  27.2130775  99.7015667  65.5992985  26.9949555 100.6319141  65.6550550
  26.7563009  99.3949890  64.8159742  26.6371918  88.5366726  62.7951574
  26.5671802  87.6104736  63.0264187  27.5714183  88.7318611  62.8683329
  43.3193684  55.3334999  29.3457794  43.7597752  56.1093950  28.9989901
  42.9705095  55.6141710  30.1918030  32.9024267 111.2292099  60.8813381
  32.5797033 111.2968540  61.7799520  32.7491260 110.3157234  60.6399250
  19.7867596  67.8370190  30.7633877  20.4813337  68.0316687  31.3926005
  20.0019145  68.3686876  29.9970508   8.9057571  85.3048897  21.4945555
   9.7884429  85.5982590  21.2686467   8.8033569  85.5414009  22.4164081
 118.5850847  77.8948164  29.4959927 118.3819342  78.2914209  28.6488390
 117.8082902  77.3785734  29.7112107  35.4219580  95.2783775  62.1790266
  35.4930878  95.8703232  61.4301729  34.9299192  95.7762051  62.8319454
  26.7312694  72.4236012  59.1013002  26.7963433  72.7909517  58.2197952
  26.9780064  73.1448889  59.6801758 120.3347907  95.9442997  30.8596301
 120.4191533  95.5057621  31.7062712 121.2047253  95.8751678  30.4663515
 123.3281895 116.8657017  71.4749384 123.5153671 117.3451138  72.2820091
 122.4908801 116.4330292  71.6420794  19.2078125 110.9039211  55.6348658
  19.5375121 110.3376865  54.9370766  18.3119416 111.1130333  55.3704405
  16.8038273 108.3361149  52.8240585  16.3207591 109.1475773  52.6677895
  17.2465348 108.4782600  53.6607409   7.0205700  97.7794552   5.1149935
   7.2058517  96.9947147   5.6308329   6.9935840  98.4879494   5.7580632
  30.8102870 114.0511799  20.8313775  30.3639030 113.2480145  20.5632567
  30.5562067 114.1724300  21.7462397  19.7757626  77.9344511  36.3541865
  19.2843509  77.3634195  36.9446635  20.0653505  77.3566389  35.6481385
  34.8395777  92.5043774  38.8579321  33.9488268  92.7555466  38.6135721
  35.0137973  92.9924488  39.6627116  61.3114262  91.7401218  33.1289864
  61.4943981  91.5789413  34.0546060  62.0879412  92.1983242  32.8075910
  32.9975080 101.4263058  18.2471383  33.9175940 101.2689209  18.4590387
  33.0138373 101.7823887  17.3587847  50.6034374  86.9805813  38.3294368
  50.4530907  86.1224556  37.9328942  51.1232615  86.7952633  39.1115308
 114.2418701  75.0932932  61.5169239 114.3528015  75.4747009  60.6460333
 113.3881409  75.4112387  61.8106699 102.0749468  69.4283247  72.0042658
 102.1458239  68.4791946  72.1060562 101.2574262  69.5572472  71.5233564
  45.3195047  71.7807150  24.8212457  45.2375698  72.7319479  24.8895979
  45.6898165  71.6341448  23.9508343 123.2060947 134.0291786  43.2460117
 122.6323599 134.7795296  43.0909824 122.8329103 133.5970211  44.0142632
  20.5422187 101.2133121  48.9617443  21.1414695 101.8222713  48.5301208
  20.4031539 101.5896511  49.8307991  21.9802475  89.3860340  68.4566736
  22.1562958  90.2529430  68.8223267  21.1683321  89.4952679  67.9616070
  20.6709814  59.4425440  37.2312832  20.6727839  59.2967558  38.1773138
  20.9746695  60.3443193  37.1273327  40.0181293 106.7079258  31.7358565
  40.1405478 105.9016418  31.2347054  39.8184347 106.4102745  32.6234150
  29.0695381  80.0867558  58.1666422  29.8480630  79.5587969  57.9894829
  28.4568381  79.8512983  57.4699450  47.7829599  82.7576351  16.1750531
  48.5688305  83.2920647  16.2891817  47.4434614  82.6384640  17.0620549
   0.2161532  79.3350506  35.5017900   0.7805489  79.3664265  36.2742567
  -0.1664009  80.2108860  35.4489303   9.7881204  79.1709423  62.1575403
   9.3895423  80.0292301  62.0136261   9.7960144  79.0670395  63.1090546
   2.6715475  39.0722561  65.1054573   2.3755050  39.7415876  65.7223749
   1.8975604  38.8728619  64.5787525  71.3810778  90.9140205  29.3453789
  72.2045135  90.9380245  28.8579297  71.6467047  90.9241676  30.2649283
  31.7027807  64.4034815  35.2106953  30.9453750  64.0694523  34.7300768
  32.4502540  64.2079782  34.6456337  14.8142660  98.1755638  47.3248053
  15.3684759  98.4163666  48.0671692  15.4280138  97.8695774  46.6570377
  16.1833334  68.7402439  41.3053608  16.0722172  69.6386862  40.9944201
  16.3886321  68.8324404  42.2357273  34.4649673  46.5951920  32.0571089
  35.1269102  46.1327362  32.5711107  34.9165249  47.3729181  31.7292881
  14.0945768 101.5745354  12.8429782  14.4346118 101.6137123  13.7368870
  14.3265378 100.6978226  12.5366974  15.4254949  96.8588638  38.5132098
  15.8584082  97.6198673  38.9001036  15.2399397  96.2852001  39.2566514
 116.8616826  54.0480709   5.4990000 116.8417878  53.2042789   5.0475001
 117.7107770  54.0634441   5.9406275  37.1290588  93.7357903  67.9419518
  37.4906921  93.6960506  67.0565844  36.1821365  93.7871170  67.8118134
  23.0336428  61.5476084  55.1465368  22.2181964  61.0624647  55.0203943
  22.8656459  62.4044943  54.7544241  16.0373127  65.6843901  58.9268970
  15.1282859  65.4973793  59.1612625  16.1516547  65.2779484  58.0678463
   5.7282478  60.7342291  20.3042817   6.5913785  61.1047840  20.4884720
   5.2102596  60.9345627  21.0838890  17.9738963  52.0999241  24.8087192
  18.7195528  52.6499414  25.0489402  18.1894338  51.7722464  23.9355612
 120.4095084 116.1963367  37.8718209 120.2796898 117.0040512  37.3748493
 121.3583428 116.0703659  37.8805447  31.8892527  56.6873455  43.2744837
  31.9464660  56.6562510  44.2294645  32.7062821  57.1030426  42.9990005
  34.3931770 119.3555069  38.7647486  34.8376369 119.3111992  37.9181528
  35.0797272 119.1707897  39.4056535   4.3295872  75.8928251  31.7053413
   3.6872405  75.2043486  31.8774557   4.3711630  76.3910866  32.5215769
  48.6490679  72.8261662  36.5140462  48.6967659  72.4745274  35.6250548
  48.6530495  73.7761021  36.3964057  31.7232323 104.9807072  63.6022854
  32.4089766 105.4558277  64.0715933  30.9089112 105.2604389  64.0204525
  40.0920105  45.3205061  39.5632744  39.6010423  44.4999409  39.6063828
  40.5740595  45.2681208  38.7379742 111.5732152 101.1873722  26.5399384
 111.1170167 101.5619469  27.2934699 111.4866156 100.2409172  26.6537380
 116.4468444  60.6405115  55.1219797 116.5070493  61.0869980  55.9665251
 116.1118919  59.7694731  55.3348875   0.6924646 110.1693821  36.5427327
   0.0635328 109.4478130  36.5443444   1.1117405 110.1235867  37.4020004
  45.7952356  93.1752014  32.3460627  45.4508018  93.4102917  33.2076478
  46.7050076  92.9276657  32.5112081  52.0168686  54.3420649  86.0370064
  52.8125477  54.3181849  86.5685654  52.1115780  53.6072636  85.4309273
 121.6403828  95.7392883  50.4370880 121.8622807  95.3538132  49.5895052
 120.8468557  96.2474251  50.2687311  29.6312451  73.5492611   5.5405790
  30.3333831  72.9283285   5.3464746  30.0371933  74.1976690   6.1159074
  10.8662891 102.2389793  46.8147516  10.9605336 101.8940353  47.7026510
  11.5571165 101.8045807  46.3144588  51.5813637  85.9700489  40.9501028
  51.5150166  85.0670338  40.6396437  52.3092556  85.9567833  41.5715742
   7.3741841  65.8699703  56.5631628   7.8806627  66.3725471  57.2012281
   6.7649752  65.3554726  57.0926809  10.0113904  80.8005619  52.8459787
  10.5001044  81.4095306  53.3996439  10.0767469  81.1716461  51.9660568
  66.3717985  90.4300404  52.4181271  66.5275240  90.4969406  51.4760542
  66.6252851  91.2857533  52.7641535  24.4697261  82.4468899  15.6701398
  24.1680861  81.7411709  16.2421572  25.0678802  82.0193195  15.0572574
  34.4489813  87.6872730  68.5371923  35.1196790  88.3356667  68.7516165
  34.3239737  87.7754688  67.5922966  19.3668711 105.8953762  37.5173879
  19.4881761 104.9540615  37.3930669  18.4721756 105.9801102  37.8468871
  37.5365162 132.2513294  37.9618311  38.3055401 132.0016098  37.4495077
  37.7966380 133.0580521  38.4065557 123.1043621 103.6053658  34.2354155
 122.5539095 103.4879875  35.0096607 123.2283654 104.5523167  34.1710329
  15.7198656  67.3214388  31.8881059  14.8611677  66.9212103  32.0248079
  15.9193885  67.1517181  30.9674454  24.7310805  66.8476200  24.3486857
  24.0031338  66.2664604  24.1282773  25.3300333  66.7736483  23.6057091
  42.8653431  93.8245964  47.7407598  43.0363035  93.9059544  48.6790466
  43.4954786  94.4167519  47.3302603  32.8260779  62.7421665  42.0956087
  33.2241273  63.4025240  41.5284061  33.5221457  62.1018028  42.2427559
  21.4233637  99.7955513  40.0937605  20.8863020 100.5058002  40.4449654
  21.6137338 100.0615406  39.1941810  35.2964687  90.3728294  34.2936373
  36.1097383  90.8007908  34.5613575  35.2891588  89.5476246  34.7786260
  44.1159487  94.3601227  94.5907784  44.1506529  93.4117889  94.7160912
  43.6267042  94.6839046  95.3471088  10.2118468  53.0818367  38.4756541
  10.6355941  53.5868025  39.1696835  10.5084300  53.4940910  37.6642871
  10.4014945  38.1903291  40.0442410   9.6593815  37.7011395  39.6889973
  10.2682471  39.0861344  39.7343874  53.7392712  89.7655201  62.1823406
  54.0624475  89.5717525  63.0622482  53.7581921  88.9225769  61.7292118
 119.3733627 104.3747044  34.7573090 119.2097891 104.0846825  35.6547284
 119.9474908 105.1347256  34.8521066   8.9593852  80.1470375  45.3412437
   9.8299068  79.9342442  45.0048780   8.9240187  81.1034679  45.3262424
  21.2126422  69.7061872   1.5395625  21.2049890  68.9597082   0.9404424
  20.2960968  69.9759722   1.5977897 106.2741143  98.5457420  55.8594751
 105.5896134  98.3990383  55.2066612 106.9231874  97.8646851  55.6831408
  58.3059359  96.7507267  45.7620573  57.7581787  96.3500309  45.0870514
  58.1051493  96.2574863  46.5574360  23.3204889  89.9155426  74.1056490
  24.2424965  89.7028255  74.2501640  23.0812335  89.4229317  73.3205843
  32.0210028  98.9743614  25.7111311  31.3555408  98.6146069  25.1246500
  31.7115021  99.8577404  25.9113336  33.1072330 109.3084621  31.7763424
  34.0163922 109.1265488  32.0141745  32.9142404 110.1484966  32.1926832
  48.5331774  89.0822506  37.9701114  49.3159723  88.5386848  38.0596066
  48.4871387  89.5728397  38.7907434  19.9571407  84.8393440  54.9850225
  20.1269269  84.2062855  55.6826162  19.8026335  85.6652737  55.4435062
  50.8423471  54.7143173  33.6743116  51.3398933  54.6562004  34.4899750
  50.1167393  55.3044605  33.8779020 121.6949824 116.6313076  43.5582066
 121.3619418 115.8021736  43.2149029 121.7996178 117.1858883  42.7850866
  24.6031380 133.9882946  29.3976498  25.4280758 134.3764973  29.6892142
  24.6153307 133.1014442  29.7576261 119.0851671  64.7289944  16.7033875
 119.7566251  65.0362825  17.3124421 118.2722462  64.7594070  17.2078335
  55.8033085  58.3177376  30.0611496  55.6142139  57.7654600  29.3025589
  56.3637781  57.7768087  30.6174755  28.8061905  75.9703064  45.3454065
  28.0991721  76.5232229  45.0127745  28.4107518  75.1030827  45.4336166
  23.0711150  64.2780256  48.6620188  23.9258385  64.6611929  48.8591576
  22.5445127  65.0143719  48.3510351  29.2058492 107.8325367  52.7046490
  29.6089625 107.1203041  53.2010889  29.2122459 107.5260067  51.7978764
  19.5321524  96.2808514  44.7225809  19.5625484  95.4010868  45.0985193
  18.8233113  96.2425613  44.0804672  30.2773833  94.5877361  39.6239138
  30.0856471  95.4503345  39.9918628  30.4203796  94.0281391  40.3872252
  19.0652812  92.8148556  47.3090553  19.2216599  93.6238575  47.7961683
  18.9695537  92.1433258  47.9844189  29.7122431  83.4872627  48.9620447
  30.3018999  83.3662605  49.7062826  29.3820477  84.3802643  49.0608025
  36.8945026  84.9729156  25.0960469  37.6626420  84.4044399  25.0409913
  36.2611365  84.5784473  24.4964886   0.9433307 100.7784843  55.0984383
   1.1408384 101.0634613  54.2062426   0.5940703  99.8932648  54.9953365
  87.0843405 103.2006645  17.3444104  86.1473984 103.3466434  17.2137940
  87.4611921 103.2636452  16.4667726  41.9158077  99.3164158  27.8428555
  41.3928270  99.8942280  28.3986115  42.6995754  99.8262310  27.6378369
 120.8872012  80.3512478  25.4817176 121.2228639  81.2404156  25.3679132
 120.7399730  80.0349045  24.5903802  37.1267343 116.3247395  45.2253437
  36.2336993 116.6512775  45.3353024  37.0166183 115.4271126  44.9116898
   7.0073670  91.4860058  75.6507587   7.4430549  90.9313202  76.2978554
   7.6404333  92.1794128  75.4646063  34.7257519  46.8750334  18.0148530
  35.1633883  47.2338676  17.2428787  35.3481984  47.0129919  18.7288284
  31.0704422  66.7640829  38.3824635  30.8100629  67.6650047  38.1907082
  31.7285085  66.5584707  37.7184582  44.7925282  80.7173061  47.0567656
  44.6005726  79.7801304  47.0898199  43.9692402  81.1392307  47.3025370
  57.4777031  28.0999899   0.6460712  57.4337006  28.5106659   1.5095761
  58.3774233  28.2492161   0.3554456  32.9380131 100.8588505  42.8649426
  32.4860883 100.6844044  43.6905098  33.8663507 100.7537556  43.0732155
  54.9788952  60.7294321  48.4692860  55.7442093  61.2899733  48.3415508
  54.2866659  61.3290119  48.7477732 120.7353211  74.3909454  67.4550772
 119.9041212  74.0193510  67.1596861 120.4837332  75.1077509  68.0374193
  51.5186071  88.5202217  33.0389595  51.0381126  88.6480522  33.8568926
  50.9887314  88.9655590  32.3777914  38.4876561 116.6184044  82.0140266
  37.8878951 117.3498249  82.1608257  39.2158413 116.7817688  82.6134300
  45.9484482  68.5767078  90.4125977  45.3170586  69.2943430  90.3618622
  46.5110731  68.6981821  89.6477890  44.5930767  85.6149292  16.0330057
  44.2898273  86.4203453  15.6139767  45.1876831  85.9124184  16.7216098
  27.6218176  69.6859503  12.1012962  28.1002355  68.8891506  12.3303282
  26.6997337  69.4475317  12.1969438  43.3181190  81.3558102  30.2139020
  43.0629778  80.5990601  30.7416010  43.0441284  82.1125126  30.7321310
  31.4082265  78.4435225  57.7414751  31.7933488  78.6307287  56.8853998
  31.9724655  77.7665472  58.1150723   3.9761156  87.7370644  75.0602198
   3.1128138  87.4734688  75.3787470   3.9790332  88.6911011  75.1378632
  30.1515126  92.2115517   0.7367412  29.3784571  92.7675724   0.6394973
  30.8656502  92.8233624   0.9154224  12.5577986  51.3507557  24.5998192
  12.5636303  52.2962475  24.4506621  13.4270620  51.1583805  24.9513912
  16.4699352 106.9821548  70.4154110  16.2682629 107.8814030  70.6740808
  17.4102950 106.8934536  70.5706120  15.5997336  64.5095253  39.0890384
  16.4971542  64.4013119  38.7741423  15.6942177  64.9419165  39.9377680
  27.1846485  88.3029747  33.1500101  27.9889441  87.9818439  33.5577083
  27.0340657  87.7075958  32.4157858 100.1168794 123.4345531  31.5002465
  99.7867102 122.8942490  30.7824087  99.7619242 124.3063927  31.3266611
 109.7810764  83.8370228  75.3480864 109.1372020  84.4608498  75.0126791
 110.5416412  83.9477634  74.7775555 114.9490649 125.0609493  47.1877718
 115.2530474 124.5312881  46.4506865 114.0119047 124.8749924  47.2459364
   8.2984656  99.9052715  53.3358097   8.9860290 100.2434158  53.9095211
   7.6236844  99.5843220  53.9340496  26.7038417 116.7325306  50.0919008
  26.4572287 117.1736717  50.9047985  26.7937779 117.4398613  49.4532967
  17.7413595  83.2540131  60.9685230  16.8484557  83.2001114  60.6278610
  18.2176936  83.7628841  60.3124857  51.7657089  64.5385981  24.6176600
  50.9570789  65.0490618  24.5754385  51.9475079  64.3022346  23.7080908
  51.5894365  89.3185902  24.7696686  51.2992001  90.2300549  24.8045921
  52.0638418  89.1866684  25.5905008  42.0400763  82.2947788  66.9662523
  41.7587709  81.6324520  67.5974560  42.4826956  81.7974949  66.2784863
  19.6956217  81.7588997  49.8682165  20.4825473  81.9628811  50.3735590
  19.3329179  80.9816265  50.2931070  28.2485723  36.0653090  39.5968914
  27.2974300  35.9694982  39.6456814  28.5826039  35.4945540  40.2889109
  24.5789123  67.4529362  47.7999258  24.4196439  68.2467318  48.3105755
  23.9264512  66.8287945  48.1176805  43.0907345  52.6621675   7.4730390
  43.2290316  52.7856827   8.4121078  42.1660280  52.4271870   7.3959893
  23.9881325  86.4498806  83.1310272  24.9070597  86.3924885  83.3927727
  23.9741373  86.1210632  82.2321892  70.9020042  95.0852489  22.6039791
  71.3368511  95.4559135  23.3719277  71.6174078  94.8581696  22.0099521
  53.0499697  76.0559559  68.6018372  52.6530886  76.2301350  69.4552898
  53.9878035  76.1855984  68.7428665  40.8633804  81.1149597  76.7065048
  41.0715580  81.7215824  75.9959412  40.4798317  81.6669369  77.3880100
 119.0369094  53.8302469  23.8079214 118.3828968  54.2550230  23.2528853
 119.8745788  54.1726112  23.4959459  25.6976938  56.7083693  38.8513112
  25.7857895  56.8706942  37.9120970  25.1181722  57.4042702  39.1613245
  59.0496111 111.6377544  40.1047754  58.8636160 111.5909195  41.0425663
  59.2143154 110.7305527  39.8476696  44.5113325 104.0062046  64.6613407
  43.8205576 104.1749859  65.3021002  44.2669153 103.1724548  64.2596579
   5.3306842  73.6561918   8.7522578   5.5473417  72.7259684   8.6891681
   5.8216423  73.9653635   9.5135748 118.5767055  84.2454815  27.9987097
 119.4136865  84.7099113  27.9997659 118.6915893  83.5433388  28.6390448
  37.1190476 105.6399441  10.1503539  36.5462232 105.9085178   9.4320410
  37.2271633 106.4306164  10.6789243  33.2153535  64.2070389  57.5170708
  33.5892129  63.7199497  58.2513714  33.1760907  65.1123762  57.8253889
   3.9938694  71.9389486  51.0858727   3.1736505  71.4561033  51.1875153
   3.9098120  72.6822662  51.6830730  44.2342043  61.1917830  45.8998203
  44.5796299  60.9190512  45.0498009  44.8817062  61.8128252  46.2333965
  32.0362663  62.7475786  52.0678473  31.1381292  63.0511904  52.1997690
  32.2781849  62.3455763  52.9021692  60.1925325  98.2117748  32.8589010
  60.0232124  98.1299591  31.9203544  59.3631315  98.5174656  33.2261562
  30.8675098  33.3256459  59.1584539  31.8185472  33.2264113  59.1147137
  30.7344460  34.1766715  59.5759201 117.8908420 129.2096996  31.5371084
 118.2641036 129.9784946  31.1059785 117.2161771 129.5639229  32.1164083
   7.2121513 105.6733418  36.8504167   6.8779230 105.0059795  36.2511301
   6.4407921 105.9689140  37.3340249  20.6750965  54.9570179  70.7404566
  20.1501775  54.4557667  70.1164055  20.3490305  55.8535433  70.6619930
 106.7480130  68.9047956  23.6556530 107.2218139  69.5818377  24.1387272
 106.5464456  68.2384729  24.3126273  69.4707251  80.6066322  52.6006174
  68.7804317  79.9711514  52.4111843  69.0174150  81.3314533  53.0311728
  39.4041514  84.6674919  27.3918295  38.8482642  85.4445553  27.3334622
  39.3865085  84.2936611  26.5108228   1.5029940 112.6317024  38.8067222
   2.0796010 111.8710041  38.8781238   1.7135182 113.0126476  37.9542017
  29.6034455  80.3820705  77.6478148  30.5333781  80.4020023  77.4218512
  29.3233061  79.4928122  77.4310637 122.8981825 102.0530033  65.2219629
 123.5671439 101.9280910  65.8951044 123.3524857 102.5111866  64.5149231
   8.0870759  80.2572536  32.4113131   8.2222849  80.6201935  31.5359712
   7.4791080  79.5300770  32.2778082  42.1596718  84.3111610  12.4715626
  41.2051439  84.3690586  12.4296367  42.3339653  83.7946892  13.2583976
  19.1781902 101.0701656  64.2170715  20.0105357 100.9480667  63.7604284
  18.5351658 101.1826134  63.5169935  34.5160604 111.4260769  41.8091488
  33.8059306 111.5654945  42.4356556  34.1337490 110.8644962  41.1348438
 107.1962661  74.0909576  49.8494959 108.0936415  74.2210770  49.5428705
 107.2699196  73.4197235  50.5279112  32.0852423  84.2360973  36.3188171
  32.1632886  83.3012962  36.5092921  32.7807379  84.4101906  35.6846142
  25.2846122  81.0118198  66.6417980  26.0191512  80.6633091  67.1469927
  25.1740503  80.3917694  65.9209967  29.9242997  86.2461376  33.1242061
  29.9742961  85.7264137  33.9264655  30.3473663  85.7023048  32.4597597
  16.5000451 106.8277073  43.2994699  16.4147365 107.2336960  42.4368429
  16.1630440 105.9397030  43.1806326  10.5679739  68.6504602  59.8155546
  10.0286901  68.0542994  60.3351688   9.9587500  69.0388823  59.1876984
  66.1912966  81.9596100  74.7920132  66.5015459  81.7548656  73.9099360
  65.4542398  81.3648510  74.9307299  37.8513360  63.5257530  96.9875237
  37.2991753  62.8267860  97.3379453  37.3615909  64.3290472  97.1638819
   3.7781188  78.3738756  56.9520235   4.2919439  77.6475668  57.3051453
   4.2548585  78.6454630  56.1676836  38.0581903 124.5584488   4.5450693
  37.9978728 124.0389538   3.7433758  37.8201270 125.4451656   4.2743534
  28.3045340  49.2037106  56.2648630  27.4564219  48.7642336  56.2032318
  28.5613823  49.3572140  55.3556347 119.0271509  82.6532555  60.2395582
 118.9022899  82.7292061  59.2935801 119.9274567  82.3434925  60.3382063
  59.2863846  80.8453274  37.9542279  58.9378500  81.5260696  37.3785973
  59.6179342  81.3218594  38.7152958  11.4779127  78.2568026  56.7262936
  10.5280900  78.2804394  56.8425274  11.7710364  77.5441504  57.2941351
  35.6126094 128.1485748  40.2914476  36.1699986 128.0640888  41.0650206
  35.8106732 129.0196037  39.9474907 113.2853145  66.5776110 104.7082117
 113.2915790  65.7399082 105.1712918 112.7625150  67.1549559 105.2646154
  35.6605291  87.8549290  48.9976931  36.2128735  87.4590397  49.6717978
  35.2624106  88.6115360  49.4281435   3.4753203  95.1980495  26.9206333
   2.7191567  95.0925922  27.4979782   4.1215354  95.6604099  27.4543595
   6.9033498  43.3824301  99.3648060   6.0352147  43.7592459  99.5082732
   7.0305771  42.7861786 100.1027276  18.5176516  84.6621418  41.3099575
  19.0909350  83.9415455  41.5713549  18.2636452  85.0772190  42.1342278
  18.4427190  68.6517906  19.3238413  19.3655729  68.9029360  19.3625772
  18.0229354  69.3573666  18.8317263  43.0269194 126.5720749 108.5260504
  42.1646214 126.4444256 108.1306049  42.8418970 126.7827606 109.4412606
  26.8232346 109.1234016  55.8586025  27.7110243 109.4477367  55.7073689
  26.5034485 109.6375656  56.5999556 117.7320868  86.3057995  19.2294323
 117.3702807  85.7742500  19.9385083 117.9163981  87.1529198  19.6351850
  21.9251871  95.0098419  17.7386975  22.6988053  95.4401779  17.3746121
  21.8959093  94.1592026  17.3007548  45.2765656  92.1348763  43.0733109
  45.1858425  91.7976379  43.9645290  45.2748775  91.3536072  42.5202656
  42.4428511 111.6248894  11.3890660  41.8416119 110.9908962  10.9981728
  43.2491112 111.1306477  11.5370536  15.8082998  53.7059784  27.6608062
  14.9373686  53.6652184  28.0558348  16.4001489  53.4173346  28.3555245
  12.2006857  94.8363590  15.2346838  12.4831533  95.6851006  14.8939824
  11.7546475  94.4188881  14.4977987  32.0320392  32.3952222  20.8635855
  31.1248684  32.3899460  20.5582309  32.1468210  33.2595968  21.2584496
 123.0160133  96.4291191  15.8824229 122.3590831  96.3859081  16.5772653
 123.8446164  96.5582943  16.3439035   4.0500328  86.7881680  24.6055460
   3.4604254  87.4697495  24.2830014   3.7679130  85.9934521  24.1526985
 123.8734058  53.6793661   1.8385373 123.6146255  54.5513773   1.5404457
 123.8009542  53.7209177   2.7920863  34.3750620  52.7032280  36.9997382
  34.8159528  53.1959438  37.6918936  34.2992663  53.3238792  36.2749767
  57.0634079  86.8532658  27.0537806  57.4424076  87.6162434  27.4901938
  56.1665440  87.1163845  26.8473029  27.0793343 145.4843616  14.4766963
  26.2337565 145.8973885  14.3016541  27.0743608 144.6917057  13.9401293
 108.6600477 102.6708221  14.3136668 108.4448749 102.7037048  13.3815444
 107.8199238 102.7862453  14.7576284  16.4185250 102.3596954  32.9494286
  15.6487966 102.2782516  32.3862958  16.8611860 101.5143776  32.8737378
  39.1590357  90.7701492  41.5776157  39.8649907  90.3861332  42.0976114
  38.8032699  90.0357056  41.0773468  29.3812156  88.7856865  11.9638383
  29.4437671  89.1039371  11.0632598  29.3422675  89.5800877  12.4964249
 116.3551224  71.6466856  51.1109304 117.1944690  72.0633221  51.3062334
 116.1159874  71.1980104  51.9219398  77.1986008 100.8670044  22.0265198
  76.9669104 101.5109444  21.3572645  77.9073381 100.3575802  21.6335702
  40.7397032  91.7394447   3.1613070  40.7174826  92.2223759   2.3351619
  39.9125624  91.9596386   3.5897747 114.9918336  71.4226007  15.6732428
 115.9419656  71.4161587  15.5573142 114.7148294  70.5393314  15.4296672
  24.4827032  88.4743595  33.5201430  24.2641234  87.6563740  33.0736542
  25.4354572  88.5369492  33.4525204 124.8378969 101.9811249  67.2707272
 124.7145741 101.0648727  67.5187111 124.4201486 102.4779606  67.9742002
  27.9035425 118.9218044  15.5367672  28.1794548 119.8263168  15.6849897
  28.6811399 118.3990669  15.7325029  25.3082252  74.7276688  48.6514044
  25.8823776  75.4726267  48.4735918  24.5319557  75.1147985  49.0560913
 107.6178748  77.3959112   5.2169877 107.0315368  77.7624226   4.5550892
 107.5148649  77.9726410   5.9739572 119.7614313 107.8202724  33.7083149
 119.4008506 107.2892666  34.4184232 120.1974142 107.1895981  33.1352472
  52.4598837  58.0730867  36.0667491  52.8864050  58.3611202  36.8738103
  52.8425741  58.6239243  35.3838444  44.2001772  88.3557606  39.0297627
  44.3038559  88.6973095  38.1416059  43.9383984  89.1156864  39.5495772
   2.7079743 116.1142826  40.3304720   2.4459752 116.9504547  40.7157040
   2.8770077 116.3169575  39.4103742  23.0148578 106.9670773  19.7889686
  22.9400396 107.7698421  20.3049135  22.7348375 107.2206497  18.9094698
  52.5344515  58.5470009  28.3874178  53.0490589  58.7914944  27.6182413
  51.7496586  58.1326628  28.0287218  43.8340569  70.1206017  39.2970943
  42.9699564  70.1069021  38.8855433  44.2859125  69.3604422  38.9307404
  37.1427035 118.3817101  18.7536883  36.4563656 118.3470631  18.0873775
  36.8347955 119.0359402  19.3809092  43.3367729  89.3249130  79.4896030
  44.1162205  88.8609219  79.1839838  42.6230669  88.9685059  78.9606142
  32.4416327  84.6683693  49.7875738  32.2933078  85.1124096  48.9526653
  33.3942986  84.6222687  49.8684025  92.1772952  78.6929846  50.2788544
  93.1007380  78.4501934  50.2115059  92.1753115  79.6479273  50.2131987
  23.4733891  95.5597115  38.8018608  23.8267088  95.1320267  39.5819092
  22.7962160  94.9611950  38.4865189  42.6948261  73.8333797  58.0889893
  43.4947395  73.3077383  58.0976248  42.9871464  74.7179842  58.3086586
  17.2938597  33.2550287   3.5041142  16.3784671  33.1576180   3.7664121
  17.7868056  33.1751204   4.3207228 108.7086505  68.7459230  39.3073058
 108.2476634  68.2623672  39.9927950 108.3852333  69.6431828  39.3883061
  36.3646674  70.5595875  30.7097411  35.8182478  69.9023581  30.2787995
  36.2408090  71.3529873  30.1887774   0.5398168  73.1209993  22.6689672
   0.1602120  73.6947155  23.3345366  -0.1652014  72.5129747  22.4465203
 121.1786885  74.7906685  45.3316879 121.8364400  75.2630043  45.8420753
 121.2049193  73.8976097  45.6751728   4.6263376  72.5632381  30.2827764
   3.7693465  72.9872179  30.2375865   4.5907325  71.8792582  29.6140957
  40.9511805  87.0912457  44.0947819  40.3817701  86.3803959  43.8003254
  40.3496647  87.7599335  44.4222879   2.7303201  73.4230614 104.6384098
   2.7274454  74.2175245 105.1723098   2.9734069  72.7259445 105.2476474
  15.8246195  63.5163975  18.6722803  15.2689576  62.7505493  18.5275567
  16.0661900  63.4657145  19.5971084   6.0794163 133.8131523  33.8642287
   5.4845923 134.0028191  33.1386638   5.5470109 133.9392662  34.6496415
 114.0502173  74.3446636  90.8399487 113.4548051  73.6369371  90.5932999
 114.5351536  74.5400620  90.0381470   8.5472131  93.0870438  50.2964497
   7.6708096  92.8347588  50.0057650   8.8404471  92.3538399  50.8374214
  51.0965776  62.8690958  45.8808327  51.4445925  62.0598555  46.2553263
  51.6468477  63.0347967  45.1153421  21.0810900  35.2422619 108.4464886
  20.4408455  35.3802967 109.1445326  21.0594225  36.0528708 107.9378865
   7.2567028  77.7194023  31.8475938   7.6514059  77.0758009  32.4359965
   7.6653820  77.5501823  30.9987259   2.4370515  79.8177242  37.1632743
   2.8851074  80.1614666  36.3904095   3.0179307  79.1313124  37.4913740
  54.1002798  59.8746061  26.2623668  54.1453457  60.4966068  25.5362010
  54.2548084  60.4063463  27.0431376  38.4182119  42.6659870  39.6417689
  38.7245727  41.7888546  39.8720098  37.7915788  42.5223398  38.9325929
  23.9062858  55.7825613  16.6412592  23.5405755  55.4284382  15.8306515
  24.3783331  55.0473785  17.0322907  36.2143683  94.2685127  23.1694770
  36.7045760  94.6143532  22.4236083  35.9648228  93.3837891  22.9026175
 113.8625700  52.2640610  29.8310161 113.7461693  51.5250921  29.2338490
 113.6249823  53.0318546  29.3111324  44.9299097 108.7660408 103.2847824
  44.5161819 108.4646511 104.0936264  44.2386103 108.7061501 102.6254221
  18.5972679  81.7152882 106.6689479  19.3535709  81.1967468 106.3944467
  18.7400317  81.8714523 107.6024687   9.7784644 120.7829094  55.6506300
  10.1235521 121.4941406  56.1903477  10.1772738 120.9192276  54.7912121
  29.3764639  80.0527573  37.9447579  29.0494442  80.2476883  37.0665240
  28.9175010  80.6706047  38.5138369  15.8969414  80.1290894  10.0370014
  15.9346831  80.9029102   9.4748563  15.0193906  80.1527977  10.4185438
  14.5624614  97.2365856  20.5821729  14.4156766  96.3000298  20.7146049
  14.1749656  97.6511097  21.3530469  16.6325450  47.7176571  57.1419144
  16.0300314  48.4211874  56.9005632  16.4781713  47.5802040  58.0765295
   9.4921654  62.4035168  43.6531115   8.8607311  61.9089651  43.1306744
  10.3448701  62.0597219  43.3867788  19.0461850  80.7112026  92.8319653
  18.5059810  81.0105991  92.1006819  19.5732105  81.4744091  93.0686136
  86.4665699  72.1735954  12.1274197  87.0335102  72.7328014  11.5962899
  85.7967949  72.7664185  12.4682975   2.3820634  95.2094936  15.2412438
   1.9878444  95.4287148  14.3969893   3.2058856  94.7773266  15.0159025
  35.6407475  89.9894047   8.8640976  35.4322100  90.7418251   9.4178182
  34.8356748  89.4718170   8.8501871   1.5509583 146.0230732  58.9106035
   2.0478372 146.1361885  59.7208786   2.2187328 145.9310532  58.2310152
 106.5306742  64.5057487  31.0021257 106.0191698  63.7069416  31.1305857
 106.6638548  64.8495293  31.8854761   1.4540204  95.3932762  23.5554338
   1.7425829  95.2217770  22.6590252   1.0731020  96.2707329  23.5206938
  25.2384830  67.7648115  37.8392458  25.8134103  68.2230282  38.4522104
  25.2532959  68.3038378  37.0483851   4.4712046  82.8168011  15.7861972
   4.9234796  82.6260948  16.6079700   4.2616293  83.7492943  15.8389568
  13.9277971  75.6702471  37.2102141  14.6583223  76.1823893  36.8634057
  13.5119736  76.2486649  37.8495479  27.6001787  80.1238632  24.9024534
  26.9182706  80.4088116  25.5107641  27.6610780  80.8325291  24.2618895
  10.5950344  79.0856743  28.0488276  10.1366091  79.9114609  27.8933907
  11.5157878  79.3344402  28.1298208  30.1014829  92.2537804  48.4877205
  30.5160308  91.8535328  49.2520428  30.4291153  93.1531334  48.4810257
  38.4182763  92.4754429  29.3894100  38.5990334  92.2138500  28.4865618
  37.4721384  92.6187038  29.4124103  10.5355501  88.1446171  39.4101691
  11.1590326  87.6363659  38.8913393  11.0727608  88.7993145  39.8562717
   6.9956994  80.2029991  36.3532996   7.7297550  79.6966600  36.0054350
   7.3762196  80.7192516  37.0638824 101.5722699 106.1240196  41.9821215
 100.9850091 106.8753719  42.0647478 102.2726602 106.4297104  41.4057207
  42.9689646  66.7106247  54.1238546  43.5607767  66.4163160  53.4314871
  42.1051598  66.7224073  53.7116194  25.7151985  68.9701033  63.7580872
  25.3681850  69.8129845  64.0502739  26.4093041  69.1982365  63.1397009
  31.8867636  58.3221912  25.2294588  32.2987103  57.4627066  25.3179073
  32.4433613  58.9084578  25.7420278  52.9213858 111.7439938  97.4826118
  53.5124493 112.4119473  97.1351799  53.2337523 111.5879250  98.3738502
  68.0172539  86.1131096  29.6817803  68.3599472  86.9911575  29.5150113
  67.8658867  86.0905457  30.6266665  24.6093631  66.1345196  72.3872757
  24.1620469  66.1813259  73.2322311  25.3637671  66.7158318  72.4831247
  15.9586358  93.2684994  20.3118992  15.1795697  93.4739494  20.8286929
  15.7139170  93.4867287  19.4126093  40.5070019  87.9071331  24.5786309
  39.9891949  88.7115574  24.6102500  41.1676264  88.0738068  23.9063001
  42.6479769  87.2159576  59.8014641  41.8806219  87.1892548  59.2298985
  43.3833504  87.0082188  59.2250061  13.5473287  50.1426792 102.1877905
  12.8321886  50.7713842 102.2854217  13.7215507  49.8379135 103.0782934
  19.2235768  68.9968634  66.5106392  19.5408940  69.2182064  65.6351089
  19.7882938  69.4935894  67.1027422   9.4333905 117.7432823  19.1776168
   9.3636173 117.8722954  18.2317209  10.3392661 117.9730988  19.3845153
  14.5599151  93.3873367  31.4400005  13.8043940  93.6905003  31.9435000
  15.3000164  93.4789085  32.0400810  54.0179443 109.7557068  19.8526359
  54.2832899 109.8620415  18.9391184  53.2548523 110.3255939  19.9482882
  20.0525308  94.3096256  59.8298073  19.7347355  93.4274769  59.6372890
  19.5171416  94.8822594  59.2805529  14.5677114  93.8207817  18.0253708
  13.8052082  93.7734890  18.6020732  14.2780912  94.3595123  17.2890806
  42.8689098  77.1248913  55.6639528  42.6174498  76.2035275  55.5999851
  43.7649059  77.1524811  55.3283024  34.7645020  69.2170620  46.0183573
  33.9290786  68.9148378  46.3746738  35.4234290  68.8461828  46.6052961
  25.3342223  95.2989769  27.5335312  25.0007892  94.4293213  27.7543211
  24.7649050  95.9021759  28.0112982  33.1523442  67.5298071   7.3772079
  33.3720398  66.6033792   7.2787243  32.2163963  67.5760698   7.1820331
  28.4034824  85.9999657 104.0309652  28.9789295  85.2888966 103.7490495
  28.7376928  86.7731190 103.5762592  53.2269239  83.7793446  21.6918015
  53.3128214  82.8865051  21.3575983  52.8838205  84.2801285  20.9517193
  32.5015664  97.5364780 107.3167294  33.3590913  97.1509647 107.1371096
  31.8825769  96.9674683 106.8592199   0.3152175 106.4523602  14.2770100
   0.4199732 106.5246677  15.2257085   0.0834849 107.3367596  13.9935255
  21.4881778  43.3652639   4.2621049  20.5717754  43.1652451   4.0712413
  21.6015697  44.2699623   3.9707372   3.9944836  57.9001617  28.8032985
   4.8206162  58.3513641  28.9769340   4.2201480  57.2252083  28.1631851
 120.8739129 137.8301811  40.4146051 121.6137416 137.2482014  40.5883455
 120.6581501 138.2047844  41.2686253  36.7123222  61.0867977  33.9932990
  36.6306758  60.2454996  33.5440946  37.2974896  61.6000080  33.4361410
  11.5822947  93.8866806  44.9168158  10.7895744  94.3146801  45.2402973
  12.1413565  93.8027000  45.6892347  49.5414972  46.6775751  38.9606237
  50.2120113  46.4545870  39.6063185  48.7267733  46.7081070  39.4621444
  14.6509182  60.5020618  44.5588398  14.1684306  59.7015619  44.7653198
  14.6993446  60.5127001  43.6029243 116.7445023 104.3363857  18.1173503
 116.0216600 103.7823868  18.4119987 117.5328917 103.8569355  18.3719182
  25.6453180  42.0018816  36.8815541  25.3203082  42.4039364  37.6871300
  26.3797688  41.4573956  37.1650219  39.1081882 125.0896740  26.6835904
  39.4470191 125.9591866  26.4705539  39.4250107 124.9199104  27.5707388
  10.9714818  81.6904736  22.4183702  11.2580824  82.4483109  22.9280424
  11.5065348  81.7190456  21.6251898  17.2894418  73.4997511  48.1295967
  17.7765369  72.6764679  48.0952740  16.6917598  73.4557199  47.3832226
  16.5598083 115.0129223  36.4190769  16.9900310 115.2082062  37.2515464
  15.6296623 114.9559593  36.6377449  50.3883505  72.6119137  49.4268560
  49.8144674  72.2416639  48.7561846  49.8084259  72.7879381  50.1677513
  72.8906107  96.6092873   9.0880406  72.5780630  97.1442604   9.8176557
  72.5254965  97.0294476   8.3093327  22.6537323  93.5699654  11.8023026
  22.9187250  92.7155209  11.4617944  23.3872318  94.1486835  11.5942335
  49.6250248  66.0945654  24.2649674  48.8617897  66.0340643  23.6904716
  49.3494368  66.6825104  24.9682450  13.9992321  79.7120428 106.9784760
  13.7511969  78.8068962 106.7902645  14.8948026  79.7883654 106.6492974
  30.0091982  84.5646954  13.9408112  29.1656637  84.1579056  13.7427998
  30.0520039  85.3230572  13.3583224  20.9588695  79.2546940  15.9439790
  21.9132423  79.3281651  15.9458029  20.7763338  78.4917736  16.4924896
  51.0266542  94.2476273  62.0102739  50.8111143  95.1515675  62.2397614
  51.9786406  94.1988945  62.0973301  32.8326011  82.3432255  65.6823874
  32.6564455  83.2695961  65.8468056  32.4006081  82.1617413  64.8477125
  32.6926064  65.3142834  14.9677384  32.1595645  65.7193756  14.2836320
  33.5866427  65.5950022  14.7724760  23.8286352  60.1035881  26.8644047
  22.9167271  59.9423361  26.6222215  23.9666271  59.5697832  27.6468658
  18.0330682  68.8334608  98.4173700  18.9414382  68.7810993  98.7146147
  17.5135815  68.7062740  99.2112144  11.9013608 102.6489353  26.8391824
  11.3323963 102.2244549  27.4813104  11.4163983 102.5934887  26.0157943
  26.9438028  52.1159267  20.7261610  27.8329825  52.2505999  20.3983545
  27.0632601  51.6855192  21.5727472  51.2873650  64.0084648  36.7314291
  51.7018557  64.5693731  37.3870301  51.7450094  63.1713104  36.8086338
  27.6481843  61.5112114   7.7544665  27.1430516  61.4187241   6.9466799
  28.5048246  61.1388969   7.5452238  25.4723072 101.8914604  24.0991950
  25.5107522 102.4123287  23.2970381  24.8768473 102.3758984  24.6710181
  44.2047548  51.7480516  33.9530396  43.5154724  51.4359236  34.5392966
  45.0187969  51.4579391  34.3646193  31.3471031  95.5976772  26.4803505
  31.5792418  96.0142040  25.6503797  31.8394256  96.0866833  27.1396875
  30.7903481  66.3148403  42.3536921  31.7432165  66.3732672  42.4233818
  30.6314802  65.4604435  41.9524431  11.8397105 112.6832104  47.0492601
  11.2784505 112.6536655  46.2744379  12.6155806 113.1662083  46.7647076
   6.5232629 130.8753014  48.4001350   5.8780330 131.5611362  48.2282686
   6.5414673 130.3566074  47.5958586  12.9598629  43.0837774 104.5988753
  13.2562864  43.9919901 104.5396265  12.9320478  42.7812099 103.6911800
  15.5574763  57.9841566  41.0320711  16.2458110  58.6426592  41.1258888
  15.3990924  57.9358816  40.0893021 123.7543533  68.5904741  33.8030124
 123.3368850  68.5725975  32.9418302 123.8467870  69.5215225  34.0050912
  24.2553663  63.2481337  81.1299610  23.3854270  63.4739876  81.4592457
  24.1278601  63.1103659  80.1913548  20.1230097  78.7345743  33.5548973
  20.4167819  79.3297768  32.8652120  19.3868506  78.2622099  33.1660867
  56.0413313  72.7014589  36.8395233  56.1476183  73.5058928  37.3472857
  55.3298903  72.2341204  37.2773361   9.6516365  85.6768513  27.5959563
   9.4073039  84.9454498  27.0288682   9.3427390  86.4542389  27.1306872
  27.7958322  77.6015949  11.2783229  27.3391485  77.8410435  10.4718888
  27.1945095  77.8553677  11.9784939  52.7315569  68.6740351  36.8183470
  51.8132162  68.7859297  36.5726686  52.9283857  67.7629042  36.6007853
  25.5124927  80.2846813  27.1067786  25.3877115  79.3481636  27.2603989
  24.9398613  80.7104301  27.7447891  39.4121861  83.6704350  12.1344209
  39.3251061  82.7269840  12.2706270  38.5939193  83.9276218  11.7095363
  38.4680271  75.5883074  19.4060016  38.8686442  75.8928585  18.5917616
  39.0541172  75.9037542  20.0939155  43.2937002  93.2031250  50.4467726
  43.1933975  92.5496292  51.1389589  42.4384499  93.6297894  50.3944445
 101.1953325  86.7730331 100.1977446 101.1623163  86.7021561  99.2437431
 100.8282108  85.9468269 100.5121472  47.5126886  90.3153324  40.8015633
  48.1755066  89.9489975  41.3869762  46.7354584  89.7776890  40.9534931
  15.0661922  98.1422615  29.8659658  14.1920388  97.9297256  29.5389891
  15.1739907  97.5882435  30.6390572  28.2438302  68.1681824   3.7209451
  27.6637816  68.9144039   3.8723812  28.0194783  67.8651047   2.8411481
  26.4930272 105.5716133  56.3583231  25.8778572 104.8444462  56.2633228
  25.9913278 106.3449860  56.1006069  47.4453735  74.3050146  49.0915871
  46.6201067  74.5706463  49.4972992  47.8134918  73.6612463  49.6967983
 105.7742948  77.0655918  78.9825058 105.6574828  77.3146486  78.0656910
 106.4940102  76.4346647  78.9694738   7.7482128 127.7772331  36.4241982
   7.0545709 127.5551796  35.8030796   7.7284092 128.7329483  36.4737558
   6.2373239  46.9358063  27.9259706   5.5342698  46.9059944  28.5748601
   6.8904340  47.5225830  28.3072424  39.3422699  68.7434483  52.5203419
  39.7832489  68.0550861  53.0182648  39.1786146  69.4352818  53.1612921
  36.8049574  95.2250767  80.2517605  37.5322104  94.6062469  80.3180122
  36.0733008  94.7008324  79.9260664  49.9864244  89.6736050  15.4640698
  49.4593906  90.3822136  15.8333051  50.4732180  89.3233776  16.2101305
  28.1338811  64.9174500  65.4221582  27.3640847  65.4843330  65.3743076
  27.7820969  64.0297174  65.3557968   2.5562710  82.6819324 107.0620187
   3.1443572  82.8130531 107.8057882   1.6855922  82.8789234 107.4074780
  25.0950575  74.6305084  29.4138885  25.2922797  74.0987682  28.6427927
  24.2404962  74.3163443  29.7092795  59.0547705  81.3693142  49.7733974
  58.7076187  82.0419693  50.3592730  59.7861099  80.9849358  50.2567482
  32.2909212  69.4417763  37.3589730  33.1130791  69.6651411  36.9226313
  31.6111183  69.7867155  36.7800808  36.9227362  94.6260452  86.4064407
  37.4157190  94.8530293  87.1949100  36.7549300  95.4658318  85.9788418
  14.5066655  80.0424480   7.3254311  14.0213668  80.6766319   7.8531915
  13.8794613  79.7520733   6.6632175  17.0029092  51.3340092 108.6139373
  17.3809218  52.0151854 108.0577541  16.5560055  51.8144703 109.3108355
  43.8005543  93.2899284   2.3475824  43.9032936  92.7538967   3.1339300
  44.6931553  93.4172535   2.0262015  28.3557439  99.2262936   0.1034968
  28.5039067  98.7351322   0.9116103  27.9120016 100.0256443   0.3869832
  39.8743773  51.4338970  19.0727985  40.1170921  51.9301367  19.8545074
  39.7637796  50.5355310  19.3841493  13.5878515  72.4091387  30.1683879
  12.6408267  72.3826170  30.0317454  13.8984370  73.0823565  29.5629573
 105.6979305 123.0737591  38.1131506 105.1782615 123.8110065  37.7927613
 106.5926666 123.4113789  38.1543350  21.5730143  56.9517374  49.7508907
  21.8601966  56.0646772  49.5343637  20.8694959  57.1344519  49.1280651
  61.6555977  69.8323965   4.9311450  62.5628185  70.0514555   5.1437324
  61.7023849  68.9506197   4.5616642  73.7940216  98.8963032   5.0382864
  74.4932032  98.3458900   5.3910321  74.1924620  99.7620964   4.9495545
  28.0228186  79.8656368  50.1516438  27.4989295  79.8575544  50.9527111
  27.3941326  80.0590611  49.4562483  78.1576843 121.0890293   7.5740021
  78.4021491 121.4251900   8.4362453  77.2278423 120.8765793   7.6545686
 111.5741963  20.5005360 107.1692228 111.5379042  21.0213947 107.9714818
 112.0740218  21.0395336 106.5561252  38.3677053  91.9763088  52.5214911
  37.6410055  91.7649364  53.1075478  37.9644370  92.0488739  51.6564226
   0.7621352  69.7875023  24.6245170   1.2059522  70.3568316  25.2531028
   1.2916678  69.8497200  23.8295603 122.3623273  87.7471924  41.1133528
 122.1353174  87.0785236  41.7595625 122.1729902  87.3382187  40.2688837
  39.2420030 129.4250011  24.6768570  39.6017051 129.9398708  23.9545321
  38.5639143 128.8846111  24.2713857  34.7872639  61.8535995  35.8327866
  34.7218966  62.8067112  35.8922601  35.4607129  61.7006016  35.1699972
  62.6653481  63.3422136  96.9409498  62.9928684  63.7434912  97.7458986
  61.7130709  63.3554697  97.0369943  21.9689560  69.2511225  45.5196571
  22.7284694  68.8503933  45.0968218  21.8252826  70.0633621  45.0340080
  36.8461251  79.6521759  25.6998706  37.2456908  79.7028732  24.8315334
  36.2122178  78.9383221  25.6305218  32.4887156  50.0641108   8.3635652
  31.5430140  50.0698376   8.5113746  32.5990796  50.4683638   7.5029659
   5.0237304  59.5422459  92.6129540   4.6112707  60.0062418  93.3415266
   4.3413967  58.9564705  92.2850534  47.1877909  74.8992157   6.2310344
  47.5963545  74.0878868   5.9292877  47.6728821  75.1315928   7.0228165
  11.1493134  83.6733723  16.3161182  11.4367247  84.3235493  15.6751013
  11.9364417  83.4715939  16.8220258  72.6614809  54.5316839  12.5819850
  71.9128036  54.3410587  12.0168555  72.4465895  54.1107082  13.4143507
  18.8150692  97.0861816  16.7882919  18.7587559  96.2749577  16.2833452
  19.7094512  97.3957729  16.6452122 109.6205897  38.8095403  24.6591544
 109.7008736  38.6623859  23.7167478 108.6799783  38.9076853  24.8069715
  13.8974714  69.5710564  56.7557526  14.6554828  69.8633623  57.2619200
  13.2103574  70.2031851  56.9667578  21.7270494 102.8140068  34.5740938
  22.3084545 102.0850754  34.7905684  21.0422373 102.4214935  34.0326118
  51.7294979  97.0530701   7.1565288  52.5845957  96.8320465   6.7874968
  51.7527771  96.6972542   8.0448329  32.3221731  79.2208004  47.7719784
  31.6487288  79.7565269  47.3528147  32.1890259  79.3591976  48.7097168
  18.7097704  40.5432224   4.9817348  18.4035313  39.7147942   4.6127382
  18.0484450  41.1824751   4.7167167  20.4796052  92.8230000  93.1119820
  21.4124441  92.9966354  92.9859134  20.0723219  93.6892319  93.1099232
  19.3479764 104.3419075  78.9555454  20.0565386 103.7518787  78.6985779
  18.6010289 103.7645912  79.1136837  32.1631742  85.2278996  15.5383182
  32.2211194  86.1797237  15.6213713  31.7246604  85.0869465  14.6992290
  37.0989680  63.9658594  12.2317553  36.3553548  63.4576416  12.5557637
  36.7325926  64.5072746  11.5325618  42.4411535  38.9897633  23.3079052
  42.3092508  39.6982265  23.9379191  42.3157358  39.4026256  22.4534774
  24.4166088  35.6330943  95.5021592  25.1428437  35.1657462  95.9149548
  24.8181129  36.4176226  95.1286062  11.1657321  51.8225574  15.6705391
  11.6972828  52.0915127  16.4197707  10.5000389  52.5058174  15.5915534
  26.5429068 125.6130219  66.8229723  26.3218641 124.8331261  66.3139153
  26.4645457 125.3337765  67.7351761  13.3732128  58.0488396  34.2325258
  14.3094647  58.2474279  34.2476225  13.0012465  58.5954237  34.9247122
   8.2413197  83.6651230  25.7581234   7.3481703  83.3488750  25.8941603
   8.1666338  84.2912006  25.0379348   8.8227630 113.2921314 108.3724930
   9.5130670 113.4996605 109.0022915   8.8392192 114.0196896 107.7506998
  43.4369564  67.1239376  73.1230100  43.5999489  66.2524271  73.4837540
  42.8838730  66.9667864  72.3577412   0.6635405  55.6913710 107.9054926
   0.6085372  54.7854805 107.6012360   0.9633733  56.1830378 107.1409064
  35.0046158  70.9005785  41.4786386  34.8130965  71.6293001  42.0689869
  35.4065180  70.2371931  42.0395565  17.4320734  86.9460201 103.0749681
  17.0493877  87.4812984 102.3797985  16.7407632  86.8788719 103.7336113
  43.6796045  99.6375084  93.3051225  42.7368498  99.8031521  93.3023211
  44.0753126 100.5040646  93.2117101 120.3004012  68.6470032  17.1816552
 119.3682242  68.5360289  16.9946694 120.5852694  67.7891922  17.4966848
  27.1963263  92.8113937 102.7748069  27.1358061  92.0762539 103.3848425
  27.4533010  92.4123287 101.9435790  59.6712732  69.1700363  92.5784501
  59.0394592  68.9038324  91.9104823  60.0598192  68.3493137  92.8812345
  23.0611467  56.5672588  89.2117222  22.2372341  56.5339136  88.7256273
  23.0460286  57.4177599  89.6506437  45.1203823  97.8140926   9.1445845
  44.5279312  97.2159576   9.6000659  44.6916246  97.9832363   8.3056629
 115.2710498  91.6549587  40.8540773 115.5593509  91.5863705  39.9439073
 114.5633430  92.2991276  40.8332443  28.5485291  67.2691679   1.2786722
  27.9322052  66.5977859   0.9860525  29.3884087  66.8138313   1.3378756
  31.0784769  83.9649868   8.1199139  31.9231367  84.0590286   8.5602963
  30.4316664  84.1566563   8.7989801  35.9146190 119.5594978  16.3664222
  36.0876107 119.7524834  15.4449761  35.1882553 120.1375198  16.5999198
   1.1817764  83.6912060 102.5194290   2.1024051  83.7595749 102.7724131
   0.7641359  83.2421494 103.2543799  17.5599515  81.4752674  32.7914500
  16.9231415  81.5740108  33.4992313  17.1935332  80.7891560  32.2335768
 124.8070302  54.2270041  25.3630877 124.9475389  54.3109083  26.3061953
 123.8747688  54.4077110  25.2428150  19.6841633  90.3056812  93.9367446
  19.4663298  90.5219746  94.8433860  19.7455537  91.1533546  93.4963986
  32.8966188  69.6745348  20.7432532  33.5339570  70.3882885  20.7189441
  32.2332883  69.9237299  20.0997257  53.1353331  88.8622761  30.4784846
  53.5359907  88.5966301  31.3062143  53.6514807  89.6164131  30.1937008
  48.6639214 113.3720112  44.9221516  49.2996216 112.6573563  44.8849440
  48.7887573 113.7587357  45.7888079  36.8037844  83.9986801  11.1219943
  36.3288760  84.6508980  11.6370726  36.3149810  83.1864643  11.2546837
  66.5556622 101.4049625  96.1544379  65.8730078 101.1380196  96.7700370
  67.1407604 100.6491470  96.1031159  49.9163055  92.2049427 104.4539585
  50.4114103  91.7686558 103.7605914  49.0003824  92.1006584 104.1961970
  45.0655603  84.5777893 104.0777876  44.9426365  84.3556118 105.0006952
  44.7171211  83.8241291 103.6015334  12.6067913  38.6966085  50.9914970
  13.5608709  38.7525797  51.0447121  12.2983456  39.0757942  51.8144846
  37.8468275  42.6726437  20.5724645  38.7731361  42.6502991  20.8126354
  37.8009820  43.3027172  19.8533392  25.3759217  79.8649931   0.4821610
  26.0140634  80.4981899   0.1534229  25.3441739  80.0246334   1.4254206
 117.0042504  89.4337654  10.2167821 117.2011007  88.5474110  10.5198634
 117.8089172  89.7243309   9.7874618  80.1294327 115.8918381  37.0466447
  79.5579720 116.5848827  36.7159534  80.4694176 116.2355709  37.8727746
  29.2641497  73.6823320  46.8543053  29.6740294  74.3862534  47.3570204
  28.6243844  73.3001471  47.4550247  68.9752102  87.2092247  91.0904046
  69.0023136  86.4523220  90.5050882  69.3794966  87.9158783  90.5869957
   5.7800668  83.1926250  13.3731699   5.4180813  83.1994629  14.2592573
   6.3074672  82.3946857  13.3360457  51.9968605  69.0153742  43.0701113
  52.7056599  68.3902264  43.2218456  52.3133945  69.5674467  42.3550892
  15.0673270  99.1066837  11.9036388  15.2427375  98.5525990  11.1430812
  15.2474594  98.5438728  12.6566482 121.2153787  77.9740000 109.7969877
 121.4395130  77.0478725 109.7059689 121.7116240  78.4097433 109.1040945
   2.4874663  76.9807148  16.8973196   2.1484159  77.7127361  16.3821268
   1.8279970  76.2937593  16.8002462  14.4804442  83.7739944   0.1474659
  15.2085614  83.3099270  -0.2657135  14.7436559  84.6941757   0.1326611
  21.8331504 103.9442539  94.2055949  21.2614942 103.3780003  94.7240564
  21.5324092 104.8317051  94.4010576  42.4738407 103.9071083   8.6234057
  42.4278021 104.1232109   7.6920563  43.1312180 103.2133389   8.6760962
 119.8464654  89.3213272   1.1422413 120.2396155  89.9457264   1.7519888
 118.9159072  89.3210793   1.3665035  49.9156570 119.8037910 108.6841654
  49.9704838 120.5649757 109.2619400  50.7200146 119.8376846 108.1663876
  41.2418318  66.4052057   3.9007196  40.3124046  66.6333866   3.8826314
  41.6095877  66.9533777   4.5938978  18.0157280  74.2687273  11.3570154
  17.7757740  73.4360313  10.9504795  17.7691352  74.9305391  10.7109296
  57.4419785  43.6730146  26.1916733  56.4919424  43.7669039  26.2613463
  57.7524948  43.7016249  27.0966554  22.5251245  89.5377731  31.5828896
  21.6816831  89.2306519  31.9153357  23.1199265  89.4579506  32.3285913
  38.0240083  75.1480913  62.6513958  38.2788587  74.7911978  61.8005657
  37.0671391  75.1600504  62.6292229   2.4875015  77.2134876  21.5993524
   2.3178729  76.4504576  22.1518350   3.4054524  77.4290991  21.7640042
  63.9589119  60.3979826 106.9712260  63.8169241  60.2263594 106.0403039
  63.2875681  59.8800468 107.4153819  41.4142847  66.7682266 102.4391713
  42.3484373  66.6770792 102.6270040  40.9941912  66.1039734 102.9855421
  59.9274158  30.7182407  28.3149981  60.5275536  31.3988376  28.0102777
  59.0861416  31.1651373  28.4086585  45.1381111  79.0220070   1.2252551
  46.0194397  79.2510176   0.9302212  44.5827532  79.1727352   0.4603439
  15.9152281  87.4748898  16.4716542  15.0318003  87.1666050  16.6735256
  16.4917207  86.8829346  16.9548559  41.6533089  76.9916821   1.7490003
  42.4248123  77.3302174   2.2033268  40.9334898  77.5429010   2.0559919
  55.1589298  70.8812428 108.9065779  55.0529432  71.6058397 109.5229854
  56.0246086  70.5236197 109.1038840  12.6638091  74.6454430  24.6964836
  12.0838201  74.3871641  25.4128170  13.4685647  74.9290419  25.1302695
  18.0781448  72.3678541   1.7404209  17.4530590  72.1621466   1.0453073
  17.6776063  72.0148516   2.5348938  12.5280893  98.2350826  40.2923298
  12.1902966  98.3576775  41.1795187  12.0732129  97.4577713  39.9681330
  50.9996939  89.3001747   4.6203700  50.1847458  89.6356106   4.2467788
  50.7573223  88.4589291   5.0074077  11.3973951  67.8663445  83.8402852
  11.3052082  66.9663429  84.1529044  10.9053659  67.8863668  83.0194720
  24.3668771  79.1219234  94.2539951  24.2026353  78.7984943  93.3681925
  23.5023022  79.1468287  94.6640249  38.8631368 109.9246120  22.1398807
  38.4329844 110.5980206  22.6668692  38.6596942 110.1621628  21.2352204
  45.4580498  49.7833109  37.6069999  44.6702051  49.3018103  37.3546219
  45.7765532  50.1666451  36.7897820  39.4653177  57.1866703  50.6410551
  40.1664734  57.7358627  50.2903366  39.8939013  56.3574648  50.8531046
  53.3402872  24.7206903  13.0345595  54.1191959  24.1663456  12.9872453
  53.6199427  25.5586529  12.6659870   9.0345025  93.8886452  88.9319237
   8.4764647  93.6776447  89.6804603   9.7336805  93.2356262  88.9628156
  58.1810188  94.6349049  98.9985582  58.6718845  95.4515839  98.9073285
  57.4564791  94.8550701  99.5840474  11.6375995  67.7380228  29.9001575
  12.4528944  68.2200527  29.7616959  11.5232897  67.7287197  30.8504605
  51.3499355  92.2098160  24.5138836  51.3649893  92.5638676  25.4030728
  52.2610950  92.2523499  24.2236924  25.5609298  65.7004786  96.5854534
  26.4133859  65.3065825  96.3999923  25.5273247  66.4744759  96.0232874
  25.0471020  43.6487532  16.5351582  25.5510378  43.1102848  15.9249663
  24.4499803  43.0334568  16.9607043   8.4209269 106.9833279  20.4507113
   8.0031013 106.3704205  19.8457325   8.6070818 107.7564144  19.9178779
  20.9745407  82.7253914  18.8739622  21.1490011  82.9734325  17.9660678
  20.3952456  81.9662666  18.8077724  27.4050140  45.1927137  88.2991799
  28.2165074  45.1184940  87.7969822  27.6031661  45.8346415  88.9810141
   2.9438892 103.8197422   8.1818169   2.3690292 104.4760132   7.7880180
   3.8027146 104.2412853   8.2127893  36.7819118  52.7566957   4.8614752
  37.1344376  53.2364273   5.6110185  36.7234397  53.4104061   4.1647130
   1.3837834  90.0737667  99.3140658   1.3232072  89.7404671  98.4188148
   0.5199213  89.9064827  99.6908816  31.0305071  67.0610809  13.5444856
  31.3366938  67.7857399  14.0897858  31.2628961  67.3179817  12.6521695
  46.8908167 103.1033897   7.5822312  47.7229929 102.6900005   7.8120762
  47.1169662 104.0173817   7.4098599   3.0101210  64.4041538   4.1812310
   2.5859976  63.9758921   3.4376290   3.5375315  65.0995731   3.7882149
  24.7013307  86.0601044  97.2003587  23.8199258  86.4302540  97.1519085
  24.7214270  85.5982971  98.0385503  44.7817230  55.1220131  77.3983487
  45.6924295  54.8386765  77.4793943  44.3085766  54.3339682  77.1312388
  72.2623634  60.7348537  31.5988016  73.0385160  60.7031488  31.0394979
  71.6841841  61.3661718  31.1705732  67.7423286  80.2107239   6.6036248
  67.3837757  79.9324465   7.4463779  67.0766115  79.9566889   5.9644705
  29.2495680  97.2014236  49.5308781  29.4295192  97.8666973  50.1951551
  29.7589684  97.4791908  48.7695694  26.8950963  74.8582172   9.2461175
  26.1008310  74.6575308   9.7411937  27.0886564  74.0525007   8.7669653
  12.4597788  31.5992379 106.1159685  12.7118480  32.4121809 106.5539350
  12.0464647  31.0755754 106.8023946  13.8620996 136.5680790  76.6548928
  13.3134675 137.1324539  77.1996173  14.5265830 136.2289524  77.2546300
  43.6196375  55.4838228  18.1222188  42.9467869  55.7447767  17.4934053
  43.9704514  54.6651125  17.7716744  15.3180826  64.6954775  27.8853464
  14.8029113  64.2622852  28.5659146  15.5333579  65.5512714  28.2561636
 109.5901126  81.2400532  34.2397141 110.3642208  80.7056904  34.0623999
 108.8611371  80.7304287  33.8860083  30.4251790  87.3338795   7.0275915
  29.7737622  87.9830170   7.2931284  29.9627805  86.7705059   6.4070845
  20.2075410  86.5018749   5.9539199  19.3411100  86.3189411   5.5905133
  20.7579398  85.7880211   5.6318671  33.8229442  81.1220360  39.2615509
  33.1487441  81.1295700  38.5821199  33.9790535  82.0465279  39.4543314
  64.5047903  99.2668915  78.6609706  64.3368435  98.3255577  78.6172565
  65.4036379  99.3351269  78.9829143 123.0447975  87.9834080   7.1766627
 122.4422870  88.6881828   6.9389510 123.2316450  88.1305695   8.1038427
  36.6911745  71.6148901  33.1955123  36.8572569  71.2126398  32.3429632
  36.5779686  72.5457144  33.0031872 122.8147190  90.9169579  74.3012317
 123.6892989  90.6418228  74.5762643 122.2213662  90.4600334  74.8973736
  34.5031786  73.4841108  99.5867559  35.1004100  73.3504677 100.3227481
  35.0720620  73.5037899  98.8172003 121.8211693  65.1416540  10.3779423
 121.1559275  64.8874331  11.0175180 121.5333793  64.7373486   9.5594406
  20.3771114  89.8461437   8.8933265  19.7874165  90.4304600   9.3698460
  19.8452592  89.0738964   8.7009823  21.8873692  64.0976954  82.1406683
  22.1040368  64.5700216  82.9445323  21.3610125  64.7161102  81.6339763
 123.7764692 119.0205765  86.9391831 124.0795521 119.6274376  86.2638386
 124.4106718 118.3038998  86.9192728  21.4403105 115.3343010  15.6782901
  20.5118608 115.5325890  15.5562449  21.5057945 115.0448513  16.5883243
 110.0124413  94.8780155  46.6930056 109.0639014  94.9596882  46.5938330
 110.1455480  93.9779854  46.9904280  21.7625403  85.7839680   3.5757643
  21.2593412  85.5012131   2.8121734  21.7750835  85.0190067   4.1510049
  61.5846252  57.7173662  25.1836944  62.4251318  57.3411274  24.9224877
  61.8110704  58.5613966  25.5742955  41.4888430  90.9964943  20.5574608
  40.8989811  91.5152931  20.0105119  41.6439199  90.1983643  20.0523281
   6.4077699  62.4629736 102.8804257   6.4065778  62.8089333 101.9879337
   7.0280677  61.7344332 102.8540685  31.8871331 113.1334209   9.8541057
  32.7374792 112.8296947   9.5364726  32.0601678 114.0078259  10.2029908
  26.6303086  81.0069561  63.8795948  27.1252179  81.1334419  64.6890974
  26.3425517  80.0947094  63.9148569 119.0240050  61.3881111  10.6385839
 119.7813005  61.4724064  11.2179196 119.3837512  61.4913225   9.7575837
  11.1165130 122.7520370   8.5749215  10.8751535 122.3653126   7.7332467
  12.0328438 123.0070019   8.4673911  74.1621447  75.4031134  16.3695765
  74.4272470  74.8197031  17.0806241  74.8016262  76.1149836  16.3928151
  37.4042153 112.0952892  23.2317591  36.6567087 111.8332291  22.6943660
  37.1272230 112.9131317  23.6448455  42.9996204  99.7932911   8.1216824
  42.9814148  99.7703552   9.0784341  42.8917027 100.7187080   7.9021895
  13.1949365  83.1053162  30.4824114  13.4846795  83.7116528  31.1640501
  12.8534985  83.6699295  29.7889686   9.1765678 112.5732613   9.4740719
   8.8086915 113.4293461   9.2549384   9.5004630 112.2313404   8.6407572
  69.2007971 113.2670498   4.9265763  69.0054846 113.9287186   4.2630348
  69.0338898 112.4323273   4.4888496  54.0836477  95.9341240  23.5033298
  53.1307745  95.8441067  23.5161495  54.3529940  95.7582283  24.4048524
  34.1933274  96.0341930   6.3901854  34.6028137  96.7181206   6.9200867
  33.2692170  96.2809467   6.3531876   4.7622952  32.3516393   4.9802506
   4.8495439  32.2184443   4.0363872   5.6093639  32.7053523   5.2515328
   6.6262639  62.3488188  11.5984297   7.5718713  62.3042154  11.7400944
   6.5208387  62.2488356  10.6523216  29.3030381 101.5680218   7.6627988
  29.7240067 101.9544601   6.8948907  29.9415803 101.6789246   8.3672112
  23.2298422 104.0631008  12.2654879  24.0769029 103.6916828  12.5119948
  23.3567595 104.3751717  11.3695323  37.0442104  54.5555305  12.1026957
  37.7855468  54.8492479  12.6322067  36.7777109  55.3327894  11.6117001
  21.9880724  72.2233582  10.9144735  22.5015211  72.9546165  10.5711591
  21.0887074  72.4173307  10.6503713  12.2700715  55.7051134  34.6453309
  12.8896594  56.4327049  34.5909953  12.8104651  54.9462605  34.8652101
  99.7765446  43.3427763  45.6537819  99.4262505  43.4122610  44.7656965
 100.7188797  43.4754467  45.5506182   8.5383159 113.7744617  56.8387604
   7.6973379 114.2280388  56.8958473   8.3383894 112.9553509  56.3856363
 104.0919012  72.6319981  99.7394880 104.7060413  72.5764370 100.4715916
 103.2276816  72.6279783 100.1509997  17.4190021  65.3224421 108.5837388
  18.2025421  65.3235435 109.1335540  17.5364363  66.0702658 107.9979076
  16.3607812  66.0409880  22.1706319  16.1389768  65.3924465  22.8387833
  15.5856681  66.0825586  21.6105413  36.2661815  51.7650175  16.1858618
  35.9922385  51.7622948  15.2687037  35.8036804  52.5089264  16.5717649
  31.2752318  96.5796852   6.6836166  31.4749098  97.4956322   6.8769997
  31.0348344  96.5774059   5.7570988   1.3734928 135.3413105   8.2647365
   2.3209038 135.4777336   8.2704753   1.1825861 134.9506950   9.1175020
  29.5228982 100.7038021  14.5481479  28.7475038 101.0215473  14.0855050
  29.4394398 101.0640907  15.4310167  26.4408922  77.0374155  28.5463285
  27.2061467  76.6354561  28.1351733  25.8392596  76.3083172  28.6969447
 120.7304282 111.8527508  31.8718386 119.8341296 111.7966461  31.5405774
 120.6331498 111.8719006  32.8238893  26.8239832  97.6686287 101.6944572
  26.8457747  97.9208088 100.7713320  26.8533587  96.7119598 101.6821554
  43.3909369  70.7585001  28.0921865  42.7666998  70.9551144  27.3936868
  44.2100954  71.1590910  27.8010964  54.9693871  72.9077101   0.7384795
  55.3886938  72.8584099   1.5975392  55.1699400  73.7893629   0.4243160
  53.7239027  94.2911720  11.7411804  54.5517635  93.8111019  11.7211723
  53.0532408  93.6100960  11.7919564  49.3019390  84.6107292  20.3973031
  49.2529249  85.5021095  20.7426596  48.9763165  84.0598297  21.1091423
  31.0553288  83.6825466  17.7392411  31.3635778  84.1935253  16.9908321
  30.5204988  82.9895020  17.3521078  44.0363312  46.2731266 104.5098307
  43.3762360  46.1007881 103.8384064  43.6539078  45.9268808 105.3161209
  44.7343969  63.7435579  15.1125646  45.1745892  62.9481792  15.4122865
  44.5427275  64.2282581  15.9154105 119.2327649  90.2220726  27.1053195
 119.6312786  90.0049305  27.9480934 119.2036105  91.1787510  27.0935583
  52.9618311 135.3702354  14.4188011  52.4578762 134.5586967  14.4793797
  53.6334562 135.2861881  15.0956202  10.8559072  86.6104794  79.3998417
  10.3702104  86.9379139  80.1568898  10.8303463  87.3302174  78.7693175
  19.5362568  66.8746710  16.1240602  19.8172486  67.6105595  16.6678858
  20.0500894  66.9603729  15.3210270  32.1531773  70.2844810  25.4788136
  31.7550254  69.4661045  25.1822186  32.0453763  70.8845186  24.7408628
  11.1916602  64.9337053   7.9280800  10.6191349  64.4134808   7.3643351
  11.4987159  64.3166733   8.5923219  41.1026001  94.1201687  27.7667928
  40.7981634  93.3048725  27.3682380  40.3008461  94.6049500  27.9627585
  10.7027686  65.0212955  27.9268718  10.2001691  64.6600533  27.1967149
  10.7491577  65.9598303  27.7445912  12.0501304  85.9079075  14.6801770
  12.3186660  86.1747646  13.8010252  11.1398363  86.1954689  14.7501910
  44.3280935  63.9192629  98.8759276  45.1423264  64.4125891  98.9753398
  43.8196564  64.4219589  98.2395168  39.4008422  70.3710890  40.7725000
  38.7002563  70.7417107  41.3092041  39.8263979  69.7309399  41.3428879
  57.2208309  76.9284534  25.1251745  56.8232107  77.0097303  24.2582703
  57.6981735  76.0993958  25.0929642  49.4935560  77.7421141  70.7398224
  49.8529196  76.8549585  70.7338428  49.7672844  78.1057453  71.5818882
 114.9600292  87.2807789   6.0663158 114.7325528  88.2081604   5.9995657
 114.8409409  86.9405365   5.1795918   4.9810839 105.3175068   7.6777560
   5.4232705 104.7543049   8.3129764   5.2360761 106.2058258   7.9269451
 109.4225115  69.2359447   3.3644471 109.9621624  70.0230646   3.2906184
 109.9421007  68.6389446   3.9028260  26.1738682  46.5240526  98.2188328
  25.7076073  47.1996498  98.7111756  25.5009604  45.8791256  98.0008956
  47.7435446  51.9318247  39.0508175  47.1524000  51.3300323  39.5031714
  47.5367785  52.7915001  39.4174719  24.5272422  41.4324617  26.3963842
  23.7728381  41.1896753  25.8595777  25.0198555  40.6182480  26.4994264
 120.6911529  66.3709354  18.6099148 120.9339718  65.6098700  19.1372228
 120.2288291  66.9466829  19.2190135  39.5156455  81.1515045  14.4974315
  40.2266741  81.2619877  13.8661933  38.7173104  81.2336540  13.9757538
  43.9628983  67.6009464  24.2748427  43.7493229  67.7588701  23.3552361
  43.9037323  68.4633255  24.6859813  39.3862605  59.7844219  84.8317131
  39.8909736  60.2881765  85.4702481  38.8318491  60.4335785  84.3987569
  51.8983364  86.2086773  29.5857239  52.5626040  85.5442810  29.4025159
  52.3972082  86.9729805  29.8741508 115.6559814  66.5574074   9.6405035
 116.3936389  65.9641504   9.7824198 116.0465027  67.3331690   9.2381108
  39.8054266  34.6611166  15.1790154  39.7302675  34.1176414  15.9633744
  40.7240295  34.9295712  15.1607585 109.3835551  72.9873323  24.5905805
 110.0881047  73.6341238  24.5517945 109.5023531  72.4562454  23.8031363
  36.8178248 103.8345623   6.4190656  36.9321489 103.1091976   7.0330703
  37.0479155 104.6144295   6.9241440  27.4948978  72.4345446  11.7540193
  26.6105962  72.6978016  12.0088470  27.4901152  71.4799166  11.8239462
  17.1496713  56.2665319 106.8218237  16.9732678  56.6841221 107.6648725
  18.0509174  55.9522724 106.8941271  40.2768183  88.8483524  35.9067917
  41.0017824  88.2739544  36.1532068  39.7815681  88.9699268  36.7168427
  17.0200348  67.7626276  16.6804588  17.8059268  67.2165871  16.7016482
  16.6186881  67.6382208  17.5405025  18.0281651  72.7204514   8.6157280
  17.1369100  72.7189827   8.9648598  18.3278692  71.8174219   8.7203437
 121.5731291  60.0445843  94.6968087 120.7820988  60.5454159  94.4976290
 121.5229905  59.2796564  94.1235706  28.7955046  58.8378429  37.7485132
  28.1472230  59.5185947  37.5681329  29.2569566  58.7204790  36.9181395
 119.3137807  76.8875456  64.7625788 119.5290995  77.7371931  64.3779143
 120.1235840  76.3817406  64.6946534  58.3751297  89.1025543  28.3384752
  58.3460188  89.5067120  29.2056775  58.8611126  89.7267151  27.7995253
  26.0729980  87.6400185 101.0804030  26.7017603  88.2018089 101.5334817
  26.4964151  87.4291611 100.2482428  43.1835747 103.1851959  23.9394975
  42.3740721 103.3840179  24.4100451  43.6797905 104.0034676  23.9601994
  46.8864441  93.3618164 103.5666969  46.3169622  94.1098309 103.7466999
  46.4223909  92.6122761 103.9396366   7.2433358  98.0142784  22.9228950
   6.9753855  98.7974644  23.4035754   6.4380348  97.6967907  22.5143313
  37.3505664 126.2697887 104.6445134  37.8800845 126.4512157 103.8680317
  36.8239403 127.0599270 104.7652640  15.5216229  83.4811211  13.9998996
  14.7447932  83.8598824  14.4113660  15.9908414  84.2323780  13.6370277
  36.8470621  70.8674812  66.0979605  37.2022057  71.3431692  65.3470755
  36.6184902  71.5508127  66.7280674  38.0959320  65.3009701 107.4664753
  38.0589199  64.3797541 107.7238128  38.0034304  65.2874422 106.5138515
  56.5021896  67.6091623  -0.0964411  57.1943378  67.7197361   0.5554334
  55.7382441  68.0368519   0.2904645  15.1751137  42.6377535   0.3531400
  14.8197389  42.8549671  -0.5086955  15.0634718  41.6899014   0.4262964
  22.8120756  76.4080477 100.8321476  23.6189342  76.8044758 101.1608696
  22.7619839  76.6892433  99.9185562  61.9903612  46.7426157  16.0562745
  61.2205553  46.7824030  16.6237680  61.6761303  47.0465040  15.2047197
  37.2860384  89.0129662  90.1147842  37.3570895  89.0928173  91.0659981
  36.3597775  89.1682053  89.9299240  34.4700265  34.8252344  85.8959579
  34.8499680  34.6395183  85.0372505  34.7595525  34.0989256  86.4481258
   8.9709830  69.0223312 101.3879585   9.7980952  68.5636330 101.2406063
   8.8900018  69.6159315 100.6414223  21.2084675  75.6111288  34.8720399
  21.4800525  75.7163000  33.9602128  20.9129381  74.7025824  34.9306527
 121.5083525  80.9344482  95.4666042 121.9013307  80.9924221  94.5957184
 120.7161299  80.4129219  95.3376484   7.4592900  81.2482643  87.0967293
   7.4380720  81.0921192  86.1525917   7.0454073  80.4734516  87.4769974
  63.3788109  59.8254776 104.3379498  63.6334419  58.9709949 104.6861744
  63.5680914  59.7685051 103.4013748   0.8025074  61.9767714 101.8868637
   0.7232145  62.4686050 101.0695171   1.7293325  62.0423698 102.1169090
  21.3782787  60.6071186   0.3333703  21.4525414  60.2564144  -0.5541667
  22.0116067  60.1027298   0.8439771 103.5762138  49.9465990  22.8030912
 104.3300027  49.4332838  23.0938474 103.1024856  49.3622780  22.2111551
  34.6413922  48.2297325   8.0247155  33.7621951  48.6057138   8.0680791
  34.4960260  47.3006344   7.8461782  36.4531279  91.2341690  81.2687302
  35.8305669  91.7497349  81.7814159  37.1937442  91.8239594  81.1277962
  31.4078927  33.6893773 106.1526775  32.3393154  33.7993407 106.3439655
  31.3365769  32.7967143 105.8145905 120.9859464  73.6959600  22.6767389
 121.4485697  72.8738022  22.5146810 120.1588673  73.6026049  22.2040311
   1.3378671  50.6907511   7.0251886   1.4685661  49.7430038   6.9947473
   0.6991556  50.8220625   7.7259294  67.3983288  95.9883308   4.9836389
  68.3436966  96.0523701   5.1193467  67.0325518  95.9368134   5.8666936
  21.2883592  76.0660362   6.3565103  22.2358656  76.1788702   6.4322320
  21.1814404  75.2092028   5.9434358  11.2933207  84.1577435  95.7824707
  11.2521839  83.3784866  95.2281284  10.4021156  84.2618179  96.1158752
 104.9448807  57.1474504 108.4751701 104.6053857  57.9663467 108.8362598
 104.4494981  56.4634562 108.9256954  30.3879476 106.7787647  91.4612484
  29.9876571 106.0924816  91.9951248  29.6549654 107.1717072  90.9873676
  11.5984929  52.0651293   6.9987050  12.3119152  52.0176125   7.6351014
  10.8104253  51.8751860   7.5077192  41.5202570  22.7740073  12.7377168
  41.4808130  21.8267322  12.8694288  40.8449554  22.9531741  12.0834295
  33.0963540  74.5314741  10.1045934  33.0448294  73.6453581  10.4628888
  32.7337956  74.4544363   9.2220727  52.7376890  53.8657427  20.2833120
  52.3016644  54.5157051  20.8343736  52.0430851  53.5247898  19.7198240
  71.3332701  39.3225121 109.3348408  70.4596043  38.9694047 109.1667461
  71.5292645  39.0588570 110.2338982  45.1090717  41.7305088   4.1945783
  45.3385067  42.4971437   3.6693517  45.5039120  41.8993711   5.0500432
  14.7487652  46.5029144  13.0730382  14.2973936  46.0817194  12.3415414
  14.5731330  45.9339190  13.8224546  13.8698661  55.2370548  92.9058743
  13.3741772  54.4182396  92.9138088  13.4879220  55.7551289  93.6143589
  28.8746905  50.7284594  98.2168388  28.5671139  49.8552275  97.9737282
  28.1065321  51.1562252  98.5952282  63.6798620  73.2794094 106.0359573
  64.4290590  73.6698627 105.5859852  62.9932833  73.2422066 105.3700352
  24.7123861  70.3231668   0.9266702  23.7969136  70.1910686   1.1730233
  24.7471356  71.2254477   0.6090013  45.9316349  73.9637184  16.7568532
  46.6324663  74.5258999  16.4266721  45.1896000  74.1415262  16.1789266
  10.4363573  60.5629778   9.5417253  10.7363677  60.9167290   8.7044088
   9.4822609  60.6285954   9.5013944  23.8770127 105.4890633 107.3076630
  24.5738077 105.7789612 106.7188740  23.1230330 106.0290146 107.0706081
   0.6656157  48.9355516  26.9144193   0.1528871  49.6434832  26.5243188
   1.4898813  49.3495941  27.1701185   2.8203103  65.1987410  59.4595194
   2.3371772  64.3822956  59.5869112   3.0908388  65.4569435  60.3406429
  69.6806049  53.7627268  32.5108377  69.5039654  53.9471626  31.5883294
  69.7618771  52.8099251  32.5532953  22.7392387  54.1412783 102.3482037
  22.5866866  53.2014561 102.2497463  22.7858639  54.4716358 101.4510250
  20.0802684  27.5203204  30.9699289  20.5600595  28.1835413  31.4660875
  20.6944227  26.7905450  30.8894674  45.5538511  38.0682397   9.4007055
  44.9435282  37.5469589   9.9222509  44.9996138  38.5209441   8.7650148
 124.2079125  64.8504496  82.1090508 123.6247489  64.1628885  81.7874718
 124.0484408  64.8778963  83.0524731  26.3548064  63.8300467  11.4460126
  27.0177865  63.1411886  11.4925615  26.3658237  64.1116476  10.5312387
  17.4772286  49.4294119  93.9050579  16.8876266  49.6059752  93.1719589
  16.9479823  48.9234018  94.5215702  49.3921137  32.6358128  44.5661393
  49.2981148  31.6834021  44.5836870  50.2867603  32.7937841  44.8676053
  49.8469925  64.0894413  75.7366180  50.6457281  64.6120405  75.8083582
  49.4095373  64.2035294  76.5803289  11.3128734  19.2430758  94.5270061
  12.0873547  19.7461104  94.2752743  11.3576519  18.4506369  93.9919662
 117.6264179  65.6527472  63.7267923 118.1246204  64.8409748  63.6316633
 117.2746295  65.6150389  64.6162033  38.7262702  65.4755116  83.6234570
  38.2536530  64.6942425  83.3362579  38.0516219  66.0363579  84.0062523
  12.9330933 102.5287819   7.5783674  13.6841321 102.4384975   8.1649057
  12.1932864 102.1902847   8.0826894 122.6880173  51.1804676   7.3130647
 122.3969992  50.2750731   7.4217073 123.1943198  51.3658476   8.1039659
 124.3305761  80.5634403 100.9976578 123.9995078  80.5076122 101.8940449
 125.2368402  80.2612782 101.0577965 116.8517489  78.9913368   0.2796785
 116.1801905  79.5170879   0.7142202 116.3594056  78.3612585  -0.2464732
  41.4519930  63.1999207  70.3979206  42.0208836  63.9579201  70.2636433
  42.0344734  62.5204372  70.7374096  52.9186296  68.0789518 103.6600590
  53.8527966  67.8712749 103.6809635  52.8844976  69.0342808 103.7091923
   9.0593886  83.1615829  90.8632088   9.8487657  83.6625195  91.0685921
   8.4020364  83.8253403  90.6545258   5.7315081  63.7580776  76.3512611
   5.0447744  64.4235563  76.3092184   5.3588653  63.0005264  75.9001684
  33.0877614  51.5785503  20.6051008  32.3653054  50.9509850  20.5837861
  33.8472676  51.0797405  20.3041498  32.1441007  73.5165453  21.4685479
  31.6681147  73.6567926  20.6500093  32.0641112  74.3471766  21.9374696
  26.8847680  50.8828402  78.9766169  26.0321283  51.1220980  79.3399239
  27.3025012  50.3665543  79.6659517  42.9031420  59.6171665  90.9160709
  43.3266115  59.4910049  91.7651844  42.5683451  60.5133963  90.9462070
  37.5824237  48.0991030  86.8536282  36.7436147  48.5587692  86.8901634
  38.2320738  48.7941933  86.7485809  10.0463235  18.3511031  10.5823652
   9.7839767  19.2664313  10.6802408  10.7706583  18.3751035   9.9570695
  22.6106191  46.1953974 102.3414516  22.4133158  46.0780334 101.4121914
  21.7880011  46.5002680 102.7243233 116.0006518  48.5031366  92.6871586
 116.7537225  49.0907478  92.7490425 116.3516635  47.7046490  92.2928905
  31.0586905  70.8588266  42.3239271  30.5355644  71.2110806  43.0439893
  31.2385082  71.6155386  41.7659894  23.4627223  45.8670664   1.2929574
  23.4306598  44.9118042   1.3446561  24.3444276  46.0602236   0.9743348
  35.5272579  70.3910065   1.0447255  35.2802134  69.4946957   1.2723771
  35.4005980  70.8871078   1.8534700  54.0261555  62.0681334  98.7988758
  53.4595680  62.8273630  98.6618042  54.9025202  62.4388885  98.9025593
  94.0797520  40.1324129   0.7587949  94.6786785  40.8702087   0.6440107
  93.8686371  39.8543906  -0.1324805 124.6559348  49.3631029  80.5329418
 123.7939353  48.9652872  80.6551361 124.5413531  49.9607134  79.7940493
  57.5580168  35.1667142   0.0069467  58.0481482  35.9146476   0.3484098
  57.6523638  34.4915819   0.6789056 114.9547440  61.4162016  79.8841238
 114.3921132  61.4936113  79.1136169 114.3462450  61.3096380  80.6152916
  24.2388296  69.7622347 107.5214481  24.1878343  69.7471571 106.5657234
  24.3087387  70.6908274 107.7429485  12.2730505  28.1198549   1.5419713
  12.6350737  28.9345145   1.8905393  11.3421321  28.1582332   1.7614023
  30.8718324  32.4339604  82.7172756  31.1806440  33.1565309  83.2638645
  31.4725280  31.7140889  82.9100990  46.0313463  64.4779205   6.8791715
  46.1722946  64.4806004   5.9324018  45.4364109  63.7435293   7.0306722
  26.6845441  70.2579689  98.1251812  26.9382143  69.3447304  98.2588673
  25.8124399  70.3237152  98.5142136  19.8856103  56.4317942  93.5793114
  19.8477376  55.9862804  92.7329540  20.3647828  57.2413588  93.4025955
  51.8532896  62.9722357   0.2761594  51.8021011  63.8833714  -0.0127181
  52.0940304  63.0273438   1.2009565  55.0497055  45.9474325  99.0500832
  54.9358606  45.0086260  99.1981125  55.9889984  46.0540390  98.8997841
  48.4681129  57.6832199  24.5460645  48.2229996  58.5523081  24.2285100
  49.4126987  57.6323700  24.3997613  14.6391976 107.9997158  88.5268879
  15.0874174 107.2774410  88.9669418  13.7161589 107.8806305  88.7506104
 119.4332028  21.5131521 108.5232925 120.2392200  21.0224652 108.3626842
 119.7201342  22.4217343 108.6148453  42.2432947  91.0982800  58.8386869
  41.7582989  90.3051567  58.6107159  42.2510290  91.1075020  59.7958136
  21.2152839  40.0247288   1.3297597  21.9375491  40.4751301   0.8919183
  21.4979529  39.9483275   2.2410718   5.1512587  39.1810346  62.4845409
   5.0619888  38.8843894  63.3902264   4.9536914  38.4063363  61.9581938
  69.4919777  70.2592659 102.6155853  69.4732809  70.3656435 103.5666656
  69.9689150  69.4412756 102.4753952  56.2211704  58.7300396  84.1947842
  55.7269859  58.5477304  84.9940205  56.8286800  57.9945612  84.1158009
  23.2065940  70.2237749  68.9257669  22.3573899  70.2349186  69.3673086
  23.8012671  70.6551552  69.5393658  19.5059681 112.8899288  98.3573627
  18.9526439 113.4029484  97.7684116  18.9497387 112.7144337  99.1163445
  27.6101971  85.6514454 106.5326500  27.8852367  85.5628967 105.6200981
  28.2859802  85.1930237 107.0320415  26.5462542  99.9964046  78.4800005
  26.9154453  99.1142559  78.4383392  25.8787966  99.9446487  79.1641426
  69.0254307  63.5767078   5.6200925  68.1567478  63.2270861   5.4216329
  68.8541222  64.3699551   6.1276761   8.1110281  69.4231033  22.6446096
   8.2162470  69.5461273  21.7011968   8.7543082  68.7516832  22.8718129
  49.2024946  72.7694416 101.6651726  48.6606073  73.1821823 102.3376560
  48.6226177  72.6860094 100.9081936  19.2017066  62.7865648  67.6227045
  19.2078292  62.6417875  68.5688734  18.2757545  62.7572441  67.3819065
  50.3518963  54.2902184  31.0075418  49.9690485  55.0460768  30.5621854
  50.3341055  54.5246124  31.9354287  28.9513230  59.9932575  79.2049074
  29.7977281  60.0194120  79.6511698  29.0620899  59.3341112  78.5197163
   2.8923628  86.6867828  92.0970440   3.2582608  86.1601353  91.3864231
   3.3945164  86.4282131  92.8698444  46.6053772  77.5047350  84.7556210
  46.1591101  78.1535053  85.2998352  46.0105467  76.7549467  84.7404289
  13.2171071  84.6701431 105.3875828  12.9384196  85.1387882 106.1743069
  13.2147157  83.7480927 105.6445885  29.5073533 104.1843033  78.7203264
  29.9224567 103.3420277  78.9060450  28.6020494 103.9623356  78.5026455
  49.6055126  60.7747078  72.6781607  50.0210476  60.6109333  71.8315554
  48.8179541  60.2307701  72.6676273  52.7042341  80.2827644  81.8985653
  52.3644876  79.7233438  81.2001038  51.9946146  80.8996201  82.0779133
  63.1762695  41.7548895 109.1317654  62.3934650  42.0488930 109.5976257
  63.3859587  40.9083462 109.5262527  53.3471155  55.7154703  79.1099119
  52.5074816  55.3787136  79.4227028  53.2041311  55.8884668  78.1793928
 107.0354671  19.4544327  86.4845753 107.4881763  19.7866464  87.2597694
 106.3065750  20.0610900  86.3545132 122.3898371  70.0599289  70.1943541
 122.7133272  69.9190283  71.0841465 123.1308234  69.8350143  69.6316910
  15.7572997  28.2450056  92.3142242  15.3954124  27.9986310  93.1654358
  15.3460348  27.6415730  91.6953850  30.3147650  62.3991585  89.2131424
  31.1768627  62.3920870  89.6290398  30.0039005  63.2979584  89.3215656
  15.4043233  33.2138443 102.5020409  15.5177152  33.7238669 101.7000103
  15.7340229  33.7836957 103.1968784  40.2612782  74.7191095  15.5098668
  40.9603882  74.3497944  16.0493890  40.0114202  75.5256271  15.9607831
 123.1306232  38.8027859   3.8960210 123.6990832  39.5695233   3.9681093
 122.5145570  38.8921666   4.6231405  38.0422258  73.2511234  16.3822023
  38.7634563  73.8663340  16.2496225  37.8770828  72.8848505  15.5134050
  25.3026843  67.4882269   1.6655675  25.1000357  68.3649254   1.3391343
  24.4476485  67.0848608   1.8153707  17.3556912  75.6127501  98.2681656
  17.0445514  75.2801847  97.4262524  17.6784778  74.8374414  98.7274361
 114.7634054  96.4218235 102.3790264 115.0502760  97.2767162 102.7001190
 115.0286735  96.4100456 101.4593887 109.0937716  98.6467648  67.7748537
 109.0004177  98.4297371  66.8472672 109.7455413  98.0265141  68.1015348
  27.0926166  88.1872845  72.3741484  27.2980356  88.9292717  71.8053865
  27.9358315  87.9314232  72.7479839  53.7196779  79.0030479  40.7893506
  54.6141052  78.6930895  40.6473867  53.3404827  79.0504551  39.9117414
  40.1279736  85.1055145  86.2605572  39.3206573  85.4120636  85.8476353
  40.7168579  85.8592510  86.2239742  16.1128533  66.2836361   8.0639688
  15.6294131  65.4687166   8.1997148  16.2618876  66.3191605   7.1191160
  12.1260345  51.6949701  81.4636040  12.5008845  50.8230829  81.3389778
  12.6687253  52.0940304  82.1436596  13.5808229  75.6780243   6.1519090
  12.8807163  75.8995008   6.7659417  14.1681755  75.1117420   6.6524831
  33.8474846  54.1715908  19.2321149  33.2877088  53.4266233  19.4509832
  34.7389555  53.8462543  19.3572942  39.1541815  54.1317797  91.2538719
  38.5309100  53.9292097  90.5562115  39.6587610  54.8720455  90.9167671
 122.3472933  63.8187790  71.0748434 122.9452789  63.2063675  70.6463575
 121.9667411  64.3241501  70.3565073  23.3113599  52.6180172   3.3240930
  23.4615421  53.2217073   4.0515844  22.3592257  52.5314760   3.2773343
  11.2737203  80.2271080  80.2745819  11.6129518  81.0887432  80.5169201
  11.5282702  79.6567917  80.9999657  18.4899557  33.2598042 105.3970718
  18.8424921  32.8672171 104.5984364  18.3851254  34.1866755 105.1822472
  53.8020754  67.8080368  81.5819550  54.4309759  67.5649452  80.9025288
  53.7908983  67.0585155  82.1772099  30.4911733  66.7037058   3.7973920
  30.2444673  66.2233829   4.5877496  29.9611521  67.5002575   3.8259641
  57.5697231  47.3156261   7.3953382  56.9552755  47.5627899   6.7042581
  57.0336199  46.8499517   8.0371896  17.3264539  35.1411748  44.5640993
  17.4229538  34.2254519  44.3026209  16.4975691  35.4160953  44.1721821
  73.8313341  61.7008543   4.7264997  74.0757513  61.8331814   5.6424562
  73.1145954  62.3177576   4.5783368  58.9853334  83.6881065  47.7329389
  58.8148642  82.7969933  48.0380288  59.4726038  83.5728550  46.9171468
  17.7033949  54.6376038  97.9761982  17.0011485  55.2861547  98.0257988
  18.0526757  54.7301006  97.0898056  54.7735310  69.2777109  24.9052755
  54.9721050  68.5739660  25.5229608  54.4301844  68.8286257  24.1328374
   8.7381870  41.2192345  98.1517696   9.1483605  41.5974331  98.9295578
   8.3002079  40.4304600  98.4715176  35.8892179  59.4754362  27.6481000
  34.9892402  59.7762680  27.5225202  36.3116455  60.1813650  28.1374494
  16.1699820 101.4995766  83.2180405  15.3186524 101.8352699  83.4987259
  16.4589572 102.1137714  82.5431442   1.3673970  71.6952705 100.9656620
   1.9134676  71.5840054 101.7439079   0.7669992  70.9500551 100.9858131
  17.8452229  85.5737972  97.5194263  17.6962054  86.0172176  96.6843224
  16.9673109  85.3760719  97.8456306  19.6691406  70.9565735  93.1783772
  20.3381491  70.3211117  92.9237270  18.8737261  70.4356718  93.2888603
   9.2265207 107.9960823 107.1574593   9.9075836 107.3312187 107.2591782
   9.6827459 108.8278008 107.2852516  37.8068852  64.6090698  75.4470253
  37.6125002  65.5378532  75.3212976  37.9142904  64.2646885  74.5604038
  16.4102650 112.3268127  83.8713837  16.1457872 111.4070415  83.8887501
  16.7212021 112.5034237  84.7592831  27.6669741  82.5487137  94.2478275
  26.7501450  82.3824501  94.4669533  27.6799369  83.4565258  93.9446068
  23.7910080  77.2328711 103.7122726  23.8349128  76.3580894 103.3261871
  23.5567737  77.0792294 104.6275616  41.3866377  31.8683624   3.9140359
  41.3234138  30.9985018   3.5196058  41.9615221  32.3571706   3.3251325
  68.5925436  60.2561808 109.7394085  67.8480577  60.2102280 110.3392887
  68.1978130  60.2567148 108.8673878  24.4161844  90.1348877  90.1103783
  24.7632360  90.9985828  89.8871994  24.2043543  89.7364330  89.2662334
  27.4225521  55.2466679  91.8626308  26.5618277  55.5027103  92.1940327
  27.8627205  56.0754061  91.6737556  31.0647035  76.6067553  97.3510361
  30.7900071  76.3567066  96.4688492  31.0739350  75.7845640  97.8410816
  12.1941984 115.9544945  97.2732353  12.3839355 116.1032391  98.1995773
  12.6234448 115.1231003  97.0713234  25.5676126  62.1026802  86.1969471
  26.3745713  62.0020103  85.6920528  24.8875165  61.7247391  85.6394005
 117.3109681  65.0629330  77.2954750 116.8576724  65.7177210  77.8265238
 118.1695289  65.4485655  77.1211338  44.4739151  44.2385912  74.8627329
  44.6758842  45.1548910  74.6734476  43.5288668  44.2280245  75.0144053
  33.5093212   4.6708885  93.6471653  34.2685413   4.2910632  94.0893745
  32.7550077   4.2773855  94.0857887  25.6604981  70.4034138  79.9200058
  25.9360695  70.7964706  80.7481384  26.1926937  69.6116495  79.8418665
  26.7429852  84.0714073   2.4767438  26.8294096  83.4680176   3.2147638
  26.1998200  84.7844124   2.8126375 115.7392479  66.4112711  72.3683691
 116.1416728  66.3530684  71.5018272 116.4791573  66.4750719  72.9722691
  13.1639636 102.4451733 104.1805458  13.7313116 101.6743183 104.1692924
  13.4900320 102.9929829 103.4665394  37.3368120  76.5672493  99.5009613
  37.2373152  75.6569910  99.7798252  37.8440332  76.9781446 100.2010536
  20.0267220  51.8667555  88.9380550  20.2673197  52.7930880  88.9540768
  19.2520297  51.8107986  89.4974709  18.8602829  53.5846901   6.8012468
  18.7115204  52.6665449   6.5751687  18.4924555  53.6775970   7.6800577
   4.1883960  74.9012089  88.4910965   3.5431796  75.0283861  89.1866207
   4.4739762  73.9932394  88.5924149 111.3319487   9.1681874  19.1980211
 111.9854159   9.8672664  19.2203847 111.5856392   8.6270285  18.4503404
  33.1193781  64.2489862  97.0815659  32.4323893  64.3006706  97.7460957
  32.7365160  64.6637630  96.3085079  29.4935489  37.9386568  98.9190483
  30.3114057  38.4289360  99.0025234  29.6336675  37.3656511  98.1652164
 120.4372734  56.6375780   9.9354497 121.1139104  57.3145485   9.9459211
 119.6273912  57.1052551  10.1394216  53.6667681  39.4153214   4.9973146
  54.4972038  38.9506149   5.1005212  53.9139795  40.2745056   4.6553842
  60.0703764  82.1011066  99.7742748  60.1258469  82.8938293 100.3078938
  60.8033133  82.1722698  99.1627407 119.7034199  69.0683937  80.7823372
 118.9052517  68.5410070  80.8142948 119.4022722  69.9670124  80.9166145
  18.6599648  59.6862793   0.3765336  19.4523489  60.0267839  -0.0386962
  18.8309586  59.7600126   1.3154451  50.1048231  69.4211817 108.4061813
  49.7432089  70.1891088 107.9637432  51.0049057  69.3619537 108.0859089
 106.8531234  59.8261786  61.9572735 107.1925432  60.1060677  61.1071634
 105.9143431  60.0074434  61.9118166   5.2976942  67.9515696  90.3451347
   4.4279450  67.6927710  90.6497478   5.3605610  68.8817024  90.5622482
  11.2269711  51.6252089   0.4518358  11.2331247  52.2974873  -0.2295073
  11.4369011  50.8137560  -0.0104388 109.6758050  85.8388996  10.0278512
 110.2450997  86.0149479  10.7769433 109.9266488  84.9620628   9.7372285
  41.5270090  46.3436460  99.2763901  41.7339659  45.8930969  98.4576035
  41.6940594  45.6919050  99.9572468   6.4634103  55.2280664  87.1212673
   6.8883914  54.9121332  87.9186440   7.1666574  55.2631950  86.4728546
  28.5946631  67.5456190  92.6781368  29.4688106  67.6238108  92.2960567
  28.0167437  67.9674435  92.0422840  23.4109473  87.4735355 100.5179024
  23.0655813  86.5876579 100.6282806  24.2566538  87.4584484 100.9659958
  18.4056258  55.7180309  77.3592186  18.5471725  56.0207224  76.4622402
  19.1660655  55.1686811  77.5494289  37.7221680  81.5103531   0.7518808
  38.3366466  80.8128738   0.5234662  37.3988247  81.2698555   1.6201249
  11.1805356  71.1697006  24.3043081  11.4531159  71.6920185  25.0587121
  11.2970889  71.7530537  23.5544149   7.6637959  62.7380514  21.1501447
   8.6048383  62.6240587  21.2831060   7.5547177  63.6776304  21.0034219
  31.8953490  52.6679182  74.4141340  30.9952927  52.9231501  74.2116928
  31.8728209  51.7113543  74.4407654  16.7387152 103.2427788  18.8683931
  17.2087801 103.2966709  18.0363027  16.0132492 103.8600636  18.7740556
  12.4386120  18.7426007  13.7974016  12.9473460  19.3973160  13.3191053
  11.5269840  18.9990783  13.6581651  29.6814084 108.7282467 104.6852875
  30.0204301 109.2975044 105.3761196  29.4610429 107.9120350 105.1341343
  15.3793132  54.6904659   7.8818361  16.1381960  54.4938421   7.3325960
  14.8752630  53.8768244   7.8940908  72.2028255  75.4001808  84.9118328
  71.3119984  75.5313444  84.5870876  72.7303314  76.0350704  84.4271851
 118.9360256  69.6001720  59.7657824 119.3334324  69.9223423  60.5747986
 119.1832448  68.6761856  59.7289181  20.6406164  39.2150831  59.0000439
  21.4958787  39.5478296  58.7279415  20.5157948  39.5674849  59.8812151
   7.6600462  76.2006712 106.7201710   8.5040957  75.7540464 106.7860508
   7.0770758  75.5536795 106.3229561  50.0849533 107.8138161  78.8098001
  50.4535770 108.0970097  77.9730463  50.4976559 106.9668865  78.9789677
  42.8574324  77.7667427 105.8800697  42.1403503  78.3885145 106.0042763
  42.6011658  77.2558451 105.1122570  18.6727405  58.9506149  76.8214798
  18.5641503  58.0713940  76.4589739  18.7044406  59.5233870  76.0552168
  39.2077327  66.9002390  54.9345016  38.3103156  67.0209837  54.6241856
  39.1416860  66.2120724  55.5965424  39.2414188  64.4118261  86.6780376
  38.6626863  64.0086746  87.3251629  38.7846661  65.2100277  86.4125538
  39.3278909  54.4704199 100.3837299  39.6356249  54.1974068  99.5194340
  39.1105580  53.6520433 100.8301163  31.4594626  40.2223682  67.6301861
  31.5802813  39.8088741  66.7754030  30.5684304  40.5710697  67.6037693
  33.1411242  43.9021969  73.9373350  33.2909560  43.8843155  72.9921007
  33.2557416  44.8208284  74.1806650  23.3290911  68.7884092  78.7364149
  24.1206980  69.3165779  78.6333179  22.6488638  69.4196510  78.9710522
  41.9875956  57.7893019  80.3119659  41.2284231  57.8791523  80.8880043
  42.0273066  58.6193037  79.8368359  11.0034192  72.5789404  66.2936401
  11.1270559  71.8064260  65.7421255  11.1933851  73.3183527  65.7162189
  34.4038582  88.4500313  74.2985439  34.5830417  89.3455982  74.0120220
  35.2606392  88.0232334  74.3004942  18.6046350  59.5116186  71.9592094
  18.0966282  60.0172186  71.3247585  18.5743582  60.0337458  72.7608919
  34.9547839  51.0578299  81.7106915  34.9927139  51.9942951  81.5161991
  35.4066825  50.6421900  80.9763527   5.4715222  52.6279640  48.7474871
   5.6841189  52.5834703  49.6797180   4.6619049  52.1245050  48.6621618
   4.9553964  65.8330154 101.9218254   5.4963070  66.6114712 102.0546913
   5.5747604  65.1536465 101.6552258  29.6196198  58.4182882  86.1794662
  29.4634938  58.5552883  87.1138573  30.5378866  58.1533337  86.1263847
 114.5108277  90.1663685  58.7190628 114.9676961  90.6848717  58.0567551
 113.7458844  90.6933498  58.9501095  36.8138289  57.1978378 101.1079597
  36.8322039  57.6583385 100.2690125  37.5747871  57.5332069 101.5819931
 119.5514137  66.3971853  76.6610098 119.0916086  67.2074938  76.8805790
 120.3986753  66.6867352  76.3225698 107.4912453  71.2183428  97.4676895
 107.1643829  70.9086847  98.3123779 106.8487835  71.8698025  97.1864891
  26.6866350 119.6633244 101.1278629  27.4599743 119.7051334 101.6903877
  26.8328285 118.8946724 100.5764580  29.3680406  61.3965130  62.0076561
  30.0453615  60.7201862  62.0004177  28.5652018  60.9340477  61.7672253
  33.5677147  53.9325523  93.1046295  33.0096865  54.6558571  93.3904076
  34.4279051  54.1335773  93.4732628   3.1547859  51.1445475  62.5880289
   3.8805875  50.6499767  62.9686117   2.6632363  51.4677763  63.3431005
  22.4953294  42.3440361  60.8651638  22.7605438  41.4399815  60.6961107
  22.9876471  42.5959587  61.6464376  26.2903190 102.5954437  60.0519228
  26.4326215 101.7353249  60.4471207  26.0072160 102.4043083  59.1577482
  10.3869128  40.2395582   2.4761430  11.0934770  40.2997684   1.8332044
  10.7829034  39.7961998   3.2263795  19.3767631  45.0254202  89.7996616
  18.7187815  44.3327999  89.7399139  20.1877904  44.5669985  90.0194645
  46.2877798  88.7013054  78.0432653  45.8794594  89.3287373  77.4467516
  46.1612988  87.8518105  77.6206541  24.8317051  37.2168255  71.0696220
  25.3056574  37.6992345  71.7470264  25.4245281  36.5073943  70.8216238
  68.5611486  45.9796143  85.7899284  69.0703869  46.6822863  86.1938572
  68.9198017  45.9016132  84.9058914  24.1288471  67.7618980  81.8566132
  24.2862749  67.2188616  81.0842419  23.1759882  67.8390408  81.9049931
   7.6457620  60.5108690  66.8011808   7.9756826  59.8447847  66.1980915
   7.6631945  60.0868511  67.6591635  12.6206589  44.9350595  77.4450588
  12.2087121  45.6423473  76.9488001  12.0610511  44.8242903  78.2136965
  41.1437178  95.3689671 101.1599255  40.1970959  95.4245758 101.2904930
  41.5080643  96.0063171 101.7741489  37.5395656  98.9260292  67.5411320
  37.2540331  98.6833763  68.4219408  38.4936643  98.9720917  67.6028299
  37.1461558  86.1864281  97.8757000  37.0503449  86.8755913  97.2183514
  37.6424742  85.4990101  97.4314404 110.7297582  69.9359751  89.3479919
 110.8509464  70.5747128  88.6454582 109.8561770  70.1216173  89.6924114
  47.5405359  24.9380016  71.1067200  48.1957293  24.9715567  70.4097033
  47.8837442  25.5183029  71.7861938   8.1923056  69.1377878  93.4865189
   8.0531681  68.2847881  93.0750942   7.3278880  69.5488882  93.4837532
  14.8570883  72.9514027  37.5247423  14.1979301  72.3997498  37.9459611
  14.5777917  73.8467455  37.7160016 107.5506789  53.0313349  51.0334778
 106.6987187  52.9310942  50.6088066 108.0649740  52.2887087  50.7168674
 122.5816534  35.4906082  99.2037106 122.2214628  34.6110010  99.0906334
 122.9766773  35.4774141 100.0755024   4.6762776  30.1582408  87.6877689
   4.2447630  30.1766801  88.5419846   3.9796495  30.3601098  87.0631123
  18.3653808  46.9620037   8.7059060  19.1283441  46.8739653   8.1346170
  18.3900642  47.8726244   8.9998380 121.0318137  56.4705229 106.2281132
 120.1621822  56.0747337 106.1704826 121.6365868  55.7390642 106.1038303
 118.8781018  66.1894321  91.5952206 118.0765194  65.7342052  91.8530273
 119.5787019  65.5638027  91.7795563  10.3748441  45.5501223  68.5223198
  10.1002705  45.7697010  69.4126129  10.7531130  46.3606930  68.1815529
  48.2429981  64.2487812  39.1803304  47.7979136  64.5890808  39.9564210
  48.1646204  63.2978725  39.2569295  22.0508003  77.0870018  45.0326061
  22.7827191  76.5005589  45.2239418  22.3783398  77.6607370  44.3399477
  65.7738256 111.7817402 108.5214806  66.3800907 112.4390030 108.1798935
  65.4797173 111.3018417 107.7472591  23.3326077  57.8205109  79.7733498
  23.6440134  58.0739737  80.6422710  24.0888786  57.9492998  79.2009020
  18.4547758  81.7436028   6.9477121  18.6229944  81.7144203   7.8895608
  19.3209326  81.8434048   6.5526906  18.9228988 111.3127518  79.1501665
  19.6540141 110.7233334  79.3353462  18.1988478 110.9677410  79.6726084
  22.6585269 111.0389328  92.5935078  22.9739785 111.7555714  93.1441021
  21.7387915 110.9360886  92.8379250  30.1833367  65.3960514   9.2535917
  30.8111620  65.9513044   8.7912504  30.3213739  65.5976915  10.1790754
  27.3495817  64.3393469  87.4573135  27.2272778  63.4340763  87.1713829
  28.2804871  64.5115042  87.3158741  38.9281678  43.7833738 106.3578796
  39.2320251  43.4752417 107.2116661  38.0210352  43.4826994 106.3036823
  35.3797817  25.4444194  50.3134823  36.0292768  24.7446084  50.3817081
  35.8537555  26.2365913  50.5665493 122.0802814  76.5946770  74.3544531
 121.4754251  76.9247580  73.6900568 122.9409321  76.6386032  73.9378214
   5.1020300  95.9025288  51.8967438   5.6950438  95.4912663  51.2679100
   4.2406869  95.8516216  51.4823389   2.6523817  69.5467854  80.1325703
   2.3781095  69.0301561  79.3748808   1.9382045  70.1692867  80.2692223
  28.7160754  74.5807409 102.2673702  29.6077681  74.7749710 101.9785976
  28.2903647  75.4363060 102.3221970  13.5415077  18.2629645  88.1090832
  14.1327941  17.5219071  87.9770088  12.7760875  18.0572653  87.5723743
  19.0531087  65.0655174  69.7150850  19.9757206  64.8359299  69.6041441
  18.7389004  65.2309608  68.8261890  29.7518587  87.5628471  74.8946142
  29.7983146  87.2389507  73.9950800  30.3310561  88.3248520  74.9050140
  30.1704764  72.3443079 108.7775517  30.1135445  72.2078848 107.8318405
  30.9007287  71.7915297 109.0557575   9.0945047  58.8765907 100.3499985
   8.2465070  58.4603405 100.5044842   9.6335119  58.6050129 101.0929298
  31.5403008  64.1414070  71.6637135  32.1951985  63.4523344  71.7756271
  30.7506990  63.6782408  71.3839960  48.4755993  45.5000591  81.1191177
  48.0687952  45.7416916  80.2870369  49.0744305  46.2216234  81.3114166
  24.2562485  25.9101605  74.0540648  24.4084167  26.1328220  74.9724865
  24.9627161  25.3027105  73.8346577  39.9442458  58.8709259  76.8703270
  40.5593681  58.2447672  77.2521400  40.0879145  58.8026524  75.9264374
  24.7796535  41.5644979  87.7295876  24.9324155  42.1332216  86.9749737
  23.8377666  41.3946199  87.7147007  18.5726750  50.3895569  85.1790619
  18.8422501  51.1680889  84.6917725  19.2284060  50.3009367  85.8707237
 118.0273736  72.6860094  69.5766640 118.1398720  71.7800093  69.2890167
 117.1941412  72.6860189  70.0477839  19.9140608  47.1357489  91.4249611
  18.9600170  47.1673012  91.4959335  20.0808597  46.5216637  90.7098961
  10.9031129  64.8838139  50.1248217  11.6162682  64.2542219  50.2309132
  10.2348733  64.5958185  50.7467079 111.3438911  34.3033624  88.6510754
 110.9486432  35.1466060  88.4298229 111.1619789  34.1910243  89.5840931
  16.5130198  52.2364998  95.7038879  16.3728535  53.1799650  95.6235218
  17.4263859  52.1074200  95.4482841 114.8178620  32.1522188  86.3374424
 115.0034083  31.5267062  85.6370544 113.8857967  32.0359182  86.5217209
  35.6061625  69.4006872 107.7818966  35.8131456  69.2748594 108.7079334
  36.4216137  69.1961241 107.3242664   3.3118445  65.2902412  88.4977055
   3.0079937  64.3825531  88.4958076   2.5714323  65.7913876  88.1558323
  15.9618270 109.1493225  37.7065873  16.2210560 110.0659370  37.8006458
  15.0389254 109.1341972  37.9600763  24.7514248  55.8739567  60.6481695
  24.7236276  56.6804409  61.1629963  25.3300142  56.0785580  59.9135876
   2.3392829  66.5126133 104.7911835   1.4579557  66.2970304 104.4861889
   2.6885095  67.0984840 104.1195965  35.1827455  74.0655231 104.1294575
  34.5569873  74.3300915 104.8037434  35.9252763  74.6582317 104.2459869
  46.1857462  63.8189888  75.7002878  46.6891241  64.3386221  75.0735331
  46.8380594  63.2686663  76.1337185  11.9582212  92.4769211  55.9276390
  12.2402048  91.9406796  56.6686916  11.6629052  93.2966995  56.3238573
  99.3382496  75.7893753  65.3104877  99.4814128  76.4655828  65.9726667
  99.8327012  76.0916662  64.5486689  18.8068938  92.0963764  64.3648148
  17.8938687  91.8458748  64.5057678  18.7728107  93.0365562  64.1883993
  26.9717336  66.2426138 105.0023937  26.9246769  67.1986341 105.0090885
  27.8934693  66.0493708 104.8312378  53.2274580  72.9575253  72.8760910
  53.8163376  72.2029352  72.8696775  53.5478973  73.5053253  73.5926580
   7.9572815 111.8647861   2.1868554   7.1639550 112.0242119   2.6981775
   7.8844762 110.9512901   1.9103566   8.9856422  71.7958403  81.8057919
   8.0899978  72.0466852  82.0319080   9.3973261  71.5943289  82.6461220
  64.7478771  47.0610619  89.8682690  65.2336931  46.3864517  90.3427315
  64.4906235  46.6390991  89.0485096  39.7394133  66.7891645  76.9900990
  40.2421284  66.2792778  76.3548613  40.3007507  66.8274879  77.7644777
  31.1452579  73.4088421  77.3450136  30.8010650  74.1320896  76.8209171
  32.0944977  73.5307407  77.3272705  50.5208969  69.5995712  82.4133778
  50.2291393  69.6300507  83.3245182  50.2245712  68.7467432  82.0954037
  17.4352908  41.2392664  62.5069237  17.3394430  40.7127571  63.3005428
  18.0153978  41.9560623  62.7636528   8.2509369  48.2357550  59.7502947
   8.2691020  49.1736412  59.9407387   7.7746105  47.8511286  60.4860973
  43.6329317  65.3152943  89.7883415  43.3909607  64.6098375  89.1883278
  44.4268274  65.0003815  90.2205276  12.7023137  19.9565780  70.0637817
  12.2896755  20.2286386  69.2440557  12.8449059  20.7730198  70.5426550
  44.5566559  69.2489004  87.7452755  45.4609919  68.9442348  87.8200245
  44.2853069  68.9805698  86.8674374  13.4530246 110.2352428  63.2149124
  14.2345214 110.4022026  62.6880169  13.6666167 109.4492817  63.7177801
  37.2317028  39.9100661  73.2391214  37.4601555  40.6213665  73.8375282
  37.1622276  40.3309536  72.3822355  30.5836344  63.9422321 102.8235912
  29.8871899  64.4124031 103.2819939  30.7706857  63.1874704 103.3817863
  38.8212132  96.7332554 104.7427654  39.4112420  96.1642647 105.2370834
  38.3682203  97.2472095 105.4112625  61.3360167  71.3367462 108.7924862
  62.1141291  71.5562439 109.3049335  61.0133123  72.1797562 108.4740067
  11.6904438  78.3771229  12.8158037  12.6444352  78.4415150  12.8603402
  11.4949524  77.4948025  13.1312791  33.7294006  79.7495747   5.2449838
  33.9917564  78.9503431   4.7882215  33.2649136  80.2620983   4.5833055
  19.7648323  72.1408415  86.2228394  19.0469694  71.9815540  86.8356514
  20.0862122  73.0129004  86.4518738  32.7365923  72.1621227  94.4693947
  33.1198597  71.2862682  94.5164299  33.4309483  72.7079058  94.1003036
  18.7754631  37.3726439  69.2024660  19.3952489  36.7873240  69.6377802
  19.1613865  38.2434583  69.2972326  35.2425575  75.2422714  88.6138058
  36.0508347  75.0208616  89.0762997  34.6700406  75.6024647  89.2910957
 105.0658614  67.0681381  52.6872110 105.5261976  67.9010010  52.7904892
 104.6853251  66.8963861  53.5485601   1.8736845  74.3643665  99.0374279
   2.6306820  74.8726177  98.7461185   2.2149071  73.8050461  99.7352600
  22.1894646  45.9154177  87.7051735  21.7404938  45.0931263  87.5089550
  23.0770063  45.6516886  87.9479694  50.9121847  74.4853354  99.8617172
  51.4455557  74.9486923  99.2159271  50.9127569  75.0584221 100.6284046
 120.4802892  65.7256508  56.3101673 120.4765723  66.1904287  57.1469498
 119.8478097  65.0167656  56.4271212  29.6625829  61.5963411  65.8175278
  29.0297341  61.2279654  65.2010584  30.1789188  62.2086906  65.2934551
  45.8326387  15.2890503  74.8720360  45.3086853  15.5471611  75.6303740
  45.3548193  14.5527720  74.4901800  55.7501268  51.8843651  96.5375042
  55.4900122  52.1048403  97.4319077  54.9327517  51.8999529  96.0396194
  51.1024332  54.5163488  80.2085972  51.5448380  53.8154840  80.6874466
  50.2772093  54.1259384  79.9208117  24.6907735  68.8402414  60.1850319
  24.1234732  68.5393190  60.8948565  24.5563173  68.2023335  59.4841576
  35.9101295  69.5856190  82.4294090  35.3380322  69.5480537  83.1959152
  36.5386057  70.2781963  82.6333237  57.2518158  46.4281845  47.6526403
  56.3613558  46.5792990  47.9696178  57.6973057  46.0012293  48.3844042
   1.0116550  28.4577894  80.7102203   0.5798927  28.8799000  79.9675035
   0.9353089  27.5206804  80.5306911  98.3476133  96.1455536  80.2554417
  98.4714288  97.0916367  80.3318310  97.8912491  95.8980274  81.0596180
  47.5257683  75.8754778  78.9656353  47.1792221  75.1792002  78.4076595
  48.1818295  75.4412746  79.5108747  26.0011554  60.6435776  73.8717127
  26.6515470  61.0301161  73.2853603  25.2658534  61.2560558  73.8508558
  31.1331534 106.9952869  85.5827618  30.6897378 106.9514370  86.4299297
  31.7272639 106.2447739  85.5842686  21.8093109  85.5968189  52.9450560
  20.9211087  85.6197929  53.3011484  22.3591256  85.9374905  53.6506605
  13.2647383  61.7549467  92.4306965  13.1247950  60.9652042  91.9082451
  12.3954070  62.1479845  92.5082493   9.5177710  98.9319229  76.3864374
   9.0203065  98.2888412  75.8812571   9.2144060  98.8157845  77.2868347
  17.7095151 116.0411358  64.0968037  18.2757950 115.3775787  63.7027884
  17.5414360 116.6633987  63.3891535 108.5703558 108.6880016  72.8532648
 108.9587600 107.8171921  72.7691984 108.2364375 108.7157822  73.7498999
  13.6120915  80.4021645  98.0516052  13.7419617  79.8590612  97.2741795
  14.3061018  80.1304722  98.6522484 118.7704468  43.1580877  35.3681684
 119.6070940  42.8172827  35.6845641 118.2824839  42.3806953  35.0965261
  12.3916376  34.9975014  70.3071976  12.7859581  35.6735611  69.7561169
  13.0267382  34.2813921  70.2991390  17.2355354  72.6903772  76.3385773
  18.0353510  72.1779490  76.4566803  17.5438488  73.5829687  76.1822081
  53.7263584  72.8892565  85.2495766  54.6314573  72.5821018  85.3013897
  53.8012505  73.8236904  85.0560379  25.6672907  72.9071808  81.8647766
  24.7941756  73.0890417  81.5171719  25.7927680  73.5619020  82.5516796
   4.6258333  39.1115904 103.7206173   4.1233999  39.9158168 103.5901928
   4.8178530  39.0985489 104.6582699  30.5734968  45.8385229  73.5011244
  30.5615997  45.1440144  72.8425312  31.4983678  45.9392643  73.7262869
  37.4001265  91.1518764  87.1856213  37.0558023  90.6160641  87.9001713
  36.8591213  91.9414520  87.1961403   1.9731738  45.9068060  93.9825535
   1.7913489  46.7999220  94.2749786   2.5969934  46.0122967  93.2642555
  10.9653199  54.4809055  99.7928524  10.4438806  54.2693138  99.0185452
  11.8727124  54.4235754  99.4935513   9.0282154  74.9286699  11.8713609
   9.2438203  75.7480526  11.4259855   9.7694713  74.3524742  11.6848985
  34.9244618  69.7591448  74.4352388  35.7614827  70.2176189  74.5089245
  34.3735743  70.1564312  75.1097155  48.3955908  76.8906546  50.4228783
  48.5899353  77.7333355  50.0125790  47.5315762  76.6537619  50.0858450
  22.8129530  19.0034556 104.6856213  22.5460720  19.3102944 103.8191032
  22.2915339  18.2140613 104.8312664  48.7743998  53.7199402 100.4340172
  48.1916285  53.3874512 101.1166954  48.4737301  53.2912445  99.6327400
 122.8352756  71.3344049  61.2881994 122.8283373  72.2206831  61.6497183
 122.1717483  70.8644915  61.7933178   1.6750486  63.4739685  49.7018766
   1.5347981  64.4200802  49.6639729   2.2450595  63.3465290  50.4602146
 113.4565610  46.5404415   3.1819860 113.3512015  47.4312973   3.5159246
 114.2736918  46.5663528   2.6841394  21.8703651  47.7934742  72.9682827
  21.5573168  46.9041109  73.1334019  22.2049618  48.0905867  73.8144541
   3.5897106  57.8686190  71.1963606   2.7168334  57.5408173  71.4128399
   4.1158685  57.6801348  71.9734478  29.0473890  79.7639036  89.4802094
  28.3549786  80.2046585  88.9877319  29.7823977  79.7154236  88.8689518
  31.9897795  56.4785528  69.4244003  31.5727544  56.6711378  70.2641821
  32.0573902  55.5239630  69.4038868  46.8127251  63.5554028  49.3112803
  46.5530205  64.4508934  49.0947533  47.5996971  63.4012508  48.7886477
   9.1301137  84.9722290 102.4656391   9.3683881  84.0671730 102.2648239
   9.9652511  85.4073143 102.6373482  14.8221660  64.2405939  76.1043024
  15.2060258  64.4000340  75.2420616  13.8887405  64.4174242  75.9873390
  50.4609632  67.1656132  67.4554300  50.8828831  66.6117001  68.1122398
  49.6198702  66.7404175  67.2880888  34.5741439  77.7516603   3.4257547
  33.9667773  77.3595095   2.7984182  35.4256821  77.7142000   2.9902021
  31.5008378  39.4482183  84.7808170  32.3763800  39.8270273  84.7023010
  31.1429000  39.4864869  83.8938808  56.8684721  62.9602098  46.6504669
  57.3204279  63.7122679  47.0330667  57.5654697  62.3309660  46.4647865
  33.5269570  78.4648705  77.2983456  33.3504128  78.8344336  76.4331961
  34.2407036  77.8439713  77.1524715  23.7241793  46.2871599  84.9926090
  24.1674590  46.5338039  85.8043385  24.0345240  46.9226694  84.3475914
  44.1263533  57.3695469  43.8434362  43.3807135  56.9807625  43.3861637
  44.3509150  56.7317200  44.5209169  10.3535593  38.8494205  90.2155209
   9.9039066  39.6893263  90.3082848   9.7316259  38.2956266  89.7435570
   6.3723987  58.8940668   4.7568647   5.8619100  59.4213915   5.3713170
   7.2490865  59.2774200   4.7831003  21.6140175  40.1116514  89.7096634
  22.3727250  40.4060364  89.2057419  21.0820723  39.6254516  89.0796852
  27.0136404  82.2559071   4.7144452  26.1196804  82.0133972   4.9558011
  27.3401761  82.7475739   5.4680196  32.9374051  60.1507902 101.6074848
  32.3871374  59.9154329 102.3545074  33.3088613  59.3194580 101.3122845
  13.1247246  68.9139748  38.5910225  12.5734031  68.9510202  37.8094196
  13.9395463  68.5114908  38.2905173  11.7906117  50.5208015  95.3468227
  11.3685155  50.7654715  96.1703491  12.2616875  49.7126865  95.5499744
  72.5979614  69.5255613  87.1810818  71.9484091  69.2474127  87.8268051
  73.3180952  69.8795509  87.7029324  22.0713019  84.9231911  92.9499054
  22.1395421  85.3094959  92.0767784  21.2454104  85.2602482  93.2970619
  27.4726701  28.0424309  52.4986362  27.0397043  27.4474311  51.8864679
  28.3803415  27.7397013  52.5254154  69.4265985  78.1375837 103.3676147
  69.2441559  78.3547068 102.4533844  69.2908239  78.9586735 103.8404846
   7.0540947  90.1446247  73.2066250   7.7737391  90.5809498  72.7505875
   7.0818824  90.5012989  74.0944529  38.4643555 101.0723400  97.1757412
  38.7028217 101.1882305  98.0954933  38.8612032 100.2370071  96.9288445
   3.7241369  49.9656343  88.7843800   3.1788251  50.4924917  89.3685818
   4.6037233  50.3296328  88.8847160  28.4770989  87.4510002  77.6208210
  28.9253592  87.5465965  76.7804909  27.5506759  87.3785400  77.3912144
  21.2124228  85.2272511  80.7836056  21.7698932  84.6388340  81.2927437
  20.6020069  84.6460247  80.3299522  16.7313898  53.9039612  66.8958473
  17.5577807  54.1843605  66.5025473  16.9117081  53.8727522  67.8353930
  54.5040560   8.7338734 102.3424911  53.8813591   8.1593859 102.7879620
  55.3438473   8.5485780 102.7627850  -0.0405906  82.3719978   9.4521371
   0.8408605  82.1218300   9.1752092  -0.1918481  81.8693924  10.2526037
 118.4250755  41.9595003  92.0419025 118.3581049  42.7984333  92.4979019
 117.6960916  41.4420557  92.3840523  32.4012661  47.1133709  51.1042500
  31.5008569  46.8513346  50.9123230  32.7146721  47.5075722  50.2902365
  28.4576201  65.8245754  96.9786739  28.9622521  65.2213192  97.5242519
  29.0946221  66.1737347  96.3553429  36.2275553  66.5653372  89.3777084
  36.0330415  66.1312389  88.5470676  36.6498542  65.8895493  89.9079990
   0.6469312  46.6744900 108.7025166   1.4147080  46.7661190 109.2667484
   0.0207697  47.3125458 109.0446186  41.4929390  62.0549297  95.8002090
  41.3518715  62.3883677  96.6862965  42.3924971  62.3058367  95.5902672
  44.2986298  65.8484411  57.6119184  43.5525370  66.2158012  58.0858660
  44.7468281  65.3018856  58.2573843  56.5011406  71.6020536  91.7291927
  56.7946291  71.0657930  92.4657536  56.5204430  71.0087538  90.9782887
  38.6701941  64.0684223   0.9381238  38.3876228  63.5301781   1.6774980
  39.2600536  63.5017443   0.4409543  40.8010530  93.3629990  16.6108171
  40.1809978  93.2722759  15.8872644  40.3626347  93.9463997  17.2302190
  70.2421761  64.8656034 107.7771187  70.1959896  64.1277599 108.3851337
  70.1990747  64.4639349 106.9093418  15.4558587  67.5618172  98.9784241
  16.2026644  67.5326109  99.5764732  15.0990832  68.4437847  99.0836716
  25.7699442  24.4852018  89.2557144  25.1288152  25.0780749  89.6477413
  25.7467103  24.6912885  88.3212471   1.1494399  64.6284962  70.2714872
   1.8788467  64.2084360  69.8156929   0.4867414  63.9419079  70.3467226
   8.0832452  72.6120472 107.4093533   7.3790491  73.0127811 106.8997002
   8.2042933  73.2004452 108.1545830  10.7264400 110.9239101  68.6648083
  11.2972772 111.6708183  68.8451099   9.8450387 111.2964439  68.6405897
 112.0338780  64.6655560  94.7987080 111.6180462  65.1068544  94.0580559
 112.8734989  65.1130867  94.9035072  11.4805627  82.4658680  54.6216393
  12.0486057  81.7198181  54.8139143  10.9165382  82.5420666  55.3912544
  20.0885320  55.7874680  90.9849262  20.3152537  55.2537060  90.2233982
  19.9106967  56.6560841  90.6242085  26.4519978  68.5046625  72.5916290
  26.7187715  69.4067144  72.7687407  26.4591527  68.0799723  73.4494305
  24.9900556  74.9765158  54.3103361  25.5286646  74.5268393  53.6592388
  25.5179429  75.7280493  54.5800924  17.6831710 109.3626785   4.5529691
  17.8898335 109.0564346   5.4359952  16.7606461 109.6142483   4.5964948
  29.3832183  41.3135242  63.5730314  29.1418099  40.7077408  64.2737293
  29.6261072  40.7475948  62.8402567  33.8583040  62.8331566  72.1555614
  33.3931756  62.2160339  72.7204084  34.2869258  63.4368706  72.7622271
  32.4669814  62.4280405  90.9520626  33.3423948  62.8145742  90.9739017
  32.0568490  62.7177334  91.7669868  32.2176433  57.5430059  86.2030220
  32.4008250  56.9340134  86.9184303  32.7368498  58.3198261  86.4108849
  36.3287926 100.8653736 100.0270844  36.1208200 100.8883381 100.9611416
  35.7483172 101.5185165  99.6363354   4.5826074  84.7430420  75.7306767
   4.6112344  84.3886280  76.6193867   3.6976400  85.0969696  75.6423616
  31.3303924  40.3706646  16.6044561  32.0182443  40.3483534  15.9391824
  30.6321454  40.8929491  16.2096063  36.0696173  65.1169157  87.1949863
  35.6507659  64.2910767  87.4374390  36.1643720  65.0672054  86.2437820
 120.8693416  63.6734629  19.4212270 120.6835682  62.9484224  18.8245404
 121.7927418  63.5655499  19.6490836  36.3511157  86.4392281  59.0039110
  37.2312689  86.7036724  59.2715406  36.4930606  85.8481789  58.2644844
  40.3586102  65.0504112  64.4649935  40.8959532  64.2607450  64.4023991
  39.7757649  64.8853827  65.2061319  63.7095070  62.9856539  78.1265593
  63.8015223  63.8850594  77.8121710  64.6073484  62.6587105  78.1832361
   5.0635749  68.3033466  45.5318069   4.5791230  69.0889454  45.7855320
   4.6603981  67.5989866  46.0393095  38.7712598  87.4056339  76.7742348
  37.9496026  86.9177341  76.7188406  38.6253905  88.1824780  76.2343645
  25.8705854  84.5719147  77.7848101  25.6159186  83.9376450  77.1146774
  26.3782620  84.0623093  78.4163189  96.2031359  67.0483780  65.0563955
  96.3915057  67.9109573  64.6866655  96.7067856  66.4405441  64.5150042
  15.3726554  59.1845369  32.3581934  16.0742807  58.7678337  32.8585052
  15.5433357  60.1226664  32.4419594  11.1962414  34.4271326  54.7577763
  11.0075748  35.0271201  55.4793358  11.4630198  34.9966884  54.0362024
  30.0049257  48.2970381  62.0246458  30.2785182  48.3721733  62.9388332
  29.9100518  49.2021132  61.7278767  42.0649862  81.2205696  52.2547722
  41.5099192  81.5032673  52.9815531  42.8834867  80.9489346  52.6701021
  41.9766903  46.9592094  27.2508264  41.1612797  47.4585962  27.2067118
  41.9520569  46.5357018  28.1088853  42.6380348  73.4029102  81.5757847
  42.2677517  73.3375835  80.6955242  43.5413885  73.6864853  81.4351845
  25.5250001  89.4690228  65.9412813  24.7295713  89.7968769  65.5217171
  25.2887511  89.3778801  66.8643808   4.0998453  65.4340363  54.9193811
   3.6225605  64.6237040  55.0976801   3.9350981  65.9827232  55.6862164
   9.0551764  75.8863401  52.2978735   8.3823842  75.2836657  51.9810677
   9.7722536  75.3182316  52.5794458  33.1014442  54.7415352  76.6559410
  32.7252483  54.0791893  76.0762787  33.0449104  55.5564451  76.1569881
  36.8361163  79.4177008  64.5934153  35.9166670  79.6421623  64.7364616
  37.0174909  78.7305975  65.2346802   5.0955552  47.3512220  47.5093031
   5.6355739  46.6778660  47.9230690   4.1963473  47.1008778  47.7214003
  17.5829768 114.4841671  89.5733356  16.9542646 115.1749039  89.7827053
  17.2780812 114.1276360  88.7389755  40.9377050  63.3566761  55.5458498
  40.4042339  64.0607023  55.9146166  40.4587650  62.5560188  55.7598686
  31.1254692  68.8984203  58.0702114  30.3379059  68.7346554  58.5890150
  31.1511254  69.8497534  57.9675484  62.9245520  59.8915529  26.5417433
  63.5330677  60.1905012  25.8660412  62.1895742  60.5025387  26.4894557
  27.3432636  72.9637814  70.2777863  28.2798958  73.0712795  70.4433060
  27.1947384  72.0206165  70.3457165  -0.2835504  65.2828503  31.7191482
   0.4477119  64.8319387  32.1412444  -0.0526139  65.2963400  30.7903218
  33.1619740  29.3376899  93.1972218  32.6064610  30.1148534  93.1367683
  33.9355612  29.5551896  92.6771450  46.1850929  60.1852989  41.1515760
  45.9082174  60.1750851  42.0678043  46.0536480  59.2858696  40.8516026
  36.0953999  86.4351845  83.3011723  36.1461020  87.3610020  83.5389328
  35.1647711  86.2799931  83.1396961  22.6394129  56.8631315  92.5540543
  22.3404694  56.7258501  91.6551495  22.1880937  57.6581383  92.8377819
 105.7883341  59.9008512  59.0333462 105.5779690  60.5143404  58.3293533
 105.3449768  60.2580833  59.8027945  42.7239418 105.1976681  83.9804554
  43.1803083 104.3562889  83.9737129  41.7967224 104.9677086  83.9203835
  19.6152902  38.2298994  55.0104570  19.3264616  39.1111517  54.7733831
  20.5158925  38.1787729  54.6902514  49.0887260  65.7137775  70.6751060
  48.3420992  65.2176237  70.3395319  48.9558649  65.7348061  71.6228104
  25.2861834  55.5999041  46.5626574  25.1505399  54.9293804  45.8931589
  24.4027686  55.8669090  46.8166590  22.0188689  85.8552361  44.5830441
  22.6426053  86.4005184  45.0624800  21.7310762  85.2026749  45.2214527
 117.9985178  50.6394100 108.8564205 118.1711358  51.2392998 109.5820713
 117.3752255  51.1080456 108.3013344  19.3858290  26.1263371  84.4006252
  19.2768443  25.5241179  83.6646366  18.7891912  25.7948399  85.0717163
  69.0861034  69.1377926  87.1300220  68.2366896  69.5790768  87.1306801
  69.3785954  69.1826248  86.2197113   0.6020186  49.9929094  44.1929865
   1.2833798  50.6650400  44.2078209   0.6856805  49.5860386  43.3306122
  35.4208851 100.5494690  66.0108900  35.9644723 100.3188133  66.7642450
  35.2138400  99.7105408  65.5991030  30.0631309 111.6312885  34.5561433
  29.7864246 111.0016727  33.8903713  29.2718458 112.1312046  34.7566056
 119.0953428  27.0305634  75.3012705 118.3288587  27.2738385  75.8204508
 119.2578048  26.1150360  75.5285263  23.2701373  85.1319313  49.6544552
  22.9335380  85.9268093  49.2408085  22.9612327  85.1834011  50.5589771
 123.0406251  58.4811163  24.6494198 123.9711814  58.5599089  24.4394469
 123.0228851  58.0294514  25.4931712  39.3641257  55.9375715  63.8579798
  38.4408641  55.7155895  63.7373877  39.6608257  56.2083292  62.9891348
   4.8904923  74.3696642  78.4109735   5.3998709  73.6160040  78.7089014
   4.8261014  74.9347067  79.1809130  32.9732633  98.9209843  70.4515219
  33.7788415  98.9214802  69.9345350  32.5372410  99.7400093  70.2163410
  46.9124985  53.3624125  46.7682791  47.2331715  53.4065056  45.8674717
  46.3528872  52.5860310  46.7855692  30.3122044  95.9711456  30.6765437
  29.9051166  96.8329525  30.7648993  29.6488309  95.4364967  30.2402949
  22.8668094  70.7414007  56.8721581  22.5929451  70.5344200  55.9786320
  22.9797959  69.8884821  57.2916794   1.6473036  85.1911831  75.7345486
   1.2171967  85.5866718  74.9763727   1.2404653  84.3287563  75.8178616
 119.5642389  54.6365976  57.1107721 119.1140003  55.3959322  57.4808121
 119.1286660  54.4851732  56.2719774  21.9625568  90.9358215  78.0968952
  22.6304865  90.8987713  77.4122572  21.1615062  91.1863613  77.6366997
  54.4034243  92.5307369  84.4308186  53.7419128  92.2794819  85.0754166
  54.5882988  93.4500027  84.6231937  37.1870136  84.2517281  69.2877769
  37.0222902  84.0440655  68.3680105  37.7922368  83.5711479  69.5823050
  31.9836116  71.9315720   4.2002527  32.6585054  72.6046801   4.1126291
  31.7438579  71.7140913   3.2994500  33.0230236  49.8633003  53.6719036
  33.3407688  50.2165556  52.8409529  32.6580453  49.0080881  53.4446716
  67.7897263  60.6281805  85.0941563  67.5437593  61.0702229  84.2815495
  67.5109720  61.2273741  85.7866096  39.8504925  89.1409206  60.8837175
  40.1376915  89.1562843  59.9707508  40.5806923  89.5225334  61.3709593
   7.6823169  55.2843857  59.4157934   6.9630075  55.0702810  60.0099230
   8.4736472  55.0866795  59.9167347  35.0453568  68.1530857  80.2737427
  35.3223944  68.6814785  81.0222626  35.5333066  68.5127735  79.5329571
  13.9229679  53.2003021  62.9285765  13.9235222  53.4592581  63.8500834
  13.3658874  52.4224854  62.8986979  27.0843124  46.7432356 101.1566448
  27.3598695  46.3940668 100.3090668  26.2113142  47.1013355 100.9957886
   9.4627893  25.3155684  88.3256245   8.5368341  25.5097795  88.4709549
   9.5119321  24.3597174  88.3385563  40.4289675  78.8096428  66.9481087
  40.7056522  79.3285227  67.7033854  41.0962915  78.1280613  66.8683481
 116.2393732  86.7880630  48.6956882 116.4940638  86.8254280  47.7737522
 115.7644821  85.9612274  48.7796593  35.2622819  53.7336493  81.2511826
  35.4823709  54.1598940  80.4228592  34.8866534  54.4318867  81.7874622
  18.5876620  53.4251499  81.1115170  19.5055199  53.6941290  81.1491680
  18.2445240  53.8534832  80.3272915  23.0853939  40.6254196  58.1169081
  23.3869672  41.5092087  57.9066706  23.6244988  40.3592300  58.8617182
  22.8665280  43.4573555  44.3929386  22.2690797  42.9683304  43.8271284
  23.6782312  42.9502249  44.3793535  26.7045259  43.6593485  93.8389778
  25.9314418  44.0157366  94.2766476  26.3864422  43.3806133  92.9802799
  37.7494693  52.5057602  78.4245157  37.4888706  51.8730164  79.0938091
  37.0391846  53.1473017  78.4119225  27.5065374  52.3734093  60.6930971
  27.4413300  51.6271782  60.0971794  26.7329597  52.9028606  60.4994631
 117.8418559  44.1977262  93.7593746 118.5329778  43.6485863  94.1295433
 118.1974108  45.0857782  93.7936115  31.4417815  76.6998148  46.5228653
  30.5772996  76.5567398  46.1375952  31.4811158  77.6433277  46.6792870
  38.8695288  36.9102550  80.9573555  39.0289044  37.7287364  80.4873371
  39.3069172  36.2420011  80.4297543 121.3862050  88.0619144 108.5554600
 121.9590945  88.7887192 108.3109379 120.8356459  88.4154892 109.2541027
  21.6897702  86.9727707  39.1178799  21.0378861  87.4406528  39.6397686
  21.2064362  86.2444305  38.7278414  24.0660691  37.1831203  88.1277657
  24.6995950  36.5844846  88.5233784  24.3116689  37.2149611  87.2031498
   6.9820100  49.8376226  41.9090891   6.8353415  50.0795031  42.8235340
   7.4049056  48.9800310  41.9530487  48.1951666  75.2719831  52.6168346
  47.9732513  75.8620358  53.3371305  48.6175632  75.8346128  51.9677877
   9.2876625  73.9090490  24.4959760   8.8075036  73.0901718  24.6189356
   8.7679964  74.3979120  23.8578606  24.0810966  51.2759352  64.5995378
  23.5862637  51.4281130  63.7944174  24.6729946  52.0255756  64.6621990
  49.9927378  68.9425373  36.0981941  49.8207378  69.5313549  35.3633857
  49.3419981  68.2467794  36.0049891   7.4152380 100.7160187  39.6835852
   7.9916418 101.3827515  40.0570154   7.4204928 100.8943462  38.7431574
   9.8521000  88.2791424  77.1778202   9.4127715  87.8388500  76.4502478
   9.2076892  88.9088726  77.5009537  18.6966050  73.7921238  54.8629427
  18.8848233  73.8053894  55.8013630  19.1051674  74.5892382  54.5254230
 124.4637261  32.1940160  51.2931442 123.7299944  31.5940237  51.1594296
 124.2145529  32.7099514  52.0599222  33.4209418  62.7596188  67.2821188
  32.5404930  62.4777937  67.0338869  33.4199619  63.7054920  67.1352863
  43.0203962  60.7094002  88.2287121  42.9288101  61.3977528  88.8875198
  43.6146307  60.0737286  88.6275101  45.9547329  77.2516823  48.9721537
  45.0242996  77.3106146  48.7552404  46.3827085  77.0529652  48.1393385
  35.7663178  52.1276331  30.6039286  36.0416269  52.3540545  31.4922810
  34.9091101  51.7167616  30.7162333  28.9887214  67.8260517 107.6924229
  29.6034837  67.1272945 107.9161263  28.2665682  67.7168798 108.3111382
  34.5654225  60.3726101  42.8710508  34.5570421  60.7102633  43.7666798
  34.3807602  59.4381666  42.9656315  48.8526297  48.8814020  28.8936877
  47.9166079  48.9414597  29.0847135  49.2789698  49.2541456  29.6653938
  32.1215320  55.8871698  54.5625830  31.1778140  56.0430717  54.5261812
  32.2048068  55.0055981  54.9260807  20.5459404  57.8132248  65.1361179
  20.8484912  56.9878340  64.7574043  19.7451496  58.0187893  64.6537161
  19.6574247  60.4934740  78.7074995  19.2379808  60.1833582  79.5100737
  19.3038774  59.9298954  78.0192995  10.5704594  37.9603410  48.5903978
  11.1846471  37.2604799  48.8122082  10.8760524  38.7154245  49.0930796
 114.1809232  22.5020766  67.6281738 113.9964981  21.8412495  68.2956505
 113.3566052  22.5970650  67.1509838  32.1545672  76.5226698  27.7591896
  32.3450136  75.8232307  27.1340895  32.4365139  76.1721182  28.6040878
  50.8756018  63.8656998  81.6708279  51.3902760  63.4464931  80.9811878
  51.4990568  64.4340515  82.1230602  18.5940874 105.1732540  57.8428555
  19.4700980 105.5565548  57.8866243  18.5244894 104.8361778  56.9496727
  10.0003994  55.1751566  80.3440571  10.8830988  55.2508497  79.9816465
   9.8148072  54.2362499  80.3285313  47.9834747  67.2651815  35.6163645
  47.4891233  67.3159075  34.7982693  48.1507826  66.3305426  35.7375526
 117.1507365  28.5641503  94.3569374 117.3281021  27.7083540  94.7473049
 116.4588625  28.3967447  93.7170029  20.0193667  52.9537868  49.9493027
  19.1723311  53.3889437  50.0462723  19.8724651  52.0674229  50.2794695
 113.7801666  37.0312405  63.1755495 114.7293401  37.0952201  63.2814169
 113.4229083  37.4809170  63.9413071 105.5132563  74.7742462  74.3341303
 105.2720673  74.2563391  73.5661221 105.3461308  75.6801891  74.0742016
  42.9093933  45.9997654  91.1526585  43.8589001  46.1106110  91.2014675
  42.7595711  45.5900240  90.3006649  17.0957768  47.4459553  98.2227993
  17.7246881  47.9453754  98.7436390  17.4011397  46.5406990  98.2819366
  13.4232891  92.5377655  53.3967018  12.8572226  92.0909977  52.7672529
  12.8613698  92.6933670  54.1558266   7.9377973  65.6087399  59.5307827
   8.8855517  65.6262970  59.3977976   7.7756083  64.7847223  59.9900484
 120.0257055  28.7391520  78.9304924 119.8446978  29.2235708  78.1250095
 119.6152211  27.8852987  78.7938547  40.2733278  77.9434013  58.7041712
  40.2930880  77.5785303  59.5888805  40.1937437  77.1801519  58.1320333
  24.5390415  62.3668003  66.4775896  24.2648554  61.5671062  66.9265270
  24.8954964  62.9210234  67.1718550  16.5294087  59.7716904  58.7851906
  17.4563229  59.6031570  58.9544821  16.5280032  60.3920650  58.0562449
  14.1907799  37.9544425  74.6088266  14.4482636  38.8109612  74.9498701
  13.8976789  37.4680686  75.3793859   7.8417009  71.6092777  74.1120815
   8.6190003  72.0346212  74.4741869   7.2634423  71.4861536  74.8648691
   4.9455404  71.5808678  44.3227863   5.7924592  71.1432505  44.4090986
   4.8933956  72.1546078  45.0872040  59.7150373  70.5849648  80.7319164
  60.1250982  71.1422825  81.3933372  58.8240814  70.4473448  81.0536194
  11.4384341  61.8916368  77.2882175  12.3273146  61.5564108  77.1709681
  11.3872337  62.6453590  76.7004204 123.4083041  60.0072479  80.7581615
 123.2813085  60.9453917  80.8995152 124.3434662  59.8670816  80.9066772
  19.4876969  87.7023029  54.8779535  19.1288400  87.5628471  54.0015936
  19.4176805  88.6466217  55.0179529  32.4538517  52.8289604  55.2985859
  32.9011106  52.7491903  54.4560719  31.5526867  52.5617933  55.1176023
  17.9429269 109.5139408  67.4578333  18.6016071 109.5627403  66.7650175
  17.1258843 109.3202496  66.9983149  41.4519501  37.5221348  77.7718592
  41.0032797  36.7110825  77.5328541  40.7468796  38.1263566  78.0042839
  37.8535891  87.9741764  86.4569855  36.8995142  87.9105854  86.4130592
  38.1666565  87.2951984  85.8593082  38.9173865  61.2286901  48.2519197
  38.9611816  61.7160749  47.4292564  39.8227620  61.1989546  48.5611820
  40.7650900  89.5874500  83.7986279  39.8849487  89.8226070  84.0923595
  40.6210470  88.9872932  83.0669880  58.3575392  49.2190266  47.2996521
  58.4797335  48.2771730  47.1804333  59.0731192  49.4820166  47.8784513
  17.5853121  72.9734993  60.9039354  16.6633403  73.1510258  61.0901785
  17.7221167  72.0755911  61.2060547  32.0803356  81.3566303  36.9632149
  32.2197533  80.7220173  36.2603235  31.1986065  81.1682320  37.2845960
  14.8870420  51.1499548  84.3138218  15.7515776  51.2767839  83.9230156
  14.6493971  50.2518415  84.0832710 124.7517330  57.1547413  79.8868942
 123.8509159  57.3540306  79.6318531 125.2867137  57.7486706  79.3603230
  34.2059922  56.6116285  56.3906384  33.7642455  56.4334106  55.5603790
  33.9213586  55.9047794  56.9699335  23.8067555  43.8531065  83.3036995
  22.9178309  43.5353804  83.1452847  23.6920094  44.6077394  83.8812733
  41.1521912  71.6303968  38.5059619  40.4469061  71.3370275  39.0827966
  41.2706184  70.9099865  37.8869224   8.7019074  37.0313168 100.7117271
   9.2869216  36.6429257 100.0612259   8.6613345  36.3829994 101.4147663
  33.5456538  66.8654776  91.7826271  34.3285322  66.8553972  92.3332977
  33.3620691  65.9419727  91.6103935 108.3255774  71.6101551  47.0228767
 107.8550357  71.4526224  46.2043381 108.1480593  72.5280333  47.2283554
   1.7892420  39.2213607  50.0034666   1.0042766  39.7561646  49.8849535
   2.4067602  39.5547962  49.3525267 121.6669688  60.1742172  76.4402390
 121.8121309  61.0640192  76.1186647 121.6315029  60.2664328  77.3923254
  15.8105826  72.3471403  26.7385817  15.1719987  72.7279520  27.3414302
  16.6381347  72.3723841  27.2189474  11.9042909  49.1849232  69.5587063
  11.3589275  49.0456867  70.3329325  12.0893896  50.1240540  69.5618677
   3.3193770  85.8202457  45.8191347   3.3655521  85.5632305  46.7400265
   3.4652883  86.7662334  45.8268881   4.8559639  81.1402321  49.3174458
   4.9490368  81.8948364  48.7359476   5.5404878  80.5339432  49.0344858
 106.4967198  24.0512085  72.4019623 105.7919712  23.7041855  72.9488993
 106.9663674  24.6587420  72.9734230  31.7206693  90.2729511  90.3790855
  31.2608075  90.9196281  90.9144020  32.6440430  90.5142307  90.4525566
   4.2805144  62.0087814  16.1734807   3.7656808  61.7929935  16.9510508
   3.7561634  62.6641941  15.7133496  14.9899709  84.4954586  37.0133615
  14.7399235  85.3792763  37.2827578  15.8938992  84.4003105  37.3135161
   8.0277252  82.2632313  84.6086216   8.9668345  82.1209335  84.7271729
   7.9316425  82.4647903  83.6778259  46.9270515  48.8707876  48.3492088
  46.7287302  47.9612160  48.1265450  46.3807774  49.0548801  49.1133595
  15.9678245  68.1306553  91.9597530  16.1646831  67.8321886  91.0718346
  15.2474141  67.5695658  92.2468376  18.3304846  76.7959261  51.7064333
  18.4511864  76.0646534  51.1007118  17.3875761  76.9605160  51.6983271
  21.8580437  40.0895214  44.4220114  21.2305880  39.3768525  44.5429850
  21.4396548  40.6719589  43.7880182  14.5725393  70.9024429  70.3458309
  15.3339279  70.9824800  70.9203863  14.3233919  71.8059015  70.1511145
  43.2924557  82.5439644  42.8709507  43.0637932  83.4623241  43.0143213
  42.7875566  82.0659065  43.5288048  53.0034494  90.6764984  76.6416025
  52.7866745  91.2157345  77.4021721  53.2861710  89.8408985  77.0131826
  40.0218916  65.7295990  37.2283292  40.5143309  64.9087954  37.2239089
  39.8416471  65.9057474  36.3049030  12.1571290  45.9624290  64.6244001
  12.5968409  45.6783628  65.4257679  11.3272059  46.3327360  64.9249601
 120.9271041  77.8165150  58.6539412 121.6571925  77.2200155  58.8194561
 120.4396099  77.8327131  59.4775438  57.6391172  64.0881348  96.2874889
  56.9182158  64.2893362  95.6907845  57.2119236  63.8883257  97.1204376
  57.6809454  65.1077223  78.3021736  57.3277044  65.7096767  78.9572334
  57.7713585  65.6400299  77.5117922  25.5424333  64.0695095  71.0895300
  25.8104515  64.4833183  70.2690697  25.2347016  64.7941923  71.6339302
  42.6406670  61.6168976  41.6856527  42.0202303  61.3576174  41.0044336
  42.3188925  62.4645090  41.9926500   5.2588689  71.5681934  76.7135715
   4.4466132  71.8906784  76.3230896   5.0276446  71.3749838  77.6221085
  41.1608648  45.4109955  79.0519190  40.8418655  44.8930264  78.3128834
  41.4206791  46.2467241  78.6642456  24.7138691  40.6335402  66.7083597
  24.5956707  39.8854208  67.2936583  24.0278816  40.5321503  66.0485315
  20.7240105  48.9627028  79.5078087  21.0903406  49.1794586  78.6504555
  21.3945556  49.2403507  80.1319218  56.8273544  70.0730038  96.5782642
  57.3799086  70.8385801  96.7357826  55.9346485  70.3892899  96.7170906
 101.8395013  62.8266191  75.9156466 101.7994852  62.6042795  76.8458080
 101.9705433  61.9874525  75.4742241   1.4155932  72.6766920  35.8592868
   1.9217283  71.9756794  35.4486299   1.3040358  72.3918629  36.7662930
  50.2592659  57.7442122  32.0435429  50.4352045  57.5239563  32.9582930
  51.0180187  57.4085903  31.5661716  16.2684929  57.4508142  46.4297867
  16.5478146  58.3569241  46.5608454  15.8958185  57.4401951  45.5481768
  11.6788411  28.1193566 108.6321735  11.3159895  27.6887536 109.4062138
  10.9769821  28.6940837 108.3266926  65.4607058  41.7900467  48.7474298
  65.8565283  41.5100956  49.5727682  66.1424875  42.3066998  48.3179235
 111.1281807  61.2384462  79.2096281 111.3857777  60.5547237  79.8280096
 110.5215353  60.8033562  78.6105347  16.0889566  61.9382572  38.1698751
  16.4682031  61.2608910  38.7298536  15.9391117  62.6787329  38.7576485
  17.0977795  25.3260612   9.0951005  17.9861712  24.9781442   9.0179864
  16.9420719  25.7719541   8.2625333  47.6347399  68.0495739  60.6874990
  47.6780510  68.7055540  61.3832331  46.8835068  67.5036287  60.9194899
  40.1763105  64.8653984  97.3234367  40.6381464  64.1973782  97.8300762
  39.4216919  64.4067574  96.9540691  36.0040545  99.9381161  52.6065207
  35.4970670 100.4902172  52.0112276  35.3835940  99.2718887  52.9021740
  26.6866446  24.1384768  59.7807884  26.0060573  23.9359117  59.1389179
  26.2497163  24.0531659  60.6281662  17.0560205  65.5059671  71.4803123
  16.3976407  65.6626225  70.8033895  17.8315568  65.2188921  70.9982681
   7.5755119  90.5571270  88.8925171   7.2181004  90.5000687  88.0063820
   8.4155321  90.1010323  88.8417912  24.0252614  25.8874607  90.5864906
  24.1706371  26.8061113  90.3602600  23.0796218  25.8200836  90.7186222
  35.7061625  69.1459036  43.4318876  35.4816937  69.3802261  44.3324089
  35.2338839  68.3287859  43.2721996  63.0000162  90.9692764  72.7910805
  63.2141066  91.0675335  71.8633223  62.1891546  90.4606533  72.7972126
  31.6720319  75.7662487  61.9686079  32.2853470  75.0491762  61.8077183
  30.8070779  75.3644037  61.8873310   5.6086719  83.7155533  58.3267784
   4.9094966  84.0651131  58.8792181   5.2800876  82.8656197  58.0337334
  50.5999279  76.4082956  77.4566746  50.1033354  75.5919170  77.4004936
  50.1519108  77.0030355  76.8551826  21.2523079  50.1992655  43.2794619
  20.9335256  49.5877600  43.9432955  22.2019172  50.2092934  43.3993578
  42.1312857  65.0746107  12.8459072  43.0882025  65.0927162  12.8605306
  41.8878269  64.6256924  13.6554933   4.9405950  72.0639086  87.9574203
   5.4386973  71.3281012  87.6014519   4.2479771  72.2174978  87.3148346
  22.0965028  82.9011059 100.5454636  22.8897023  83.4284210 100.6403732
  22.2336197  82.1550083 101.1292171 113.7753100  66.7347956  65.7772827
 112.8183276  66.7143726  65.7771397 114.0073938  67.0913792  64.9198341
  24.8995280  71.8331289  67.6979589  24.7080088  72.6919317  68.0747986
  24.2614913  71.2459755  68.1034136 107.0561153  88.0263424  36.4471221
 107.5031311  88.8673878  36.5422606 106.9813592  87.6923656  37.3410487
  39.0424061  80.6165695  74.6685791  38.1875277  80.2360535  74.8701286
  39.4006181  80.8655739  75.5205822   0.5651399 114.5025444  41.9706917
   0.2423378 115.1235294  42.6236820   1.4564341 114.7957611  41.7813540
  15.1351023  34.2105603  85.6377125  14.8030031  35.1082540  85.6282520
  15.8562183  34.2285800  86.2669182  16.7645144  52.4987555  52.4068546
  16.1484873  53.2303572  52.4456835  16.2945306  51.8149757  51.9295788
  30.2908087 105.2841663  70.7541943  30.4412365 105.9624958  71.4125776
  31.0927796 104.7616482  70.7610893  20.0753593  58.8966942  44.1457844
  19.2388976  58.6998367  44.5674610  20.6724477  58.2235432  44.4722652
  27.4536490  61.6313410  40.9189320  27.6771021  62.2150183  40.1939392
  28.0368710  60.8801746  40.8101654  45.7585430 108.9721012  73.6449242
  46.5823984 109.1972733  73.2127285  45.2197742 109.7585011  73.5580826
  36.9733381  66.9459629  74.4074059  37.3303294  66.4518738  73.6693907
  36.0348392  67.0008993  74.2273045  16.7452765  71.7880821 103.7304020
  17.4646068  71.5415716 104.3118000  17.1595812  72.3144960 103.0466843
  44.9287701 116.0787964  49.6803522  45.7192469 115.7460022  50.1053429
  44.5010948 115.2992439  49.3259192   7.1855485  88.9950848  97.4088669
   7.2385275  89.3441486  98.2985783   7.6432371  88.1555748  97.4532986
   5.2480030  73.8248110  41.9805145   6.1866039  73.9792967  41.8737793
   5.1942450  73.0876541  42.5887489 112.4834854  73.5147285  38.4337544
 112.7494533  73.2851315  39.3241358 111.5328378  73.4029484  38.4314132
  18.6473751  41.1055326  51.3395166  18.6945570  40.6555939  50.4959774
  17.7332366  41.3794422  51.4140701  41.4374590  77.3030567  53.2582331
  40.9829426  76.4752674  53.4144592  41.7426300  77.5757647  54.1235256
  27.9727173  87.2577572  45.2372360  28.2699704  86.6019726  45.8679724
  27.1207118  86.9368839  44.9416733  43.8173532  76.5935659  27.5883794
  44.3154383  75.7894230  27.7350116  43.2792902  76.6886997  28.3743000
  63.2895899  48.9753342  40.8024454  64.1626453  49.3255568  40.6253815
  63.3479881  48.6243963  41.6910744  40.5800104 101.4664745  29.0006161
  41.1214352 102.2511196  28.9144635  40.2320290 101.5121841  29.8911500
   6.3927919  79.3369627  45.8672953   7.0890665  79.9761295  46.0186243
   5.7508177  79.8041821  45.3326845  13.3273709  60.0423193  56.8163967
  12.4216640  59.7901392  56.9962072  13.8003612  59.8255587  57.6198435
 121.3332150  79.7335815  54.7738314 122.2230068  79.4263554  54.9473667
 121.1563028  79.4591761  53.8740301  22.8021097 110.0865364  54.6204472
  22.0131803 109.5444870  54.6179438  23.2506847 109.8603630  53.8056707
  21.6175199  88.5996532  62.6265717  21.2132072  87.7843952  62.9234266
  20.8787012  89.1686916  62.4107599  28.8700676  43.0938148  56.0310507
  29.4322038  43.2138872  55.2656651  27.9892588  43.2956553  55.7153416
  12.2795486  80.9958076  58.7333870  11.3938677  80.7570553  58.4598923
  12.3534286  81.9260597  58.5203314  66.6394281  84.8501587  55.1579571
  66.8723774  84.9755287  56.0778761  67.2712374  85.3838158  54.6760225
  40.1177073  87.4590874  82.2109318  40.1280260  86.5609741  81.8799877
  39.5878458  87.9419804  81.5766716  95.5240030  63.0955267  75.2210951
  94.6268529  63.2886839  74.9489832  95.6160254  63.5303402  76.0688591
 122.7205332  75.7633305  58.7960339 123.2153111  75.2316999  58.1724977
 122.9831574  75.4318333  59.6547365  40.3588676  54.2061090  41.9852877
  40.2546692  53.8730431  42.8766012  40.7323647  55.0801516  42.0983458
  35.9135842  53.8426590  39.0731120  35.9247255  54.7012186  38.6500549
  36.3914013  53.9730406  39.8922110  56.2823057  69.2173052  55.5414772
  56.6814613  70.0646734  55.7386208  55.8667374  68.9516449  56.3618183
  10.5636895  66.1521244  79.1056442   9.7076583  65.7576227  78.9388704
  10.5016708  67.0284796  78.7256575  45.2187395  39.0439081  18.3919322
  44.6283293  39.7971916  18.3774507  45.5776691  39.0379405  19.2792702
   6.2405783  51.6571903  51.3018799   5.4969329  51.2606287  51.7557144
   6.3593709  52.5042534  51.7315340  37.6195240  58.4849596  92.7416706
  37.6483393  59.4073915  92.4876595  38.5367584  58.2429934  92.8695869
  31.2919402  33.1414008  16.3743353  32.2273827  33.1100273  16.1738420
  31.1278391  32.3435211  16.8770194  84.8867416  54.4705296  11.1221194
  84.6234989  55.3509760  11.3899803  84.0624332  53.9949226  11.0194123
  41.7475176  48.1299162  77.9513931  41.6919613  48.9727831  78.4016323
  42.1119642  48.3410835  77.0918465   9.9193817  77.2077370  29.9369955
  10.3092718  77.4863052  30.7656193  10.3172672  77.7798319  29.2807746
  23.9732194  32.9526687  34.7599339  24.8571849  32.8990197  34.3966722
  23.9202356  33.8329577  35.1321125  31.5023565  90.4105854  56.1379385
  31.1186147  89.6953678  55.6305504  31.7259407  90.0138760  56.9798803
  48.9604616 104.8709583  38.3409786  49.2655993 104.3089771  39.0532303
  49.1541529 105.7601547  38.6377025  39.5828199 104.7617817  54.7429991
  40.0569105 105.5903721  54.6728802  38.7101841 104.9554062  54.4005823
  37.5495791  44.4070292  59.2528486  37.6640749  44.0766191  60.1438904
  37.0268416  43.7359905  58.8138914  45.2106619  83.3996582  39.3587065
  45.2613306  83.1137276  40.2707958  45.1918173  84.3554020  39.4080162
  18.6820877  91.4770699  51.5242910  18.2752085  90.8037090  52.0695019
  17.9610026  91.8326664  51.0048437  50.1958847  65.2032757  42.0902014
  50.1059103  64.9823332  41.1632061  51.1367798  65.3250170  42.2171783
  15.1249695  69.2120409  23.0524397  16.0760319  69.1310310  23.1241965
  14.9397862  70.1104021  23.3260846  23.8895535  77.4441624  51.7500114
  23.6324215  76.7904997  52.4002743  23.4736919  78.2536411  52.0467138
  27.0562983  40.1571703  55.2482939  27.7058411  40.5569077  55.8266830
  26.9280219  40.8005857  54.5513010  19.8873997  64.7133923  64.3511820
  20.6008101  64.2691183  64.8093319  20.1217723  64.6509075  63.4252262
  35.0163198  62.0943832  69.6803856  34.4102287  62.4018955  70.3544188
  34.7012806  62.4992466  68.8722610  15.7949269  77.0664358  74.4003487
  16.1873257  77.1340609  73.5299015  15.1694942  77.7900696  74.4380045
   0.9362651  83.1824017  68.1880426   1.7639782  82.8688812  68.5524988
   0.7280822  83.9622116  68.7026167  17.6960135  79.1207409  34.9098969
  17.3071527  78.9557219  34.0509510  18.6376655  79.0216255  34.7695470
   1.4497569  98.5486698  84.7910976   0.6486454  99.0705109  84.8372364
   2.1235716  99.1684532  84.5116806  30.0084376  26.9872952  51.9580364
  30.1501942  26.4943194  52.7661896  30.7938957  26.8228507  51.4362621
  58.9981174  59.5578623  38.5528803  58.3681488  58.9021301  38.2539034
  59.4761372  59.1255713  39.2605901  25.7940626 106.2977791  69.3685722
  25.3992057 107.1656132  69.2838860  26.2439656 106.1570072  68.5355043
   6.1767036  53.4933949  81.5179634   5.4227060  53.5200691  82.1070385
   6.6015202  52.6574898  81.7103767  17.9502225  49.9787331   0.9880128
  18.3498406  50.7309866   1.4246531  17.7461445  50.2935314   0.1073950
  19.6629238  74.7805405  74.0289259  19.1402721  74.1337442  73.5548735
  19.0400684  75.2068424  74.6176147 122.5928680  69.1772699  47.7663040
 122.0559812  68.7836313  47.0785284 122.3871831  68.6691713  48.5510063
  60.9937000  44.3756199  17.8936279  60.4906511  45.1865244  17.9685056
  61.5752745  44.5225573  17.1476984  19.1798770  57.7570581  85.8544159
  18.5412705  57.3543692  86.4428520  18.7572169  58.5629797  85.5576324
  35.7026982  90.3097153  41.2142515  34.8311210  89.9141502  41.2246895
  35.5376911  91.2519550  41.1796713  18.0837429  26.3758254  33.4918451
  18.1139517  25.7610250  34.2248797  17.7648544  25.8545804  32.7550626
  62.9521990  51.7870712  10.1170063  62.9328823  52.6023579   9.6158415
  63.7017155  51.3070965   9.7647530  35.4496145  54.2106152  22.9485703
  35.7285047  53.4845352  22.3906660  36.1900163  54.8172188  22.9401565
  39.7328901  82.4371529  20.0021458  39.6971822  81.6550064  20.5527878
  40.6602192  82.5361156  19.7865093  31.2043929  48.9610624  64.7036648
  30.7502460  48.1184816  64.7099638  31.4535356  49.1056967  65.6164837
  10.8828628  75.8581305  65.1860476  10.0453174  76.1468363  64.8235655
  11.5217113  76.0584354  64.5019579  11.6215384  90.7801247  36.5788460
  11.3079011  91.4326763  37.2049809  10.9661210  90.0832367  36.6106701
  23.6096525  55.2254391  66.6195822  23.7204170  55.6264639  67.4816370
  24.3666387  54.6472311  66.5253544  11.4524627  90.6927967  82.5361061
  10.5136275  90.5185318  82.4693966  11.8055058  90.4320717  81.6854572
  30.6937051  27.8862739  47.5229883  30.7074094  28.8205838  47.3153687
  30.6893420  27.4514675  46.6702509  31.0595179  91.5757656  14.5555639
  30.2256179  91.1425591  14.7377074  31.0394979  92.3687649  15.0912797
  21.5191126  90.7532692  29.2559195  21.7986608  91.6623783  29.1482615
  21.9146705  90.4773712  30.0827479   9.6522254  52.5051594  64.2952681
   9.5586598  53.4447956  64.4519711   9.4820023  52.1022320  65.1466846
  44.5946741  68.2826424  42.5273466  44.3748808  67.6354456  41.8572235
  43.9320469  68.9660454  42.4267817  45.2173948  28.6475015  59.1561842
  44.6530390  28.4526658  58.4080076  44.6734524  28.4611368  59.9214458
  31.3007998  92.8736877  64.7641611  32.2544265  92.8723907  64.6815586
  31.0918689  92.0189381  65.1409626  33.6561942  66.1548853  32.4783945
  33.8827825  66.7509985  33.1922126  33.0381227  66.6495466  31.9403172
  17.3816919  31.1239815  92.1870327  16.9015253  30.9087086  91.3874531
  16.8650353  30.7301879  92.8900433  10.8985293  54.3520117  50.9839773
  11.4316785  53.6009836  50.7233238  11.3626826  54.7270155  51.7324209
  34.8064208  53.8238764  53.3704853  34.9948668  54.1982841  54.2310286
  34.4376969  54.5507574  52.8685665   5.6253254  86.9187546  36.5986347
   4.7273755  86.7962837  36.9067240   5.7782602  86.1817741  36.0072803
  40.4739094  53.2027483  31.1998153  40.4058218  53.2056665  30.2450442
  41.2796831  53.6855030  31.3839483  46.9397497  43.9484644  76.2038898
  46.1225796  44.1220093  75.7366085  47.5366831  43.6234379  75.5299044
  20.9373069  73.0708551  65.8147955  21.0966802  72.3749638  65.1771688
  20.2768826  72.7081394  66.4051437  39.5325232  56.7059135  32.3276997
  39.4426918  55.9983063  32.9660225  39.2796755  57.4947166  32.8073764
  19.7834504  73.8604546  57.4628258  19.5761561  74.3726158  58.2444620
  20.7335615  73.7486506  57.4947548  28.1492591  60.3140545  29.9149990
  28.6730170  61.0542154  30.2217078  27.3964858  60.2921629  30.5058336
 107.4023539  83.7551403  55.3911543 107.8136665  83.0365467  54.9108601
 107.6925332  84.5450974  54.9350929  63.2606554  80.7813263  63.5586739
  62.6895761  80.0791073  63.2472467  62.7495098  81.2226391  64.2370558
  25.4246306  75.8687782  42.3746109  24.9007416  76.4996195  41.8808413
  24.8302507  75.5394077  43.0487490   7.1432167  84.4329453  38.3175230
   7.0114017  84.9640465  37.5321651   8.0530035  84.1411495  38.2594156
  38.4175134  76.0311031  69.8029900  39.2019892  75.6766462  69.3844318
  37.7149296  75.4384708  69.5357895  46.0829687  48.2566023  42.4021435
  46.4427423  48.7371683  43.1476974  45.6435156  48.9247036  41.8760633
  35.9923148  57.8795767  25.2120066  36.0825205  58.4379196  25.9842420
  36.8759894  57.8304863  24.8473978 100.8521366  78.2579517  33.9062905
 100.7442284  77.3074341  33.9394546 100.0506592  78.5756254  33.4904122
  24.8895621  38.6866379  21.5784669  24.8355389  39.5616412  21.1941719
  24.2913723  38.7156415  22.3251677   5.0185287  44.5917749  54.9802399
   4.8402965  44.1597509  54.1448832   4.8927358  43.9060736  55.6361532
   5.0230074  44.5543909  19.4567370   4.5209995  43.7474537  19.3424177
   4.3599704  45.2415276  19.5235229  56.3020039  32.4880695  50.9910202
  56.4116335  31.5697432  50.7442617  56.9655275  32.6358581  51.6649103
  37.2655797 111.3675499  41.6038084  36.3933325 111.6875744  41.8340302
  37.1745276 110.4148293  41.5873384  15.2474487  73.7095833  34.5986128
  14.7863698  73.5277748  35.4175043  15.9080267  73.0195713  34.5373917
  63.6297417  45.9350061  52.5752354  64.2095375  46.0673714  51.8252039
  63.4067631  46.8197298  52.8646708  36.0044789  93.3390808  29.1819525
  35.3997636  94.0810013  29.1919494  35.6837511  92.7781677  28.4757328
  11.7165756  39.6073556  16.7241168  11.4161074  39.0502286  17.4421418
  11.5445220  40.4995632  17.0251024  47.5489521  44.9355984  42.6121378
  48.4125710  44.5731926  42.8097582  47.6807022  45.4467583  41.8136501
   6.6752511  93.2103634  59.2173815   6.3380635  93.8013935  59.8905993
   6.2719339  93.5173035  58.4053707  24.0813828  80.5170727  36.7020869
  23.4454513  79.9744415  36.2358570  24.2450428  81.2537384  36.1132050
  34.9862123  39.1111422  44.6015739  34.2291880  39.2504072  45.1705647
  35.7426190  39.2284369  45.1763105  18.8475811  52.6748991  20.4137945
  18.1070852  52.1417809  20.7030773  18.5773003  53.0182266  19.5621455
  31.4497089  52.6761293  91.8450356  31.9814324  51.8961382  91.6865540
  32.0324969  53.2716131  92.3161888  19.6855927  60.4781008  74.8417187
  20.1743722  59.9654865  74.1978645  20.3311253  60.6966448  75.5138493
 122.6387963  49.8183918  61.0300827 123.4455394  49.8848200  61.5409517
 122.8948901  50.0734234  60.1437378  41.4657021  71.1740160  46.9394732
  42.3115206  71.3653660  46.5342474  40.8206606  71.4362192  46.2826633
 120.7800526  95.6717110  78.4846354 121.2754679  96.2308407  79.0831041
 121.2432486  95.7444668  77.6501369  24.0402555  57.3805428  34.6909475
  24.1137648  56.7629147  33.9633751  23.3596539  57.0093441  35.2523947
   8.2929391  86.0655308  31.0076618   8.3059120  86.9990730  30.7965302
   9.1646653  85.8876991  31.3607931  11.5749967  81.5822601  64.1837406
  10.9039652  81.8394947  64.8160172  11.6922832  82.3550415  63.6312199
  51.8938828  45.9862614  46.1349249  52.3771667  46.8073606  46.0429335
  52.5227118  45.3090048  45.8856678  49.9308205  52.3551512  42.3648500
  49.9636316  53.1065893  42.9568815  50.8484173  52.1252966  42.2184992
  38.0180526  54.1579294  75.3460789  37.7631140  54.9997473  74.9684763
  38.3414721  54.3756580  76.2202787  14.6177483  80.2065754  44.5737171
  14.1610849  81.0110855  44.8195791  14.7723901  79.7557068  45.4038000
  22.1745443  86.7202663  67.2073507  22.0101070  87.6184082  67.4946404
  21.3120246  86.3052368  67.2131634  29.3716764  74.8584366  31.2704420
  29.2664504  74.4106293  30.4310203  28.5086203  75.2296066  31.4537406
  32.3600817  81.6050148  76.6759539  32.7500319  82.3200893  76.1731243
  32.3541522  80.8627033  76.0716581  66.1233377  59.1656876  25.2394605
  66.5031481  60.0045300  25.5008316  65.3730869  59.4020319  24.6940279
  38.9588141  30.2434540  55.4358721  38.7118983  30.3536105  54.5176554
  38.1756353  30.4934406  55.9261465  10.8920538  98.9127445  71.5755749
  10.9847367  99.6526337  72.1757460  11.7253947  98.4462452  71.6399956
   0.8645577  77.4322701  39.2121172   1.4893121  77.6830006  39.8925924
   0.6074807  76.5389442  39.4403887   9.1637254  62.7255106  66.6361666
   8.6789262  61.9074059  66.5270329   9.8902822  62.4978113  67.2162533
  36.4513946  79.8359632  75.1745176  36.0593200  80.5690289  75.6489897
  36.0545206  79.0577269  75.5657673  17.8685558  51.2140226  48.1664705
  17.8690505  52.0772219  48.5801363  17.5096178  51.3674688  47.2924852
  34.6733260  63.6042261  16.8581223  34.3594074  64.3812847  16.3956630
  33.8847089  63.2163143  17.2373843  41.7212343  62.1588898  44.7036743
  41.1933565  61.3927269  44.4787931  42.5345755  61.7950773  45.0534582
  45.4836226  98.7582397  59.2305613  46.3604212  99.1254425  59.3428850
  45.5881548  98.0921268  58.5511541  27.8234172  54.0615654  68.3551264
  28.5274506  54.5403051  67.9176521  28.1813788  53.8423777  69.2153883
  32.1515107  97.2001743  68.1508303  31.5292621  97.0932102  68.8702726
  32.5619078  98.0495167  68.3133984   0.8262484  52.0874786  27.4036336
   0.1163610  51.9079781  26.7871332   1.6060215  52.1675682  26.8542957
   6.8956542  55.1568985  32.1970248   7.3706973  55.0663757  33.0230832
   6.4461005  54.3191290  32.0862103  59.3137550  50.3198814  20.6040859
  59.5702267  49.3977594  20.5920219  59.1710806  50.5408669  19.6837389
  36.1758113  84.8171616  56.8339634  36.0724735  84.1205406  57.4822474
  35.5170965  84.6233559  56.1670589  21.5079355  27.5115561  23.8365459
  21.6718769  28.3582926  24.2517519  22.3360229  27.0389652  23.9211798
  24.5214891  29.6072292  55.4502535  24.4617319  29.7679925  56.3919640
  25.4475117  29.7342157  55.2438879  31.6106033  37.6383638  49.1448784
  31.8048573  37.4199891  48.2333899  31.5118289  36.7907166  49.5784330
  26.7146158  75.1705408  71.9916487  26.9502211  74.5348358  71.3159227
  26.1374855  74.6880770  72.5835848   3.4491876  61.1135483  77.6966047
   4.2709151  61.4817190  78.0213261   3.3792526  61.4386082  76.7990065
  46.6122818  42.4652100  19.6826136  46.7740011  42.9767847  20.4753113
  46.8251371  41.5655279  19.9305952  26.3650107  52.7614880  64.3459702
  27.0350361  52.2470140  63.8958454  26.7409372  53.6393309  64.4115353
 108.4554917   6.0136455  84.6691990 107.5524563   6.3098401  84.7833347
 108.8597149   6.6841972  84.1185665 110.0932223  47.9637623  79.5406246
 109.9891145  47.7446795  78.6146688 111.0132093  48.2140493  79.6255636
  21.2632084  80.2303410  65.3108740  21.3033819  80.1266479  66.2615919
  20.6186008  79.5824766  65.0263023  64.0527296  66.7954350  22.5697565
  63.8138866  67.4126959  23.2612610  63.4406471  66.0673237  22.6767445
  24.8371553  61.3309956  89.2222214  23.8972902  61.5115404  89.2051888
  25.0726557  61.2004471  88.3036709  21.8245196 116.0591698  49.5280313
  21.5883541 116.9797993  49.4144726  21.6120124 115.8683205  50.4416227
  59.2494822  67.1198320  14.8102176  58.4511805  66.7862892  15.2197254
  59.5241117  66.4209986  14.2165518  13.8094008  53.1838989  39.6719575
  14.5209193  53.7155581  39.3151474  14.1073787  52.9424858  40.5489731
  20.2116323  61.4599705  65.6311560  19.3645680  61.1457205  65.3149891
  20.0123310  61.8900919  66.4627218  46.6204071  27.3139858  55.3327179
  45.9451103  26.6387343  55.3978968  46.7892838  27.5720859  56.2388611
  52.4122953  32.9467010  42.3103809  52.5218725  32.0528245  42.6347399
  53.2581568  33.3650661  42.4707651  28.1412077  56.5470457  31.0528398
  29.0705538  56.5091753  31.2789321  27.8283572  55.6506538  31.1746407
  31.7768025  66.9794083  35.0301552  30.8814669  67.3144150  34.9814177
  31.6738510  66.0490036  35.2301049  65.1716995  60.8359528  37.7678704
  64.8585224  61.6586304  38.1438422  64.3953991  60.4449654  37.3669767
  12.4349225  44.5573425  10.1482213  13.1463337  44.1755962  10.6624174
  12.7957070  45.3778696   9.8123640 121.1850420  85.1492023  28.3717775
 121.0697809  86.0432148  28.0497694 121.7830450  85.2371883  29.1139913
  56.8166828  95.9519005  22.0529175  56.3375187  96.5200424  22.6561141
  57.6733208  96.3688946  21.9605803  23.4997678  86.3951778  75.6578207
  23.5366011  85.9432507  74.8148298  23.0791974  85.7689953  76.2471008
 120.5830610  82.0874882  43.9673328 120.7922206  82.2038078  43.0405378
 120.5272434  81.1389542  44.0830612  56.4413118  77.8412771  57.5893402
  55.8842945  77.1390724  57.2533798  56.5010786  78.4661102  56.8666744
  29.8664498  69.5849657  51.5964174  29.3065667  69.7514391  52.3547363
  29.7427082  68.6549091  51.4069080  54.9153185  68.7454176  30.3299379
  54.9062014  67.9302597  29.8282719  54.3634653  68.5645533  31.0908461
   5.9227151  90.5220604  86.1763096   5.7917160  89.6475887  86.5428734
   5.2910638  91.0727692  86.6388893  55.3738213  72.3699808  76.1038494
  55.3385735  73.0547905  75.4360008  54.4575739  72.1433163  76.2630701
  36.6661596  81.3586426  45.5915070  35.7877040  81.3315105  45.9707355
  36.8626618  80.4467392  45.3769064  36.3342643  62.2329235  49.9849987
  36.7987466  62.6957846  50.6823158  36.9990849  62.0831013  49.3128395
   6.9387674  60.8366823  43.0982637   6.5848225  60.7311058  42.2151995
   6.5214336  60.1423693  43.6081648  38.5850811  27.7183557  35.5461740
  38.9413333  27.0027232  36.0726619  39.1465831  27.7483511  34.7715473
  20.2235723  46.3238621  81.4057064  20.4261637  46.4656830  82.3304081
  20.5801201  47.0932341  80.9616566  37.5722408  71.3714123  71.6045094
  37.7126884  70.4488039  71.3916731  36.6414237  71.5171909  71.4355087
  32.7455068  41.3444710  97.9841709  33.1096387  40.5843019  97.5305462
  33.1366158  41.3124132  98.8572407  43.7224436  66.2609434  63.7021732
  43.2726622  67.0973730  63.5825253  44.5971918  66.5009642  64.0078592
  31.7711067  43.1804323  19.7865486  31.6618776  43.0856848  20.7327652
  32.6287079  43.5931730  19.6845841  25.9990478  82.0115757  61.7084503
  26.1898112  81.6747570  62.5838900  25.2155852  82.5491905  61.8241262
  58.5536766  61.9161320  42.4676514  58.6752939  60.9763241  42.3327637
  57.8293800  61.9769573  43.0904865  10.3561473  50.2299833  37.4578404
   9.9765998  51.0874081  37.2654915  11.0968959  50.4196692  38.0336380
  17.5040877  70.3997517  17.2818339  17.1978176  69.6106529  16.8348920
  18.2014799  70.7378006  16.7200506  31.3803840  77.0545483  68.1694937
  31.8694592  77.3923731  67.4192190  31.3858414  77.7729130  68.8020706
   8.7251449  21.8110037  60.5623341   8.7088865  22.7143121  60.8785629
   9.4984245  21.7680454  59.9998188  41.8911791  48.7846708  59.3233013
  41.0081244  48.4152842  59.3245602  41.7613935  49.7161865  59.5012474
  21.7675066  85.1262569  61.3041735  21.6428399  85.8412361  60.6800795
  22.7071595  85.1286888  61.4866066  48.7961817  66.8205690  29.7055650
  48.0042219  66.6115904  29.2102265  49.0021515  67.7221680  29.4587135
  16.5766561  49.5317173  50.1542950  17.2666621  49.2433357  50.7517576
  17.0430148  49.8082829  49.3654680  45.8513546  84.6415901  19.2136717
  46.6430426  84.9328232  18.7612963  45.7199764  85.2883911  19.9069417
  31.0632658  44.4349957  54.3401575  30.8896613  44.5432281  53.4050751
  31.6440892  43.6757660  54.3896246  29.6350646  57.0254803  71.5795755
  29.7795129  56.0993528  71.7736340  29.6919584  57.4601936  72.4304676
  22.4387836  61.4704037  93.6725044  22.4806952  62.2406960  94.2391872
  22.5957942  61.8118620  92.7921772   8.1715071  66.6919565  24.4887757
   8.9911056  66.6574144  24.9820280   7.5322616  67.0398378  25.1105261
  29.5884728  26.0310674  23.5736179  29.3473411  25.1188326  23.7346029
  29.8036718  26.0609889  22.6414013  31.2968922  90.1446056  65.2767992
  31.6715598  90.4435730  66.1053371  31.4180779  89.1951752  65.2878857
   9.6163982  33.9723945  47.5871038   8.9899552  34.1327977  46.8813610
   9.3596101  34.5824718  48.2785463  26.5778255  48.5311031  30.7064843
  26.9809008  47.8091764  30.2242112  27.2795630  49.1745853  30.8051181
   9.9300969  68.5692549  36.1505270   9.1898799  68.3732748  36.7248988
   9.7869134  68.0203247  35.3795481  44.0938568  91.1326313  73.7676573
  43.7662268  92.0320129  73.7648582  44.0165663  90.8467293  72.8574324
  51.9019270  80.8713627   4.5103642  51.9357967  80.0107956   4.9281126
  52.2505522  81.4714909   5.1695621   9.2759949  53.8614655  42.1810007
   9.3371624  52.9192686  42.0236731   9.8765701  54.2499924  41.5449238
  21.9934011  83.1945992  27.6033688  21.6855383  83.6656761  28.3776712
  22.0416689  82.2803402  27.8826976  25.1907110  52.9736042  49.1669798
  24.9737072  53.6200953  49.8386860  24.6618009  53.2273293  48.4105968
  41.1152220  24.1318417  58.9211845  41.2679815  23.1903744  59.0020370
  41.9576979  24.5307398  59.1387606  33.5726261  41.6544771  51.7284441
  33.9308572  41.8265772  52.5992393  34.1596031  40.9979153  51.3534546
  58.7107277  64.6419144  47.8268337  59.3395233  64.5937586  48.5469246
  59.2519665  64.6742582  47.0380068  17.6982915  53.7140179  40.8926153
  18.4308338  53.3388281  40.4038954  17.7977407  54.6598959  40.7846308
   2.5772181  32.8645563   1.5618280   2.4332023  33.7177777   1.9711025
   1.9025618  32.3005843   1.9399881  50.1040173  82.3248196  59.2904520
  50.4560423  82.3779869  60.1789808  50.6630611  82.9071712  58.7760973
  11.1952400  65.2329302  47.5190401  11.5915644  66.1027527  47.5697088
  11.2995946  64.8705578  48.3988285  48.3100986  80.7526302  78.9132833
  47.5299168  80.9728336  79.4222546  48.4313869  79.8137760  79.0549469
  40.7551670  79.3694162  64.2282820  40.1963520  79.3710899  65.0054264
  40.2160978  78.9683771  63.5465145  15.6156969  45.9423590  43.5942936
  15.6775117  46.8851566  43.7477303  15.7795632  45.5489540  44.4513893
 122.0811186  65.5077171  74.6159506 121.7129163  65.8656693  73.8081598
 122.2012211  66.2697029  75.1826811  16.0107756  61.3166046  63.3767223
  15.3956640  62.0399714  63.2558537  16.6531456  61.4288187  62.6760101
  48.7289190  62.1760130  15.9339619  48.4660721  62.5453520  16.7770112
  49.6154022  61.8469429  16.0825753  94.3689246  28.8487339  64.3052149
  94.6702618  27.9552555  64.1405249  94.1006631  29.1732979  63.4456062
  43.0201530  97.9934788  25.1876044  42.7763939  98.1174850  24.2703080
  42.3253107  98.4292507  25.6810927  24.3674898  86.1791039  31.8954706
  23.7086129  85.6992626  32.3973370  25.1525903  85.6340694  31.9482732
  49.5862198  21.5804768  23.4534383  50.1952982  20.8501744  23.3442807
  49.5872593  21.7545867  24.3946695  41.1251640  97.1100712  48.4062767
  41.9122696  97.2491169  47.8796291  41.4246607  97.1944618  49.3114901
   8.3651251  43.0036402   7.1359217   8.6911964  42.7567148   6.2705094
   8.2758325  42.1735096   7.6040483  14.2095840  25.1536036  26.5965581
  13.7822890  24.2970753  26.5930486  14.9029636  25.0726771  27.2514677
 122.4273693  67.2091961  28.2293606 122.1429769  67.8292847  27.5579119
 122.6046929  67.7523661  28.9973164  53.5138321  43.4410810  13.0168557
  53.2720184  43.3583832  12.0944023  53.5902691  44.3843031  13.1607962
  18.8543355  69.8142338  42.5889397  19.7645879  70.0479221  42.7707672
  18.6591423  70.2421570  41.7552662 107.8638715  55.5015278  32.1554947
 107.4011452  55.7814693  32.9452729 108.5792417  54.9536848  32.4785280
   5.0421965  54.4212484  38.6398220   5.1572341  53.4774160  38.7501717
   4.2142636  54.6146536  39.0795422 116.5997071  69.5648098  31.2829471
 117.1601892  68.8890648  31.6643405 115.9757305  69.7781277  31.9767642
  12.0180452  88.3067799  28.1642127  12.0906198  89.2111301  27.8590560
  12.5984490  88.2631111  28.9241171  15.0192440  80.0722599  25.7090139
  14.7962070  79.1601849  25.5230069  15.9014201  80.0325775  26.0783648
  19.1456592  56.1051416  31.6534758  19.5362735  55.8615971  30.8142257
  19.3749547  57.0276737  31.7656612  25.3983831  60.2640533  42.0719910
  24.6393514  60.8418703  42.1509027  26.0895395  60.8235741  41.7177677
  21.6971183  22.3147631  99.3642541  20.9910393  21.6859770  99.5136353
  22.3209405  22.1466565 100.0705227  30.6537771  65.0029516  25.2543497
  29.8737931  64.9730778  25.8083916  30.3609586  64.6604395  24.4098520
  15.0809038  46.7121363  20.1742578  15.4419589  46.8926668  19.3063402
  14.4130754  46.0436201  20.0215364  36.8099046  97.0421696  19.0040243
  36.1618590  97.6596165  19.3431687  37.4377203  97.5891209  18.5318756
  48.3212090  17.7214539   1.0906232  48.8322544  18.4883928   0.8320316
  48.2983971  17.1732652   0.3062762  31.2035251 122.2258472  30.7237911
  31.7112565 121.7049599  30.1016068  30.5431724 121.6201878  31.0604477
   3.9019817  90.3150272  26.1535239   3.1756926  90.8901882  26.3942051
   3.5646582  89.4306946  26.2963581  27.3290300 111.5493488  42.6386499
  26.8209362 110.8466816  42.2332716  27.0576668 112.3404408  42.1730661
  29.8391843  64.5030546  17.6445138  30.3933811  64.1756725  16.9360530
  29.9862862  63.8913155  18.3658779  20.6544971  69.3816853  36.6880560
  21.5269375  69.7350740  36.5142846  20.6484580  69.2109728  37.6298904
  12.2816241  33.7759018  21.8161154  11.8725717  34.5787048  22.1392512
  12.7348530  34.0431213  21.0164857  38.2495928  87.1332455  67.8612804
  38.9544082  87.0644283  67.2172832  37.8264236  86.2748051  67.8458786
  27.0997310  79.3775225  60.8138275  27.8068757  78.9781618  60.3071785
  26.7354822  80.0446796  60.2320576  44.0148163  52.9539061  37.0127177
  44.9147844  52.6895618  36.8218899  44.0413332  53.9107370  37.0137024
  42.5621986  66.3795519   9.3044156  43.4846497  66.1658096   9.4445264
  42.0842695  65.6608868   9.7183508  36.6517305  66.8815470  95.9979817
  36.6717839  66.5217829  96.8847736  36.7070580  67.8289890  96.1225733
  19.3517256  73.1928444  19.4559789  19.2693651  73.3441496  18.5144091
  18.5473502  72.7327871  19.6958983 122.9685093  66.2903214  34.7455692
 123.3301461  67.1399689  34.4934750 122.3982800  66.0468340  34.0163326
  16.1043417  52.2949362  18.9538026  16.4763749  53.1664371  18.8184977
  16.4195180  51.7818117  18.2097602  33.5310268  72.1260166  27.2988081
  34.3011141  72.4955845  27.7308011  33.7984705  72.0148087  26.3864827
  40.3652525  64.9301958 104.3692287  39.5193887  64.4837809 104.4074222
  41.0056877  64.2233801 104.2886790  12.3488200  86.0294724  26.6384530
  12.4232364  86.8196774  27.1734858  11.6568220  85.5194473  27.0594692
  11.3382244  68.2038641 107.4040363  10.9311533  67.4236917 107.7806782
  12.2439170  67.9438686 107.2356486  39.2810464  88.8737106  47.5961447
  39.7186947  88.3003998  48.2254410  39.4131231  89.7557926  47.9435825
  14.9704421  50.7289505  38.1832194  15.8440387  50.8791590  37.8219771
  14.5934618  51.6044712  38.2702661  16.8162704  79.1146374 108.9876664
  16.8543065  79.3701887 108.0659946  16.1718774  78.4073114 109.0136975
   7.8339928  41.1238098  39.8548794   7.3916477  41.9492531  39.6568871
   7.4598497  40.8461285  40.6910276  60.5624294  94.0531349  20.6308246
  60.5048656  93.4690380  21.3869715  59.7458172  93.9076710  20.1531029
  13.8453245  84.8377895  32.5345469  14.0129805  85.1664639  33.4177756
  13.5657036  85.6088638  32.0411110  18.0064189  72.4714518  28.4274960
  18.5696256  72.5273752  29.1994429  18.5825908  72.1514988  27.7333140
  30.2861476 111.3356876  20.5822897  29.4340539 111.0144234  20.8771801
  30.5468059 110.7250500  19.8927867  39.2176199  89.5340824  28.1857109
  38.8603497  90.4152775  28.0757833  39.9889851  89.5159817  27.6192284
   0.3451588  68.6952257  27.3529625   0.7839295  69.5189619  27.5654817
   0.7243355  68.0586052  27.9589105  35.5479336  32.5400400  22.8642249
  36.3684916  32.3310065  23.3105659  35.7181311  33.3753490  22.4288821
 121.9041086  91.4713478 108.2284673 121.0606805  91.0589886 108.4150628
 122.0071310  91.3876534 107.2805157  17.5330734  21.4911199  26.1580491
  17.4136543  20.8221936  25.4838800  17.8549325  22.2564602  25.6817150
  31.3596463  63.4911203  29.6232033  31.9914770  63.0408907  30.1838398
  31.8501997  63.6983013  28.8278008   2.8968489  71.2015963  42.1917582
   3.5756618  71.2580967  42.8642559   2.3386410  71.9628382  42.3503447
  35.3189301  54.0979147 107.4793569  34.5553041  54.6173954 107.2278714
  35.3059149  53.3489609 106.8834286   4.7650075  32.3194647 105.8756908
   3.8738239  31.9874096 105.9841433   5.1801664  31.6997552 105.2758285
  25.2792859  74.1172695   4.9634805  26.0887289  74.5935392   4.7785509
  24.8815250  73.9781952   4.1040173  45.4980850  43.7453794  28.9728999
  45.8418179  43.4066153  29.7995281  45.5136013  42.9933596  28.3809090
  25.4952908  72.5979376  27.2670650  25.2147651  73.1181383  26.5141177
  26.1359239  71.9837189  26.9085145 124.0341178  57.8335810  38.3909345
 124.7264893  57.3365736  38.8266397 124.3670584  58.7304354  38.3587170
  22.8914285  75.8548212   8.9736551  22.0225978  75.5254984   8.7436271
  22.7256489  76.7075348   9.3756849  29.5453477  73.4902430  25.3614473
  28.8237333  74.1086054  25.2468514  30.1932979  73.7546015  24.7083712
  36.3698006  72.7849483  50.5514812  36.2842822  72.0973682  49.8910570
  35.7529736  73.4620714  50.2735281  19.9348760  75.0388575  31.6440558
  19.3386197  75.7431030  31.8985105  20.8088183  75.4134893  31.7540836
   5.6721240  52.4325514   5.8161205   5.8840597  51.6795349   6.3677377
   6.4344835  53.0065012   5.8911026  21.8400812  72.7708673  32.1979070
  21.2226915  73.4720945  32.4060869  22.1680284  72.9914761  31.3261199
 118.1766838  82.5775337  16.6214395 118.3254737  82.0100784  15.8650732
 118.5968137  82.1205330  17.3500514  21.9693947  73.3248854  43.7101412
  22.7032828  73.4208441  44.3171310  22.2510362  73.7846327  42.9192305
 116.1737306  51.8970013  41.9088650 115.4010833  51.4096832  42.1948242
 116.1730701  52.6862812  42.4504089  25.5759454  70.6286192  94.7768851
  25.4043913  71.3953781  95.3235873  26.5268350  70.5224895  94.8047718
  35.9793186  40.7076311  40.9142971  35.1162171  40.3172779  41.0518169
  35.9939384  41.4675903  41.4960861  59.0105104  53.0243969  42.3925829
  58.2116127  52.6532841  42.7671051  58.7628984  53.9112568  42.1310520
 107.5124306  29.1294456  46.2284374 106.6945059  28.6382174  46.3054085
 107.6163704  29.2757654  45.2882147  35.7527161  60.4002380   3.7405103
  35.6706047  61.0576391   4.4313848  34.9164867  59.9346066   3.7523562
  23.9814472 100.1712608  32.2039747  23.6771536  99.7441769  31.4032054
  23.9156008  99.4935703  32.8767467   5.4522079  75.5726576 108.7818803
   4.7969934  76.2638426 108.6860161   5.1327533  75.0390530 109.5095123
  15.7906890  59.0143633  22.0199800  16.4946461  59.5428276  21.6439462
  16.1382794  58.7154198  22.8602457  25.1955366  92.3443699  27.7876210
  25.4644227  92.1941090  28.6939073  24.2600441  92.1418667  27.7786326
  62.0628071  63.1365585  39.9634147  61.4341116  63.7511778  39.5849705
  62.0401478  62.3797655  39.3777728  26.1966372  47.9830933   1.4692222
  26.7932010  48.7307739   1.5054536  26.5539742  47.3606586   2.1025637
  17.4671125  84.1315556  38.5158682  17.0383728  83.2790852  38.5914445
  17.7662313  84.3287468  39.4034910  21.5458155  98.4416962   7.2778124
  22.0700860  98.9417171   6.6522288  22.1231103  97.7328396   7.5615132
  43.6723423  68.9585304  29.9332023  43.4520149  68.1475163  29.4750071
  43.4599590  69.6518993  29.3084097  39.1226768  64.7540236  46.4053488
  39.9685884  64.5179701  46.0246372  38.9536428  65.6393337  46.0830355
  -0.2890043  58.6627245  42.5701284  -0.0871608  58.6445904  43.5056305
   0.5641067  58.7369537  42.1424341  31.9359016  55.4128790 104.1663202
  31.4621878  54.7000122 104.5948669  31.2724853  55.8587837 103.6397465
  40.3070307  75.4654646 102.1905055  40.4381037  74.8067713 101.5084686
  40.1547909  74.9578619 102.9876205  44.9992275  39.1935015 100.3857478
  44.0815163  38.9617896 100.2431145  45.0251627  40.1446152 100.2811440
  34.4383168  87.8847599  11.5161741  35.2730322  87.9751492  11.0564899
  34.3800616  88.6681080  12.0631707  27.1780252  93.0460739   8.8676035
  27.0507431  92.2208405   8.3996063  27.9009318  93.4730721   8.4079230
   5.1284981  61.4836884  34.4591260   4.6195281  60.8627224  34.9802589
   5.8669949  60.9713364  34.1299582  32.6234150  73.5037899  40.8915806
  32.5009894  73.0689383  40.0476933  33.4995317  73.2395267  41.1723232
  89.0273661  12.4722767  30.1967597  88.8070053  13.2674885  30.6818485
  89.8417253  12.6871097  29.7419024  41.2528086  48.7964296  21.2126541
  41.9636011  48.7089825  20.5775499  41.6820383  49.1013813  22.0120287
   6.7428732  61.0987759  63.1663752   6.2564647  61.9176722  63.2614946
   6.2645233  60.6127024  62.4947023  19.8672223  55.6942654  24.6031165
  20.3264332  56.5193748  24.4464231  19.7267663  55.3287125  23.7296891
  27.6081085  62.1283531  50.2006340  26.8971395  61.8867111  50.7942390
  28.3448935  62.3280048  50.7781458   8.8480616  64.0876150  17.0964563
   8.2708943  63.3984709  16.7675269   9.7318041  63.7565517  16.9363666
  32.6491952  94.2270947  53.6353874  33.2850838  93.5779572  53.3345604
  32.4056363  93.9346600  54.5136786  26.4462972  64.1572618  24.7624826
  26.4690948  65.0940704  24.5672774  25.6572580  63.8401747  24.3230486
  18.9003420  43.4975195  42.8969479  18.0272734  43.1274414  43.0274296
  18.7451100  44.3186522  42.4301767  34.6935821  33.7235093  30.6591797
  34.6177292  34.6717525  30.7655358  35.6251955  33.5743737  30.4976606
  30.8382154  82.1300507  53.1324482  30.1383066  82.7163696  52.8450632
  31.3606644  81.9768143  52.3451757  19.6514070   2.6829302   3.1060469
  19.2672598   1.8063155   3.0915734  19.8625624   2.8367242   4.0269119
  19.4314432  64.0198755  16.6123283  19.4576132  64.9752617  16.6650724
  20.3342867  63.7657261  16.4212334  42.1142912  85.8546925  20.9995008
  41.6556263  85.3057384  21.6355109  41.9426680  85.4375648  20.1552367
  52.2811031  54.4320965  44.7768879  51.7756271  53.8102722  45.3003979
  53.0648708  53.9467525  44.5192337   0.8402664  59.0182209  24.0475678
   1.6710836  58.5479927  24.1172528   1.0823883  59.9423790  24.1070986
   2.1890737  61.8288279  69.3428802   3.0762264  61.5614080  69.5830393
   2.3113605  62.4375677  68.6143780  81.9361115  71.1082029  17.8318107
  82.1299171  71.3489580  18.7377405  81.6667175  70.1909685  17.8801358
  13.1151426  70.5249357 102.3542430  12.3212147  70.9501982 102.6783779
  13.7576973  70.6536341 103.0519482  46.8212795  55.3000736  29.9276328
  47.0032883  55.9194565  30.6343651  45.9151983  55.4812527  29.6777940
   5.1593792  85.8083534 103.6707296   4.5145619  85.6511593 104.3604633
   5.7528412  86.4612198 104.0419468   2.1098179  51.2154293  94.6460220
   1.1818214  51.1660576  94.4166382   2.1155696  51.4883232  95.5634781
  64.6529198  81.2607574  22.9946446  64.9424982  82.1715069  23.0485582
  65.3878689  80.7548332  23.3412361  20.8616781  58.2968950   5.0295043
  20.9056091  58.7263489   5.8838278  19.9793720  58.4872198   4.7108459
  18.6090565  70.6221008 107.8814270  19.3249750  71.1973953 108.1511144
  18.5380828  70.7550383 106.9361635  10.5501008  92.3999691   2.8438315
  10.2120626  92.1582699   1.9815421  11.1930883  93.0862141   2.6652876
   4.6708432  78.0212927  51.4916992   4.7216508  78.8336754  51.9953728
   3.8328385  78.0762577  51.0324001   5.6796300  40.3063202   6.6914642
   5.3565377  40.1201153   5.8098906   5.4781693  41.2317848   6.8298829
   8.2900602 112.2737217  60.9473562   8.2529509 112.3475647  61.9009829
   8.0576867 111.3625526  60.7684565  40.5373764  87.1233368  49.5164251
  41.4857244  86.9950867  49.4959164  40.1825476  86.3600349  49.0606976
  84.5786381  28.0178189  26.7015862  85.3817272  28.4915376  26.4850926
  84.3452549  28.3291817  27.5761247  34.6667600  72.9731035  82.2681427
  34.5721173  73.4111071  81.4223099  35.6060410  72.8069830  82.3480606
  36.3488030  50.7484913  89.0533336  36.2112474  51.1584568  88.1993803
  35.8048296  51.2579298  89.6539982  49.1773510  14.0833521   6.9267696
  48.9709711  13.4705281   7.6325214  48.3558226  14.1792786   6.4449823
  66.8240690 102.6344013  77.4237776  65.9596109 102.7053452  77.8286362
  66.7749929 103.2005501  76.6535091 116.2786073  60.0378513 104.7443750
 115.4786271  60.5620575 104.7827526 116.9865448  60.6729555 104.8525452
  21.7696404  64.9558973  14.1293168  22.6546621  64.7884321  14.4532311
  21.5892148  65.8611870  14.3825567  23.0725622   9.3397284  19.4149768
  22.6025677   8.5107386  19.5050430  23.3550119   9.5527798  20.3043938
  11.7583716  39.0416217   4.4447389  12.2926605  39.5103073   5.0859106
  11.0561514  38.6463022   4.9613065  30.4653788  60.7059813  27.9261208
  30.0067639  61.5456152  27.8958011  30.7327604  60.6119919  28.8404012
  22.7999759  93.7236691  25.9618139  23.5931087  94.1234493  25.6049490
  22.4182463  93.2486248  25.2236795  44.2313623  90.4904938   9.6615177
  44.3918419  89.6026421   9.9811953  44.5239544  90.4734993   8.7502915
  10.7842088  58.8928652  56.8036175  10.0991392  59.0810728  57.4450922
  10.3453720  58.3733845  56.1299753  72.3964643  77.8328657  24.6494412
  72.5788546  76.9272900  24.9002218  72.2945642  78.2957983  25.4810309
  26.8920779  70.6218576  23.7011743  27.6282430  70.1352167  23.3303976
  26.4707398  71.0313368  22.9455066  14.7442555  75.3570557  42.2106123
  14.2463064  74.5401430  42.1800613  15.5836153  75.1412630  41.8042374
  40.9837246  70.9174776  13.8640022  40.0471640  71.1133051  13.8910747
  41.0878563  70.3503990  13.0999255  15.2192366  76.7235661  54.5274448
  14.2649758  76.6519499  54.5495749  15.4536068  77.0681763  55.3891563
  14.8418415  69.0885353  20.4522991  14.7936571  69.1876030  21.4031363
  15.4514158  68.3629131  20.3176785  20.8648944  58.6575270  39.9356318
  21.0718656  57.7240992  39.9815631  21.4174151  59.0586615  40.6064844
   6.7602539  30.8175254  25.6556392   7.7001590  30.6566238  25.7388330
   6.5692729  30.6496310  24.7328353  33.1142092  58.6334229  72.2643661
  32.8777599  58.6284256  71.3368416  32.7124619  59.4306660  72.6096678
  44.9014759  94.8173332 100.4063793  45.1694345  95.5301094 100.9863623
  44.5139694  94.1658115 100.9908279  45.6644726  67.8589153   5.0474453
  45.5041456  68.1563759   5.9430146  46.5810633  67.5830603   5.0471628
  27.8962398  34.1152859   5.5673176  28.7117934  34.6163702   5.5629516
  27.6550651  34.0583444   6.4918846   8.3213848  41.4570570  29.3634033
   8.4847885  41.8059683  28.4871650   8.8438386  42.0112753  29.9431586
  29.1743302  74.9108124  38.9048910  29.1584110  75.8672142  38.8691187
  28.6952782  74.6930361  39.7044611  26.8021894  77.5572443  44.0710926
  26.1845255  77.1473026  43.4655619  26.2514710  78.0609035  44.6704865
  10.2839339  63.0930138 107.9836106   9.7928292  62.7313471 108.7213391
  11.1877692  62.8197289 108.1405491  17.1856475  63.3117342  35.7550240
  17.3896337  62.5127983  35.2688932  16.7787147  63.0023718  36.5643024
  20.7541299  86.5888309  72.5485992  21.4450431  85.9696007  72.7840233
  21.2041354  87.4295521  72.4654531  25.0829434  85.8345413  68.1617832
  25.6499934  85.0667095  68.2333374  24.4042158  85.5738544  67.5392008
   0.5215682  64.6773624  29.2174315   1.1435833  65.3814936  29.4005346
   1.0051832  63.8742685  29.4108033  10.5120659  62.5904083  21.3557243
  10.8633292  62.3854351  20.4892182  11.1378598  62.2006130  21.9661951
  15.0617623  44.3879175  22.2859001  14.6540582  44.7191954  21.4857340
  14.4773388  44.6731329  22.9882765  11.4733148  49.5655537  20.8460140
  10.9583580  50.2979612  20.5074430  12.1147871  49.9726915  21.4282346
  22.0362186  76.0095501  60.4487944  22.4777150  75.1862669  60.6574059
  21.1102891  75.7753611  60.3852034  22.7348709  65.4489565  23.1711245
  21.8331289  65.3165436  22.8786206  23.2614636  64.9220705  22.5700259
  45.9006357  51.4835739  88.9995917  45.4451799  52.0269537  88.3565291
  45.1996422  51.0490990  89.4854673  18.9350700  71.6906977 105.3620156
  19.3730080  71.2625647 104.6263906  19.5076418  72.4237490 105.5879035
 122.1493707  39.0219927  14.3276930 122.9195727  39.3585944  13.8697410
 121.8553922  38.2850504  13.7922263  19.3760431  73.2202482  37.9767561
  20.3195953  73.3789158  37.9490709  19.2147970  72.6088381  37.2581410
  50.5560064  69.3030882  40.2239370  49.7458601  69.7740841  40.0288534
  50.3725672  68.3974028  39.9742937  57.2917652  89.8054218 105.4479491
  57.4607420  89.7164726 106.3859081  57.7386713  89.0572357 105.0520625
   2.7252480  42.4309206  10.6021118   2.1916121  42.8760529  11.2603807
   2.3002744  42.6374531   9.7696608  43.6073971  83.7082291  46.3345814
  43.0934811  83.0259228  45.9026337  43.7447309  84.3699360  45.6567097
  41.8937635  90.3896141  34.1824865  41.4068508  89.8527718  34.8077488
  41.4705610  91.2472343  34.2225981  12.8373647  95.6287098  54.6289730
  12.7887499  95.2689171  55.5146456  12.2375774  95.0862885  54.1168499
  45.1257372  52.5103521  10.0694072  45.5464935  52.3523378  10.9145272
  44.4474363  53.1591177  10.2571368  45.8494663  67.3560333  29.1632628
  45.3151369  68.1239510  29.3658066  45.4182529  66.6360283  29.6235657
  20.3960085  68.7919426  23.9155889  19.6656740  68.2181692  24.1471505
  21.1468959  68.4236240  24.3811393  56.1546898  62.6528740  24.3630290
  55.8110571  63.3476114  23.8013482  55.6063318  61.8931913  24.1670322
   8.8170403  48.7320042  26.7313790   9.3835300  48.0254650  27.0414162
   8.5885692  49.2203665  27.5222898  43.3195353  85.4428387  75.1949978
  43.2182026  86.3945580  75.1813555  43.4852457  85.2065086  74.2823505
  18.2350755  44.9269342  22.1654892  17.6460671  44.7545719  21.4309192
  17.6991999  45.4111576  22.7936578  37.4646926  54.4187880   7.2745442
  38.2295823  54.9155998   6.9840956  37.6428556  54.2204905   8.1938744
  22.3369503  92.6252460  23.4111023  22.6955676  92.9343700  22.5791955
  21.3893390  92.7177429  23.3125615   9.2638189 105.7731247  75.9745082
   8.5151350 106.0789776  75.4624947   9.0526760 106.0158730  76.8760189
  42.7944851  48.4315491   7.0524931  41.9810486  48.3263254   6.5590507
  43.3864737  47.7777004   6.6806531  47.0420599  22.6790380  30.1994991
  47.7823067  22.5882983  29.5994759  46.6951847  23.5532260  30.0214458
 124.2023162  37.2987604  27.4855661 123.9830603  37.3500967  26.5552306
 125.1585210  37.2594285  27.5044703  54.6261501  64.2538309  33.3640146
  55.3668070  64.4589567  32.7934122  54.7100782  63.3162689  33.5376978
  37.1606016  57.4180603  52.5445557  36.6820073  58.1986332  52.8236389
  37.4418759  57.6161814  51.6513205  27.0838737  46.6422653   3.6119258
  27.6579571  45.8764505   3.5982800  27.4959111  47.2393847   4.2363492
  40.9064054  56.0828733  26.2829328  40.3900623  55.4152966  26.7345595
  41.0424614  56.7655468  26.9399548  28.5813165  82.0297146  46.4741898
  29.3179584  81.6741467  46.9713449  27.8423285  81.9925499  47.0814371
  13.6784828  77.1595812  31.3330770  13.6236465  76.2116051  31.4537954
  13.1320238  77.5218439  32.0304847   3.9694366  93.0867767  45.6649637
   3.1891716  93.0313110  46.2166357   3.6481097  93.4242439  44.8288441
  61.9678831  59.7520065  14.9301863  62.2280550  59.4900274  14.0470624
  61.1595631  59.2667341  15.0956094  33.6647511  47.0057106 108.9810491
  33.7030697  46.9037533 109.9320318  33.4894109  46.1239290 108.6524969
  61.4125586  45.8650398  27.0589423  61.9474792  45.9727192  27.8453851
  61.9292736  45.2898026  26.4947271 113.4921355  71.8138218  29.3799663
 112.6906127  71.3727474  29.6614742 114.0701408  71.1042500  29.0995169
  26.6797876  47.0869637  33.1396341  26.6310453  47.7036858  32.4092150
  26.8724775  46.2440777  32.7289701  30.0761914  72.3496628  44.3883991
  29.9986148  72.9921818  43.6831474  29.6576786  72.7680969  45.1407242
 120.6606135  51.6772509   5.3717256 119.8935939  51.1063862   5.4167283
 121.2462852  51.3455963   6.0523307 115.6620187  59.6801853  12.0058167
 115.7869673  59.0390110  11.3061631 116.4737213  59.6437693  12.5118256
  48.2031107  30.7939124  49.3120098  48.8020563  30.2285838  49.7997618
  47.8591967  31.4006901  49.9675846  20.5530500  63.5347033  42.9817915
  20.7015347  63.4754944  43.9255476  19.6821845  63.1591225  42.8523207
  21.5882587  84.0580940  21.1319065  22.4630284  84.4437504  21.0841465
  21.3683915  83.8498878  20.2238655  67.2277212  79.6876049  12.4568570
  67.8247690  79.0886307  12.9051781  67.3065901  80.5103493  12.9396617
  39.4148684  26.0431147  53.4999609  38.9521551  25.2926826  53.1271648
  39.5607471  25.8039761  54.4152546  43.8458204  63.8499117  65.1045465
  44.0804577  63.1032705  64.5534515  43.6756611  64.5601654  64.4858217
  19.1498983  56.6996193  46.3334942  18.2189488  56.6432858  46.5488815
  19.4695449  55.8011150  46.4156485   2.0566107 117.2257805   6.3828659
   2.4341312 117.3458958   7.2542346   2.7916843 117.3548508   5.7835001
  10.4727542  85.1574707  32.4406695  11.2444246  85.0540161  32.9974937
   9.7683293  84.7270584  32.9251933  10.6284320  66.9699907  55.8067083
  11.4784896  67.3375511  55.5647755  10.0327909  67.2726059  55.1212406
  20.7080317  70.1933813  19.6244335  21.3197351  69.8857641  20.2933311
  20.6035686  71.1272478  19.8066890  22.3729634  65.2831078  30.4512691
  22.0006466  66.0541487  30.8791828  22.1072459  65.3657436  29.5354104
  35.6954288  71.8294573  13.8336992  35.3035831  71.5524530  14.6619236
  34.9747443  71.7957401  13.2046437  24.7854996  61.8750286  60.7935762
  23.9715123  61.6930246  61.2631798  24.5329285  61.8821192  59.8703289
  22.9962754  79.9938154 101.1789676  23.5931301  80.0349045 100.4317685
  22.4604082  79.2177868 101.0150709   9.5509994  32.3686218  65.5002975
  10.2340937  32.1134353  64.8802185   8.7370360  32.3009849  65.0011778
  17.8287482  76.7518139  28.8446164  18.7455606  77.0170164  28.9177823
  17.7671933  76.3376045  27.9838777  32.5491929  56.0867739   9.8691118
  31.6692209  55.7241344   9.7672713  33.1167054  55.4727173   9.4031775
  59.7799540  47.3524714 108.5762885  59.8196888  47.6230145 109.4935991
  59.7297907  46.3971901 108.6102768  12.8742933  83.7928295  59.1002417
  12.8103387  84.6860027  58.7620306  12.4528325  83.8310814  59.9588108
  45.5821705 104.7816086  32.2400022  45.7114172 105.6094170  31.7771244
  46.3189363 104.7300911  32.8488994  50.3040743  82.2759247  25.5435300
  50.3762197  82.4973392  26.4719677  51.2100840  82.2135258  25.2410722
  27.2947621  86.5381241   7.8475660  26.5091968  86.9573116   7.4962819
  27.2780395  86.7432594   8.7823790  38.0175185  60.4520941  44.2763233
  37.8663349  61.2665606  44.7559261  37.1466660  60.1787329  43.9880085
  24.0485430  62.7502871 103.6591419  23.3266306  63.3165789 103.3863970
  24.5461202  63.2798481 104.2822125  66.8996191  62.4889040  86.7482217
  66.4140511  62.2329855  87.5324162  66.7208672  63.4241676  86.6504129
  39.1784596  45.5260611 109.3590086  38.3808875  46.0538483 109.3984459
  39.8635554  46.1457157 109.1081981   3.1321156  39.2641854  12.5802600
   3.4839019  39.7796369  13.3060622   3.2687351  38.3543324  12.8443313
  24.8538232  80.3420544  98.5343357  24.8049235  81.2657738  98.2882222
  24.5347166  79.8717546  97.7641257   9.0662593  77.5768948  92.4578329
   8.2682121  77.3624134  91.9747695   9.2432475  76.7982912  92.9857393
  43.0942583  95.1790619  25.9803200  42.8484821  96.0752869  25.7509279
  42.3740292  94.8657894  26.5274572  16.4288568  80.2463150  14.0185678
  16.0081339  79.8728657  13.2441282  16.0433757  81.1183357  14.1035080
  28.2508779  58.5395956   5.5507511  28.8530874  58.9914036   4.9596086
  28.6553097  58.6229706   6.4143002  38.6541176  35.2201247  93.9256557
  39.5287681  35.4575777  93.6177012  38.1038713  35.9641767  93.6810228
  40.1912212  74.1879225  92.4143299  40.1508617  73.5383606  91.7124232
  41.1219501  74.2514133  92.6286765   7.8387105  44.4980288  94.7207268
   7.3526525  44.2148972  95.4952046   8.6842763  44.0553713  94.7935530
  48.0518007  59.1256809  21.2603188  47.4163771  59.8414898  21.2694669
  48.8314342  59.5026875  20.8525515   9.6914375  74.4974279   1.7227089
   8.9570016  74.4225073   2.3319893  10.3949273  73.9940548   2.1325284
  64.2055511  54.3123722  48.5722208  64.4464254  54.9426794  49.2511415
  64.8018932  53.5758257  48.7067699  48.3488131  55.2973986  11.3970232
  48.6625767  55.7964182  12.1511900  47.4076271  55.4697275  11.3705730
  33.2389951  80.4584217  26.5332174  34.0316534  80.7829762  26.9605279
  32.8494310  81.2342739  26.1300731  44.1219282  44.4693279   7.2271645
  44.5236158  43.6568451   7.5349784  44.3467951  45.1160765   7.8960311
  57.7309227  46.7444420  90.6523009  57.2813511  47.5890875  90.6785926
  57.1453476  46.1468601  91.1173078  18.6411107  66.0509491  20.5962348
  17.7837729  65.9609270  21.0122895  18.6228967  66.9201374  20.1957250
  45.8378458  81.7128086   5.3518081  46.4426136  80.9728718   5.4064310
  45.7696581  82.0333099   6.2511754  35.0697374  70.1688004  16.0053802
  34.3153572  69.8391151  16.4936900  35.4029441  69.4047642  15.5347943
   0.7050973  29.7422338  98.9822479   0.2088821  29.8039126  99.7984585
   0.6086997  30.6043291  98.5776135   0.2555910  51.1841011 100.8909448
  -0.3282289  51.5154648 101.5732839   0.1108980  51.7689466 100.1471355
  33.2200408  53.1283331  10.4412377  34.1054177  52.9858351  10.1065230
  32.7701664  52.2970724  10.2900791  38.8972044  69.0784740  21.4243817
  39.1274714  68.8056231  22.3125029  37.9402637  69.1005468  21.4211297
  20.4113483  92.9532337   0.3109463  20.1234841  93.6796856   0.8637856
  19.9411428  92.1921825   0.6514562   0.2996379  85.8163548  19.7047806
  -0.4190057  85.3856754  20.1677036   1.0854787  85.3590107  20.0039935
   4.9242625  71.7822456  19.4344079   4.6481472  72.5974321  19.0155208
   5.7986617  71.9719458  19.7745132  59.4977045  60.4531336  16.8635356
  59.3546867  61.3994837  16.8776488  58.7067890  60.0973892  16.4583981
   9.8043108  56.9398308   5.3037530  10.7209444  56.9081974   5.5776405
   9.6453875  56.0866165   4.9000201  19.9762809  98.0296421  10.6327105
  19.7706807  98.3629131  11.5061462  20.2149010  97.1137810  10.7758570
  64.6933222  47.3455095  26.8676734  64.8862648  47.9285002  27.6019239
  64.7290897  46.4662027  27.2442007  15.2239501  34.3571424  22.0879412
  14.5153618  34.9810553  21.9302440  15.6453204  34.2526221  21.2348557
  29.2406392  43.0965519  28.4146261  29.1027856  42.4835634  29.1367579
  29.9438930  43.6704111  28.7185216  56.2291527  77.7381706  29.1177201
  55.4622602  77.8229237  28.5512161  56.9706869  77.9479218  28.5499525
 114.6196765  40.0998545  14.2392027 113.6781258  40.2588129  14.1725290
 114.9646909  40.3405476  13.3793986  20.9227109  60.5327654 102.3895200
  20.9735942  61.4410305 102.6873501  20.3250957  60.5588675 101.6422554
  59.6209431  49.0507650  12.9260826  59.3460846  49.6111631  13.6517787
  59.8762608  49.6618414  12.2349751  36.8614340  79.5698023   6.8972927
  37.7300358  79.4397783   6.5166932  36.4856291  78.6906099   6.9423550
  16.1136162  71.9119215  31.4613652  15.2045035  71.8768692  31.1638427
  16.4290833  72.7664661  31.1673141  10.9912229  73.8939571  76.8203100
  10.3966892  74.6420097  76.7639073  10.8723414  73.4304857  75.9912761
  48.8734293  80.3790474  14.7150517  48.4289360  81.1469650  15.0741637
  49.7854280  80.4811096  14.9872077  26.6680431  68.4900618  19.5683849
  26.1659861  67.7365828  19.2578328  27.1322107  68.8047647  18.7926662
  53.2865906 106.6387749   7.2803754  53.8783836 105.9187603   7.0621938
  53.6853218 107.4081230   6.8737519  43.8487673  65.2989864  26.0152078
  43.8175249  66.1260605  25.5343676  42.9470634  65.1544952  26.3020635
  28.5406446  50.0252628 101.8207856  29.1468334  49.3478537 101.5209743
  28.8661313  50.8318424 101.4211454   7.1896034  86.7031956  77.8454503
   8.1209004  86.4857101  77.8856763   7.1315956  87.3851776  77.1762904
  41.4830732  58.0369377   6.0162121  40.5688429  58.1014204   5.7400733
  41.4414310  57.6663351   6.8977749  54.4074011  60.7095814  80.2371963
  54.2895222  60.4544830  81.1522182  53.7199116  61.3564014  80.0784048
   3.0098885  80.6470299  11.3202369   3.0515966  81.5911674  11.1683047
   3.0650422  80.2610874  10.4460275  30.7239938  43.3146858  17.1929717
  31.2160659  42.9699612  17.9381299  31.3948393  43.5597944  16.5556967
  17.8499258  81.5584278 100.9070244  18.3761179  81.0843086 100.2631577
  18.0448353  81.1278915 101.7394164  50.5139256  68.1461143   1.6402040
  50.3278065  68.5886049   0.8120777  50.8326101  68.8407183   2.2165710
  69.3021250  56.7296219  12.9957151  68.6381102  57.2071266  13.4930158
  69.3140268  57.1576357  12.1396232 114.2660040  47.9880381   0.7087353
 115.1366807  48.2088280   1.0395003 114.1120428  48.6152315   0.0022249
  18.7361920  77.6834917  56.1306381  18.9470208  77.0469427  55.4475689
  18.5388947  77.1512508  56.9013691 118.0108286  56.5933084 100.6919428
 118.8135636  57.0475054 100.4359105 117.6227391  56.3081408  99.8647209
  51.3531351  29.3384457 107.5637222  51.2827778  29.7931528 108.4030802
  50.8511114  28.5325432 107.6850880  95.0854296 100.7698345 101.7957052
  94.3131728 100.5977821 102.3344495  95.0791878 101.7179108 101.6639903
  31.3365769  25.9526467  94.4027861  31.1692262  26.7950940  94.8252913
  32.1030045  25.6043124  94.8582920   9.4786209  60.8777618  93.8987025
   9.9579483  61.3254738  93.2015451   9.9615896  61.0916376  94.6969684
  19.4817412  92.9395580  23.5014725  19.1607988  93.5095215  22.8026390
  18.9507365  92.1466637  23.4267211  25.4255676  51.9185352  18.4317243
  25.8217359  52.0525455  19.2927265  24.6538639  52.4848461  18.4323907
  34.7258401  39.9526668  31.6940451  34.4741893  40.8623981  31.8530846
  34.5033669  39.7996616  30.7757163 122.3903077  37.4173641  21.4465261
 122.3654700  36.4612412  21.4845443 122.6366462  37.6148152  20.5428886
  24.0179682  72.8126907 108.7879329  24.9135923  72.4752569 108.7727491
  24.0096402  73.4999800 108.1217539  29.4040132  27.2223282 106.7646980
  30.0235438  26.9475961 107.4406683  28.7155032  26.5577126 106.7864468
  33.9029193  43.3145809  83.9062079  34.3001628  44.1348171  83.6135610
  32.9990578  43.5482264  84.1175660  29.7981882  86.6387558  72.2700127
  30.5663729  86.1029434  72.0724615  29.3620229  86.7526436  71.4256080
   8.8171011  71.4644098   3.4923285   8.7938559  71.3644838   4.4440144
   8.2705724  72.2307920   3.3185503 121.7966819  50.6227732   2.8972033
 121.6636632  51.4417744   2.4199446 122.1548641  50.8936214   3.7425312
  14.7843003  57.3110390  91.4511701  14.3023407  56.4976931  91.3014516
  14.5322764  57.5796175  92.3346754   8.3270055  75.4187489  14.6561491
   7.3850822  75.5778122  14.5952249   8.6763018  75.7253456  13.8193572
  15.7862008  77.3958206  94.3922087  16.2566745  76.7628145  94.9346050
  16.4723229  77.9526520  94.0242358  10.1373208  60.8552694  87.0570096
   9.5473349  60.3538227  86.4942464  10.0433803  61.7594433  86.7572221
  64.3063021  60.3841639  23.7166762  64.6322155  60.1007748  22.8624511
  63.3935785  60.6244087  23.5571265  12.5501752 105.2838516  13.9895749
  11.7834902 105.3786850  13.4243906  13.2010925 104.8484325  13.4391713
  38.5206842  50.1344967  82.9550489  39.4658923  50.2837229  82.9316338
  38.1391048  51.0121441  82.9360636 109.5939726  71.6564941   7.4975085
 109.8882181  72.3477364   8.0906665 110.2303821  70.9515285   7.6168370
  31.9444537  35.2745152  50.4371834  31.4306331  34.4971085  50.6559467
  32.4128580  35.4869986  51.2444496  26.3595676  84.2095852  10.6520212
  25.4556870  83.8972950  10.6107891  26.3305020  85.0802040  10.2552783
  40.4264402  66.9790316  62.5766087  39.5089412  66.8236971  62.3523426
  40.5862284  66.4167833  63.3346176  52.8702068  52.1634579 109.6141540
  53.0433130  52.1480942 108.6728624  52.9214573  53.0892086 109.8520318
 103.3766574  55.4318142   0.0932242 103.2344455  54.6920967   0.6838362
 102.5342459  55.5542135  -0.3444914  23.9283681  84.0788174   6.4543015
  24.3249393  83.2234573   6.2889856  23.0192232  83.8817501   6.6798079
  30.1308203  99.2990208  21.5807009  30.6531739  98.8521576  20.9145975
  29.2283106  99.2161274  21.2727499   2.7049056  48.9512587  99.3456980
   3.1158349  49.7664738  99.6334394   1.9663353  48.8316011  99.9427136
  31.3421941  47.4370432   6.4998227  30.5818486  47.6225519   5.9487396
  30.9814405  47.3408604   7.3812062  47.4052286  48.9212370  83.7245401
  46.6788292  48.6340666  83.1712660  47.0578957  49.6728659  84.2047962
  19.3528807  77.3486042   2.6041958  19.2711079  77.1445084   3.5358018
  19.3294978  76.4962196   2.1693107  26.4657569  87.0754910  10.7564926
  27.1231890  86.8146801  11.4014697  25.7517791  87.4430370  11.2774289
 120.2349556 100.4738617  96.7134055 119.8558796 101.0604858  96.0588785
 119.6351475 100.5257416  97.4575623  38.5611081  67.2449017   8.0669147
  38.0415082  68.0473280   8.1154656  39.4689417  67.5439310   8.1184119
  35.5726480  71.2052870   3.6499947  35.8861613  72.0829105   3.8684332
  34.7123694  71.1478949   4.0657583  15.5909920  54.9905872  95.3790017
  15.7775486  54.7495270  94.4716331  16.3065255  55.5777979  95.6227788
  54.6129751  75.7891989  15.0019228  53.8568926  75.2320147  15.1866162
  55.3576088  75.3112411  15.3670382  20.7915282  79.5666361   3.5959002
  20.5128050  78.8111067   3.0784822  20.0649428  80.1858616   3.5261911
  18.2191122  76.6928244 104.8485320  17.8143644  77.3536634 104.2866560
  17.4900579  76.1422968 105.1342394 114.4894821  49.3084574  13.3168375
 114.8785705  49.5380449  14.1607153 115.0957019  49.6663666  12.6682770
  18.2745814  61.3562918  54.0643939  19.2146850  61.1828136  54.1128119
  18.1879365  62.0163584  53.3766230 119.7802318  72.0835018 104.9025961
 119.6560288  71.2962532 105.4327350 119.9068538  72.7849627 105.5414637
  29.6041965  50.2893639   9.2189586  29.3675303  49.6801853   8.5195851
  29.5310068  49.7728014  10.0214779  18.3479738  89.7942829   6.3983738
  17.5426841  89.3787003   6.7066401  19.0493715  89.2371845   6.7358881
 110.4486639  65.0616884  28.2040477 111.1782665  65.5763721  28.5490346
 110.2263755  65.4866266  27.3756480  12.8889298  53.7085867  22.9825544
  13.7521446  53.4387684  23.2960653  12.7277207  54.5465088  23.4162927
  32.5549960  37.7879572  79.8127946  32.9935431  37.1705699  79.2273530
  33.2689810  38.2440877  80.2582153  10.0587702  56.4420795  14.9311531
   9.3476033  56.7628670  15.4857409  10.7848525  57.0420027  15.1018310
  22.6203442  92.9333973  96.9303795  22.0776248  93.2646084  97.6459142
  22.4714899  93.5485840  96.2123140  61.9118166  66.3039541  95.7710799
  62.3594093  65.5950212  96.2329360  61.0777044  66.4001369  96.2306853
  22.5524378  41.9567442  23.3885908  21.8795419  42.6107311  23.5776544
  22.5508451  41.3830423  24.1548133 123.3330249  21.1843133   1.4281593
 123.9668218  20.6013131   1.8460619 123.6767775  22.0637631   1.5851112
  42.5180960  40.3148174   3.6279643  42.0852804  40.4665709   2.7878037
  43.0179596  41.1153078   3.7879223   9.9858171  33.3682680   9.8377699
   9.2538100  33.0713654   9.2971712   9.8773229  32.9003692  10.6657386
   2.1417403  44.1916275   6.6614527   2.5863093  44.9410629   7.0576018
   2.6488179  44.0022135   5.8720052  45.6360960  88.2907295  23.5251999
  45.2546597  87.5672722  23.0278540  45.4616117  88.0705643  24.4402480
  35.1481152  77.4140501  16.9012475  35.6972957  77.7031088  16.1724985
  35.1193476  78.1662416  17.4925256  10.8303607  64.2190123 101.5399101
  10.3081226  63.4585381 101.2846013  10.4043913  64.5471478 102.3318120
 123.2939390  43.1917953  26.3048267 122.5059489  43.7289762  26.2227201
 123.8119709  43.4063339  25.5290389  39.0146399  82.4458790  45.1082325
  38.1143880  82.1757698  44.9270582  39.1003227  82.3715591  46.0586882
 119.8670820  95.9159851  22.5207472 119.2191548  96.3961315  23.0363774
 120.4068617  96.5973186  22.1199393  41.9174051  64.0289545   6.1315793
  41.5090942  64.4941807   5.4014528  41.5804720  64.4670105   6.9131255
  52.4925566  61.6891718  37.4868631  53.0320597  62.3269939  37.9541492
  52.7737617  60.8408070  37.8295469 115.6485451 105.4716969   1.8739243
 115.4306698 105.0259781   2.6925182 116.0804070 106.2803936   2.1491316
  14.8927319  23.3456135   9.6188557  14.6519482  23.1682968   8.7095630
  15.6670415  23.9049292   9.5568776   8.4616071  52.2385693  26.3367820
   8.6259234  51.8977308  27.2160196   7.5923258  51.9079685  26.1103272
  18.9569187  12.3724282  15.3792155  19.3646097  12.8874433  14.6829534
  18.0254757  12.3665440  15.1587367  44.6629429  65.6843090  84.2423853
  44.1079140  65.6437683  83.4635838  44.4201231  64.9100494  84.7501167
  44.9282980  78.7592793   7.8548026  44.4616747  79.1608906   7.1218640
  44.2708015  78.2148886   8.2878965  49.5969057  89.1938305  35.0166893
  49.5472431  90.1485634  35.0640965  48.7630892  88.8924122  35.3774261
  23.3021355  35.3011131  12.5985944  22.9198146  34.7702813  11.8998230
  23.7841988  34.6748781  13.1386638  13.6877143  51.0294437  29.8462915
  14.1885960  51.2841225  30.6212020  12.8774250  50.6588125  30.1959944
   4.9146318  55.2918673  17.3789287   4.8225746  55.3038549  18.3316159
   5.1819021  54.3955612  17.1753848  13.2577097  90.2017784 104.4566556
  12.3497081  89.9403095 104.3036791  13.4810829  90.7450676 103.7008961
  47.3235846  71.8389034  94.7520121  47.3669338  71.5530109  93.8395330
  46.5864134  71.3522196  95.1207253  21.6268849  74.8657894  27.5789905
  21.2782335  75.5508852  27.0086217  21.2677836  74.0526962  27.2238064
  39.2725992  74.5343161  13.0826414  38.4665060  74.9735260  13.3538246
  39.7461176  74.3770313  13.8995087  27.4266839  55.9389782  34.6370482
  27.2894692  55.4980707  35.4755020  26.6460037  55.7280254  34.1249251
  42.1882582  45.9363365 102.6056900  41.3531017  46.3999891 102.5443205
  41.9766283  45.0307035 102.3792478  35.5919409  77.1871901   7.4825257
  35.6208730  76.6716576   8.2885170  34.7803760  77.6903486   7.5490433
   4.0252799  52.7439022  29.9896455   3.3367214  52.0961428  30.1397371
   3.5661444  53.5837460  29.9804139  52.7366352  69.5036411 100.6079116
  52.5596237  69.6328259 101.5396895  53.0647755  70.3509045 100.3067377
  24.5538449  95.7107925 100.9535261  24.0146112  94.9215508 100.9030720
  25.4541254  95.3857136 100.9607902  41.3750029  68.6883688   5.2860111
  42.1518517  69.2375231   5.3917152  40.6951952  69.2907143   4.9838966
  13.2228637  89.5744419   1.2497324  13.6172843  89.1064930   0.5137382
  12.2802246  89.4606781   1.1284000  25.0389981  43.2452106  39.1493058
  25.1827383  43.0670166  40.0787258  24.1298246  43.5404873  39.0998554
 123.4771011  65.0037718  13.2494974 123.8909713  64.7241783  14.0660584
 122.5473254  64.8140574  13.3750284  61.7133856  62.3510838  31.1378121
  61.9056511  63.0025196  30.4633498  61.1253929  61.7290688  30.7093382
  56.2800837  27.4937987  23.8980508  55.5994225  27.7732778  23.2858205
  55.8765507  27.5822210  24.7615170  89.5160389  83.8223553  96.7743095
  89.1022396  84.1792011  95.9883925  90.3658962  83.5013390  96.4727958
  62.8903818  58.0914402  41.9030142  62.7028370  58.7256479  42.5949955
  63.5718060  58.5075331  41.3750315  22.2387123  52.5900507  27.0913219
  22.9972887  52.8160954  26.5530825  22.2919250  51.6397762  27.1931791
  68.9314604  58.5608006   2.4470201  68.9978409  59.3413305   2.9971126
  69.8297834  58.2368279   2.3815389   9.5618558  34.0707040   3.9436772
  10.0471616  34.0842509   3.1187367   9.2365515  34.9652219   4.0449038
  28.9352655  33.5889244  22.1396589  29.0797710  32.6765513  21.8888092
  27.9832125  33.6879134  22.1451139  20.6690001  33.8811994  85.9157118
  21.2589502  33.7724090  86.6616019  20.4267907  32.9884243  85.6697019
  42.8471088  22.8698921  44.6832991  43.2116508  23.0820155  45.5425692
  43.1612301  23.5695171  44.1105127 119.0709741  60.9454727  94.4849511
 118.7238134  61.8308115  94.5939585 118.3478159  60.3717709  94.7382148
  44.9925423  76.3665581   1.2092248  45.0371981  77.3060799   1.3868162
  44.4579935  76.2974691   0.4182024  44.0384579  89.6503735 105.8868026
  43.4892321  89.5086193 105.1157751  43.4553909  89.4904613 106.6288879
  54.0868807  23.7983274  96.0665008  53.2061100  23.7829161  96.4409836
  54.1390514  22.9979706  95.5440649  53.0225277  48.3369875  15.4995811
  52.3441315  48.9599895  15.7601202  52.7389669  47.5032997  15.8747983
  68.0097246  50.7297230   5.2802712  68.4845877  51.0817766   6.0331273
  68.1017685  51.4007521   4.6038997  26.4731216  65.0052834   8.8813466
  25.7494235  65.1957321   8.2845026  27.1622729  64.6537542   8.3176732
  15.6239533  46.6080952   7.1055013  16.2605691  46.2185001   6.5061933
  15.9998941  46.4728165   7.9753286  31.5091681  94.5102024   0.4115243
  31.8824697  94.1691494  -0.4012265  31.5988779  95.4602051   0.3361658
  45.3932285  32.5692415   0.6863889  45.2516222  33.5143423   0.6319308
  46.2160349  32.4776316   1.1668337  65.4884338  39.4073558  12.4024105
  64.8890877  40.0923252  12.1060479  65.3289557  38.6753392  11.8066335
  46.8857670  76.4454269  25.9125948  46.0495138  76.0388947  26.1398506
  47.1880054  76.8438911  26.7287493  52.3157310  55.1932526  35.8248329
  52.8822422  54.7421503  36.4507699  52.3675966  56.1154032  36.0762000
   4.0440863  76.4069223 102.9532399   3.0974936  76.5369225 102.8958496
   4.1567111  75.7781792 103.6661425  30.7988191  53.3487606  44.5198917
  31.5698385  53.6407948  44.0335989  30.4652309  54.1421127  44.9388647
  66.5935373  15.9591663  15.8360898  66.0298061  16.3022804  16.5294218
  66.1351681  16.1775649  15.0246525  10.7660151  86.1595154  89.1841086
  11.4898896  85.8405304  88.6451396  10.8167362  85.6388855  89.9857327
   6.6563481  19.7650254   5.7937121   6.5495008  19.1884077   6.5502352
   6.2163138  19.3057084   5.0784290 117.1209324  51.2060595 104.7381612
 116.3402904  51.6075134 105.1198175 117.0535857  50.2806044 104.9731790
  25.5708528  59.5011330  96.9829639  26.2557888  60.0508738  96.6023334
  24.8436594  59.5611811  96.3634344  15.8004057  72.5671482  16.4706981
  15.2961457  72.8306913  17.2404373  16.4844143  71.9941378  16.8171382
  17.6968765  58.3839178  13.3911932  18.4659600  58.0165768  12.9555261
  17.0048606  58.3419323  12.7312064 102.8481836  37.7521157  30.6195855
 103.8042874  37.7603483  30.6646657 102.6532978  37.5586081  29.7026300
  46.5070629  57.1677208  87.0051821  47.1857309  56.8041039  87.5738891
  45.7963228  57.4039221  87.6012405 108.9927346  76.6609812   2.2924078
 108.1160230  77.0198631   2.4295503 109.5478565  77.1444654   2.9042205
  52.5190449  75.2640867  97.5755628  52.5777245  76.1839008  97.8338870
  51.7016315  75.2059078  97.0809051  56.5162468  56.0529709  37.3484015
  57.4294615  56.1178780  37.0690227  56.1456108  56.9146538  37.1577001
  18.1543577  79.7888279  21.4702582  17.6850140  79.4092846  22.2131562
  17.6382053  80.5578136  21.2284350  11.1911237  40.9425116  97.0025190
  11.2681603  41.0336447  96.0527869  10.2622068  41.0873032  97.1824607
  33.5812378  83.8242435   9.5036632  34.0172410  83.0163574   9.7746730
  34.2017388  84.2427158   8.9069349  47.2714567  37.6363111  89.4981583
  46.6040993  38.1195736  89.0110024  47.6999903  37.0897222  88.8394984
  11.8809557  33.9426231   2.1328098  12.7875805  34.0555334   1.8473026
  11.5235770  34.8303962   2.1520394  52.3853588  71.7888784  76.2996300
  51.6622639  72.1017647  75.7560619  52.0305681  71.0243177  76.7532762
 103.9358110  31.6126847 106.3959303 104.3033261  30.8426976 105.9620097
 103.8278336  32.2544575 105.6940051  55.9344292  76.7841339  54.0037870
  56.1634254  77.1169376  54.8715639  55.6261969  75.8920240  54.1630697
  74.9564171  70.7425642  99.0812966  74.9856853  69.9454784  98.5521146
  74.0402317  70.8198071  99.3475064   5.6163555  37.6456833  46.7246151
   5.4704314  37.0665574  47.4726486   5.6433827  37.0587254  45.9689808
  24.2694068  86.5629196  25.9555984  24.3434596  85.6325150  26.1679602
  24.5957875  87.0131302  26.7347074   6.0206866  50.2742434   7.5829601
   5.9376997  49.3701029   7.8860742   5.5007058  50.7838631   8.2043606
  25.2636671  43.3387470  79.0530165  25.9131312  44.0415049  79.0294822
  25.5124593  42.8079271  79.8096975  22.2271204 100.5845642  26.8080592
  23.0027127 100.0473595  26.9696212  21.6352153 100.3739452  27.5302243
  41.7490053  25.7944059  92.4545383  41.9280720  26.6022444  91.9733238
  42.3466015  25.8232284  93.2017136  36.5615225  81.9907379  90.8107567
  35.9759688  82.0575142  90.0564957  36.2574983  82.6715374  91.4110088
  18.3955169  50.3167152  79.8514652  18.6420691  50.8369017  80.6162262
  19.1524208  49.7531796  79.6909761  23.8586569  37.9289293  43.2550947
  22.9935837  37.5958276  43.0165044  23.9013100  38.7957025  42.8512136
  53.4612274  36.7471528 102.0204067  53.8085413  36.6500068 101.1337471
  52.7246380  37.3508358 101.9242954  39.4047117  27.6505733  72.9796934
  39.0628886  28.4723473  72.6274490  38.9569592  26.9699526  72.4771929
  27.8387523  32.8989315  76.7120695  27.8840065  32.1076417  77.2487640
  27.4448538  32.6082397  75.8895254  37.7229691  62.6408529  88.0564785
  37.4278069  62.5196600  87.1540260  36.9674516  62.3955536  88.5905647
  36.5384626  42.9247332  69.5291615  36.8203497  43.5590410  70.1882744
  36.8734956  43.2729864  68.7028980  11.8871617  54.6545792   7.6595060
  11.5697563  54.5414400   8.5554353  11.9839454  53.7628555   7.3252908
 108.0172927  29.3567038  16.0776559 108.1408138  28.6502123  16.7115728
 108.7117559  29.9837613  16.2795297  56.1908007  56.1446953 108.3782005
  56.5993404  55.7831335 107.5916862  56.8197536  56.7908478 108.6993504
  44.3117523  34.2672944  22.9722730  44.5911932  33.3587360  23.0848256
  44.1230440  34.3457437  22.0371381 120.4369814  27.0964050   5.4572145
 121.1572195  26.7493486   5.9835569 120.8561755  27.7063942   4.8502389
  43.9387655  22.8062034  21.2822477  43.1431675  23.0448222  21.7579786
  43.7650728  21.9247341  20.9519807  50.1310349  47.5645971  89.8314571
  50.3580666  47.4874210  88.9047813  49.7270060  46.7247677  90.0498104
  20.9223223  47.0183468 100.0436592  20.6169868  47.9074669 100.2238560
  20.1260543  46.4871359 100.0432205  22.6733327  63.4211540  95.2393436
  23.3532095  63.0958128  95.8293915  22.4385357  64.2786121  95.5941200
 106.3246650  51.8710279  89.9225140 106.3664288  51.1949587  90.5988407
 106.7858345  51.4907265  89.1749001  33.1097651  38.9275193  97.1422100
  33.8427424  38.3457589  96.9408894  32.4354506  38.6926126  96.5047550
  21.5805531 139.8352576   1.6900483  22.1366000 139.7564597   0.9149114
  21.2722158 138.9442564   1.8552057  21.3146353  22.5939822  26.6827146
  21.9445252  22.3949766  27.3754445  21.2441897  21.7810655  26.1822835
  18.9484262  20.8077240  99.4381523  19.0736723  19.8637640  99.3407631
  18.0595756  20.9654951  99.1198921  11.9177902  80.2090740 108.7609291
  12.8637433  80.3312111 108.6803913  11.5523148  81.0861206 108.6449718
  29.4118428  83.8133717  67.9043436  30.0644302  83.1139755  67.9390526
  29.0980172  83.8930511  68.8051176  11.5076327  76.3697052   8.1455079
  11.4684427  77.3014641   8.3611909  11.9615054  75.9708881   8.8879243
 117.8490914  45.9966564   5.5156175 118.1013728  45.9523153   6.4379064
 118.6573107  45.8121920   5.0370923  37.2833967  57.7549362  76.7832565
  37.3177767  57.3726702  75.9063721  38.0269814  58.3570337  76.8113804
  19.2846584  17.2551644  73.5227346  19.3070757  18.0768263  73.0322218
  18.3579993  17.1195257  73.7205648   9.2764348  31.9431067 101.2458324
  10.1809883  31.8131113 101.5306473   9.0215546  32.7807307 101.6326904
  21.6391301  64.1154575  77.4052572  21.4030313  63.5096121  76.7028046
  22.0914292  64.8326397  76.9610643  15.1698518  60.2060175  90.4357147
  16.0746992  59.9618769  90.6303406  15.1609373  60.3587723  89.4908237
  72.4745369  19.0633190  90.1936722  72.4963188  19.9622929  90.5217075
  71.7918921  18.6360478  90.7110405  24.7760367  48.1197643  78.4378529
  24.3734574  47.4180126  77.9262829  25.2722096  47.6654387  79.1187620
  39.8324466  49.1271305  13.5079519  40.0857544  49.5787573  14.3130056
  39.7066283  49.8287868  12.8691427 122.6337054  47.7366734  21.8267480
 123.2647893  48.4280777  22.0265714 122.3758528  47.9025126  20.9199754
  14.4881022  30.8557582  14.9264947  13.9514315  30.3919172  14.2837945
  15.3142047  30.3724980  14.9421636  37.9446006  68.4853172  79.8179722
  38.5219145  68.3815002  80.5743885  37.9681230  67.6344442  79.3801498
  88.8636131   4.6254739  76.6553402  88.1634540   4.6403405  77.3078680
  88.5287351   5.1562357  75.9325838  25.8916688  40.0088406  93.9447403
  25.2716017  40.1008034  94.6681213  25.8923674  40.8663464  93.5193920
  17.9000998  39.9825931  91.7895985  18.2832634  39.8952293  90.9167957
  18.5294688  39.5561957  92.3712540 118.6739791  47.5285769  97.3675823
 118.0468888  47.9365444  96.7704582 118.5037196  47.9429865  98.2134628
  42.8737450  27.9328823  36.5044824  43.7273550  28.2338190  36.8159620
  42.7203321  27.1155810  36.9785253  66.9705677  94.7643185  64.7621202
  66.5289354  93.9259720  64.6265936  67.5770426  94.6015072  65.4845572
  31.0621262  54.9294043  95.0597477  30.5933142  54.2973995  95.6047440
  30.4108286  55.6011820  94.8578548 123.7014747  33.8359880   3.1947080
 124.2537964  33.7050438   3.9654390 122.9959214  34.4063926   3.4997789
  37.0487213  76.6570616 103.6434269  36.7419147  77.0625973 104.4543839
  37.3288155  77.3927021 103.0988121  32.9167247  44.2102623 107.5048161
  33.3416367  43.5410166 108.0412769  32.7908897  43.7906981 106.6537189
  24.2457986  69.0201235  99.0738106  25.0775623  68.5475159  99.1060543
  23.6007905  68.3538628  98.8365555  57.4314594  95.5661583  79.1613817
  56.8077993  94.8576164  79.0024710  58.1404781  95.1547909  79.6556520
  17.2385895  34.7914553  87.3837852  17.2658622  34.2474294  88.1708813
  18.1561005  34.9931026  87.2000885  29.1637588   8.5802209  82.3603058
  29.2176843   8.3702844  81.4279747  29.6727037   9.3854332  82.4543285
  42.3522949  45.7447243  82.8710651  42.3783731  45.1252460  83.6003113
  43.0800200  46.3433695  83.0391979  14.1747451  39.8091841  84.6831703
  14.3384492  38.8754058  84.5509148  13.3585513  39.8409319  85.1822186
  19.0442359  98.5171890  13.4636537  19.6660340  98.0268860  14.0014306
  18.1902552  98.3284283  13.8526479  45.4769945  89.5514488  88.8091660
  45.4151011  90.0161362  87.9746151  46.3755035  89.2223740  88.8339996
  58.4584713  50.9854078 108.2874298  58.5069418  50.9349823 109.2420769
  59.3208981  50.6973791 107.9882812  20.7369995  54.4502068  88.8417053
  21.6664314  54.2373323  88.9257908  20.6748414  54.9294472  88.0154514
  53.6122274  53.7998056  33.6036626  53.6201429  54.4519520  34.3042795
  52.6835394  53.6384630  33.4371129 115.3797341   6.8408900  84.7182083
 115.8599890   7.1630961  85.4809475 114.5622546   6.4964789  85.0778484
  43.9854813  51.2716341 104.7519493  43.1159067  51.0492659 105.0845528
  44.4385433  50.4310894 104.6852112  18.5432947  13.7223256 105.7260704
  18.5117495  14.5897460 105.3225613  17.6423132  13.4027553 105.6777000
  70.5452919  49.2896128 103.5690880  70.0218868  48.6395025 104.0377426
  70.6898308  48.9032412 102.7053452  16.9783914  53.0091524   9.6243230
  16.4266562  53.5762453  10.1630441  16.4247870  52.2535944   9.4271222
  20.7243562 136.4296014  92.1921539  20.1239109 135.7333727  92.4585438
  21.5740323 135.9959359  92.1132946  12.4200416  67.9844522  22.5756589
  13.0517757  68.5266685  23.0480520  12.0592690  68.5654402  21.9059411
   5.7441956  78.4326506 101.9322968   5.5273837  78.0127573 101.0998821
   5.4967862  77.7894402 102.5966072  27.7196050  33.5336995  85.7657337
  28.6660814  33.4558439  85.6459236  27.6032019  34.3702841  86.2160778
 121.7121620  33.6977124 108.7683964 121.9418392  34.4937277 109.2478085
 121.5542979  33.9949346 107.8723145 123.3726143  26.4474082  26.6015569
 122.5269813  26.6681647  26.9919435 123.7262385  27.2863173  26.3059083
 122.0137761  47.8209543  15.6734124 122.7267355  48.1056786  15.1017038
 122.3986069  47.1269941  16.2087194  26.5167236  59.1868734  89.9051189
  25.8402443  59.8614025  89.8449802  26.2478614  58.6433840  90.6457710
 123.5413571  35.5967832  96.7577934 122.8055809  35.7194066  96.1579418
 123.1582791  35.6935430  97.6296425  33.8666368  81.5859127   7.3156110
  33.4769535  82.3462391   6.8839971  33.9908123  80.9487247   6.6121904
  82.9942226  45.6588125  54.6686363  82.3743248  45.0005531  54.3545485
  82.4836922  46.2008810  55.2700996 114.0506024  27.2207594  86.5539455
 113.3523721  27.6244378  87.0694542 113.6094934  26.5417218  86.0434914
  21.4106655  26.5710640   9.9866048  21.5382433  26.6206741  10.9339658
  22.2950864  26.4890933   9.6297971 119.9747441  45.0456858   1.2634031
 119.1745800  44.5360136   1.3906995 119.7253597  45.7326365   0.6452314
  52.6603556  58.2970715 100.7847881  51.7323399  58.4609842 100.9525871
  52.7020645  58.0904055  99.8510933  52.2490740  54.3352985  98.1645870
  52.2659969  53.5738087  98.7443066  51.7179060  54.9801874  98.6317158
 120.3812576  76.2365007  27.4179784 121.0779191  76.7697048  27.0351068
 120.3918702  76.4608049  28.3484689  71.6844940  14.8005605  77.7069330
  70.9324789  15.3606224  77.8993750  71.6433239  14.6610045  76.7608547
  31.6863680  89.9623966  95.7752323  31.4735961  90.8813477  95.9379864
  32.6107717  89.8851395  96.0113239  28.2700372   7.5104409  52.7690506
  28.4753537   7.3112357  51.8556023  28.2782817   6.6595739  53.2074451
  21.5651536  32.3195791 100.9153080  21.0765767  33.0067205 101.3684750
  22.4702883  32.6309586 100.9131145   5.0515193  58.0121946  82.5206566
   5.6311679  57.2526836  82.4625492   4.2483252  57.7347803  82.0800304
  34.7462583  48.7983084 106.7445564  34.2525268  48.3345795 106.0682297
  34.6718049  48.2415628 107.5196171  20.1556587  45.6821728   1.5411607
  19.8830879  45.0210571   2.1774427  20.6815815  45.1988411   0.9039537
  36.5012884  24.7726059  57.1880054  36.3575697  24.0764689  57.8290796
  36.9326234  25.4689622  57.6832581  31.8270659  74.2630243 101.3585854
  32.1939945  73.9224863 102.1744442  32.4776530  74.0412521 100.6924152
  32.8188491  54.8863840 106.9273949  32.4225044  54.2332363 106.3507271
  32.4064517  54.7365522 107.7781105  56.8984032  39.1117859  12.9815236
  56.5143585  39.9876881  13.0207387  57.7754021  39.2505789  12.6239721
  24.9175572  79.3709469   9.4779340  25.3422475  80.1938915   9.2358152
  24.0149450  79.4689608   9.1747609  19.1058409  98.6862278  71.6052151
  19.1439760  98.8751316  70.6676149  19.8518860  98.1077957  71.7635393
 104.1097087  59.3643284  54.0915537 103.4115977  59.9964905  54.2625523
 104.9160284  59.8772144  54.1465855  20.6900549  57.5692844  79.9497604
  20.3629541  58.4436989  80.1610279  21.6216087  57.6985979  79.7716665
  29.3595171  45.1274824  92.3722363  28.4452462  45.3385735  92.1830750
  29.8140049  45.2651215  91.5411377 110.4579515  16.4492977  81.6600800
 110.1145834  15.8051562  82.2792816 109.9669845  16.2917101  80.8536434
  18.3950305  75.9618711  90.2482033  19.3282676  76.1645937  90.3130531
  17.9746020  76.5728521  90.8533287  30.1688433  42.2888136  80.7885551
  29.3786502  42.2391224  80.2506351  30.8770442  42.0316410  80.1981831
  61.1573315  78.4871149  14.0988008  61.9518089  78.9971399  14.2566339
  61.1528587  77.8293705  14.7942010 119.7425867  70.3502941 107.2391319
 118.8716627  69.9862432 107.0804214 119.7045386  70.6795931 108.1370926
 124.7507990  67.8222561  16.1001722 124.2914241  67.2716141  16.7342035
 124.4276768  68.7066317  16.2725202  39.0481019  56.9235182 103.6523151
  38.2991815  56.3500166 103.8149261  39.2757487  57.2705603 104.5148563
 100.0716609  41.5580702  85.0594997  99.7566814  41.9874811  85.8548832
  99.3139405  41.5516663  84.4746494  50.2368689  79.2330265  97.2435665
  50.1398659  79.1890860  96.2923145  49.9871159  80.1292419  97.4686432
  67.3817635  87.9153538  99.0024948  67.3377991  86.9946575  99.2605972
  67.7829981  88.3553028  99.7519588 121.7423905  54.0113974   7.8010312
 121.8886170  53.0695391   7.7129976 121.4160255  54.1206598   8.6942140
  39.3403125   9.9260318  88.2709122  39.2260313   9.5126522  87.4151707
  38.9923787  10.8105791  88.1579876   7.2915745  26.3990331  82.0478344
   6.4077830  26.7332268  82.2009945   7.7100939  27.0680737  81.5061188
  10.0944126  16.9844270  88.7044144  10.3996015  17.1617341  87.8146648
   9.4381994  16.2954772  88.5997009  25.3316927  41.8484449  91.9613171
  25.4333210  42.4624205  91.2340450  25.0236726  41.0402536  91.5512276
 107.1519918  16.7173469  83.1102467 106.6694898  16.4836848  82.3172665
 108.0725498  16.6103137  82.8707695  26.5557528  47.9649925  89.7177410
  26.5227795  48.0378389  90.6715965  26.3824677  48.8524246  89.4036198
   0.5114065   5.3684038  66.5233612  -0.4121055   5.1172715  66.5063429
   0.4995888   6.3153207  66.6627884  11.9198513  63.0535936   3.7805406
  12.7393878  63.3993292   4.1341821  11.9721913  62.1101189   3.9333574
  44.0530586  12.2057617  87.0900059  43.2619667  11.6674185  87.0656586
  44.1598558  12.5153625  86.1905766  49.1306686  62.9119682  85.1357746
  50.0307560  63.0967236  85.4039955  48.6419868  63.6981440  85.3794003
  32.1558952  39.0570307  32.7263871  32.9834533  39.5207071  32.5983850
  31.5432358  39.4924259  32.1336690  17.4919415 104.0529442  82.8348446
  17.1128201 104.1512966  83.7082386  16.8006968 104.3430042  82.2396278
  12.6134777  58.0105972  87.6691532  13.4469366  57.6942778  88.0177498
  12.0876455  58.2049179  88.4450245  43.8988829  42.0972013  11.5312997
  44.3591928  42.9123640  11.7309228  43.0989170  42.3766994  11.0861341
  77.8867292  61.5048170  78.7506533  77.7234364  62.0041895  77.9505301
  77.0342350  61.1350918  78.9804125  23.0523658  52.5036812  47.1013395
  23.7479353  51.8537807  47.0011083  22.2601342  52.0538330  46.8076745
  34.4046164  34.7477221  10.8129064  33.5373831  34.8704267  10.4267923
  34.9879479  35.2702522  10.2625219  12.0868206  19.0366971  62.5352907
  11.5918505  19.2285514  61.7387772  12.7157891  18.3654583  62.2705841
  36.4635444  60.5569983  81.4223099  37.3945618  60.5560446  81.6446495
  36.4322209  60.8854723  80.5237770  51.6855097  42.1754408  87.0691776
  51.1716795  42.0265484  86.2754250  52.5267839  41.7544460  86.8923855
  24.7719646  66.3233995  27.6527349  24.4156003  65.5472279  27.2205392
  24.5348477  67.0491266  27.0753900  51.1700678  54.4222164   9.4537679
  51.3869095  53.7567425   8.8008157  50.3752661  54.0946674   9.8747579
  17.7878499  46.2658167   0.3195325  18.5748577  45.9706879   0.7775251
  17.3370743  46.8239212   0.9532110  17.1054149  30.5872440  11.2797681
  17.4229312  29.8357463  11.7804376  17.8533006  30.8512807  10.7438794
  19.8799431  19.5356381  11.3196603  18.9897645  19.4352710  11.6569082
  20.2341866  20.2852702  11.7979757  25.4808187  36.6683602  92.0434666
  26.1050630  37.0086718  92.6843548  24.6471047  37.0731306  92.2828770
 124.3103234  45.9524632   8.1614629 124.0791637  45.2813482   7.5192777
 124.6725451  45.4627562   8.8998548   8.6845368  28.2362700  38.9466802
   7.8637600  28.4963608  39.3649045   9.0436226  27.5615025  39.5228616
  25.6927156  23.6695933  95.7130623  25.3950453  24.4615626  95.2653885
  25.7578993  23.9247918  96.6333103  42.5863981  40.7843828  93.8298798
  42.3289585  40.1751232  93.1379604  42.7018547  41.6218185  93.3808708
  17.8723323  36.7499804  11.6280690  17.4739742  37.5436378  11.2707845
  17.3263586  36.5263963  12.3818246  31.4363456  89.2605782   3.4992639
  30.9196591  89.9742889   3.8732854  31.6592145  89.5622253   2.6185933
 124.1761733  53.4173775  98.8660240 124.2598347  53.8537645  98.0182076
 124.2179036  54.1277695  99.5062065 123.4467075  24.2875195  19.5157472
 123.7546079  23.6993670  20.2053205 124.2212004  24.7926593  19.2683069
  10.8527255   4.4859904 105.2758026  10.8416629   5.4395425 105.1930523
  10.2080286   4.1826147 104.6366215  21.3885975  25.0913668  31.1633531
  21.1133623  24.2612839  30.7742063  21.9560027  24.8380756  31.8914548
 123.3858881  20.2380228  84.5214844 123.0132060  21.1098766  84.3902969
 124.2231481  20.2632523  84.0582466  33.7958145  19.6715105  99.9969196
  34.7140050  19.4160914  99.9079323  33.5483527  19.3744624 100.8725643
  35.6231546  63.0810452   2.3160974  35.4664350  62.1368217   2.3265020
  36.4639235  63.1891966   2.7606717   5.1278782  42.7787447   6.5307561
   6.0565656  43.0086613   6.5006105   4.7244796  43.3222771   5.8539430
  37.4503136  40.1424885 102.1253777  38.1205773  40.2064562 102.8057384
  37.2505379  41.0510254 101.8998051 115.0434060  52.2669506  85.1963329
 115.3354079  53.1042242  84.8358727 115.7223672  51.6443729  84.9362469
  31.2851024  80.8274937   8.4333841  31.2970352  81.7846107   8.4374181
  32.2066236  80.5767441   8.3689252  24.9636173  56.8092299  97.2124672
  24.8472381  56.5349388  96.3028240  24.9616599  57.7657461  97.1763229
 107.4861783  55.7185364  15.5675641 107.2063894  55.2653217  16.3628904
 106.7037458  56.1812925  15.2677575  39.2273951  14.9536240  13.8096467
  39.2270803  14.0201426  13.5978833  38.5423160  15.3254771  13.2541124
   7.1693355  56.1347866  54.6759701   6.3049948  56.5272760  54.5530844
   7.0966572  55.6475735  55.4966831  38.7878728  48.4493065 104.6231937
  38.2936835  47.8627920 105.1959229  38.4541130  49.3224812 104.8291111
  13.0172622  49.1065073  74.1289330  13.3522701  48.4314632  74.7191191
  13.2962108  48.8232803  73.2581854  30.1848626  42.4003649  88.4328842
  30.4826212  42.4377298  89.3418312  29.5021725  41.7294216  88.4318829
  31.8100405  31.6952586 104.5223904  31.6770864  30.7479000 104.5550823
  32.7183938  31.8000078 104.2392731  35.6417894  24.8010015 100.4585075
  36.1775970  24.7156692  99.6699238  35.5710959  25.7451892 100.5990314
  16.7126787  39.4292736   1.4679376  17.4105740  40.0826931   1.4209024
  16.4850140  39.2558098   0.5545369  10.5917621  65.8855057 103.7246609
  10.8476615  66.4988232 103.0357552  10.0216091  66.3956928 104.2998695
  29.6446395  15.4419935  73.0911827  29.2418337  16.3082325  73.1512642
  30.2832294  15.4248369  73.8040209  41.6033554  42.9781008  10.5124132
  41.8658113  42.7982664   9.6096364  41.1257172  42.1941853  10.7836572
   5.5050045  32.9761243   2.4063150   6.3551134  32.8572941   1.9827310
   4.8789889  32.5743437   1.8038980 119.6590001  52.0909786  83.4333515
 120.2208299  51.4803648  82.9561424 119.5165498  52.8133726  82.8217220
  61.5684605  51.4927959  82.5880241  61.5318251  52.4488544  82.6171398
  60.7340622  51.2329149  82.1975517  80.2069950  75.5931711  80.5798626
  80.5875206  74.7636509  80.2911854  79.6588802  75.8732176  79.8468018
   0.0238265  41.4384556  98.4485054  -0.1267835  40.6907177  97.8702068
   0.1611846  42.1765900  97.8547764  99.5602865  19.7211874   5.7828084
 100.0848407  19.1455650   5.2262632  99.2244906  20.3902268   5.1862661
  23.8053846  38.8001633  31.8747560  24.2972255  38.2333446  31.2805787
  24.4188833  39.4989395  32.1018354  36.5406203  44.2068005  94.7961235
  35.9184051  43.4812069  94.7452068  36.6616154  44.4827557  93.8875866
   9.6621913  56.2025309  87.2788239   9.7770631  57.1135616  87.5491142
   9.3289185  55.7611227  88.0600548  37.6853299  35.3262210  77.9246473
  36.9573784  35.6158805  77.3747253  37.3612118  35.4206657  78.8203335
  54.5985699  15.7934141   2.4455396  54.0106440  15.0443101   2.3484842
  54.0145111  16.5477765   2.5233022  39.8885918  32.0427966  82.6352406
  39.5804739  32.8286004  83.0866909  39.2450476  31.8970895  81.9418049
  45.5180311  28.5997438  93.7298489  44.7613049  28.8415360  94.2638206
  45.6396198  29.3413520  93.1369972  35.9680510  51.9538307  12.9421941
  36.3419747  51.5189171  12.1758596  36.1572647  52.8823137  12.8067437
  15.4909170  38.3782244  32.6436845  14.7050762  38.6686993  32.1807519
  16.0516000  39.1534495  32.6735822 107.3131687  34.4815755  88.1939983
 108.2260878  34.3287277  88.4378147 107.0745332  33.7179351  87.6685047
  45.1636314  82.2269440  75.6428289  45.1940680  82.9646587  76.2519932
  45.6902742  81.5472031  76.0633421  60.3267193  86.8426704  83.1838322
  59.5461369  87.1659660  83.6337185  60.8722162  86.4796257  83.8815880
  13.2652462  64.7579813  62.4173307  13.6366475  64.3320894  61.6447353
  12.6118672  65.3631115  62.0664024   2.1568204  26.9954133  15.6147138
   2.2244331  27.9350901  15.7840101   1.2442741  26.7819977  15.8095018
  71.1219263  13.3975291 109.0794373  71.3912106  14.0671563 108.4506989
  71.2532711  13.8058209 109.9351692 124.1612694  51.9953299  92.3768425
 123.3983768  52.2904634  92.8739643 123.8744267  51.1844015  91.9569016
  16.9958496  70.6341457   3.7754861  16.4542365  71.2036610   4.3218652
  17.4028230  70.0263214   4.3928663  12.0936108  44.6087503 101.1377907
  12.3800170  45.4512072 101.4905930  11.1551571  44.5777893 101.3237381
  37.3193145  39.0296602   1.3240377  37.3580766  39.9560499   1.5617982
  37.2580194  38.5698557   2.1613256  44.0869284  21.5408754  88.9091015
  43.3208418  21.9129014  88.4721375  43.8222027  21.4552259  89.8249722
  32.7771568  74.9522591 107.0256615  33.1307888  74.1270971 107.3577595
  33.3796930  75.6200886 107.3530579  25.1817036  66.5884256  77.5444746
  24.5209670  67.1382046  77.9656649  25.7814550  66.3505268  78.2515335
  10.6562877  20.4068208  72.6072311  10.1936817  21.1987376  72.3331928
  10.4718065  19.7704864  71.9163799  27.0663929  63.5319567 105.7888031
  27.8283644  63.5577822 106.3675690  26.8869901  64.4504738 105.5878830
  44.5446539  71.5069437 104.5581245  44.4655704  71.5072966 103.6042023
  44.1052389  72.3109245 104.8351860  66.3273144  41.3256645  97.8953934
  66.0121202  40.4329729  97.7539921  66.8574476  41.5178156  97.1219158
 110.5010659   8.4492832  32.3603097 110.1222188   7.8730643  31.6964761
 110.2706391   9.3320990  32.0708791  32.3113132  39.4587064  87.7338314
  32.4390364  38.7979817  87.0531273  32.3882627  40.2945518  87.2737598
 109.2472202  52.0554113  84.2834187 108.7637264  52.7399254  83.8209152
 110.1511509  52.3698616  84.2995548   8.9025760   2.3503694  93.0368042
   8.8682485   1.7564040  92.2869682   7.9866862   2.4759278  93.2850266
  45.9601974  66.4398766  70.8845901  46.5542173  67.0685577  71.2946272
  45.5782413  65.9577560  71.6180134  42.1130085  76.1686563  88.5527229
  42.5671530  77.0099163  88.6003304  42.7904510  75.5452585  88.2906437
  60.8250618  55.3545141  34.3276254  60.7936382  54.9270535  33.4717504
  61.4238882  54.8143864  34.8432771  61.0470819  29.5368171  97.9255009
  60.8286905  29.4177985  98.8498211  60.2625084  29.2540717  97.4556828
  27.0129752  57.5596571  67.5816488  27.9012418  57.2720909  67.7926445
  26.6370678  57.8140831  68.4243822  35.6647158  36.4128804  28.1897926
  34.9758673  36.8045545  27.6528454  35.8512688  35.5750036  27.7662468
  16.8985629  75.8791780  71.5245914  16.7429066  75.4198408  70.6993532
  17.4789071  75.2981377  72.0163488  40.9663439  84.8852062  68.8935280
  41.8107176  84.6497726  68.5090351  40.5428410  85.4272175  68.2278681
  14.8415112  55.8734465 105.2994347  15.6970549  56.0649300 105.6836319
  14.9315131  56.1206388 104.3790913  32.4446654  49.3986988  56.3694477
  33.2862210  49.0006256  56.5920544  32.5448060  49.6772909  55.4591751
 109.3816311  64.4538260  34.8308325 109.2750461  63.7309933  35.4492021
 109.6169061  65.2037239  35.3772163  55.0069332  42.1616268  90.1470566
  54.2811918  42.7757883  90.0359631  55.0118351  41.9635201  91.0835171
  17.6409090  69.1510534  93.8214493  17.1758914  69.6816921  94.4683075
  16.9615710  68.8720274  93.2075500  22.1323848  59.5638180  66.6670656
  21.9372201  59.0754461  65.8672953  21.4269328  60.2074385  66.7328501
 101.9332952  52.5245333  76.4908934 101.1624283  53.0858660  76.4078093
 101.6518063  51.8150425  77.0684910  28.5664701  25.7694364  58.3615255
  28.0416536  25.2294588  58.9524794  27.9586792  26.4372945  58.0440569
  24.8326087  40.7611656  70.9931135  24.6938658  41.6885328  70.8008432
  25.5767512  40.7500839  71.5950775  14.5500481  28.2886410  18.4418050
  15.2460754  27.6360226  18.3652154  13.9707649  28.1090307  17.7012674
  34.6773911  36.8124819  60.2673340  34.1539335  36.7923546  59.4661999
  34.2500019  36.1834049  60.8485651  72.8059292  54.7464418  90.1887703
  73.2496119  55.5003023  89.8000908  72.0767641  55.1247931  90.6800938
   5.0467181  49.4377136 107.9656696   4.4236887  49.9285936 108.5014915
   4.6188736  49.3582678 107.1131039  11.3571978  48.8777161  15.4412118
  11.3901079  49.8331451  15.4891530  10.7201147  48.6943483  14.7507516
  58.1248569  55.9001446   0.9999124  58.1568050  56.8564224   1.0270540
  58.7683153  55.6578064   0.3339807  45.5161524  63.0531168  89.7130871
  45.8067513  62.4678707  89.0136051  44.9632549  62.5048828  90.2698421
  11.1395836  64.7554827  98.0308723  11.7704451  64.0859652  97.7663136
  11.6567039  65.3881931  98.5293674  46.7092848  34.4110870  86.1097527
  47.1357632  33.6189556  85.7828331  46.0267448  34.5989275  85.4654789
  62.2193527  69.7987747  91.1864376  61.8154335  70.6231833  90.9154701
  61.5158844  69.3201399  91.6249371  50.6991100  56.6119242  85.6092644
  50.3363419  56.5408039  86.4921951  51.0538530  55.7421303  85.4252911
 117.4652684  25.7701564  95.0224686 118.3665038  25.9963799  95.2523136
 117.0733321  25.4809332  95.8464622  24.1550469  48.2412386  64.5536327
  25.0535512  47.9643154  64.7331715  24.1626692  49.1874599  64.6980143
 118.1060613  55.1212406 106.4339256 118.1985754  54.7810459 105.5440140
 117.7714652  56.0103798 106.3168621  26.9093990  81.1525345  88.2424736
  27.0528460  81.8081856  87.5599861  25.9936070  81.2673378  88.4961987
  19.4311094  57.8198862  89.1443157  18.7607718  57.5831985  88.5033321
  20.1221490  58.2331371  88.6266994  29.0477705  81.8242264  83.8948536
  29.8441029  82.3249054  83.7176323  29.3599319  80.9438419  84.1039371
   0.4150105   3.8823372  49.6406078   1.1004458   3.3229059  49.2753029
  -0.0808854   3.3052939  50.2214193 123.7602282  50.9065151  25.4854146
 123.4132122  51.7781878  25.6751291 123.1938422  50.5690527  24.7914735
  47.6624346  73.9268637  72.7134514  47.8679800  73.6055517  71.8355370
  46.7074394  73.9901590  72.7278376   3.8474971  72.6867056  39.3767262
   4.0535185  71.7609453  39.2472887   4.1527641  72.8783035  40.2634811
  27.2525597  60.1357985  64.3797159  27.2968960  59.8038912  63.4829998
  26.9563532  59.3873835  64.8977566  20.4867792  61.4485216  57.4730968
  21.2180305  60.8351135  57.5454521  20.1594543  61.3269377  56.5818596
  16.8950510  44.6388149 107.4574184  17.1852899  45.3050470 108.0804157
  16.0839808  44.2965746 107.8332710 114.7563983  77.6477528  91.1786938
 114.5863993  77.2507524  92.0329285 115.0383783  76.9179392  90.6272507
  50.0279903 109.7232246  59.8442507  49.6394825 109.0205956  60.3654003
  50.5207396 110.2461433  60.4766989  45.1150417  36.6608644  52.3467493
  45.4564238  36.8714213  51.4776373  45.4517460  35.7838440  52.5303221
   4.8024270  67.9412079  83.4064770   5.7024574  68.1937695  83.2005882
   4.8923522  67.2309494  84.0418339  19.5676553  39.0912390  74.6678352
  19.1805983  39.2836857  75.5218744  18.8366103  38.7687922  74.1407394
  14.1371524   6.6277784  79.5233393  13.9336443   6.1407864  78.7248087
  15.0469780   6.9030297  79.4107056 119.4903899  35.7311821  91.0998440
 119.5289189  36.4127278  90.4288483 120.1827986  35.9644628  91.7182159
  33.3550382  63.4219265  76.8893051  33.9481664  63.5608959  76.1509848
  33.0681014  64.3014717  77.1348619  59.9317837  47.6459169  92.2399426
  60.7194233  47.7261925  91.7019749  59.2157602  47.5807142  91.6080475
  25.6024528  63.3354330  93.3278656  25.4016113  63.1324720  92.4142456
  26.3128495  63.9752197  93.2805061  30.8574414  23.1259704  93.8414383
  29.9366069  23.2642794  94.0631676  31.3173556  23.8503957  94.2656040
  21.9860721   1.0086726  99.2285919  22.3583436   0.1787475  98.9304733
  22.0812726   1.5967438  98.4793663  30.8890390  59.9433327  67.7798319
  31.5431190  59.5741701  67.1864319  30.4216385  60.5887079  67.2494936
  30.2998066  51.0307217  57.8967094  29.5327663  51.3298416  57.4084377
  30.9399366  50.8043957  57.2219944   7.0484197  40.4627609  69.4853973
   7.6013511  39.9876165  70.1056719   6.1719412  40.1028824  69.6214342
  24.8913908  59.4568729  53.9043283  24.9081516  58.5014439  53.8485622
  24.1015244  59.6535778  54.4079638  46.8383694  66.9496679 102.6902390
  47.6930571  66.5967703 102.4428463  46.9859409  67.8907299 102.7843761
  53.2716417  70.3345394  82.1411228  53.5667324  69.4470596  81.9373131
  52.3776913  70.2214622  82.4640560 124.0556215  66.9788313  70.9441710
 124.8535914  67.4667120  71.1477566 124.3453791  66.2794209  70.3584242
 113.0131382  32.6853156  56.1783457 112.3363251  32.1120405  56.5382195
 113.0066080  32.5030589  55.2386761  32.8403902  59.6459436  93.0458927
  33.2205606  58.8163614  93.3348560  32.0742917  59.7666407  93.6069298
  39.7747993  28.8501120  93.7545109  40.6215143  28.8578987  94.2008781
  39.4069052  27.9891944  93.9537811  72.8494263  58.1456661  94.7980022
  72.6256180  58.2129669  93.8697720  72.2525167  57.4804497  95.1406765
  34.4687772  47.0555162  54.3717575  33.5698056  47.0677853  54.7002888
  34.8175693  46.2119627  54.6598387  18.9660001  14.9416029 108.0977726
  18.8981009  14.3699360 107.3330402  19.9021125  14.9661958 108.2960606
 123.2408219  68.0103731  64.5162392 122.8891808  68.0288315  63.6261606
 123.4905081  68.9171791  64.6939754 121.1446790   4.0821770  60.8784056
 121.0279075   3.5461223  61.6627789 120.5214936   4.8009291  60.9845543
  40.9738064  49.1043758  91.7111397  40.4984903  48.7090063  90.9803963
  40.8684969  48.4815741  92.4303532  34.7918057  63.5584593  81.4258957
  33.9757586  63.6367607  81.9200325  34.5693588  62.9965258  80.6836128
 115.4544360  42.4500179  82.8295612 114.6353621  42.8737354  83.0861092
 115.7799090  42.0498991  83.6359215   1.3769317   4.5306590 102.8592014
   1.2231967   3.5918185 102.7534866   2.1068001   4.7216725 102.2701073
  36.0248041  42.9404736  73.3085632  35.8645225  43.4748363  74.0863800
  36.9388866  43.1135082  73.0833006   9.0031165  46.9335365  91.4382935
   8.3878791  46.9724846  92.1705437   9.4995707  46.1284256  91.5851402
  38.7784338  21.3873100  94.6258068  39.6780968  21.1396742  94.8391533
  38.8637710  22.2140121  94.1509247  30.5364799  70.4516602  70.9475183
  31.4631867  70.5681324  70.7380342  30.0737691  70.7728672  70.1735973
  59.5125580  45.2924776  80.6743813  58.9846468  45.8825350  81.2123108
  60.4053545  45.4053116  81.0005951  43.8037443  23.2207680  66.5314627
  43.1977558  23.2957745  67.2686100  43.2535124  23.3346462  65.7565355
  39.0168643  49.6875429  74.0199089  38.4853864  49.0716505  73.5154915
  38.4034991  50.0805140  74.6408701  12.3307490  23.7765718  71.1613989
  12.0159650  24.0338230  70.2948189  13.0445647  23.1637931  70.9847593
  19.7356689  59.6777821  95.8412170  19.3793404  59.2312956  95.0731564
  20.6200361  59.3238068  95.9351921  13.1342340  20.5332208  78.1320906
  13.7870336  21.1276507  77.7623081  13.5818779  19.6887934  78.1849003
  15.3869617  48.8543653  69.9321175  15.1832747  48.8398647  68.9969540
  15.1711524  49.7444105  70.2104759  19.4451880  42.9347467  63.5164070
  18.6891615  43.5189915  63.5739422  20.2002811  43.5223055  63.4873962
  79.3881416  49.7617531  92.1372128  78.7811184  50.3369522  92.6029396
  79.1765881  49.8887491  91.2123680  55.1102686  67.9764462  68.8620520
  55.0763512  67.2673082  69.5040798  56.0393667  68.0616713  68.6481857
  34.7127271  70.4378843  92.5022221  35.3344059  69.8973989  92.0147514
  34.8354030  71.3198614  92.1510887  45.8658123   1.8705460  83.7029266
  45.4096937   2.4230519  83.0681610  46.0196400   2.4446297  84.4532585
  26.9713879 137.1435715  55.8311939  26.4115810 137.4627347  55.1233959
  26.7737651 136.2088365  55.8899117  46.8639898   7.2135645  54.9783754
  47.8141117   7.2104406  55.0945139  46.5620041   7.9606783  55.4949570
 109.3148977  51.5792561 108.3491039 110.2330059  51.5341043 108.6160660
 109.1577095  50.7534981 107.8912354  58.4647846  15.1283050  79.8786163
  58.6430836  14.1882634  79.8509979  57.7313137  15.2151835  80.4874706
  17.5729442  43.1596470  69.3440771  16.9607985  43.2496977  70.0744200
  18.4381843  43.2402754  69.7454357  38.8321710  82.5439453   6.1764375
  38.5454011  82.7956772   7.0542947  38.0204344  82.4397087   5.6800023
  23.9551759  44.0315008  63.1702662  23.5669541  43.5267210  63.8849068
  24.6631455  44.5259047  63.5832739  57.0753860  54.9529600 106.2302113
  57.9975748  54.9477673 105.9737587  56.6353035  55.4376078 105.5318737
  13.0822861  35.8536077  98.6103439  13.6085057  36.6367507  98.4490681
  12.9868960  35.4475403  97.7488136   6.2286383  74.8024511  90.5485535
   6.3514102  75.5683565  89.9877071   6.2174082  75.1561785  91.4379215
  41.4806843  65.8678818  51.6128445  41.4641285  66.7838573  51.3354540
  40.5641603  65.5930614  51.5865469   8.9697427   2.4715865  95.9193420
   8.9741808   2.4032275  94.9645996   9.1111118   1.5753447  96.2242985
  38.4650040  41.9070625  75.0698853  38.7436080  42.6313448  75.6302643
  38.6838198  42.1926403  74.1828728  64.5913887  73.4130192  92.4289417
  64.9982834  74.1497326  92.8849316  64.0201759  73.8203526  91.7777729
  40.0559616  13.2364583  83.5141277  39.2482948  13.5074580  83.9505482
  40.5307627  12.7364039  84.1780186  37.1880913  65.6382418  71.7528868
  36.8927646  64.9281120  71.1830330  38.1247568  65.4786158  71.8686914
  54.6036863  84.3795395  95.6989956  54.2042685  85.1331997  95.2646160
  55.1112700  84.7580814  96.4168358  11.8590951  84.9055004  64.7576904
  11.6847432  84.4013309  65.5524492  11.0488272  85.3896332  64.5985889
  41.2342691  25.3220606  78.1989908  41.9910574  25.3888559  77.6167154
  40.7589960  24.5521212  77.8866816  12.0237887  34.2165875   5.5532399
  11.1284149  34.3900442   5.2626363  11.9206059  33.6881232   6.3446370
  41.2874317  59.2507124  94.2372894  42.2007418  59.0852880  94.0033531
  40.8722210  59.5082664  93.4141922  31.7525744  93.8570690  67.6865768
  31.4578390  94.4822502  67.0243740  32.6963258  94.0034389  67.7509212
  23.7041259  35.9697652  81.2629795  23.3854628  35.1697421  80.8450699
  24.2452765  36.3899636  80.5945301  28.3325362  46.9856548  81.8647671
  28.1013703  46.9646978  82.7933979  28.9406705  46.2549973  81.7527866
  34.0628266   9.6327358 107.6094532  34.8448801   9.3388319 108.0766296
  33.9623785  10.5500054 107.8639317  47.0087767  76.7549944  69.6404648
  46.4655495  77.4979496  69.3775034  47.6853943  77.1386003  70.1983786
  50.4185152  17.4739516  68.3379936  51.2987089  17.2648168  68.0253363
  49.8607731  17.3766387  67.5661850   9.1278398 135.0076050  73.7725067
   9.0322697 134.5900209  74.6284962  10.0708747 135.1387686  73.6739492
  46.7365932  82.8073597 107.2244930  46.8285275  83.3950233 107.9744434
  45.7917404  82.7418327 107.0859623  29.7084045  55.3194332  83.6981106
  29.1541529  55.2285671  84.4732094  30.2238822  56.1088419  83.8634682
  21.2256575  22.2799397  50.1159763  20.4978776  22.4845719  50.7030869
  21.2823796  21.3245082  50.1288080  13.8393176  81.7117310  61.7876244
  13.1161535  82.3208237  61.6383839  13.4131503  80.8818531  62.0019007
  48.5218334  38.7163281 102.3102856  48.0778456  38.2522082 103.0200005
  47.9865408  38.5394526 101.5367126  56.7763233  69.2217875 106.7514038
  57.2111559  68.7991238 106.0107899  57.4579525  69.2948961 107.4194336
  25.3302431  33.0675745  80.4256344  25.0892901  32.4769354  79.7119713
  24.5035744  33.2564282  80.8696938  41.5162849  83.3978271  75.1401329
  42.2050333  84.0298653  75.3460169  40.8231163  83.5841656  75.7733965
  38.7051249  58.3144569  71.7605305  39.1200662  58.0079079  70.9542513
  37.8208971  58.5662270  71.4940977  22.2101688  39.9082065  71.2689066
  23.0872893  40.2710724  71.1455345  22.3373055  39.1729045  71.8684053
  17.2112930  37.3791313  81.2766075  16.9458818  37.2266054  82.1835327
  17.8763044  38.0652213  81.3338184  30.2789235  64.6297264  67.2935295
  29.7805262  63.8283157  67.4534416  29.7099566  65.1579046  66.7335844
  32.9771638  77.1818924  65.9294415  32.7379227  77.1707487  65.0026846
  33.6748028  77.8345776  65.9888792  71.4432287  64.6220827   1.8238488
  72.2992182  65.0487995   1.8616048  71.6223764  63.7583256   1.4522783
  44.7216892  59.0377140  81.5975857  43.9239407  58.6073208  81.2900257
  44.7482538  58.8506126  82.5359440  18.2273078  53.5822678  60.6816578
  17.7962315  53.8205481  61.5024042  18.3403647  52.6333904  60.7371855
  22.2594523  28.4777379  91.8922615  22.4041176  28.9533067  91.0742474
  21.8777704  29.1273236  92.4826717  18.7757134  55.6256151  84.3861008
  19.1307998  55.6766653  83.4986687  18.8482666  56.5179396  84.7248077
  67.0496130  77.8547096  97.4952030  67.0525742  76.9018459  97.5861931
  66.2601423  78.1369591  97.9570484  32.6022410  58.2420778  58.9979506
  32.2606254  58.2783413  58.1045198  31.9195890  57.7939939  59.4973898
  50.8282518  57.3870468   8.6049978  50.2473116  56.6266823   8.5807172
  51.7041397  57.0159531   8.7114946  22.7567220  51.4631319  91.6955280
  22.0539093  52.1044064  91.8006706  22.3225522  50.6149054  91.7863083
 118.9892150  78.0166817  48.5479546 118.6364496  77.5919867  47.7660179
 119.0773678  77.3085880  49.1859722 123.8703851   7.5239807  74.8462296
 124.4176389   8.2297307  75.1907015 123.0779760   7.5518531  75.3824615
  31.4990330  47.5020599  59.7896957  30.9871268  47.8995323  59.0852833
  30.9874916  47.6693010  60.5812693  29.9209547  62.0857859  70.5974865
  30.1904440  61.1684275  70.5520964  29.0168738  62.0856714  70.2830601
  22.7862406  71.4258909   3.2343904  22.2898197  71.0702801   2.4972764
  23.1384110  70.6553841   3.6799566  34.8352027  36.6670918  88.5104847
  34.2968392  36.9482756  87.7706623  34.3607688  35.9239578  88.8831711
   7.3110580  18.1633604 110.0603867   8.2663405  18.1038547 110.0716019
   7.0754921  18.0606198 109.1383266  19.0802884  23.7048674   1.5346757
  18.5499382  24.4356918   1.2170926  18.6168897  22.9236555   1.2326757
  58.8812017  29.9672222   2.5457326  59.4332743  29.4137764   1.9933358
  59.1625547  29.7703314   3.4392206   6.0547030  16.9212997   2.4923650
   6.9094282  16.5454090   2.7030317   6.0675192  17.0272243   1.5411226
  39.2521930  50.5966663  88.9787865  38.8271928  51.3567162  88.5813904
  38.8454914  50.5188370  89.8417854  16.5287411  54.1543055  88.8306904
  15.7441020  53.7584591  89.2100143  16.5367043  53.8485479  87.9236794
  62.3385429  18.6032844   4.0139524  62.5174904  18.8330555   3.1021348
  62.6201200  17.6916802   4.0909330  41.7394400  42.8067446  80.4292107
  41.5701485  43.6522579  80.0136662  42.5268173  42.4794865  79.9942780
  50.5661821  43.0580759  24.5891166  51.2249279  42.4176216  24.8576379
  50.1145172  43.2915068  25.4001260  37.4517775  56.2707376  67.8940010
  38.2046080  55.7407951  67.6320171  37.1449566  56.6699409  67.0799208
  36.3251042  78.8863802 100.7547474  36.2808394  79.0630388 101.6944599
  35.6031084  79.3921328 100.3816986  13.3558810   3.6450341  58.0356216
  13.1939375   3.8081250  57.1064234  12.7326143   2.9575050  58.2703018
   7.6249039  48.5098267  72.8741693   7.5472540  47.6629210  73.3134317
   6.7280251  48.8418007  72.8337526  44.4774580  34.9851394  38.9511395
  44.6187735  35.8532119  39.3289137  43.5289478  34.9249196  38.8374472
 120.3920240  12.6433730   9.7750894 119.5958037  12.5984526   9.2457048
 121.1011997  12.4689174   9.1563264  39.8866630  58.8525009 101.3204479
  40.2986288  59.1226482 102.1411419  40.3307629  58.0374861 101.0864544
  23.3888865  42.4708223  76.9773579  23.8578129  42.9572344  77.6554012
  23.9140153  42.5952578  76.1867952  19.6190989  52.0815659  64.1762209
  19.8897064  51.2087631  64.4612074  19.3730736  52.5318098  64.9842930
  31.3579369  44.1821957  84.7295952  30.7106185  43.6650562  84.2502499
  30.8560443  44.6115923  85.4223824  13.6290026  41.6634321  89.4707966
  14.4133139  41.9624281  89.9308872  13.0987382  41.2444878  90.1486874
  12.9948974  54.7208929  80.3297615  13.9444554  54.7840834  80.2269173
  12.8659689  53.9670038  80.9053135  24.7037053  51.4980412  93.4631348
  24.1975331  51.6262913  92.6609039  24.5687222  50.5771971  93.6868668
  24.1427803  30.2158952 103.1032658  24.9331975  30.7171988 103.3036804
  24.2414331  29.9708366 102.1832371  21.6731167   2.0948231  66.9679642
  22.2134757   1.8160541  67.7072382  21.8665051   1.4608052  66.2774181
  32.1469069  39.9765801  90.2380848  32.0510364  39.7923946  89.3036842
  32.9075122  39.4613886  90.5069542  74.5960236  58.2265711 107.2938061
  74.1326475  58.7760258 107.9259682  74.1507483  58.3902931 106.4624500
  57.1980381  20.2446604  62.4869680  58.0047560  20.3092742  62.9981041
  56.7087746  19.5334566  62.9005432  38.9131570  74.3307400 104.4856834
  38.3017349  75.0564194 104.6113300  39.4655252  74.3448830 105.2672958
   6.6424435  39.9676061  42.0472479   7.1613294  39.4619274  42.6727724
   6.4183283  39.3404984  41.3596916  11.2700760  13.5775614  68.7220001
  11.4326870  12.6969075  69.0599918  11.1001825  13.4484029  67.7888966
  56.8942690  67.7928591  97.9084492  56.7301178  68.1629896  98.7757874
  56.9315720  68.5523558  97.3270702  38.2827497  27.6338983  68.9569759
  37.6609659  28.0992532  69.5164919  37.7393270  27.2251225  68.2833099
   1.7753084  47.6765108  67.7651644   2.2626764  48.2509327  67.1746206
   0.8944859  47.6412439  67.3921537  34.0008855  31.0706735  70.3291130
  33.8500905  31.7522931  70.9840107  34.3441844  30.3300357  70.8289528
  30.4157448  23.9040804 106.7548370  31.2590098  23.7905693 106.3163662
  30.6377935  24.2756653 107.6085567   8.2012981  54.9915552  89.3812370
   8.0736816  55.7950735  89.8855209   7.6835877  54.3331766  89.8446465
   7.0270729  28.4829402  77.4241829   6.2103564  28.6597085  77.8910446
   7.3841929  29.3494797  77.2297478  32.8867507  83.3094883  60.9936857
  33.6987090  82.9889393  61.3863707  32.5654936  82.5732517  60.4731274
  29.1383576  42.2023678  50.8028603  28.6744118  42.9223824  51.2301445
  30.0602818  42.4575043  50.8374119  15.8766866  58.5433578  10.5481378
  15.0866890  58.3568192  11.0554258  16.0975480  59.4472885  10.7725469
  52.0930862  29.9999738   3.1837503  52.2710752  30.8925247   2.8872625
  51.6057253  30.1114464   4.0000097  15.9880483  25.4444075 105.6063080
  15.4546225  25.9111428 104.9629974  16.1039650  24.5707750 105.2327251
   7.4949133  61.3728619  73.5486937   7.5659460  62.2374678  73.1441641
   8.3764327  61.0053539  73.4847307  69.2508078  60.7123613   4.0905324
  69.6863413  61.0205364   4.8852388  68.9035940  61.5065289   3.6843625
  32.5299072  59.9013948  89.7885704  32.6131606  60.7837486  90.1501751
  31.8488765  59.4882870  90.3193855  69.7007656  29.2534566  65.8619928
  70.2834368  30.0049376  65.7524252  69.3753672  29.0721250  64.9802542
  47.7505302  38.6385965  86.3868618  47.8922796  37.6919889  86.3953304
  46.8159151  38.7392211  86.2063217  22.4096870  36.5704799  64.7787857
  22.4035645  37.4036765  64.3076468  21.6055369  36.1320996  64.5005846
  44.3093681  74.6046162  34.9188176  44.5097971  75.0762033  35.7273141
  45.1329613  74.1799974  34.6787587  36.7338276  21.6004610   3.7255327
  37.5190520  21.7386389   4.2552129  37.0563006  21.1959028   2.9201928
  36.9406796  78.8609505  61.6206741  36.5414071  78.9520311  62.4858427
  37.7467132  78.3696699  61.7793846  24.0593004  49.4554853  43.6233521
  24.3994665  49.3731737  44.5142746  24.7785187  49.8468447  43.1275749
  32.0765996  69.7307825   2.0508424  31.7068553  68.8658190   1.8737737
  32.6605153  69.5935297   2.7967874 120.5195332  43.7390804  98.8886738
 120.7940832  44.6013451  99.2006969 121.2961591  43.1889486  98.9908409
  40.2009010  20.5396891  68.8256073  40.5245543  19.7505009  68.3912516
  39.6314979  20.9536386  68.1770277  40.2859688  34.9829912  77.3226357
  39.3496108  35.1385427  77.4462080  40.3947735  34.0440750  77.4737310
  39.3379331   3.7608498  62.8358364  38.5530901   4.2611048  62.6122332
  40.0641537   4.3092811  62.5390863  32.8260374  60.5551958  49.0965462
  32.1846747  59.8522854  48.9926100  33.6037350  60.1200867  49.4459724
  20.2879310  19.6517158  83.7905788  20.8695292  18.9279902  83.5577774
  19.9233007  19.4023192  84.6397400  86.4216900  36.2442017  71.9640923
  87.3647308  36.2324882  71.8005133  86.3442135  36.3674593  72.9101562
  18.8062060  11.7374718  56.4793730  18.4185886  11.9851005  55.6399298
  19.4763231  11.0926056  56.2528229 117.4018253 139.6252317  68.9435053
 116.8376941 138.8975383  69.2051363 117.1891869 140.3265257  69.5593023
   1.6395840  61.5232277  25.7042829   2.3469611  62.1290112  25.9253541
   1.1165395  61.9926834  25.0544587  18.8456047   7.2861505   2.0985643
  19.7419834   7.4364996   1.7983381  18.4420776   6.7714745   1.3996259
  65.9224319  61.4185810   0.5336801  65.9444523  62.0382309  -0.1955565
  65.7019043  60.5797958   0.1286641  53.6777496  49.7926569   4.7219697
  53.6945343  50.6210279   5.2012864  53.7637472  50.0459480   3.8029043
  49.5468092  35.9968138  95.8797455  49.1113424  36.7937136  95.5771637
  49.8151588  35.5507660  95.0764561  42.0330620  50.7610559   5.3933946
  41.2542915  50.4760265   5.8714143  42.7131176  50.1384163   5.6504480
  21.7314863  31.8836045  74.2245913  22.5730419  31.7626429  74.6643496
  21.3283086  32.6237035  74.6783924  22.5880146  56.7877960  98.3346367
  22.7069449  57.6909924  98.6284542  23.4496522  56.5260792  98.0101109
 122.6930126  22.5941086  99.4643784 122.8135552  23.5318398  99.6139145
 121.8693278  22.3852444  99.9050045  26.3494039  65.5837536 100.5446625
  25.6721425  66.0487318 101.0359287  26.4677858  64.7612238 101.0197067
  18.2601619  33.5891294  68.9288807  17.7219915  34.0165353  69.5951605
  17.6405787  33.3437085  68.2417727 119.4799251 133.1972809  94.5079422
 120.0856326 132.4650044  94.3933964 118.9180649 132.9317290  95.2359772
 113.1570477  52.4290800  62.0717621 113.2540233  53.0511093  61.3507175
 114.0109152  52.0011902  62.1354246  34.7316480  61.1665058  83.7367630
  33.9792705  60.5776358  83.6785316  35.1244354  61.1402512  82.8642559
  32.4887180  51.4083529  63.9082670  33.3128858  51.2264395  63.4567308
  32.0570064  50.5563641  63.9712620  26.1299372  59.9254227  45.2144575
  26.3670969  59.5695543  46.0708094  25.3659296  59.4149685  44.9461985
  16.5102983  42.2095919  55.9772635  16.0472357  41.6874552  56.6323805
  16.7951155  42.9908657  56.4513159  45.6429958  46.7944098  31.2937880
  45.8306503  46.7633057  32.2318983  44.7980118  46.3537931  31.2038231
  56.5977097  13.9217818  61.8908310  56.2582445  13.8774717  60.9969425
  57.5372982  14.0694869  61.7831659  32.5746632  16.3437033  61.4095926
  31.6434956  16.5517676  61.3330078  32.9301357  16.5114594  60.5368185
  21.3340020  59.8051643  85.7174110  21.5051246  59.1018391  85.0910854
  20.3931093  59.9659061  85.6458759  27.6851511  38.0201602  64.7988272
  27.1982241  38.6832428  65.2881670  27.3740864  37.1861744  65.1508808
  13.5035408  89.7302818  85.0061035  12.8347433  89.3307495  85.5622673
  14.0678048  90.2069855  85.6148624 121.7448792  52.9432869  64.7649145
 121.0990671  53.5453558  65.1346064 122.1664158  52.5465631  65.5272436
  42.3130655   0.6456210  13.2916013  42.9854441  -0.0319643  13.3624212
  42.3264313   0.9008223  12.3691503  34.9189091  22.0858240  84.7926521
  34.7455597  22.9107952  85.2460957  34.0901494  21.6090035  84.8377228
  26.7548871   2.2511776  89.6873569  26.8264151   2.5692472  88.7873840
  26.2918687   2.9484582  90.1517391  43.4561348  38.0506778  44.2003727
  43.4226656  37.8820348  45.1420069  43.5589123  38.9997768  44.1305351
  12.5644565  60.7346821  73.0167961  12.3851371  61.3579464  72.3127937
  13.5150385  60.7631207  73.1255007  56.7442560   8.8002634  70.3453159
  56.1523104   9.4993395  70.0676012  57.0722055   9.0884131  71.1971664
   3.0177554  26.6919756  66.0103369   3.7617421  27.2904944  66.0773516
   3.1814912  26.0301661  66.6822243   6.6421866  16.7629147  45.1330614
   7.3434991  16.1504698  44.9110174   6.8153930  17.5322783  44.5905542
  44.3073988  77.8671646  29.9625802  44.5358658  77.5038719  29.1069818
  45.1326084  78.2106638  30.3050327  33.0460024  58.7116909  45.9294462
  32.4733067  59.4635201  45.7777786  33.9282417  59.0825462  45.9480858
  38.4884596  68.5260391  61.0773182  38.8958240  68.0977488  60.3244209
  39.0862870  69.2398977  61.2992048  45.5897951  31.3907194  95.3122425
  46.3636875  31.1267066  94.8146248  45.7902050  32.2764897  95.6146908
  32.0073414  57.6073360  75.3650761  32.5473356  58.3646011  75.5913162
  31.1980414  57.9846907  75.0203037  21.0286021  22.4620795  54.4825506
  21.5049529  23.2161641  54.8299456  21.5868759  22.1290803  53.7799311
  33.2129049  58.4751225  51.7118645  33.6935306  58.2229757  50.9234142
  33.8814211  58.8340902  52.2953558  47.6678848   4.8511004  51.8427229
  47.4510717   5.7718706  51.6964197  48.6104918   4.7989401  51.6845846
  35.6630468  30.7601976  60.9762859  36.4450765  31.1442566  60.5798483
  35.7658148  30.9220243  61.9140911  42.3402643  66.0242224  66.7032862
  42.7016115  65.9183025  65.8232641  42.4571371  65.1679564  67.1148491
   0.4894689  54.3261194  41.8862581   1.3671628  54.1567183  42.2285843
   0.2271027  53.4998941  41.4803648  16.0861778  66.6312170  67.1358776
  15.1795185  66.6182947  66.8292284  16.2039852  67.5093269  67.4981880
  48.1460524  31.9952273  78.4922838  47.3914099  32.5785398  78.5728788
  48.3176517  31.7006207  79.3867064  40.0688839  92.3873806  63.7801075
  40.8025217  93.0014515  63.8105202  40.4776669  91.5232372  63.8289738
 102.8982419  27.4825406  72.2593260 103.3923907  26.9534874  72.8855467
 101.9924111  27.4308467  72.5643396   6.3230002  41.7683697 106.6445621
   6.5411103  42.5853014 107.0932051   5.4738843  41.5154600 107.0068749
  53.6039305  85.1574802  64.5755386  53.0003834  85.3483677  65.2935410
  54.4742298  85.2682018  64.9583626   9.4392574  25.6916380  34.4673634
   9.2087287  25.6026721  35.3921199   9.9865115  26.4761424  34.4313431
  52.1754074  38.1373477  44.1769218  52.5471210  38.7278390  43.5216570
  51.5662289  37.5867271  43.6850405  17.0942140  67.8562784  57.3387432
  16.7316759  68.7301493  57.4841452  16.7873561  67.3423386  58.0856943
  21.2687874  43.1692457  82.9847908  21.1332893  44.0916300  83.2017803
  20.8192897  43.0515289  82.1479321 118.8711072  25.2674580  81.4955139
 119.8185409  25.4019022  81.4725685 118.7436486  24.3963003  81.1199188
  21.7034960  43.5891485  98.2059383  22.2615767  42.8740788  98.5116482
  21.4358687  44.0426254  99.0052891  43.3765078  47.8715134  43.6722612
  44.2543364  48.0396366  43.3296490  42.7873755  48.1952763  42.9908466
   3.6659816   1.7921835  63.4428024   4.4067881   1.7127542  64.0437412
   2.9841542   1.2425847  63.8291740 119.4985551  53.9509249  75.0407219
 119.9725220  54.2131186  74.2515182 120.1430286  53.4675598  75.5576801
  13.9371085  58.8092136  65.6897068  14.3447435  58.7933540  64.8237896
  13.0433667  59.1114950  65.5282021  41.0046196  35.1455665  82.5107479
  40.6230545  35.9253287  82.9139996  41.1820126  35.4058123  81.6068459
   3.2405052  50.6539869  -0.2411231   3.2750019  50.2434683   0.6228868
   2.6834461  51.4227486  -0.1189669  40.9226751  52.5907946  49.1866064
  40.1144028  52.1554661  48.9156485  40.9882736  53.3533907  48.6118221
  36.2695146  56.3006353  70.3355980  36.6497588  56.3223886  69.4574356
  35.9819961  57.1997070  70.4944468  90.0875587  34.1873741  55.8464956
  90.5912418  34.9527860  55.5695868  90.6323857  33.7709165  56.5142965
  46.8763351  50.5593967  81.3119602  46.8060780  49.6262407  81.5132236
  47.0274591  50.9766245  82.1600819  24.4009900  52.6573706   7.0708124
  25.3292561  52.7510118   7.2847883  24.0068078  53.4846306   7.3473779
  36.2659597  48.6394119  36.4444613  35.5691814  48.0475903  36.7281508
  36.9745898  48.4928370  37.0710325  23.8260341  32.3174024  94.9052048
  23.4571886  32.5347352  95.7613277  24.2124486  31.4497805  95.0241470
   5.6863087  42.5299406  67.1667004   4.8483223  42.3050261  67.5709581
   6.2764794  42.6783943  67.9055452  45.1495504  42.0397949  85.5118656
  46.0411644  41.8982601  85.8300304  44.6014500  41.9622421  86.2927723
  21.3538575  51.3516426  96.2896538  20.7069564  51.2606573  95.5900288
  21.9015145  50.5703831  96.2125587  23.9610171  31.6535830  78.5443640
  23.1802583  32.0589018  78.1670523  23.6232471  31.0688019  79.2227268
  13.2847750  69.5473099  18.3406496  13.2098258  70.5015230  18.3308959
  13.7905216  69.3548441  19.1302121  27.0748019  41.0522747  74.8160934
  27.5128865  41.0656166  73.9651346  27.5680447  40.4123831  75.3294039
  34.6986651   6.9496423  56.9294548  35.5746531   6.8196416  56.5661716
  34.1252708   6.4339209  56.3624620   7.3189968  56.0019684  82.0666981
   6.8729490  55.1603985  81.9716549   8.2430851  55.7733059  82.1667385
   1.5730315  28.1702542  67.7652359   0.9486744  28.5678911  67.1583652
   2.2559626  27.8062558  67.2019053  83.4250259  55.2420759  68.8227749
  83.2055759  55.0861073  69.7413301  83.4465027  54.3693781  68.4301329
  13.7255526   0.3342453  55.6703520  12.7828526   0.2196358  55.5502987
  13.8009667   0.9567916  56.3935232  54.2081738  72.0865345  93.5719013
  54.7704315  72.8088999  93.2921028  53.3222628  72.3723793  93.3490086
  20.4983330  48.4654665  68.5561037  21.1654258  48.2256794  67.9128933
  20.0736403  47.6375628  68.7807131  45.7298422  50.7016420  46.0111570
  46.4454079  50.4682255  45.4197979  45.9161615  50.2172947  46.8154716
  25.9493494  58.1713295  47.3164082  26.8939662  58.0496931  47.2208357
  25.5639887  57.5445223  46.7041588  16.3822722  47.9750729   1.9506685
  16.6614640  47.9322863   2.8652421  16.8383884  48.7384415   1.5964643
  37.8055072  35.5551672  65.8166218  37.5939393  36.1960793  66.4953756
  37.3209333  34.7694468  66.0697317 117.5495160  35.7037997  42.4724054
 117.8794450  35.0884700  43.1271982 118.2334769  35.7311082  41.8033171
  43.7351751 134.2137499  42.3306751  44.3396473 133.8597245  41.6783667
  43.8717985 133.6678703  43.1050014  61.5707731  47.7939463  30.7779455
  62.0822001  46.9894123  30.8639741  61.6576815  48.2250643  31.6281319
  16.4224958   5.2693635  58.4899950  16.9144475   5.0253671  59.2740107
  15.6574607   4.6941429  58.4986019  39.1263938  69.5491219  55.8018780
  39.1442680  68.6117649  55.6088209  39.8142481  69.6720886  56.4560652
  35.9166789  16.0366106  53.7786865  35.1405907  16.5675449  53.5997200
  36.5147185  16.2362075  53.0584526  25.2304316  38.0894876  55.2825642
  25.5631804  38.9259958  55.6077814  25.2548647  37.5097346  56.0438251
   2.5774994  49.2130661  75.9792089   3.1088099  49.2256498  76.7753124
   3.0541646  48.6363268  75.3822231 119.4253624  51.4080524  62.8942490
 119.9740831  50.7997322  63.3893108 118.8590557  51.8101454  63.5529184
  65.3770781  30.2823305  49.8369932  65.2180147  31.2065339  50.0287676
  65.4235554  29.8638844  50.6966257  15.2081323  64.7068357  69.3687201
  14.5107174  64.1450262  69.0307570  15.2897191  65.4046822  68.7186527
  62.8124380  55.5400276  42.9329109  62.9762506  56.4467812  42.6736879
  62.8709984  55.5497265  43.8882685  13.1341529  37.5934052  46.0935545
  12.1868968  37.5821042  45.9564066  13.4982145  37.8027868  45.2334070
   4.5690170  28.0206990  62.6787806   4.4240335  27.0840693  62.8126955
   4.3964040  28.4144640  63.5339928  19.2779946  45.7596159  68.1482840
  19.3267024  45.1281929  68.8660288  18.4785795  46.2570429  68.3207178
  27.6477432  51.4665174  28.1373000  28.3982396  50.8993387  28.3142161
  26.8921208  50.9677982  28.4480143  51.5997934 135.7616646  73.5480833
  51.0971928 135.0509567  73.9462233  51.3455391 136.5409459  74.0423584
  27.4880958  57.2143650  59.6833420  27.7200603  57.0387220  58.7714386
  27.7064228  58.1373358  59.8125172  59.1070223  45.4378605  36.6256928
  58.4762716  44.7187185  36.5907025  59.8665476  45.0685740  37.0762229
  48.8575506  74.9631357  22.5799179  48.4362555  75.4390335  21.8641925
  48.1389809  74.5125246  23.0235887  22.7116513  31.7558432  67.2260809
  22.0240235  32.2193527  66.7480040  22.5695181  30.8330083  67.0153522
  37.6714921  23.9523721  47.1616411  37.7903056  23.1907344  46.5941715
  37.8441262  24.7033763  46.5938187  34.3453121  77.9118443  36.2753105
  34.3168378  76.9930077  36.5420771  35.2769041  78.1317568  36.2727976
  23.2522345  57.3348141  76.1287928  23.7391424  56.7236757  75.5759239
  22.9872036  56.8133545  76.8864727  18.8060606  26.9937539  70.9082985
  19.0230584  27.1038055  71.8340588  19.6466660  26.8215251  70.4840899
   8.4568530  75.1535368  76.1991024   7.9352194  75.6229925  76.8500566
   8.0439067  74.2922163  76.1371660  50.7644510  22.6953363  40.9255219
  51.4325237  22.1025848  41.2698507  50.7924747  22.5632238  39.9778986
  50.2604103  36.6033649  43.1060314  49.5379877  36.1425424  43.5326195
  50.1598263  36.3981032  42.1765280  28.6466885  54.6536636  28.2849216
  27.7207375  54.6030664  28.0476737  28.9920497  55.3689814  27.7508092
  16.9114327  48.8900566  61.6574717  16.6143847  48.4071541  60.8862352
  16.5452480  48.4069633  62.3982573  34.7210836  29.6656322  53.2792187
  33.8391495  29.7064853  52.9094172  34.9946880  28.7580371  53.1464005
  24.3583202  23.9983082  53.1941128  23.9701176  24.8517704  53.0014181
  23.8659906  23.3830500  52.6506948 118.2737077  65.0673532  39.2758417
 117.6390392  65.4533720  38.6721730 118.2707436  64.1343260  39.0621090
  18.8910544  57.7707291  35.9428644  19.4026852  57.2867441  35.2946186
  19.5435810  58.2488537  36.4545703   1.9858535  67.3956823  68.7133169
   2.2732827  66.5601921  68.3451128   2.0537031  67.2759581  69.6605730
  38.6473155  18.0710912  90.7136345  37.9368854  17.9405141  90.0855637
  38.4661937  17.4441302  91.4138794  15.2963006  74.7216749  62.3851824
  14.8474467  75.5405664  62.5953674  15.5861056  74.3831253  63.2323122
  39.6560740  23.3024502  76.8009663  39.7200251  22.9147220  75.9281492
  39.1300678  24.0920758  76.6743183   5.0582373  66.7714834  38.0141044
   4.9024177  65.9668922  38.5086632   4.2125434  67.2198486  38.0135274
 114.5234079  49.9294662  58.7075758 113.5676057  49.9650335  58.7451124
 114.8003126  49.9584293  59.6233940  28.6549830  69.8261786  39.9130797
  29.0165973  70.5115604  39.3511868  29.4112396  69.4826841  40.3888083
  56.3815546  50.7166147  29.2422390  55.6453848  50.5445671  29.8293304
  56.8782043  49.8983765  29.2347121  18.1014311  10.5815637  33.4022522
  18.2600689   9.6491772  33.2548761  18.7706602  10.8412278  34.0354514
  18.7899160  35.1612663  50.1377344  18.5939848  35.8831930  50.7349443
  17.9327023  34.8084641  49.8990965  39.3186784  69.1050291  90.5201340
  39.5253825  69.2338037  89.5944405  40.0415993  68.5747671  90.8554554
  17.2677577  92.4122429  15.5402780  16.9430590  91.7501259  16.1505234
  17.8741026  92.9400539  16.0598910  30.6266665  58.9496326  49.4226646
  30.6314898  59.3294716  50.3012562  29.8235869  58.4297419  49.3908930
  44.2618513  47.2951317  83.7837601  44.1214275  48.1367207  84.2176247
  44.9965763  46.9023418  84.2550659  22.7448606  23.9132690  44.8099089
  22.1692920  23.2226467  44.4812822  23.6015964  23.4937191  44.8887300
  64.6380615  66.2811041  96.9284630  65.0823545  66.7965555  97.6016235
  65.2734852  66.2201166  96.2152004 124.3059892  22.7086878  59.0916729
 123.8794839  23.5631037  59.1572475 124.0939320  22.2712255  59.9162292
  25.3648376  36.1979866 104.4727612  26.2563777  36.4078856 104.7508430
  25.4275966  35.3120375 104.1158485  22.3469305  37.9929781 100.9129906
  22.2499943  38.8609481 100.5212402  23.2688880  37.9460073 101.1660099
  50.2038097  24.9965906  93.6888027  50.0598192  24.2310619  93.1325054
  49.4009209  25.0723958  94.2044258 107.4582428  42.0593119  29.6300340
 107.7300603  42.9361582  29.9011207 106.6069347  42.1907949  29.2126393
   2.1434848  47.7238035  84.1254616   2.6092923  47.7730942  84.9602222
   2.5201428  46.9616175  83.6856461  45.5680513  21.1919570  79.8317146
  45.1144457  21.7549777  79.2044306  46.4046240  21.6307545  79.9860954
  37.9350543  52.3537636  70.1684761  37.5161362  52.2631407  71.0243511
  37.2671437  52.0711517  69.5437670  22.4981761  48.5613441  75.3393745
  22.7572179  49.1885567  76.0144615  21.7951941  49.0009689  74.8610687
   5.3667891  50.0962019  60.6856632   5.0034153  49.4068098  61.2414789
   5.4462272  50.8539963  61.2650347  29.8465800  64.3260813  85.5574036
  29.2151785  63.7075758  85.1899529  29.6588349  65.1526308  85.1126575
  32.2179294  61.1706018  57.4775982  32.1577477  60.9340858  58.4031630
  33.1508017  61.1043930  57.2736406   7.8244758  14.9467754  88.7102890
   7.9023629  14.0418243  89.0123272   7.2875643  15.3761935  89.3762875
  17.2670352   4.3539119  74.5402145  17.2949469   5.2212512  74.9441671
  17.1377599   3.7522781  75.2733994  27.2060204 137.3980249  51.0094500
  26.7222500 136.9834758  51.7238331  26.7835212 137.0736040  50.2141619
   7.0613682  48.2014465  80.7716560   6.1189914  48.1547832  80.6104755
   7.3822266  48.8387394  80.1335812  49.0346479  24.4318295  81.0152149
  48.6958027  23.8872385  81.7257309  49.6015835  25.0683165  81.4507675
  32.0505047  57.6544285  79.1628599  31.8883371  58.5569906  79.4373035
  32.9278922  57.6742601  78.7807274  40.7738066  21.3569832  61.6739368
  41.6342831  21.1671901  61.3000488  40.1904345  21.4112282  60.9169912
  16.6932321  36.1579251  67.7890348  17.2694218  36.7331076  68.2924271
  17.2888088  35.5773664  67.3152494  21.9483352  31.4753628  39.1257906
  22.8927875  31.4237571  38.9788961  21.6622114  30.5628777  39.1674566
 119.6297932  32.0410466  80.1038361 119.0916730  31.7711067  79.3596697
 119.0822906  31.8695331  80.8700371  44.2324877  39.1461039  53.6152267
  43.7870693  38.5948348  54.2586040  44.7780514  38.5384274  53.1159067
  40.7913637  19.6748507  14.4881403  40.6659698  20.2700639  15.2272141
  40.3794718  18.8569558  14.7667480  23.4769249  68.6316156  66.5142584
  23.2496190  68.9445972  67.3898172  24.0266657  69.3241215  66.1475849
  49.9358273  36.7513251  58.6051607  49.1112471  36.6509032  59.0807819
  49.8377609  37.5746918  58.1269550   2.7563146  47.5013638  58.7359238
   3.4653234  47.0346165  58.2935619   3.1174621  48.3690119  58.9175510
  40.3646135  28.2717133  46.6873837  41.2290144  28.0538917  46.3386822
  40.5094671  28.3979011  47.6251078  22.8349757  37.6025844  57.4224138
  22.6515937  37.1633625  58.2528877  23.0238795  38.5084748  57.6671791
  36.3390279  59.4503117  70.5241108  36.0225821  59.1914320  69.6586180
  36.0938859  60.3722334  70.6028748   8.4952062  27.8980923  95.6738472
   8.0869347  27.9703498  96.5365887   8.2966644  27.0061302  95.3888607
  50.5510139  41.8326998  76.6546535  50.7214546  42.5743437  76.0740137
  49.8023701  41.3860941  76.2592983 106.4139409  67.5258827  77.9310751
 106.1557359  68.2043409  77.3071718 106.4914591  66.7315340  77.4026489
  72.7697420  48.3282518  59.2939520  73.2698536  48.7117195  60.0144196
  73.3663940  47.6915359  58.9004707 115.5593390  69.8974466  75.5494642
 115.0828070  69.4118404  76.2227631 115.2045394  70.7851315  75.5980778
  24.4256830  14.1350710  96.2443352  25.3538156  14.2482460  96.4492702
  24.4015574  13.3864927  95.6482887  29.8368430  17.0053935  75.6442499
  29.6277976  17.7575743  75.0903940  29.9593925  17.3776817  76.5175295
 123.4568124  78.1512451  43.2285595 124.3495137  77.8080177  43.2674170
 123.4483430  78.8688755  43.8619423  15.3366780  51.8424225  25.5216455
  15.3437233  52.5450754  26.1716175  16.2384033  51.8017673  25.2031016
  32.9660177  36.1254168  57.9656649  33.2617950  35.3709459  58.4750938
  32.0227861  35.9942532  57.8690195  33.8287234  39.0729833  42.2219610
  34.3937373  39.0819001  42.9945612  32.9752922  39.3608499  42.5460291
  37.4829459  41.4256287  78.8708925  37.2136092  40.8283758  78.1730509
  36.6947722  41.9302988  79.0716934  13.2669306  23.9374161  80.8310890
  13.8523185  23.2687330  80.4755402  13.8102210  24.4279003  81.4479256
  10.9753704  33.6681890  92.6706982  11.6394591  33.0436611  92.3788357
  11.4035654  34.1646838  93.3681011  24.9883842   9.0320241  67.8716183
  25.4110432   8.2185584  67.5961828  24.4225812   9.2687118  67.1367168
  23.9281178  32.2184467  54.1264105  24.0121102  31.3644052  54.5504236
  23.8780236  32.0179415  53.1917858  20.9714723  45.4874277  73.5340643
  20.1897240  45.3478432  72.9996300  20.7652783  45.0743198  74.3725491
  32.9672194  48.5015678  88.5309219  33.7000299  48.5269690  87.9156399
  32.4143004  49.2399883  88.2754803   3.1908393  48.8545942  69.9619484
   2.7375287  48.1176376  69.5525217   2.5061372  49.5084190  70.1031256
   8.3898807  56.1316729  78.3648205   7.5087333  55.7757282  78.4793472
   8.8928711  55.7644796  79.0917349  56.9743013  35.5219412  80.2071762
  56.2303591  36.0967398  80.3871346  56.7937851  34.7306013  80.7145405
  40.2359819  50.4862642  80.4228020  40.3931522  49.6981907  80.9428692
  39.5200706  50.2461863  79.8345327  42.5521946  58.0039644  71.4967155
  41.9538832  58.7286615  71.6785622  42.0146894  57.2184324  71.5979815
   0.5765103  34.9274921  68.4708595   0.1792335  35.6059909  67.9249287
   0.6990756  34.1852021  67.8790712  11.1418116  46.2431288  71.8406868
  10.5366921  46.9839907  71.8750763  10.6172621  45.5213213  71.4941645
  19.1026247  53.4088755  54.1144848  18.6521876  53.2684612  53.2816410
  18.9203572  54.3224859  54.3343067  39.7514296  20.9279585  64.0617609
  40.1454258  21.2306595  63.2436132  39.3583918  20.0837255  63.8403559
  21.0532498  19.9888158  74.3547392  21.9571948  20.1823163  74.1064024
  20.5941701  19.8797774  73.5219193  20.7460308  60.1255608  54.7623110
  20.8398628  59.4911623  55.4729223  20.6970048  59.5915508  53.9694262
  10.4935360  66.0864067  58.3553410  10.6601083  66.2305403  57.4238300
  10.9790766  66.7836571  58.7961674  14.4623339 100.5224800  77.9971838
  14.2674923 101.1339092  78.7074137  15.2419555 100.0524235  78.2929325
   1.5265656  16.3455737  81.5191174   0.9030008  16.9875789  81.1796665
   2.2423628  16.8719697  81.8751717  21.5897036  26.6586471  67.7931404
  21.8327093  26.2996101  68.6465311  20.6370306  26.5720463  67.7593374
  34.3468094  59.9566364  56.2350130  34.9365187  59.2509556  56.5005159
  34.9261832  60.6355190  55.8890724  21.3354158  45.6192112  78.3134651
  20.4706335  45.8165455  78.6732435  21.9138575  45.6022263  79.0759277
  19.0665162  37.3062491  57.6281452  19.0612388  37.8264666  56.8246698
  19.4286728  37.8936982  58.2914543  36.6817856   1.7477596  34.1648364
  35.9496546   2.3398505  34.3370104  37.4619818   2.2802529  34.3196845
  22.5247216  33.3913898  81.2630272  22.3257065  32.8176928  82.0029640
  21.6972709  33.8337374  81.0735989  17.7462888  29.5919633  71.2539530
  18.2179010  28.8469553  70.8814240  16.8762791  29.5472789  70.8573198
 117.8186757   5.9973675  53.5507631 117.0639969   5.6199712  53.0988121
 118.2686288   6.5096360  52.8789330   2.6940030  93.8960743  87.1704674
   2.5698701  94.0399170  88.1086159   2.2433592  94.6306324  86.7538357
  22.6346350  27.8442812  63.0700016  21.9727087  28.4388351  62.7170324
  23.3494830  28.4181213  63.3455563  29.7150135  68.8405037 103.3896828
  29.5386982  68.6773872 102.4631119  30.6231189  68.5641336 103.5129642
  32.1614051  65.1217222  27.5942349  31.6164398  65.2596807  26.8195009
  31.7675877  65.6780863  28.2662487  54.0529537  86.9425678  56.6165781
  54.2454529  87.4950123  55.8589649  53.2014513  87.2502804  56.9272137
  40.9727097  39.4362020  53.3625269  40.3289843  38.8493299  52.9657555
  41.5168762  39.7252107  52.6300049  64.7518253  31.1022758  33.0770016
  64.8666096  30.1549387  33.0021000  64.5638084  31.2481976  34.0041399
  56.5071583  68.7983084  37.0804739  57.4451113  68.8252306  36.8913889
  56.2681007  67.8773499  36.9759846  45.8107567  63.8311148  36.0675859
  45.8602953  63.3656120  36.9025040  46.6688538  63.6946440  35.6659961
   9.3926531  85.7379436  51.7451286   9.7922647  85.6991768  50.8761978
   9.9804962  85.2275753  52.3020840  28.4660697  17.7624738  44.3612719
  27.9000688  17.1036005  43.9590788  28.6957979  18.3516943  43.6427498
  18.8042271  81.1603260  54.0159225  18.7959552  80.4298973  53.3973455
  19.2377710  80.8102036  54.7941780  10.8967578  62.5131702  61.5497255
  11.3500667  63.0387163  62.2089243  11.3179135  61.6548777  61.5965939
  43.0693293  58.9450359  38.9267969  43.1616020  59.8375463  38.5934114
  43.6364031  58.4189367  38.3629942  28.6725092  14.3155658  19.7697604
  29.4707584  13.8735533  20.0589919  28.6774397  14.2199445  18.8173616
  16.6423106  40.7185793  46.9559908  15.8439112  40.3845310  47.3648930
  16.7200160  41.6158819  47.2800875  13.2549036  51.0896873  44.3634367
  13.5977757  51.8814325  43.9489412  12.8139222  50.6203556  43.6552715
  33.1879783  50.0216484  26.0264826  33.0887675  50.9704018  26.1055589
  32.4725962  49.7532511  25.4499197  41.6906977  36.4370108   8.7464303
  42.6057434  36.2017369   8.5928941  41.5801048  36.3627410   9.6943146
 119.4881130  54.5108080  60.5602407 120.1643748  54.2051411  61.1647797
 118.6705530  54.1703033  60.9233952  35.8716178  55.9624815  37.2444940
  35.9136534  56.4813805  36.4412451  35.6935358  56.6022348  37.9338694
  20.9658170  45.0553131  22.4965286  21.0506940  44.7671890  23.4053826
  20.0214815  45.1014137  22.3470831  67.1091413  49.5192051  16.1713624
  67.4240255  49.2665815  15.3034556  66.7171621  50.3828192  16.0419309
  28.7622690  57.8821516  81.9186020  29.6570420  57.5521421  81.8367100
  28.3361435  57.6243210  81.1011791  40.6269121  23.1717706  23.5177255
  41.0276842  23.8088059  24.1091633  39.7025084  23.4186888  23.4905338
  53.4709358  33.1260514  29.1982174  53.6141729  32.6845336  30.0353408
  53.9502621  33.9508057  29.2773247  37.2556257  76.2790871  39.1668034
  37.2095323  76.6423416  40.0511980  36.6708183  76.8329334  38.6496115
  79.6198463  25.6757212  34.1044188  79.8641300  26.5996718  34.1580009
  79.1632843  25.5968738  33.2668233  16.9542789  21.7881727  42.4324894
  17.1107757  20.9823871  41.9400930  16.1068738  22.1013832  42.1162033
  43.5890865  35.7164955  68.7740374  44.1230965  35.0836444  69.2542076
  43.5261774  36.4705181  69.3603134  27.7548862  38.1395864  32.1004653
  27.5518680  37.6322079  31.3146019  28.4337449  37.6316595  32.5447559
  18.4773576  50.8425426  55.0921249  17.6205719  51.0402489  55.4703617
  18.7556529  51.6639423  54.6870470  68.9058828  68.0302954   9.7900623
  68.6757374  67.5673151   8.9845103  68.7217236  68.9499187   9.5987362
  41.7781305  71.3704395  52.7987576  42.6610851  71.4253378  53.1642914
  41.8806982  71.6338396  51.8842459  33.8427043  50.6858397  51.1752462
  34.4172931  50.6244087  50.4121590  32.9589462  50.7096148  50.8083200
  65.3049469  49.9048042  36.8977857  65.1441717  50.6024027  36.2623811
  64.5445061  49.9299240  37.4785876  57.8856754  46.8425751  30.5283785
  58.2122803  46.0903788  31.0221004  58.3017063  46.7644978  29.6698618
  12.7296543  23.3099937  37.1489000  11.8630087  23.5698605  37.4613500
  12.5549519  22.7811813  36.3703942  34.5334506  58.3516121  49.1114044
  35.4580808  58.5167408  49.2958546  34.5294476  57.5252819  48.6282969
  31.3248944  48.5850763   2.4364652  30.8988142  47.7693987   2.6998326
  30.9967160  48.7523079   1.5529686  87.8293896  15.3583252  10.6949580
  87.3893166  16.1086428  11.0944438  88.6067104  15.7304680  10.2784097
  15.3939724  73.7061596  54.7004938  15.2079570  74.6423674  54.7722197
  16.3256729  73.6306095  54.9065495  35.6737804  46.1252928   2.1663615
  36.5629148  45.7873869   2.0591468  35.7584977  46.8192387   2.8201908
   1.5128523  14.8725414  83.8905430   1.6615343  15.1271236  82.9798794
   1.3795386  13.9253104  83.8557243  34.3142629  66.1431980  26.1349869
  33.4382105  66.0402155  26.5066814  34.4863439  67.0835114  26.1842966
  41.0788441  72.2828102  29.9762654  41.9548273  72.2341537  29.5934844
  41.1543131  71.8141747  30.8074784  16.8998086  44.4902849  57.5510836
  17.7055037  44.7504711  57.1045542  17.1413922  44.4490337  58.4763765
  30.8473444  32.8503370  10.9740853  30.0955462  33.4425807  10.9574485
  30.6252122  32.1635938  10.3453755  18.0261827  51.2413359  66.5294123
  17.3710680  51.8804169  66.8098164  18.6545861  51.2102556  67.2507811
   6.0887116  45.6806803  91.2720776   5.1402622  45.6495523  91.3973999
   6.3937980  46.3243532  91.9114780  25.7084656  31.1400700  32.3363662
  26.4700294  30.6698394  32.6756787  25.7795048  32.0161605  32.7153802
   1.9598140  63.3185625  63.5316658   1.3495478  63.2821941  64.2681980
   2.4359509  62.4892616  63.5739565  12.1768272 101.5920353  43.9461994
  13.0922270 101.3173485  43.8930845  12.1955156 102.3854637  44.4813251
  37.6449561  72.2774220  37.9497528  37.1954870  72.6199627  37.1771741
  38.5349989  72.6230478  37.8819323  37.0189738  55.3862715  29.8918319
  37.9644728  55.5354834  29.8907280  36.9212127  54.4674158  29.6420765
   7.6088202  59.7707844  87.8930759   7.5499362  60.1842260  88.7543774
   7.2643310  58.8878441  88.0271816  44.8967695  58.8304996  54.9351931
  44.5548296  58.8838387  55.8276415  45.1464558  59.7292185  54.7202539
  37.7942371  39.5179868  38.7059617  37.0557213  39.3311167  39.2855358
  38.5343647  39.6543145  39.2974472  18.0284679  50.6095457  37.9569077
  18.4098029  50.3766966  38.8034272  18.6917925  51.1580706  37.5381517
  40.3991461  57.1655893  42.7230883  39.7496986  56.6109991  43.1553841
  39.8815250  57.8252697  42.2614336 116.1485601  33.1386089  28.9492059
 116.1933518  32.2218275  29.2207575 115.3089560  33.4482813  29.2889094
  13.3814502  55.1697969  42.8879261  13.9875042  54.4515228  42.7062321
  13.9252651  55.8453512  43.2930517 124.0308080  33.1744027  80.1369286
 123.4183697  33.7298417  80.6192589 123.4841186  32.7078462  79.5047188
   9.5568770  58.5344267  59.9057150   9.2934102  57.6283264  60.0663280
  10.4807687  58.5628891  60.1544046  50.2202082  29.0893507  75.0765419
  51.1054087  28.8522625  75.3530312  49.9396563  28.3616567  74.5215750
  25.2156496  59.0190744  58.7004089  25.4916835  58.2782698  58.1607389
  24.2748260  58.8902760  58.8208055  45.1240063  74.8214293  69.6641445
  45.9584618  75.2896547  69.6381044  45.0704002  74.3801785  68.8164043
  38.8458991  32.7496624  44.7415781  39.0771508  31.9061160  45.1304054
  38.6091995  32.5400972  43.8380909  34.7714186  33.1659746   2.5555694
  33.9840698  33.6894774   2.7047613  35.0194454  32.8531408   3.4255400
  18.6072791  35.5930161  74.3431854  18.4640884  34.7084594  74.0066004
  19.5538878  35.7217598  74.2832708   9.4319457  25.1230550  75.3590536
   8.6674595  24.5556903  75.2596045  10.1506579  24.5235443  75.5597305
  32.3166442  41.8469429  29.7220516  31.6272640  41.2137699  29.9222589
  32.8319240  41.4297009  29.0316677   8.8881731  44.2165375  62.7746820
   8.0821544  44.3376684  63.2765722   8.5984689  44.1715670  61.8634844
  38.5284352  42.2788763  26.6776299  39.3237662  42.8114748  26.6734362
  37.8243184  42.8983736  26.4861274  49.9074459  32.1906948  54.1694784
  50.7690430  32.3062515  53.7688112  49.7858620  31.2419748  54.2066002
  31.8354559  43.8830519  51.4692163  32.4645329  44.1927290  50.8176088
  32.1922088  43.0465460  51.7679214  16.8740857 136.9417698  48.8149738
  16.4592075 137.8040476  48.7907934  16.1440253 136.3265652  48.8840294
  43.0709743  22.3846292  54.4948387  42.6907969  21.7112589  53.9306831
  42.3220158  22.7600718  54.9578047  17.4359226 135.8500166  53.3638668
  16.8953371 136.4311762  53.8988924  16.9388664 135.0331432  53.3204508
  17.3190260  25.5416369  69.0440607  17.4453366  24.6051788  69.1967869
  17.6478112  25.9605241  69.8394632  28.6666512  40.8432722  32.5877023
  28.1834412  41.1999416  31.8423629  28.3331537  39.9513054  32.6846695
  48.0203152  31.8090534  88.6460114  47.2453356  32.2500825  88.9940548
  48.6379099  32.5175333  88.4647179  42.1347475  37.8853893  55.2544069
  42.2088242  36.9451380  55.0910854  41.7182302  38.2333589  54.4659519
  20.8308649  35.1208973  62.4481058  20.1805162  35.8216929  62.4015903
  20.3171635  34.3142819  62.4066877  67.6482677  54.3213797  34.5011687
  68.2633162  54.7649813  35.0852609  68.1766033  54.0691566  33.7438846
  23.9396644  72.1654272  48.5908794  24.1341090  73.0996084  48.6666107
  24.3243098  71.9078684  47.7530575  27.1736908  50.4559040  58.7516737
  27.7944088  49.7470331  58.5830069  26.3564682  50.1589584  58.3514166
  16.7209005  35.9015489  57.2996950  17.2225249  35.1392889  57.0106173
  17.3788679  36.5032268  57.6479673  43.8371277  41.8677092  52.9610300
  43.9861536  40.9541130  53.2046747  43.1723118  41.8268776  52.2735834
  28.1569076  44.5935249  38.1114626  28.2858634  45.4104376  38.5933948
  27.8992438  44.8720026  37.2326612  34.3955898  67.8186226  10.7256353
  33.5951114  68.2887363  10.9589946  34.9532747  68.4821463  10.3194904
  48.7255287  28.5135174  98.2627019  49.3567324  29.0869617  97.8279837
  48.0186749  29.0985107  98.5354170  14.5176864  55.9382248  69.0605116
  14.0031266  56.6055441  68.6064816  15.4244328  56.2303400  68.9671659
  78.1682730  65.7401276  33.4821367  78.3824539  66.5750122  33.8984513
  77.6913452  65.9835196  32.6887059  40.3561497  49.3856144  49.4543028
  40.6120777  49.1449404  50.3447008  39.5830464  49.9383450  49.5684385
  44.3093443  53.5966253  49.4922733  44.8572350  52.8117418  49.4947052
  43.4773540  53.3091164  49.8682499  18.5196912  26.1702991  47.7086735
  17.9179192  25.5157518  48.0631733  19.3447626  26.0100985  48.1667423
  29.4517446  14.3798280  34.9301553  29.4948673  15.2531826  35.3195429
  28.5159159  14.2148042  34.8151517 117.0684827  74.1817570  28.7104392
 117.2723622  73.6153841  27.9662037 116.3995082  74.7809362  28.3792424
  35.3164482  21.5125132  25.7249618  36.2638640  21.5274000  25.5892777
  35.2092719  21.5803170  26.6737223  30.8743167  47.6773167  46.4171982
  29.9844909  47.4746418  46.7059278  30.7658672  48.3939695  45.7919931
  25.1070070  34.7165442  54.5853233  24.6909070  33.8601828  54.4866276
  25.4851675  34.8996329  53.7252617  20.2728009  24.8319936  21.3566995
  20.3541255  25.7856679  21.3677883  21.0512662  24.5198464  21.8179893
  35.7190943  28.6377239  47.0274305  36.2595177  29.3524456  47.3640966
  36.0030413  28.5298347  46.1197042  44.1466808  37.9322982   6.7404604
  44.0631247  37.0035100   6.9563389  45.0807428  38.0558753   6.5716755
  41.2226152  45.7490969   8.0558038  42.0646524  45.8385801   8.5021162
  40.7823229  46.5858221   8.2050449   8.6649764  55.7975531  73.4298038
   9.0618080  56.6234446  73.7066889   8.6148006  55.2756023  74.2306042
  44.6274853  55.0812340  46.2861204  45.4599285  54.8186350  46.6789436
  44.6438456  54.6957350  45.4101324  66.5425062  36.2054873  15.4582989
  66.3170290  36.0144567  16.3687372  66.7184734  37.1463108  15.4474699
  83.7178821  40.5343533  43.8671875  82.8022212  40.3378963  44.0651798
  83.8494749  40.1955652  42.9816723  67.2094536  48.5771465  21.5559149
  66.9032574  48.9590979  20.7333660  67.8134346  49.2286205  21.9123125
  37.5824904  89.1942596  66.3588715  37.6231098  88.4462261  66.9547081
  37.8344107  89.9439335  66.8980980  15.7667971  45.2776289 101.0311040
  15.2323508  45.0532722 100.2693536  15.1329005  45.5296707 101.7025813
  17.6023722  62.1509838  49.3934488  16.8661392  61.5580130  49.2431927
  18.0171418  61.8206978  50.1903868  64.7953081  43.5063410  20.2011895
  65.2891731  44.2940474  19.9734950  65.0913239  42.8479910  19.5725560
  54.2342091  26.1127591  10.4932928  54.7096968  26.3806272   9.7069168
  54.5706320  26.6847754  11.1831069  15.9451675  52.3606586  21.7818737
  16.0540760  52.3836565  20.8311677  15.1062095  51.9198370  21.9162512
  48.5191965  66.4120483  51.6421795  48.7166023  66.5616465  52.5667763
  48.9104795  67.1593475  51.1897707  33.6830163  17.6631451  86.9998837
  34.2693329  17.5908017  86.2467384  33.9754105  18.4521866  87.4561214
  58.2697153  36.1629605  84.5980644  57.7406645  36.6458607  85.2330017
  58.0228424  35.2472758  84.7277069 123.7567366  51.4480829  45.7082939
 124.3718254  50.8486748  45.2856731 124.2897874  52.2041035  45.9543037
  41.0529089  20.8128095  45.0417566  41.5470457  20.3450131  45.7149744
  41.5400124  21.6259909  44.9087286  51.2624979  56.6157866  18.9976704
  51.1067581  56.2265587  19.8581815  51.4000940  57.5459385  19.1768742
  47.7802277  49.1119146  51.5320587  47.4408340  50.0011349  51.6336823
  47.3246241  48.6035156  52.2030210 119.2249698  86.1809254  22.1996140
 119.5753188  85.4699135  21.6630125 118.7296689  86.7228413  21.5854168
 114.4326884  43.1929922  43.7432051 115.0730533  42.5460339  44.0391970
 113.7069220  43.1121111  44.3620396  24.3845773  64.0578794  14.7667217
  24.8676968  63.5368061  15.4080570  25.0207782  64.2348623  14.0737891
  27.3158574  77.2239017 108.7726154  27.2818112  76.3039780 109.0349399
  26.4602757  77.5751257 109.0192992  30.1472163  55.9634399  65.1202154
  30.6193066  55.1731682  65.3825665  30.3056216  56.5842533  65.8313608
   2.3302005  37.3396230  23.7015653   1.9660178  38.2078171  23.5288239
   3.2499838  37.5029087  23.9102960  29.2110419  22.4849176  37.2487640
  28.5474229  23.0420876  36.8420625  28.9911175  22.4914956  38.1803322
 101.3562364  76.6816378  57.4045181 101.5702791  76.1975670  58.2020712
 101.8134398  77.5169897  57.5013781  42.7740669  17.8405964  48.9041281
  42.9745626  17.6028872  49.8094082  42.5481892  17.0111656  48.4831142
  23.4535575  19.1398633  84.8449421  22.9041457  18.3801997  84.6518326
  23.5674953  19.5741439  83.9995670  36.0393429  72.7886915  28.8979316
  36.1994791  73.7262583  28.7904263  36.8136144  72.3689365  28.5230422
 118.8402922  61.4192629  36.0395622 118.9312208  62.1192026  35.3929925
 119.5367575  60.7998705  35.8215714  25.5239844  34.2221975  27.9540086
  24.8741508  34.7193646  27.4572444  25.0353932  33.8619184  28.6940837
  24.9959469  29.0411925  64.2285299  25.3101015  28.5424876  64.9827385
  25.4724789  29.8700881  64.2741489 116.0002852  47.0878649  60.0214434
 115.8426560  46.1572361  60.1805639 116.3465292  47.4173689  60.8507633
  39.4830370  77.8777456  62.0980406  39.1149640  77.1325636  62.5728655
  40.2119780  77.5079536  61.5999174 118.0077053  28.8177490  63.5282993
 118.7457020  28.6936140  64.1251087 117.8100777  27.9385018  63.2056522
  37.2184324  25.7550907  66.6344309  36.7127228  25.1471233  66.0951138
  37.3194480  26.5337753  66.0870075  66.0958958  37.5788546  81.7843819
  65.6970453  37.6590943  80.9179497  65.3889227  37.7904058  82.3940277
  22.3682737  28.9743328  66.1425018  22.0949650  28.1644344  66.5733147
  22.7419901  28.6879754  65.3090954  26.9103575  32.0085931  74.1194487
  26.0993338  32.4826646  73.9357996  26.7513275  31.1246681  73.7883615
  47.7283382  27.4714756  35.3451777  47.2101593  27.2671080  34.5667458
  47.1024132  27.4271083  36.0680056   9.2646533  69.1443777  57.4496698
   9.1730630  69.7777367  56.7378426   9.6594441  68.3760452  57.0373154
  27.5235629  17.1787250  28.5780239  26.7346048  17.0515740  28.0511379
  27.3297501  17.9445601  29.1185474  20.1346087  43.8257027  56.3486147
  20.3722858  42.9063129  56.4688873  20.7775402  44.3091393  56.8674183
  30.3070712  26.0305357  21.0189986  30.6823850  25.4597044  20.3485322
  30.5165005  26.9166470  20.7237458  17.8133774  57.7610159  50.4932833
  18.3645737  58.4014893  50.0436068  17.3559237  57.3020983  49.7887516
  28.7435389  47.2040367  49.5144367  28.5459161  46.9601440  48.6101723
  28.0286145  47.7884483  49.7665882  18.4723139  15.1650155  56.9330549
  18.1665087  15.2869093  57.8318644  17.7730215  15.5296695  56.3906050
  33.0671787  30.4806209  15.1108086  32.5252318  30.7725692  14.3778074
  33.9282036  30.8617711  14.9387836  14.2939806  50.1329231   5.6124210
  14.1783786  49.4387770   4.9635524  13.8232100  50.8823872   5.2478570
   8.4990603  37.2612643  54.2744780   8.7006050  36.8459296  53.4359598
   8.5370642  38.2001376  54.0919781  22.9431558  50.7409954  50.0544119
  23.4057021  51.5576935  49.8665571  22.5084758  50.8992195  50.8924150
  28.8698483  18.9372587  52.3074484  28.6799955  18.0643713  52.6513290
  29.8157263  18.9363468  52.1606541  32.7940583  57.1568966  28.2531881
  32.9248524  58.0090523  27.8373027  32.9262304  57.3230886  29.1865396
   4.7115806 112.1198463  25.5667925   4.4988123 111.2226772  25.3097844
   4.2609802 112.2428989  26.4022851  27.2722936  61.0944986  54.3823195
  26.4181519  60.6850290  54.2444563  27.1155310  61.7537832  55.0583410
   3.9879972 103.3889771  61.1755705   4.0360546 102.4531269  61.3708019
   4.8651364 103.7194633  61.3695669  25.0309443  74.7452974  57.5097179
  25.4960084  75.5677652  57.6629972  24.9726868  74.6771002  56.5567303
  41.2476921  55.1156282  51.8450928  41.7620420  54.3099260  51.8952990
  41.8533659  55.7645035  51.4868212  42.1768761  81.6530609  48.1383705
  41.5500116  81.2018871  48.7038136  42.3105574  82.5024891  48.5588789
  19.0489483  44.1208649  31.6833162  19.5361233  43.3553648  31.3785243
  19.6313465  44.5383120  32.3179698  46.0492277  38.0234385  57.2949600
  45.1031637  38.0770350  57.4303102  46.2425518  37.0863986  57.3234653
  43.4257030  60.9594488  70.1744127  43.7098503  60.7446194  69.2859650
  42.5048780  60.6994152  70.2008343  37.8023672   6.7554986  11.0654342
  37.3951817   7.5381815  10.6941664  37.7089620   6.8629879  12.0119822
  45.2020407  54.1698027  32.6172853  45.8430576  53.6120987  32.1764946
  44.8367786  53.6158133  33.3071470  47.7404785  38.4437966  43.5061789
  46.9902658  37.8543973  43.5837460  48.4372044  38.0108714  43.9995146
   5.4535031  46.4544630  36.6293359   5.6300503  45.6287479  36.1784887
   5.3255391  46.2050295  37.5445628  18.3573270  54.6234608  73.3007479
  18.5398138  53.9943027  72.6028252  18.8433874  54.2915010  74.0555859
  41.5607262  37.5752378  36.6509485  41.0653019  36.8559027  36.2593555
  41.4295912  37.4712110  37.5934005  31.8091202  48.2010698  42.4625635
  32.3549819  47.6913166  41.8638802  31.9416595  49.1097975  42.1926022
  21.2130141  52.5611067  60.2699709  20.9560752  52.3142052  59.3815756
  20.6799746  53.3310413  60.4682207   5.6157535   0.1209021  55.9557819
   6.1154926   0.6718831  56.5582037   6.2804645  -0.3712504  55.4739332
  44.7930002  44.8353338  50.5742359  44.6771193  44.0260458  50.0763893
  44.4656706  45.5225277  49.9938488  45.3209066  32.1464968  38.7879133
  45.2230453  33.0979991  38.7518549  44.6427536  31.8135285  38.2001424
  36.4785337  47.3936415  15.9436011  36.2917471  47.9818821  15.2119458
  37.1104956  46.7667723  15.5916202  12.5534236  57.7153254  48.1359911
  12.8882408  58.1041479  48.9440393  11.8789113  58.3256578  47.8380680
  48.7081337  51.2988949  49.5892239  48.4185982  50.4421425  49.2755795
  48.3241653  51.3765192  50.4625940  34.5465088  26.0116553  34.5233321
  34.0489411  26.8162513  34.3774462  34.0020466  25.3213787  34.1447639
  32.7957582  55.7295561  39.6134162  32.8710628  54.8099375  39.3587399
  32.0026684  55.7658291  40.1481342   2.8172973  73.5462046  15.7579184
   2.1650620  73.7527943  15.0884843   2.9979759  72.6140594  15.6366920
  43.8240385  42.1603298  37.4069500  42.9310751  42.2114277  37.7478886
  43.9169836  41.2538767  37.1138096   3.3034074  60.3134918  38.6220956
   2.4466625  60.1340246  39.0094066   3.5071358  61.2079716  38.8952923
   2.8886873  30.5409598  53.8564348   3.8312331  30.5227184  54.0222836
   2.4997455  30.1570034  54.6422672  32.0830822  43.2244015  61.4492750
  31.6500354  42.9732561  60.6334162  32.9622102  43.4919071  61.1813068
  31.2302780  58.6805773  33.1876230  30.7474136  57.8544521  33.1633186
  32.1330214  58.4364510  32.9834461 117.7413452  54.6136808  52.4558258
 117.5368596  55.0953054  53.2573605 118.2881922  55.2137375  51.9487524
   1.3788952  41.1809683  41.8555260   0.6670646  41.7394066  41.5429974
   1.7912728  41.6876221  42.5551510  69.5805788  37.5281429  38.8123584
  69.2486668  37.0174479  38.0739427  69.8200703  36.8732643  39.4681072
  45.6061935  41.7685795  45.4384661  46.3789320  42.2953939  45.6423569
  45.9318066  40.8691263  45.4039907  32.2805166  67.9553699  52.9073048
  32.9055166  67.4800587  52.3598671  32.4912620  67.6853657  53.8011265
  20.8116460   0.3758561  31.9050622  20.5112696   1.0527514  32.5115442
  20.5041909   0.6692035  31.0473633  48.5657978  72.7671528  51.2161636
  48.2989693  72.0419836  51.7811108  48.2478952  73.5502958  51.6654491
  25.4653192  14.1082251  75.3976107  26.1282945  13.7326109  74.8182917
  25.7604146  13.8799059  76.2790966  52.6090765  20.0194669  34.3380594
  52.9038620  19.8500073  35.2328324  52.2759867  20.9165382  34.3614697
  26.1412382  48.9152145  50.4299164  25.4927230  48.5305977  49.8402357
  25.6712627  49.0395403  51.2544775  75.6684274  16.2957692  71.1591482
  76.4574403  16.3323569  70.6184530  75.6618137  17.1291828  71.6299009
  22.5845051  24.4600916  39.1854906  23.0725646  23.9679050  38.5253525
  21.7738724  24.7138739  38.7442398  11.0312486  59.5701694  45.5279970
  10.4318583  59.1882420  44.8868275  10.8937573  60.5143595  45.4516649
  23.5985661  40.3492212  10.9855914  24.1597033  41.1027908  10.8025980
  23.2407880  40.5228329  11.8562734  28.7131310 108.9398861   5.9074759
  28.0515718 109.4597721   6.3638580  29.5364952 109.3975639   6.0772842
   3.7332481  35.6293297  38.8674760   4.4061613  36.2681174  38.6321735
   3.4808159  35.8651757  39.7601604  19.2207980  31.8652654  21.1018825
  19.5905197  32.6936102  20.7962990  19.1395271  31.9743037  22.0493722
  41.5519905  67.0320177  57.1020269  41.2241697  67.5139856  56.3427687
  42.1754456  66.4044333  56.7364073  53.9617014  44.1501951  45.4840994
  54.7182608  43.8990688  44.9542046  54.3019676  44.2037725  46.3771725
  35.7160449  44.7704220  47.3871756  36.2530780  45.4987955  47.0752525
  35.8638000  44.7516441  48.3327150  34.7914791  51.2882900  62.4290276
  35.1852632  51.8008566  61.7230225  35.3045201  50.4805660  62.4534988
  10.1055348  30.2230811  40.1293325  10.1581848  29.4092989  39.6281195
   9.3759179  30.7006907  39.7346425 112.0484287  27.2992492  83.8924789
 111.1615068  27.5218916  83.6095715 112.2712094  26.5165782  83.3884621
  35.1457953  67.5316048   1.6050304  35.4222441  66.7774200   1.0844363
  34.6062016  67.1571493   2.3013449  17.4771821  11.7588222  79.5213032
  17.2737813  12.4384177  80.1639652  16.6232336  11.4715803  79.1980457
  28.4521317  52.5628567  16.9042945  28.5103202  51.7660904  16.3770235
  27.6105189  52.4911308  17.3546004  20.7195878  63.2442570  38.7579608
  20.7402635  62.7556610  37.9351139  21.6405821  63.3543968  38.9943242
  27.1704197  26.9005585  16.9303513  26.8171716  26.7114878  16.0610414
  26.5471029  26.4978623  17.5349522  14.9845803  58.7897730  63.2397127
  15.3481531  59.6685505  63.3483505  15.3965700  58.4570026  62.4423695
  21.5069342  33.4865642  35.8805704  22.4530268  33.3601308  35.8087921
  21.4087963  34.3824768  36.2029648  22.5070167  26.5404367  27.1670580
  22.4253178  27.3498392  27.6714683  23.0150557  25.9571195  27.7308583
  28.1870294  86.9505692  13.8600981  28.1154108  86.6279984  14.7584558
  28.4435678  87.8678799  13.9547312  35.5826449  65.3895378  10.4481649
  35.9613252  65.5158186   9.5781732  35.1957273  66.2374306  10.6663430
 122.4461345 137.0081122  32.8681278 122.1755163 136.1901362  33.2851553
 123.2339822 137.2704805  33.3442473  27.8097749  46.4637184  58.4754944
  28.5922456  46.7073631  57.9809141  28.0784225  45.7016611  58.9886522
  20.2147412  43.9753771  14.6262884  20.4589176  44.8988819  14.6874774
  20.5377531  43.5878229  15.4397368  20.0305939  57.5475407  56.8118572
  19.5286191  57.8130341  57.5824165  20.7863927  57.0802355  57.1676970
  12.8949940  55.9628963  16.7157626  13.3077776  55.8633757  15.8578944
  12.6813042  55.0691986  16.9838607   1.5088958  37.8957343  37.8151417
   2.0154494  37.5784397  38.5627770   0.7002587  38.2338476  38.1998706
 123.2797065  52.0249367  -0.2100344 122.3477451  52.2213793  -0.1146879
 123.6990549  52.4987316   0.5082258 120.2498350  49.5736074  26.3053107
 119.7765449  50.4002428  26.3996911 120.8210907  49.7096443  25.5494046
  27.7821016  63.2049274  38.8320708  28.2560992  62.8146410  38.0977440
  26.9950080  63.5798740  38.4369373  40.0110149  53.6746550  27.9368949
  39.1972589  53.2239962  28.1625891  40.0384569  54.4287539  28.5258055
  52.0959187  67.7582932  21.2491584  51.2991571  67.3094082  21.5318322
  51.9168711  68.6854649  21.4057779  51.9542170  37.3333693  20.5010128
  51.9829178  37.7510548  19.6402299  51.2500429  37.7871799  20.9640765
   1.5000832  40.7320642   2.4577954   2.3898998  41.0801077   2.4001282
   1.4037403  40.1899338   1.6748267  10.9490454  45.2787352  41.4036036
  10.2712679  45.4422760  40.7477760  10.4838967  44.8650503  42.1307373
  18.3632267  48.3065176  30.8176351  17.7535343  48.0870819  30.1131105
  19.2237937  48.3058643  30.3985214  64.2098236  44.5173454  48.0392504
  63.5095644  44.7400045  48.6526775  64.5953655  43.7171793  48.3960724
   2.8029388   1.5032089  35.8407378   2.2649337   0.7335632  35.6551909
   3.1754741   1.7450877  34.9928331  36.2329793  61.7382956  41.5734625
  35.5211115  61.2149048  41.9416142  36.3417482  61.4025354  40.6837082
   4.9098280  57.0887136  23.9594436   4.3692803  56.6682625  24.6282172
   4.3299854  57.7326584  23.5528111  30.1173902   2.9388970  19.6200252
  30.4892564   3.8121036  19.7443569  30.5995440   2.3837560  20.2328706
  47.5117397  57.3668623  31.4550090  48.3155107  57.7512980  31.8048501
  46.8312263  57.6291370  32.0749664   7.7739036  81.4309978  12.7379358
   8.5327786  81.9088840  13.0725479   8.1475174  80.6745434  12.2857940
  14.7207510  23.7039304   0.7497238  13.8747025  24.1352415   0.8697378
  14.7495937  23.4883404  -0.1824352  31.6972280  42.9716587  22.7139878
  31.5114975  43.7356663  23.2599068  30.9109163  42.4303341  22.7840924
  26.0479164  55.5941057  20.2853894  25.5230284  56.0728025  20.9269261
  25.7148695  54.6975660  20.3245115  54.0861130  35.7245994  25.2695751
  54.9460554  35.3394842  25.4381466  53.9492989  35.6031442  24.3300223
  28.8439536  26.2407780   2.4425018  29.4423914  25.6919527   2.9493517
  29.3278074  27.0542479   2.2997281  10.3284168  36.7846251  56.1824703
  10.2878416  37.5713825  56.7261553   9.6009916  36.8805170  55.5677414
  52.5602961  49.0415239  28.3244872  52.7155542  49.1698313  29.2602563
  53.1073332  48.2913637  28.0915880  93.8206453  22.6236415  63.1888390
  93.1730527  22.0860147  63.6447048  93.5751504  22.5629830  62.2656488
  25.1626182  68.8112736  35.4208040  25.2928734  69.3704891  34.6549416
  24.8761749  67.9726219  35.0590730  83.2634563  44.0552139  28.2914615
  83.3340711  43.3706379  27.6261783  83.1386394  43.5793066  29.1125345
  28.5169244  27.9521775  11.1657691  28.7980461  27.0561028  11.3508391
  28.9428973  28.4810019  11.8403995  42.3910809  83.7112808  64.4913435
  43.1733322  84.1930866  64.2226791  41.7563677  84.3914986  64.7164631
  57.3198032  89.6759605  64.4071436  57.0169735  88.7997627  64.6454811
  58.2731295  89.6274567  64.4782019   3.9397344  51.1494875  99.8225936
   3.8414568  51.5631962 100.6801578   4.7216442  51.5558577  99.4488164
  29.6543956  57.2122526  68.1050634  30.4728913  56.9155788  68.5029078
  29.8484111  58.0940437  67.7871990  12.5322688  76.3047886  43.7098742
  13.3687675  76.1467266  43.2722425  12.3175907  77.2126389  43.4955072
 104.5444102  58.9154959  42.4848175 104.8744065  59.6338844  41.9451380
 104.7762520  58.1244087  41.9983435  41.0291815  49.8793697   1.6777383
  41.0611343  49.9828291   0.7266828  40.4244184  50.5602360   1.9725496
 123.4513103  14.8999977  33.3575797 123.6570611  15.3982878  32.5666261
 124.1087573  15.1796162  33.9946103  39.8131752  40.3661060  40.7223463
  40.4953957  39.7172260  40.5498362  40.2758551  41.0968494  41.1324406
 118.2764662  63.3143282  98.2963141 118.2107348  62.3602200  98.2564887
 119.0421916  63.4788942  98.8466009  38.8833642  30.8628869  69.2745256
  39.6681094  30.7790923  68.7328720  38.1703210  30.5619574  68.7112808
  50.6231880  65.3551197  31.7402267  50.2890873  65.3849268  30.8437228
  50.9398842  64.4582939  31.8481112  36.0479832  54.3125439  55.8989620
  35.7395315  53.5689688  56.4168262  36.6182446  54.7989464  56.4943171
  34.5578337  69.2066765  26.7963719  34.9765348  69.4763041  25.9789228
  33.7182760  69.6664238  26.7984486 103.0346317  81.4285946  44.6474361
 103.5065669  82.2482777  44.7945118 102.1357960  81.6998577  44.4610357
  43.0794859  46.9079065  23.1048965  43.6714077  46.5015554  23.7379384
  43.0952120  47.8391361  23.3257937  32.9226327  36.6766691  43.9039707
  33.3870196  37.4989057  44.0605164  32.5565648  36.7720032  43.0246878
  24.5108914  52.2964239  32.7686357  24.0839124  52.1679783  33.6156440
  25.3556848  51.8551064  32.8569031  12.9798543  90.2518177  47.2466278
  13.1621718  89.3167496  47.3395014  12.1052098  90.2880096  46.8594360
  23.9444375  44.1001606  12.8808415  24.4333720  43.2775784  12.9039884
  23.1229544  43.9032555  13.3309782  26.0553527  63.7899446   1.6948394
  25.3576922  63.1347609   1.6793747  25.7067180  64.5230675   1.1876751
  22.4247622  48.8018799  18.7691271  22.3087668  47.9896879  19.2622018
  23.3735991  48.9017010  18.6918080  39.1359806  36.4879680  17.7487719
  39.3078828  37.3053432  17.2812462  38.4821272  36.0386610  17.2132039
  47.9862833  50.2985954  10.4151428  48.8691807  50.1756907  10.0664055
  47.4325991  50.3875732   9.6394199  15.1033747  74.8372221  22.8436637
  14.3230617  74.8695183  23.3971071  14.8849058  75.3846407  22.0894504
   0.8205489  43.4658527  30.4111409   0.4084871  42.8429174  29.8124886
   0.1840978  44.1760921  30.4931307  32.9054832  33.8988495  28.0414128
  33.8215566  33.8339186  28.3112717  32.9179096  33.7074518  27.1036243
  42.2610140  53.2486820  16.8675721  42.5701761  53.1222773  15.9705365
  42.0977163  52.3629522  17.1916831  36.7490506  43.6486292   4.0581578
  36.3230157  44.3582296   4.5389834  37.2725058  44.0921164   3.3906642
  41.1319590  16.6940331  55.0824928  40.4299593  17.1102691  54.5823193
  40.6803226  16.0908771  55.6727934  28.2285213   9.7198725  56.2048769
  27.8333855   9.7904158  57.0738554  28.8982654  10.4035783  56.1900854
  30.1910520  32.4283671  41.7179632  30.8228254  32.6082063  41.0217237
  30.3044581  31.4974499  41.9096947  27.2799325  82.4033260 102.3425331
  27.3229671  83.1765652 101.7799696  26.7231774  82.6700306 103.0740550
  65.5450487  56.5894747  26.2555718  65.8496523  57.4002075  25.8479428
  65.3165817  56.8422794  27.1500707  38.3175468  42.3381519 100.0610765
  37.4155331  42.2821999  99.7456785  38.3859515  43.2159519 100.4366025
 107.9775626  35.3847528  19.5293713 108.7439317  35.0499868  19.9950337
 107.3307807  34.6823311  19.5965147  61.5255070  76.3975716  29.9780726
  60.9844303  76.1501694  30.7279110  61.4141417  77.3454380  29.9047041
  69.5090199  12.1502447  18.3364308  69.7073460  12.6702559  19.1152036
  68.6384916  11.7895091  18.5046101   5.1108813  74.9977732  98.4398063
   4.8538053  75.7248688  99.0067943   6.0639590  75.0647974  98.3816405
   3.8553232  46.5010834  26.2835503   3.3402598  46.1528873  27.0113564
   4.7651350  46.3925123  26.5604734   7.6994306   3.4102145  48.8102341
   6.8078363   3.7409848  48.7012291   7.8450197   2.8566945  48.0429983
  24.3629813  34.2423248  85.9901428  25.2129936  34.3723512  86.4106274
  24.3549562  34.8695993  85.2671623 116.9237078  46.0187674  34.4107699
 117.8250522  46.2203026  34.1593838 116.3956881  46.6743803  33.9551353
  16.2537777  82.3082161  57.1519661  15.9143519  81.5856075  56.6238928
  15.7016158  82.3134708  57.9338360  98.9008517  73.4757233  56.1025047
  98.3949537  74.1304350  56.5838051  98.7827248  73.7108278  55.1821804
  49.2895842  36.7189479  48.0467367  49.0549421  37.6467133  48.0260611
  48.9446449  36.3663149  47.2264338  19.1038752  27.1151853  16.7022085
  18.9466524  27.8408670  16.0981405  20.0418758  26.9398856  16.6270101
  52.0955801  69.5522118  25.7978320  52.8225756  68.9306021  25.7616711
  51.4154387  69.0967178  26.2939811  32.6052809  28.2247615  39.0700531
  32.4336576  28.9685750  38.4925413  31.8867159  28.2415581  39.7022033
  46.5331268  55.1260424 102.7950313  47.4656868  55.0452566 102.9951336
  46.5084791  55.4435682 101.8923684  37.2333431  16.5125620  23.0037093
  37.3003840  15.7636857  23.5960937  38.1264329  16.6482389  22.6871419
  23.6585546  42.3798800  18.7937081  24.0172482  41.8837929  19.5295548
  22.9664755  42.9159260  19.1808927  21.3947463  49.8661852  27.6662183
  21.3810349  49.4841385  28.5437632  20.4841685  50.1069021  27.4955344
  25.0559616  72.7760553  35.4585934  25.3585100  73.6141300  35.8083391
  25.8527803  72.3421144  35.1536226  38.1874084  33.4317684   5.1779795
  37.7513742  33.6782336   4.3622822  37.9149890  32.5270534   5.3313047
  27.6726389  26.0492229  42.9218912  27.6107454  26.7604804  42.2843075
  28.4277391  25.5355692  42.6351595  39.3006063  40.4431248  98.6133631
  38.9917064  40.9565496  99.3598267  40.1986647  40.2038622  98.8424333
  11.3967645  75.6979084  13.6848617  10.9462202  75.0324488  13.1648517
  11.7621469  75.2155066  14.4264925   6.6047370  70.9228992  99.3676873
   6.6487813  69.9952173  99.1359612   5.7311529  71.0349178  99.7425672
  21.8602538  26.8041945  12.7581954  22.7525544  26.7037606  13.0897713
  21.5365410  27.6005936  13.1791341  36.1651707  12.7596700  14.6025872
  36.3032508  13.5300982  14.0515816  36.8422651  12.1424782  14.3253720
  21.7615294  26.4433503  49.8841810  22.0603943  25.5447769  50.0237417
  21.9924593  26.6340947  48.9750481  50.2062607  32.5116134  20.2931190
  50.2267170  32.0266700  19.4681084  50.7460594  33.2850289  20.1297760
  29.4666123  33.1592917  24.9798107  29.4606161  33.1922007  24.0231967
  30.3583384  33.4086394  25.2224612  32.6098204  58.1591749   7.8786224
  32.5460839  57.6185846   7.0912647  32.7452087  57.5323248   8.5892284
  28.6783338  40.0384235  45.9326124  29.0628242  39.6650839  46.7257214
  27.7411509  40.0875902  46.1210299  32.5124145  44.9331474  27.2905421
  32.3453689  44.0014362  27.1482730  33.3090520  45.1126385  26.7911553
  23.8524556  50.0251532   6.3887250  23.6426640  50.9456348   6.5466392
  23.4716702  49.8364401   5.5310410  36.9006443  27.3747015  23.8075089
  37.5073218  27.2068405  23.0864000  37.2383189  28.1670690  24.2250776
   6.8171877  48.2485914  25.2157545   7.5455308  48.2623243  25.8366895
   6.3789165  47.4134445  25.3790879  36.2303591  58.0619669  57.2265053
  36.9577551  58.0464268  56.6045046  35.6386447  57.3747015  56.9202852
 124.2129520  38.9216685  39.3789268 123.3191045  38.6024046  39.2550755
 124.4687848  38.5896707  40.2394819  27.4135804  60.5966949 106.1460408
  27.9181886  60.1968145 105.4377326  27.2775626  61.5007401 105.8624338
  75.9635019  48.1842327  32.5952291  75.6429005  47.2826624  32.5702429
  76.4163399  48.3006382  31.7599940  37.2765923  60.7426214  25.0555182
  37.8524280  61.4132309  24.6882010  36.3940215  61.0937357  24.9371123
  15.8347070  75.0866604   1.4716695  15.7893348  74.1801357   1.1677249
  16.5724766  75.4634237   0.9921092  17.8670406  63.9663029  23.7328124
  18.1798899  63.0691290  23.8487196  17.5965762  64.2407274  24.6090388
  69.7209930  62.4390316  33.0396032  70.2503157  62.3287058  32.2497439
  69.7435093  63.3800268  33.2135153  42.3718643   5.3778183 103.2320776
  41.6607189   4.7846276 103.4742149  42.9642105   4.8397759 102.7068468
  31.6899133  45.6028080 102.9157444  31.6361046  45.9390831 102.0211735
  30.9208035  45.9660149 103.3548155  10.3390884  56.4553452 105.6772804
  11.0591924  56.0364056 106.1486324   9.6433675  56.5402126 106.3292017
  39.3800950  73.7919950  75.3911495  40.1543188  74.0726757  74.9032688
  39.0530443  74.5920992  75.8023691   1.8660538  61.2908125  33.4611368
   1.7673157  60.9202814  34.3381691   1.9726798  60.5299139  32.8902650
 111.1559565  55.3718424  35.1443624 111.1315376  56.3163090  35.2980494
 111.4366753  55.2845907  34.2334199 121.0090706   6.7382878   3.8473275
 120.3468362   7.1951616   4.3659252 120.6489984   5.8608019   3.7184942
  21.2389183  70.1921177  48.0136108  21.4304280  69.8318434  47.1477270
  21.0125852  71.1072302  47.8475714   3.3722669  49.5454836  20.9970593
   3.4823796  49.5097637  21.9472337   2.7911538  50.2919817  20.8511829
  55.2218294  42.8187370  23.1196976  56.0778809  43.0214357  22.7424431
  54.7184563  43.6266708  23.0192757  34.3412828  44.4620132  19.5365989
  34.2704034  45.0392056  18.7762988  34.9387360  44.9184847  20.1289797
  17.6853263  34.9527788  23.4184909  16.7588949  34.7630978  23.2702374
  17.7789986  35.8787513  23.1948090  60.7291031  55.4121447  23.6792135
  60.8756256  55.7271194  24.5711517  59.7778368  55.3353500  23.6055660
  28.1131887  69.3450785  53.8729763  27.2780728  69.7497511  54.1076183
  28.4267497  68.9530754  54.6879911   7.0695937  73.2104492  10.8050215
   7.6329517  73.6821556  11.4184999   7.6750135  72.6971006  10.2700710
  22.5853467  73.2523966  58.0450535  23.4606624  73.6382723  58.0790377
  22.6995039  72.4431992  57.5466585   7.8712940  32.9752135   1.0304850
   8.6535740  32.5100708   0.7339881   7.9889148  33.8697290   0.7107351
 115.1015938  36.9483447  22.5322676 115.5511863  36.2660265  23.0308032
 114.1798944  36.8521500  22.7719545  23.3050966 100.2212524  42.6135492
  23.5318446  99.7254944  43.4003401  22.3604131 100.1000690  42.5180578
  52.7036333  26.7762065  43.3774662  52.1507454  27.2087312  44.0282154
  52.2121763  25.9936929  43.1277180  33.8248277  43.8075829  40.7991838
  33.6240005  42.9469967  40.4313612  33.5412288  43.7501860  41.7116022
 120.5086339  52.8876925 109.3333064 119.5525623  52.8876877 109.2868386
 120.7385597  53.7944221 109.5362968  26.9247746  41.5073109  53.0113459
  26.9204688  41.0572863  52.1665430  26.9944429  42.4354649  52.7879381
  45.0046253  44.7689199  11.9760048  44.3040705  45.3774452  12.2108471
  45.7870817  45.1332617  12.3898292  45.1459122  72.3703575  57.9677629
  46.0082626  72.7000570  58.2205153  45.3281641  71.5509605  57.5077534
  26.1553264  13.9071405  38.0379963  26.8205976  13.6202466  38.6635661
  26.4931917  14.7326958  37.6908135  15.5075872  54.4220543  23.5087466
  15.8228660  53.6309338  23.0717587  15.7372701  55.1335382  22.9110289
  31.3939428  26.1864495  17.9709661  31.7543149  27.0141053  17.6526105
  32.1334982  25.7501435  18.3939660  22.8481317  32.7436280  25.3067923
  22.1746087  33.0240440  25.9264445  23.0208445  33.5194731  24.7734380
  37.9234290  74.8577261  32.7987862  37.8445053  75.6488848  32.2658062
  38.1257772  74.1647196  32.1702695  15.6666625  77.3067284  51.9888401
  14.9777794  77.9370022  51.7780685  15.6033456  77.1908188  52.9368877
  10.1751626  65.8076811 108.2225380  10.3757179  64.8899746 108.0386058
   9.7924525  65.7980251 109.0998474  17.6724827  59.6401405  41.7507744
  18.0377114  60.5129671  41.6058016  18.3447826  59.1795540  42.2528744
   1.6851982  63.4036827   2.0072055   0.8137488  63.7480402   1.8116899
   2.1752211  63.5154772   1.1925823  35.9006143  24.5609617  27.7915215
  35.1287460  25.0096989  27.4464345  36.5240026  24.5637512  27.0651531
  53.3165169  31.6716623  12.8887713  53.9365768  32.3066163  12.5301731
  53.5726357  31.5787101  13.8063729  16.0707629  46.9470024  26.7856312
  16.1180961  47.0529747  27.7357674  15.4542160  47.6211214  26.4998674
  56.6002750  44.3969965  10.8465886  56.4625978  44.3560266  11.7929494
  56.0728979  43.6789751  10.4965258  44.2715406  25.6360579  44.3120289
  44.5272017  26.1821389  45.0554419  45.0762701  25.1835394  44.0592909
 111.2494034  68.8853216  39.9304342 110.4076607  69.1023350  39.5296764
 111.0212655  68.5315180  40.7900906  25.6249928  60.0995731   9.3313175
  25.6686258  59.2174816   8.9622009  26.3503051  60.5681753   8.9183277
  21.2887311  57.0054722  73.5090780  21.8417859  56.9080639  74.2842340
  21.6845202  56.4259672  72.8581095 115.7461095  31.8009233  20.6786513
 115.7529981  31.8760324  21.6328740 116.0923118  30.9256244  20.5047894
   0.8562078  50.6648350  12.1207547   0.1279494  50.6622076  11.4995754
   1.6355768  50.5521488  11.5765882   0.6469174  79.0442181  22.5745320
   1.3027534  78.6209965  22.0204592   1.0571823  79.8650026  22.8469777
  37.8441525  67.2615051  25.9773469  38.3917642  67.5474358  25.2461863
  37.9652190  67.9362202  26.6454315  76.9350719   2.8105786  42.6387978
  77.5663757   3.1899786  42.0274496  77.4554396   2.5810194  43.4086990
  31.0287476  40.8410597 103.9917203  30.6224155  40.6970024 103.1371012
  30.3117037  41.1411476 104.5503160  19.9519873  50.4182816  50.7251120
  19.8705959  49.5531654  50.3236389  20.2384043  50.2405882  51.6210032
  38.3324599  53.4366894   9.7781634  37.9941893  54.0160513  10.4609120
  37.9121733  52.5938988   9.9493086  49.2515898  64.8502684  97.5307831
  49.5823717  65.7340384  97.3702642  50.0374699  64.3223572  97.6719698
  18.8670397  45.3361893  39.6038914  17.9862130  45.6749964  39.4439387
  19.3329823  45.4821873  38.7805986   7.1527332  66.6888809 107.2739505
   7.4403566  66.8726540 108.1682282   6.9575030  65.7518053 107.2729456
  35.1529264  47.1776104  41.3926983  35.9576368  46.6707945  41.5013409
  34.7305489  47.1433210  42.2509813  46.3081551  50.8227253   8.3679998
  46.3083839  51.1365604   7.4637115  45.7619572  51.4515781   8.8396370
  53.7862587  17.8264272  25.4882860  53.1619120  17.8311110  24.7627521
  54.4511318  18.4672570  25.2362633  33.3219600  23.7662268  33.7896276
  33.3453870  22.8993988  33.3842945  32.3957205  24.0076709  33.7853646
  25.3049016  63.7131214  19.0437734  26.0465574  63.1313133  18.8773978
  24.6121526  63.3886194  18.4684229  10.9561670  19.1909587  90.7835599
  11.2068319  18.6895156  91.5594169  10.8454502  18.5321450  90.0980397
   4.3944743  60.8603954  87.4293479   4.6589682  61.7007446  87.0550665
   4.2065576  60.3085756  86.6701277  32.3070621  44.9965858  30.4138041
  33.1287003  45.3081608  30.7933640  32.5287271  44.7792625  29.5083380
  98.6704726  13.9695621  17.4151087  99.4916005  14.3983352  17.6562202
  98.0181045  14.3554747  17.9996777  50.8410788   8.2051152  98.5975155
  51.7247820   8.5207522  98.7864038  50.2658844   8.9071667  98.9016589
  16.3307655  52.1563101  45.5139875  16.5886140  51.7600918  44.6816683
  15.9660470  53.0073786  45.2713108  42.1793938  76.2999439  46.4538050
  42.8753042  75.6428719  46.4398241  41.3938761  75.8225965  46.1867189
  29.8728442  63.1356621  33.8225889  30.2621055  62.2723722  33.9620066
  29.6034956  63.1314421  32.9040766  60.3975821  49.4103050  90.0228354
  60.9512901  50.1895046  90.0727018  60.9068441  48.7873745  89.5043334
  42.2487116   8.8148797   4.8568872  42.9940605   9.2538530   4.4470164
  41.6716433   8.5907745   4.1268206   6.0511184  95.6735516  28.9623809
   6.4728266  95.6860352  28.1031752   5.7260299  94.7781944  29.0566444
   4.7091362  20.9973598  49.4831991   4.1642183  20.6034636  50.1644802
   4.7484952  21.9253135  49.7146797  38.9351726  56.9809294   8.1134844
  39.3345094  57.4882174   8.8201809  38.9589334  57.5655842   7.3559606
  50.1658010  51.6800737   0.8944741  49.7495031  51.0938120   0.2626311
  51.0566330  51.7950773   0.5636750  33.8448668  80.0320721  66.7566252
  34.3948674  80.0947762  67.5375223  33.8064384  80.9266472  66.4182711
 118.0898590  32.5052929  23.7095141 118.5029144  32.5159431  24.5729399
 118.4305198  33.2851911  23.2714033  14.6445799  74.2565775  28.3723712
  14.0544653  75.0057983  28.2907391  15.4271507  74.6127892  28.7929988
   8.2767600  53.3855104  21.2486219   7.8596818  54.2026663  21.5216303
   8.7775159  53.1046534  22.0145178  12.7760851  85.7522583  46.0633469
  12.5893974  84.9367046  46.5283680  11.9183946  86.1584282  45.9383535
  26.2588453  35.8276105  36.7251730  27.0996857  35.8699393  36.2697291
  26.2193561  36.6392326  37.2310805  17.8887653  25.0266337  35.9402919
  18.0974221  25.5229163  36.7317414  16.9939125  24.7171450  36.0806036
  34.9359322  57.8266001  38.9725256  34.2157960  57.2784376  39.2842150
  34.5290160  58.6722565  38.7840724  26.8932247  48.6891508  23.8851857
  26.1057830  48.4894037  23.3789611  27.0822620  49.6053505  23.6824989
   5.8727056  58.2433844  50.9387875   5.1618242  58.8798904  51.0145378
   6.4023501  58.5617304  50.2077818  29.2274165  41.9039106  22.5590777
  28.6077404  41.3903236  23.0772090  29.2251658  41.4848232  21.6984987
  28.6081982  28.5336733  23.3562994  29.1274428  27.7489042  23.5316706
  28.3137822  28.8239336  24.2196083  49.0429306  48.6816931   2.4969105
  48.9392853  49.2973995   3.2224441  48.3023214  48.8655949   1.9190593
  24.6073318  22.8190231  38.1778884  25.3089762  23.4008574  37.8856635
  24.6006250  22.1100807  37.5347781  19.5945275  13.9749908  22.3459673
  18.7444770  14.2923713  22.6507854  19.3948972  13.4827161  21.5496993
  10.7324231  90.9669876  15.8186257  10.7124960  90.3289890  15.1053298
  11.4431500  90.6692600  16.3864791 124.8209156  48.4968472 100.4986318
 124.1868417  48.1657839 101.1346980 124.8877627  49.4320107 100.6915739
  61.7338848  81.3176537  35.9366608  61.9323778  80.4355145  36.2507486
  60.9559488  81.2078094  35.3898644  44.9570274  63.4849644  28.6044526
  45.6071854  63.8542128  29.2020988  44.9028111  64.1181278  27.8886342
  54.1601515  89.2582989  64.9923325  53.5503674  89.1297054  65.7188749
  54.8185587  88.5732174  65.1081324  11.7108715  54.4691086 107.2928470
  12.3755312  53.9035559 107.6860563  10.8828664  54.0204096 107.4640545
  17.1904171  39.6151495  44.5527983  17.9869807  39.1407633  44.7908640
  16.9335306  40.0696898  45.3550673  22.8344107  56.3269281  47.0045376
  22.4301958  55.9207344  46.2378263  22.3035216  56.0269451  47.7423716
  10.1305735  51.7267942  20.0588298   9.3818086  52.1874523  20.4374766
   9.9398041  51.6894245  19.1215765  30.1318073  59.6408033   1.7478244
  30.6816483  60.2659273   1.2754628  30.5523062  58.7934875   1.6013041
  18.1585288  58.8360548   4.4551528  17.5565791  59.2651606   5.0632286
  17.6174629  58.1939125   3.9956549 121.8947617  87.8138256  27.6501393
 121.9664390  88.1902790  26.7729998 122.7895326  87.5589943  27.8752637
  50.2827358  13.5410213  46.3295078  50.5368423  12.6250219  46.2172365
  49.6750879  13.5320938  47.0690489  57.7237558  50.4384518  37.5293398
  57.5276327  49.5143032  37.3753333  58.6215496  50.4406786  37.8613043
  35.3104854  58.8393307  90.1993271  35.2959061  59.1456985  91.1060568
  34.3937206  58.8598251  89.9248179  25.8128309  60.1809406   3.1671476
  25.8243728  59.4560242   3.7921232  26.2080383  59.8195124   2.3737928
  25.3227949  51.4963007  99.8529484  25.4449272  50.6287193 100.2384564
  25.7031274  51.4250660  98.9774450  15.3006256  38.4509277   5.6388324
  14.5917284  37.9313064   5.2597660  16.0462892  38.2982993   5.0583827
 118.7141842  46.2608099 101.2838813 117.9899425  45.7648706 100.9021136
 119.4952143  45.9152031 100.8517017 118.5733867  17.2673416 106.8407469
 118.1714136  17.6067448 107.6404064 118.0463666  16.5010262 106.6143765
 122.7654990  52.8609753  13.2853997 123.0611730  53.1911612  12.4369967
 123.3149519  52.0943975  13.4487748  31.8858767  35.6864500   9.5220143
  31.1029792  35.1447868   9.6215361  31.6267681  36.5454698   9.8554492
  17.6341105  76.2145948   9.2538351  17.2515905  76.8935394   9.8096585
  17.8004670  76.6535568   8.4196484  31.9907784  56.9067860   5.2829158
  32.2255182  56.0470152   5.6320888  31.1275530  56.7781162   4.8898274
  63.6546946  53.3852816   1.6215535  63.4214497  52.5943804   1.1354417
  63.9208746  53.0665731   2.4839941  22.5062418  50.1682806   9.5241338
  22.6497936  50.9879971   9.0511829  23.3833003  49.8824358   9.7796661
  18.7689447  41.6407585   1.0075893  18.6360586  41.8458843   0.0821180
  19.5819020  41.1358166   1.0266656 117.5394929  64.1333628 109.2606551
 117.1122206  63.6020851 109.9325252 117.2921938  65.0331926 109.4736972
  43.3731222  36.0702324 106.6721606  43.5322523  36.6162896 105.9022700
  44.1812658  36.1327243 107.1813043  34.6419716  39.0474629   8.2096404
  35.2383709  39.4456244   8.8436794  34.0678978  39.7637177   7.9382533
  11.7345917  36.5151048  22.5184584  11.0596073  36.3514853  23.1771374
  12.5061107  36.7701459  23.0243683 110.2883346  33.6746430  14.1809213
 110.2197141  34.6291804  14.1613472 111.2296123  33.5026503  14.2063439
  44.1909552  30.1043320  16.1367333  45.0970459  30.2564120  16.4052546
  44.1115284  29.1515517  16.0905683   4.2307824  68.1174707  98.1154724
   3.9643374  69.0365791  98.0936869   4.2114934  67.8407240  97.1993538
  11.5707064  45.9977770  13.9963830  11.2963378  46.0178995  13.0795681
  11.5332901  46.9119358  14.2777073  62.1772480  13.6607051  28.2649374
  63.0698013  13.3152425  28.2494569  62.2565985  14.5098770  28.6994958
 117.8435839  21.1303568 103.5842963 118.6987723  21.5477800 103.4811273
 117.5213749  21.4495826 104.4272127  33.1283092  78.2699776   7.9576474
  32.5022006  77.8486204   8.5464424  32.5840139  78.7201834   7.3116684
 121.2808958  14.6659935  11.2664115 120.8252595  14.0084958  10.7407463
 121.4080549  14.2463171  12.1172547  26.8096590  24.0139198  37.2164536
  26.5151596  24.5984244  36.5179873  26.9934416  24.5956731  37.9540324
  13.7998962  43.6704063  92.0269939  13.5732806  43.9564943  91.1421033
  14.5547223  43.0942583  91.9064983  58.6923122  57.5763702  25.2363634
  58.4034061  58.3061838  24.6885157  59.6455669  57.5744343  25.1495671
   4.8026991  49.6480465  18.6173439   4.4328406  49.5275354  19.4919372
   5.1771355  48.7953663  18.3960652  37.3029113  52.4431038  72.8202327
  36.4755273  52.9003620  72.9705080  37.8518581  52.6904678  73.5643419
  34.3858266  32.4198103   9.0842581  35.3199840  32.3176575   8.9022028
  34.3538117  32.9368234   9.8891824  59.6436930  38.6949015  25.9687018
  60.0791883  39.5466304  26.0023928  59.6014357  38.4842348  25.0359297
  26.5732980  13.9716327  78.7436899  26.6344571  14.9044251  78.9495715
  27.4803209  13.6657977  78.7463483  43.6727476  26.9314528  29.4907236
  44.2498255  26.6006207  28.8024187  43.0964184  26.1949039  29.6946287
   0.8379675  61.5336037  20.1846313   1.7154774  61.5261126  19.8023319
   0.3316160  60.9366226  19.6337616  22.3870492  19.2922604  29.6444750
  22.8610420  18.7606502  30.2839684  22.2123122  18.6939001  28.9180708
  45.8151770  39.6401405  20.9092474  45.8260632  40.3304386  21.5722728
  45.7167244  38.8296604  21.4089060  47.8955078   4.3610978  26.8381739
  47.8803635   4.3786070  27.7950954  47.2117996   4.9777773  26.5764880
   9.4500023  53.2790279 108.4697478   9.2005634  52.3588419 108.3844929
   8.6186630  53.7454987 108.5564197   3.1157410  16.5196347  94.4010171
   3.3722848  16.8553984  95.2598997   2.2198051  16.8336809  94.2789277
  10.6131101  34.7943449 106.4059755  11.4353144  34.4086695 106.1035397
   9.9683177  34.5281672 105.7505178   7.6290864  24.3863153  24.8758364
   8.2405031  25.0686359  24.5986319   8.1382412  23.8357401  25.4706955
  24.6616220  56.6734409  43.2633924  24.9714756  56.0367393  43.9074707
  25.1947689  56.5066814  42.4861050  30.4008508  39.5390749   1.5431380
  30.9166718  39.9546027   2.2341500  30.8010888  39.8443937   0.7289991
  10.0361562  47.5568008 107.5341774  10.5284810  48.0194283 108.2122796
  10.1583481  48.0862522 106.7461550   3.6360371  25.4163003  13.8947988
   4.5184577  25.7684708  13.7784266   3.2092083  26.0317540  14.4908392
  10.5326009  32.4919939 104.4641074  10.8696508  31.8375492 105.0759339
  11.0730994  32.3884892 103.6809214  95.8655805  48.4764338  38.5667753
  95.7119388  49.1540098  39.2251945  95.0612444  47.9575205  38.5648966
  61.4315414 102.3938847 101.1411771  60.7006788 102.9935741 100.9913912
  61.2884569 102.0582390 102.0261064 111.8029887  23.2268715   0.0276845
 111.5895671  23.6329770   0.8677804 111.1743004  22.5102448  -0.0585085
  11.9639158  67.5125217   7.5838310  11.6490495  66.6751146   7.9241788
  12.8017700  67.6507902   8.0255473  10.9055984  71.5576887  96.9852074
  10.5681837  70.9743166  96.3054570  11.6820860  71.1100388  97.3212262
  24.4284821  44.3171787   4.8990735  23.6880422  44.8650122   4.6385708
  24.7527909  43.9466953   4.0782231  29.7481084  47.3228168  17.1665394
  29.8615694  46.7034531  17.8874791  29.3109417  48.0757904  17.5642180
  20.8445954  53.2700253  24.9538565  21.1668611  53.1108189  25.8410048
  20.5794191  54.1897583  24.9568152  46.1196852  57.8966188  52.4134398
  46.0777712  58.2318592  53.3090353  45.6990290  57.0380211  52.4591589
  39.4589734  62.4667072  12.6014888  38.6340070  62.9491091  12.5471807
  39.8931766  62.8213406  13.3773327  40.2684450  51.0137987  15.6199908
  39.9244809  50.5553293  16.3866246  39.7290277  51.8014288  15.5499506
  55.3685427  50.7581091  26.4535165  55.2088833  49.8286104  26.6171360
  56.0383320  51.0021544  27.0923090  28.5865426  17.8691053  17.0106053
  27.8056884  17.4931133  17.4169648  29.3143678  17.5315595  17.5326800
 123.5161587  24.1878366  97.3272010 123.1807109  23.3255911  97.5726350
 123.8841692  24.5410991  98.1371423 119.5576144  70.3339577  24.4280910
 118.7647832  70.1654530  23.9189196 119.9599910  71.0904646  24.0014577
  23.7061810  68.6589336  95.0320955  24.4216466  69.2945051  95.0123342
  24.0617824  67.8843641  94.5964118  47.2740650  26.5883684 103.5177847
  48.1815100  26.6449404 103.2184913  47.0492649  25.6623626 103.4271797
  34.8072958  57.1551037   1.7449051  34.3743229  57.7614164   1.1439449
  35.6697798  57.0080709   1.3566606  35.0537848  30.9870863  19.1935861
  34.4626451  30.2349353  19.1611242  35.7654023  30.7077527  19.7696102
  37.8279471 135.2719636  18.6729360  36.8940115 135.3397817  18.8714170
  38.2570171 135.7754178  19.3647921   4.1587040  69.9798870  11.4109540
   3.6911914  69.6001148  12.1548879   3.9435500  69.4068527  10.6750405
  73.3228731  37.4836421  11.1649656  73.1552315  38.1418920  10.4905510
  73.7319136  37.9717135  11.8796027 107.3051662  80.2636051  87.6726278
 106.7757553  79.5425892  87.3319133 107.5657589  79.9766636  88.5478314
  24.7019267   3.2466236   4.7471753  24.0332127   2.5681406   4.6538335
  24.5719671   3.8168594   3.9894331   7.9919994  65.2489233   9.1018599
   7.7854192  65.4996157  10.0022554   8.9305460  65.0613260   9.1148025
  17.9433668  17.5099730  22.3310781  17.6306868  16.7325366  22.7937412
  18.0444515  17.2239339  21.4232254  33.5423732  37.6574206   3.6543930
  33.2750058  37.8733540   2.7610183  33.9393806  38.4624839   3.9867902
  30.2130961  35.5775881   5.8700484  30.7644916  35.3012776   5.1380312
  30.7771635  35.4956818   6.6390419 114.7078270  34.1791105  99.2089018
 114.2632586  34.7851086  99.8016545 114.0672643  33.4856653  99.0506443
  24.3090844  69.5367336  86.8190249  24.2042446  69.0464735  87.6344308
  25.2551794  69.5647955  86.6763791  70.8336210  72.3984385   6.6223502
  71.1257362  71.6650343   7.1636641  71.0096931  73.1741571   7.1547931
  22.8818059  51.3421249  52.7740288  23.7090302  51.1310577  53.2069016
  22.2401094  50.7664108  53.1899738   3.7740681 139.3827070 102.9796269
   3.2124716 138.6467464 103.2229456   4.4257292 139.4282598 103.6792662
  20.9383750  93.9602566  98.8017198  20.1163316  93.5091591  98.9940330
  20.7002091  94.8866081  98.7644287  11.7447972  61.3766289   7.2332084
  11.7495394  60.7613611   6.4999592  11.0899734  62.0317698   6.9919086
 120.9684447  45.9598637 105.9800925 120.0657043  46.2091064 105.7821795
 121.4954365  46.6887712 105.6526693  36.1845303  16.6645658 104.9060997
  35.6082344  17.3553157 105.2331802  37.0532084  17.0661724 104.8875894
   8.5497040  45.0889301  85.2790745   8.8004845  45.9765100  85.5350884
   7.5929904  45.1078510  85.2551278  66.7952633  82.1595001  28.1304264
  66.3842964  82.0700169  28.9902687  66.1951828  81.7160702  27.5308371
  50.9051561  68.5395479   8.1411535  50.5737257  67.6876116   8.4250247
  50.1234913  69.0246391   7.8767359  19.1392767  22.7202153  28.3960366
  19.7956586  22.9108214  27.7259135  18.7678778  21.8776011  28.1347036
  64.9782038  66.2951565  39.3795705  65.7127953  66.5965366  39.9141502
  65.3704834  65.6835079  38.7564850  19.0286660  46.1372089  27.5538540
  18.3587408  45.8203411  28.1596804  18.6941648  45.9094477  26.6864061
  38.3045983  43.4192991  11.3624108  38.6734462  42.5414228  11.4599633
  38.6822581  43.9195204  12.0858598  11.2021506  26.3766336 104.7173067
  11.7981505  26.8198347 105.3211191  11.7678630  26.0548639 104.0154060
  13.5493624  29.7110415  23.5028291  14.2981029  29.2698812  23.1015849
  13.8472486  30.6100607  23.6416221  30.8252430  65.7170868   1.2494962
  30.8584833  65.8121777   2.2013810  31.5048075  65.0734186   1.0492174
   8.3960748  59.3448925  97.5073799   8.6744827  59.0567255  98.3766791
   8.3188587  58.5366297  97.0004460   6.5995467  57.8852415 100.4366043
   6.2197679  57.6462650 101.2821170   6.1116236  58.6630630 100.1661369
 111.2035853  44.1481113  78.2758697 110.2958710  44.4074965  78.1177434
 111.6599721  44.3659258  77.4631580  27.3894525  34.4658995  14.3809938
  27.5643325  34.7563672  13.4858537  27.0760989  35.2507114  14.8305607
  35.3052807  32.3279262   5.0452262  34.8934340  31.4665651   4.9768990
  35.4919887  32.4307919   5.9783876  51.1777973  24.2079616  20.8883381
  51.5907717  23.9807653  21.7214441  51.9083166  24.4345832  20.3128266
 121.3745040  57.5127029  30.8014727 121.1349375  58.4391642  30.8240104
 122.0614786  57.4590445  30.1370788   0.3615323  22.2285986  15.0864100
  -0.1931356  21.7097998  15.6690097   0.2438960  21.8286610  14.2247581
  33.9827967   3.7249392  86.1016830  33.8025880   2.8945026  86.5422877
  33.2731366   4.3032986  86.3811716 110.8936471  21.0171962  89.1300448
 111.6759986  20.8133698  89.6425017 110.5059881  21.7711926  89.5743903
  24.3202186  41.4943933  21.1688399  25.0273061  42.1315765  21.2701225
  23.8106799  41.5718174  21.9754434   0.3480615  40.5898666  24.3119097
   1.2630998  40.4799223  24.5704627   0.2600620  41.5264320  24.1348982
  13.9670765  84.3621540 100.9646931  13.7249005  83.6471748 100.3761461
  14.9238849  84.3427944 100.9840395   1.2056746   7.2336262   5.5319244
   1.0666683   6.9686109   6.4411414   1.9030356   6.6576952   5.2185190
   1.4642911  76.7817736 102.2589000   1.3781798  75.8742905 101.9668546
   0.8513296  76.8572235 102.9902121  43.9765406  31.5155268  19.8081958
  44.8462725  31.1253405  19.7212958  44.1387224  32.4584866  19.8356736
   9.5448750  22.6422358   1.3645950  10.4538214  22.6015592   1.6619056
   9.1387141  21.8551183   1.7275156  50.9967375  44.0802526  18.0320442
  50.0629663  44.2562866  18.1474316  51.3382721  44.0054560  18.9231074
  53.9999866  50.1621151   9.3850863  54.6556091  50.8485222   9.5085031
  53.3596849  50.3147459  10.0800335  23.6536384  26.9117761 100.4517301
  23.1863594  26.1951947 100.8811411  23.8644600  26.5728784  99.5817109
   9.2985880   2.3476517   5.4010028   9.1608787   3.2772189   5.5831379
  10.2085042   2.2930442   5.1089364  37.9192138  39.1526246  42.4331331
  37.1234775  39.5849872  42.1231413  38.6096406  39.4795179  41.8563461
 110.7175917  23.2393050   5.2265376 111.0845620  23.4111428   4.3593377
 110.8214051  22.2955132   5.3478223 120.4068605  16.6199052   7.6673549
 120.1534174  17.4350119   7.2342288 121.3572780  16.6840649   7.7612793
  56.9781494  47.3199272  16.6107917  56.6017962  48.0653238  16.1428440
  56.2227631  46.7876434  16.8603802  20.2702832  55.9673023   8.0378580
  19.8664451  55.2598715   7.5351769  19.6027982  56.6528225   8.0654263
  41.8721485  48.7705183  10.9093750  42.1779823  48.9564562  11.7971396
  42.6735973  48.6828136  10.3934050  27.3020887  35.3999615   2.1709676
  27.8468132  36.1730361   2.3188284  26.6395354  35.4383254   2.8607365
  34.4855618  61.7877769  21.3185310  35.0280023  61.0336685  21.0876536
  33.5907674  61.4478159  21.3196397  30.4513049  64.5230579  98.5868748
  30.1365948  63.8365507  99.1750046  30.6371975  65.2649164  99.1624829
  26.7291999  50.6320286  12.1965337  26.0790062  50.2822733  12.8057563
  27.1824670  51.3123131  12.6945221  48.4002781  52.6473427  23.1284499
  49.2330313  52.3192072  22.7892137  48.4923029  53.5999060  23.1087804
   7.1840918  49.9427891  12.5978541   7.5179106  50.7326365  13.0232263
   6.6680443  50.2679253  11.8601453  10.3751945  44.2607498  11.5774548
   9.6738571  44.0645599  10.9562731  11.1469555  44.4045067  11.0297763
  51.1529875 146.2381118  13.9540851  51.3444757 146.7205733  14.7583210
  51.9654417 145.7729573  13.7546217 121.0895897 137.0758052   3.4844857
 120.2397189 137.1699018   3.0542558 121.1326740 136.1516673   3.7301365
 118.1649513   9.6335495   9.3011343 118.8104463   9.9509871   8.6696273
 118.1485743   8.6854017   9.1708302  26.0433269  45.7538366  63.8041171
  26.7115688  46.0301304  63.1769427  26.1116624  46.3849783  64.5205125
  46.7125273  17.7085841  25.3804231  46.0205555  18.3106697  25.6540966
  47.4852324  18.2636595  25.2752900  29.5990753  40.0734472  10.3547299
  29.1476822  40.6631279  10.9586740  28.9652848  39.3775034  10.1809347
  32.2260952  28.7107778  33.9022923  32.9479623  29.3341851  33.8216591
  31.6242003  29.1203594  34.5237398  17.9932141  44.8312950  98.4702369
  17.7154243  43.9159584  98.4352907  18.3063507  44.9525070  99.3666097
  18.8668466  31.1063266  15.8846498  19.6604693  31.2711549  16.3937938
  19.1708016  31.0502696  14.9787247  12.3400033  56.2348795   5.5601013
  12.1818912  55.5306673   4.9313593  12.4232316  55.7891178   6.4030731
  23.9356351  72.0820236 100.5715045  24.7755837  72.4919748 100.7780453
  23.5412216  72.6599836  99.9183341  17.2152400  29.4866395  97.1911737
  18.0113626  29.9383640  97.4711116  17.2090709  28.6752796  97.6990029
  23.3326578  46.4101362  23.1389189  23.5108972  46.2490368  24.0654778
  22.4416256  46.0864305  23.0066061  56.3693857  23.4574866  93.0141922
  57.0121956  23.6228895  93.7038799  55.5259037  23.4627390  93.4666725
  65.6081438  28.1864262   7.9200709  65.8786726  29.0910029   7.7626354
  66.1812878  27.8841925   8.6246216  38.1239510  62.1266794   3.3633995
  37.7784753  61.2682819   3.6084145  39.0740514  62.0297575   3.4277999
  25.2639937  94.1515255  19.6304286  25.0391746  94.9907017  19.2285943
  26.0825920  94.3209171  20.0967288 103.4244770  37.7283359  38.6171293
 103.3350057  38.6017728  38.2359004 102.6374573  37.2621608  38.3351493
   2.1268457  37.9098368  86.0890397   2.5291112  37.8732610  85.2212390
   2.2866428  38.8044667  86.3895925   0.9884029  17.9246974 101.8610206
   0.1968101  17.5452185 101.4794340   0.6665416  18.5162127 102.5412753
  62.7997589  43.4860611  79.9741801  62.0850134  42.8899384  80.1978096
  62.5450706  44.3223047  80.3641256   7.6387149  66.2033367  93.8331362
   7.8678745  65.4252958  93.3248326   7.8987348  65.9892273  94.7291168
 121.1473525  33.0033684   7.8767306 121.8719504  32.4785471   8.2169521
 120.9989295  33.6700344   8.5473722  20.4864454  46.7557716 106.8109014
  20.8346963  46.7233706 107.7019136  20.7571077  47.6117945 106.4789384
  53.9892673  16.3285375  32.4199486  53.9708138  17.2794867  32.3123074
  53.3884287  16.1578941  33.1452799  39.5534539  20.2919030 105.8509901
  40.3610086  20.5778074 105.4239690  39.0537214  21.0976672 105.9822979
  15.7501662  57.6296043   3.7324688  15.4652059  58.0703402   4.5329571
  14.9424243  57.2952223   3.3426309  27.0408177  17.6504755  10.0480855
  26.7303157  18.3703136  10.5973136  26.5507364  16.8872452  10.3539145
  25.9194255  34.2489552  97.1855243  25.3114319  34.2920995  97.9235717
  26.2570500  33.3534956  97.2053703  39.9525833  34.0477991   8.4331661
  40.2846527  34.0229630   7.5357550  39.9465370  34.9775505   8.6606675
  28.8795185  48.9241123  11.7218614  28.1941843  49.4705391  12.1065247
  29.6098566  48.9872503  12.3373687 105.9102315   6.4667124  85.3205498
 106.0701651   5.5680525  85.6087550 105.5181784   6.3735998  84.4522985
  21.1248112  29.6373415 101.1299821  21.9531345  29.4969273 100.6712916
  21.0405278  30.5891633 101.1862262  80.0612831  31.8830371 100.5338808
  80.9024620  31.4987707 100.2869054  79.4321156  31.1691928 100.4299369
   3.4181443  17.6556265  12.5250924   4.0728509  17.2643578  13.1034517
   3.2778084  16.9987357  11.8431592  16.9462943  15.0382698  11.8088901
  16.9559968  15.3064835  10.8900869  16.3837910  14.2639875  11.8264461
  27.0758152  29.9453163 106.8782836  26.9186902  29.0726066 107.2387292
  27.9906106  29.9271870 106.5971204  18.7178612   2.3868753  27.6943874
  17.7845156   2.3634908  27.9054594  18.8666391   3.2729459  27.3642707
  62.7889013  37.8266811  97.9898843  63.5477114  37.3578668  98.3372363
  62.8156185  38.6798620  98.4230121  47.6546049  46.1817408 103.8793220
  48.3260107  45.7802534 104.4309159  47.2687340  46.8633699 104.4295146
  38.7320304   2.2111005  17.2730875  38.2011008   1.4493874  17.5057626
  38.9735627   2.0643738  16.3585567  54.0633488  45.6457138  19.8073065
  54.3830872  45.9407568  18.9546943  53.2571220  46.1427402  19.9458456
  16.8497753  25.4357004   1.1369277  16.2936175  24.6653390   1.0208847
  16.3119531  26.1672306   0.8338767  33.5993099  42.2596645  32.0927954
  33.2537746  42.2374678  31.2004137  33.0875111  42.9395962  32.5309610
  63.6989641  25.4702759  13.2696390  63.2386637  25.0659156  12.5342131
  63.0838108  25.4084539  14.0003896  61.1944008  40.7001019  39.8567057
  61.8787289  40.1892042  39.4243717  60.5895138  40.9342909  39.1527891
  42.5347614  79.4295740  35.2384782  41.8055582  80.0185680  35.0446010
  42.6499319  78.9190960  34.4369912  13.8000906  69.1521740  28.2771945
  14.6369362  69.4099569  28.6638045  14.0377975  68.7266684  27.4533796
  57.7434492  50.5816793  14.7528994  57.0135403  49.9740362  14.6335971
  57.3619986  51.4466572  14.6027803  33.9351010  41.7876339  10.8750963
  33.5849571  41.0093927  11.3086498  34.0267253  41.5299749   9.9577916
  32.1898603  70.6113720 109.1775730  32.1384239  70.5834723 110.1329826
  33.0539083  70.9805441 108.9949108   2.6198629  67.4435806  15.7167149
   1.7077608  67.7197742  15.8062637   2.7200556  66.7374134  16.3550842
  24.1129780  66.0627937 104.7353496  23.6620641  66.2818432 105.5507802
  25.0423360  66.1642456 104.9408548  47.9515505  71.3540649   7.0251304
  48.3794117  71.1497831   6.1936045  48.1476259  70.6036568   7.5860852
  33.0376220  50.2069044  12.5129855  33.5428286  50.6343412  13.2045770
  33.6554265  49.6000147  12.1052694  10.0837576  18.4379697   0.3798364
  10.8080983  18.2622755  -0.2207423  10.4323673  19.0854394   0.9926058
  28.0205154  23.7160754  23.5263085  27.8529143  22.8016829  23.7544060
  27.9487991  23.7419295  22.5721502  90.4865188  84.0164948   4.2721266
  91.3127298  84.1988373   4.7197434  90.5162854  84.5589542   3.4840322
  37.5518084  27.7083254  57.0063114  37.7911472  27.7190375  57.9330444
  37.7644539  28.5877419  56.6938400 118.7987918  52.2299337  34.9142790
 118.1329376  52.3307419  34.2340517 118.9684374  53.1218672  35.2174377
  36.1131430  63.2322311  19.3516850  35.4106212  63.4619713  18.7434781
  35.6597352  62.9088116  20.1301813  15.9620428  59.8377657 106.0463514
  15.0462770  60.0726652 105.8965959  16.2780750  60.4914713 106.6700693
  96.1709017  52.4250174   2.6755062  96.3385171  52.5616932   3.6079526
  95.7327074  51.5750694   2.6329866 121.3555822   5.6105584  46.3658667
 122.1527440   5.3311771  46.8161011 121.4444614   6.5604985  46.2887573
  29.3720698  35.1264119  10.6133425  29.7896504  35.9844470  10.6883776
  28.4606862  35.2810407  10.8617389  36.2564349  54.3834305   2.5884303
  35.7927346  54.3397808   1.7521828  37.1678972  54.5504141   2.3484623
  13.5243607  41.8864441  98.5893830  12.9454923  41.7277765  97.8437492
  13.7995136  42.7977657  98.4893175  27.8437233  25.1459241   0.0669929
  27.6354766  25.4399443   0.9537944  28.5614967  24.5234442   0.1834060
  19.3872917  36.3478708   3.1012702  20.0138116  35.8595657   2.5671723
  19.3547010  35.8694506   3.9296919  50.0405598  21.6456270  94.1398820
  49.3745852  21.8600154  94.7931417  49.9158335  20.7122660  93.9680895
  72.2008038  61.8074369   9.6583718  71.8105698  60.9722185   9.9159759
  72.9321289  61.9270992  10.2642381   1.7439298  39.3577147  15.8664191
   2.2371982  38.9930034  16.6012013   2.3661231  39.9342394  15.4228818
  22.9013348  40.5945778  16.5106050  22.7097726  39.6567726  16.5185109
  23.5600352  40.7102633  17.1954099  66.8822384  23.9938092  23.9924661
  66.3190222  24.2131090  24.7347108  67.6726723  24.5161057  24.1290609
   5.2059937  14.8530555  97.6625538   4.7509852  15.5837548  97.2439003
   4.5678666  14.4957709  98.2801151   5.4822981  46.7399359 109.1488075
   5.2525061  47.5691891 108.7295628   6.4392549  46.7395544 109.1703892
  70.0737476  39.7137737  80.3792858  69.3489408  40.3010654  80.5937004
  70.3747225  39.3855143  81.2265682   2.7531296  17.6348865  84.1057587
   2.3421772  16.8277109  83.7962151   2.2501227  17.8767979  84.8833847
  67.2580194  14.0414274 107.4133587  67.8741884  13.4475338 107.8421497
  66.4291906  13.5626483 107.4065781  12.4255586  30.2685213   8.8233987
  13.1857264  30.6252623   9.2828695  12.1447539  29.5293784   9.3628827
 115.2179033  21.0456944  96.4426041 116.0447586  21.3118625  96.8447208
 115.1822311  20.0980973  96.5730476   8.3578128  42.0487833   4.3057195
   8.2292217  42.9686737   4.0744153   9.2980599  41.9717121   4.4676629
  33.5530329  47.7668810  94.5942593  33.8197613  47.2392225  95.3470325
  33.1375098  47.1426392  93.9993763  19.5152009   3.7476897  85.1135731
  20.0767255   3.1174996  84.6621513  20.1058745   4.4577134  85.3649712
  23.5904622  11.3294137  22.0463411  23.9854693  11.2823582  22.9169694
  24.2309999  11.8058121  21.5181485  12.9526877  18.0062640   3.6897889
  12.6623869  17.1354866   3.4183065  13.7679338  17.8492343   4.1661779
  56.2638330  33.9150572  70.4780960  56.2375307  33.5366416  69.5992661
  55.6410980  34.6412349  70.4449129  41.2570906 140.5504537 108.4893608
  40.7195759 141.1872799 108.9602757  41.0221148 139.7066552 108.8753891
   3.7953225  63.3931112  71.3596916   4.5378956  63.5952282  71.9288731
   3.7613350  64.1234589  70.7418966  20.9402061  28.4175992   7.5501767
  21.7912817  28.0974197   7.2511998  20.3406429  27.6886296   7.3909227
  36.4619112  29.8237062  98.3553410  35.7982850  29.5715141  97.7132893
  35.9645391  30.2194118  99.0710735  39.9144006  21.9770360  89.0201664
  39.1661882  22.2068334  89.5711708  39.8546982  22.5737882  88.2741451
   4.1632268  23.6936545  72.1081209   3.8510820  24.5984936  72.1160793
   3.9756417  23.3678293  72.9883957  27.2406745  44.9087572  84.4393826
  27.9718375  44.8404455  85.0533581  27.4089241  44.2262506  83.7896729
   1.3970396  36.0131526  44.1873693   0.6283335  35.5981088  43.7961388
   1.7558879  36.5598154  43.4883595  10.6705165  13.6702919  89.2283154
  11.6062963  13.4746027  89.2757988  10.5595732  14.4450259  89.7794151
  36.8766451  36.2670732   9.4020120  37.1251750  36.0203671   8.5111657
  36.3966107  37.0886374   9.2979184  15.1653135  19.3540692  90.3501225
  14.6051943  18.9229584  89.7046375  14.8757303  20.2664089  90.3472424
  61.7001247  34.6023488  16.6092340  61.5136957  34.6213579  15.6705514
  62.6525021  34.6798086  16.6658918 108.1940789  22.8086925  87.1745968
 107.7602763  22.3735213  87.9085350 107.4960179  22.9545259  86.5361023
  46.6924238  51.2410498 102.2150230  45.7512569  51.3008642 102.0511246
  47.0685768  51.0041189 101.3673115   5.0975686  11.9425797   2.2903673
   4.7080284  12.8169000   2.2831098   5.4039115  11.8243170   3.1894819
 107.0795161  17.9539180 100.5773830 107.7265150  17.7689743 101.2581253
 107.4452371  17.5591624  99.7857666  47.9917431  22.6722836  95.8325672
  47.3933697  23.4150219  95.9133434  47.4330187  21.9021273  95.9370422
  35.4378462  23.0689192  30.3400079  35.8556008  23.1420016  29.4818918
  35.2579808  22.1341014  30.4400007  56.1262894  37.2836423  95.7698631
  55.7930326  37.0535564  94.9025536  55.4470873  37.8429627  96.1467934
   2.1591440  24.2283106  97.4766350   1.8498568  25.1180840  97.3066998
   2.2355720  24.1791964  98.4295177   1.7548949  30.7032037   4.4865362
   1.1808895  30.4432845   3.7659875   1.5213555  31.6147566   4.6619359
  30.6240964  11.9117177  99.0022659  29.6725631  11.8147492  99.0398693
  30.8371472  12.4741375  99.7469330  51.3110971  33.2373309   3.7994138
  50.6554556  33.9172101   3.9547578  50.9674072  32.4657869   4.2497770
  18.3329940   0.3537417 102.4528027  18.3665490   1.0306715 101.7768860
  17.8084183  -0.3465262 102.0646381  30.0259805  37.8273177  90.4042721
  29.8534822  38.3455491  91.1903381  30.7502341  38.2805872  89.9727249
   4.2124036  16.6472411 109.1311169   4.9731457  16.1620617 108.8115883
   4.1233140  17.3807931 108.5226822  32.1978378  65.2210283  94.8844337
  32.8067255  65.9337330  95.0781822  31.3329434  65.6300163  94.9147797
   2.3344035  22.2930145  30.5579225   3.1329846  22.2229171  31.0809747
   1.6732183  22.6125288  31.1719076 124.6223049  24.5251465  78.5399389
 123.7049279  24.7207117  78.7307405 125.0856281  24.7351599  79.3507767
  20.5982351  67.5993443   3.9886609  21.3875079  67.5208235   3.4528295
  19.9817383  68.0816889   3.4377519  57.4529934  27.2903681   3.3850709
  56.6221952  27.7250266   3.5776368  57.2006321  26.4412594   3.0223504
   6.8333161   6.1961418   3.7913934   6.8491721   7.1531618   3.7817327
   7.5197875   5.9514773   4.4119874  12.9713416  29.0560794  82.7646351
  13.1653941  28.6941981  83.6292839  12.1361327  29.5100093  82.8769112
  34.7600794  24.1533971 103.8660240  35.4347372  24.1082430 103.1885052
  34.0822649  24.7163010 103.4919357  30.8844709  14.6244943  76.9848680
  31.7313075  14.9354529  77.3048782  30.5996537  15.2982354  76.3674688
  18.9441371  14.7812009  72.8500223  19.0793300  15.6176591  73.2953215
  19.7660279  14.6211970  72.3862076  17.4297595  36.8989110  97.7311134
  17.5490940  37.0821333  98.6630058  17.0051908  36.0413313  97.7080822
  51.1378574  10.5094063  86.4630032  51.7404938   9.9081016  86.9006062
  50.2887154  10.0695097  86.5040207  64.2536163  21.6909790 106.5406704
  64.7099686  22.3993516 106.9947433  63.3494139  21.9965100 106.4678669
  38.7336469  24.9887562 107.0234776  37.8836846  25.3772712 106.8164635
  39.0024924  25.4192448 107.8350353  55.9094143  42.0126343   5.5887166
  56.1401176  42.9403114   5.6379644  55.5148506  41.9095993   4.7227231
  18.9648879 111.9828696  40.3048229  19.0494001 111.5926618  41.1747789
  18.8238180 112.9145784  40.4729033   7.2886902  23.1885242  14.7481099
   6.6317499  23.3232784  14.0650979   6.7790473  23.0275679  15.5422059
  28.6936879 138.5122133 105.3661728  29.0228677 138.4028048 106.2583065
  28.3471537 137.6513607 105.1314831  47.2783041 143.2073680  98.2909012
  48.2134008 143.0075462  98.2474041  46.9007444 142.4801479  98.7857056
  55.6242847  12.2890830  18.7347738  55.9453344  13.0071151  19.2802945
  54.8680592  11.9461465  19.2109624  23.1625128  24.3335366   7.8791276
  22.2058558  24.3556547   7.8556100  23.4290600  24.5460439   6.9846860
  12.2936368  19.4710243 104.5378399  11.4025378  19.8181176 104.4966030
  12.2331703  18.7263727 105.1362324 121.7619107  52.5803423  24.4874231
 121.6127650  53.1928444  23.7671224 121.5944768  51.7180395  24.1071264
  46.4553213  37.1056652  81.6159821  46.9944668  37.5288510  82.2841644
  46.0772753  37.8308749  81.1186123   5.2578259  17.8652680 104.3701267
   6.1367297  18.0743432 104.6864319   5.0908524  18.5103130 103.6829090
  15.6317437  11.2343013   5.1347104  15.0011635  11.8963468   5.4180757
  15.7450950  11.3967955   4.1982404  12.3194039  32.1919227 102.1473026
  12.7425838  31.3698387 101.8996525  12.7653241  32.8579640 101.6240597
 124.0273053  16.1522985  11.2877027 123.1269478  15.8283412  11.3130037
 124.5668302  15.3688121  11.3939706  18.9053035  25.6892633  92.7837944
  18.8073242  26.6312504  92.6449013  19.8493564  25.5375266  92.7393627
  50.7054567  12.8524995  99.2749977  50.7348156  12.9395235  98.3222103
  51.4191151  13.4081340  99.5883560   7.9687804   0.6118866  74.8285389
   7.8570467   1.4222613  74.3315077   7.4357253  -0.0312166  74.3610954
  49.2505217   9.0572578  81.0367966  48.6591196   9.3216521  80.3321266
  49.9720049   8.6141050  80.5903625  18.0330849  16.2071991   6.7689267
  18.5543454  17.0059049   6.8501035  17.9837584  16.0481465   5.8263246
  35.9681153   9.3386352  97.4979210  36.5282869   9.8329151  98.0963516
  36.3863707   8.4801489  97.4323750  28.9564157  44.0666723   4.4973508
  28.4678459  43.2901430   4.2243615  29.1187263  43.9315701   5.4309694
  34.8307109   8.4815991   1.4155427  34.2282677   8.1052905   2.0571653
  35.4527092   7.7781725   1.2296907  45.3436852  12.2827792 100.1210690
  44.7567606  11.5355575 100.2368832  45.7964754  12.1061337  99.2964458
 115.4979063  36.1982536  19.8646871 116.3547332  35.8226180  20.0671140
 115.3004206  36.7614198  20.6130639 123.9698136  35.0315571  13.0651227
 124.7223074  34.5195532  13.3614961 124.1859962  35.9336638  13.3011190
  12.9531443  48.0226231  78.3405638  12.7573872  47.7412844  79.2342997
  12.6140690  48.9163876  78.2911205  69.9819469 128.0284805 104.5350838
  69.9937153 128.3392436 105.4403591  69.4820213 127.2128815 104.5683098
  24.9854326  29.6943951  93.8872051  25.3654051  29.4740653  93.0367374
  24.6618056  28.8605952  94.2282009  52.2846317 135.8600742   8.1126539
  52.6264954 135.8865828   7.2189847  51.5150642 136.4288921   8.0916826
  54.1679716  14.0894115  88.1204605  54.1413498  14.9583030  88.5211468
  53.4248257  13.6251330  88.5057068  25.5321527  34.7598338  69.1042757
  24.6901393  34.4878101  69.4693041  25.9233022  33.9504886  68.7753439
 100.7952613  14.2831862  90.2886772 101.6360516  14.4569445  90.7118893
 100.8434743  13.3631718  90.0289059 110.7509906  58.5725021  25.2322332
 111.0984845  59.4010353  24.9020616 109.9620969  58.8190556  25.7150308
  16.1834514  13.3267140  98.7656498  16.9884598  13.2758784  98.2502842
  16.3131499  14.0825033  99.3385315  18.7734687  17.4390304  26.8035165
  17.8454041  17.2300947  26.6973440  18.9233017  18.1733501  26.2080613
  83.9503574  32.1234679  96.7185402  83.7567616  33.0599952  96.6776657
  83.1318092  31.7221999  97.0103931 120.4404078  14.4135201  65.8630276
 121.2218542  13.9573109  65.5508661 119.8226551  13.7134743  66.0740948
  18.5843289  32.7550769   5.8844320  19.4370806  32.3900104   6.1205999
  17.9966235  32.4602890   6.5800897 116.8007965  55.5832100  90.1859760
 115.9458537  55.9838772  90.0285912 117.0981497  55.9691525  91.0099030
  24.2611718  53.6914873  76.3744450  24.5165896  54.2525625  75.6421947
  24.0685105  54.3007278  77.0871496  25.2446270  22.6015377  45.4429722
  25.7305002  21.9781756  44.9029922  25.1096153  22.1448350  46.2732840
  33.2011890  23.0955601  16.2155858  33.7201929  23.7486029  15.7461110
  33.1919861  23.4033537  17.1219007  30.0507998   3.7505031   6.4749376
  30.3343391   4.6360570   6.7021600  30.4306364   3.5917291   5.6107942
  21.7453456  45.4955721  94.0179539  21.0686231  46.1111689  94.2995930
  21.2602901  44.7249413  93.7228584  52.2487783   1.2848510  15.9415666
  51.8313122   1.9850385  16.4432565  53.0291557   1.6921104  15.5655614
  44.9057913  68.4568787  92.9985714  44.3463326  69.2248535  92.8825855
  45.3939676  68.3900356  92.1779346  25.4241204  53.3516169  67.0199633
  25.8802485  53.0223942  66.2454987  26.1221719  53.6740446  67.5900507
   9.8185408 144.1001650  82.4700642  10.0904417 145.0094841  82.3458004
   9.1839862 143.9422593  81.7710400  73.8105679   2.4022052 108.0353260
  73.4144020   3.2726520 107.9952240  73.6326647   2.0988691 108.9255905
  19.0088904  45.7226515 101.0472679  18.4892094  46.1553288 101.7247295
  19.1303349  44.8303986 101.3718700 123.8859015  34.7659516  20.9019605
 124.6319786  34.1810274  20.7698194 124.0283118  35.1434398  21.7699853
   9.5077872   7.6667738   0.3721753   9.3489736   6.7586523   0.1146451
  10.3349173   7.6381981   0.8530847  54.1233969  42.9357862  82.0405483
  54.1650963  42.0557022  82.4146271  55.0114441  43.2795858  82.1375370
  46.0299635  37.3860407  92.9728413  46.1296129  36.4880371  93.2888889
  46.3520050  37.3599625  92.0718193  31.8809938  22.3577213  20.5720846
  30.9990239  22.4549484  20.2130452  32.3576570  21.8628025  19.9056856
  64.6347570  11.0815942  98.6038399  65.1000071  10.2706599  98.3985233
  65.2009058  11.5300739  99.2319965  41.8217564  39.5366359 100.6149864
  41.7706251  38.8657403  99.9341679  40.9909868  39.4647360 101.0849762
  48.0058098  45.3276205   1.2837926  48.2938671  44.5305824   0.8388273
  48.5495710  45.3727245   2.0702497  12.2904348   3.2797453 107.3185444
  12.8501368   3.9947110 107.6215172  11.7537749   3.6712402 106.6293716
  16.8461645  16.2086320  75.8856630  17.5031030  16.4610779  76.5344572
  16.5132904  15.3668666  76.1968803  52.5346947 121.1850376  50.8506337
  52.9707766 121.2809987  50.0039617  51.8473625 121.8511815  50.8428899
  35.8646703   6.8938243  88.1371689  36.5786028   7.5141644  88.2845116
  35.5871987   7.0576638  87.2358418  32.7886033  34.9418831   3.1494085
  33.0403376  35.8491254   3.3219568  32.2465992  34.9893546   2.3618738
  11.0206068  49.2120790 103.4711361  10.2429903  49.3162203 104.0194893
  11.0769665  50.0302839 102.9775810  34.4825077  45.7984066  82.7289677
  34.2798114  46.1957073  81.8820381  34.8405004  46.5165281  83.2508564
   9.2491674  40.1161718 102.0547676   9.1771019  39.3027425 101.5553951
   9.4870102  40.7765102 101.4039135  31.3764548  57.1979427  81.8116379
  31.5417767  57.3552561  80.8820343  31.9823837  56.4953613  82.0471287
  18.7376189  38.2948208   8.8171045  18.3386648  37.8891063   9.5868245
  19.6493626  38.4413552   9.0690652  31.5413308  37.1425152  14.6792356
  31.6178179  37.3459983  15.6114236  30.9838295  36.3650227  14.6487562
  53.9780903 138.6472953  27.7736226  53.0927467 138.5342098  27.4277726
  53.8474083 138.9602328  28.6687318   7.2447598  15.8961046  17.4586622
   7.4978036  15.4736209  16.6378633   6.9524431  15.1765966  18.0182020
  15.3999674  22.2414064   2.8976194  16.0099947  21.5974140   2.5379411
  15.0756800  22.7172709   2.1330110  12.7328038  10.5192363  95.7152843
  12.2925067   9.9508274  96.3471699  13.2289875   9.9192357  95.1584721
  13.6975932  10.9871340  50.8609867  13.8682699  10.1496124  51.2918711
  12.9712558  11.3671255  51.3552284  41.5420485  41.4201307   7.3030702
  41.6088343  40.7672310   6.6062967  41.3153124  42.2320318   6.8495885
 112.4596078   0.3546584  69.1383076 112.1955687   1.1638942  68.7005281
 113.4037144   0.4481532  69.2654037   2.7615252  27.0420146   2.1540204
   3.6152613  26.8714976   1.7561666   2.1999350  27.2890592   1.4193002
 114.1777307  34.2012858   9.6899167 114.4990677  33.4505939  10.1893464
 114.7784591  34.2701554   8.9478818  32.4657035  20.9302306  84.3154526
  31.9662857  20.4990387  83.6219978  31.8905067  20.8987117  85.0799084
  38.3783579 138.7276740 109.5197392  39.2319846 138.4363545 109.8401833
  38.1941652 138.1555046 108.7748051   6.7824477  38.9097905  31.7093221
   7.3594403  38.3546925  32.2338907   7.3270106  39.1957498  30.9758893
  33.8163257  12.1195173  10.4613248  34.6861100  12.2836637  10.0969545
  33.7789917  12.6648772  11.2470857  19.3163693  45.4242468  86.1966705
  19.0469193  46.0080433  86.9057560  18.5780680  45.4307032  85.5874825
  47.6620007  45.3609705  13.0200998  47.6771021  46.2003422  12.5602571
  48.5842991  45.1226521  13.1139318  50.8765221  34.2707443  28.8427774
  51.1239147  34.8067117  28.0892793  51.6584444  33.7534857  29.0358392
  28.6875892  15.7822537 102.9477787  27.8131652  15.4639721 103.1720734
  29.1651177  15.7752275 103.7773228   1.5289275  23.0040407   8.0966703
   1.0379536  22.1826005   8.0764333   1.6430034  23.1919980   9.0282766
  32.1132994  23.7349248  83.4318256  32.8570271  24.1691113  83.0139923
  32.4072862  22.8341985  83.5678291   2.5833216 143.8651440 101.7240143
   2.4292110 144.8019440 101.6020012   1.7849293 143.5436268 102.1428585
   6.8954134   9.9942118  56.7631054   6.5997016   9.6048725  57.5860310
   6.3775277   9.5531052  56.0897207  12.6802790  19.6094251  65.1187706
  13.6072528  19.3740714  65.0792837  12.3593247  19.4688523  64.2280054
   0.9503268   1.3127868  67.6453161   1.1266808   1.4193843  68.5800743
   1.0824820   0.3789953  67.4816084   6.9739103   3.5515425  70.2656984
   7.5729358   4.2487666  69.9987173   7.5259018   2.7719384  70.3269720
  33.3225679  24.3580437  95.4047108  33.5346603  23.7448978  94.7009373
  33.6575055  23.9383078  96.1970901 105.0586647  50.9284353  57.9449081
 104.8480911  51.3132381  57.0941353 105.9827561  50.6882715  57.8770351
 109.5864398  21.0840416 102.0960236 109.2524619  20.4481816 102.7287674
 109.0819485  21.8793988 102.2666836  28.2339978  44.4231319  10.2855531
  28.9395547  44.7385216   9.7207967  27.9334331  45.2032757  10.7516710
   5.3294230  30.5660415  19.3934480   5.3139120  31.4422131  19.7785703
   4.7067338  30.0627685  19.9180547  14.4414759  63.5224915   5.1800004
  15.1329398  62.9082918   5.4267255  14.3676424  64.1136074   5.9292356
  51.8370819  73.7509060  81.2089825  52.1626997  74.4792843  81.7378235
  52.5761700  73.1450605  81.1548328  13.4280670  32.4583578  81.8612576
  13.9497089  32.3307848  82.6536274  13.6426890  33.3456898  81.5734959
  34.0283489  55.2006531  32.3353902  34.2485237  54.5533037  33.0052320
  33.6667752  55.9390402  32.8255693 123.0035026  47.9592371 102.3571873
 122.0866019  48.2134199 102.2527122 123.0615082  47.6360989 103.2563210
  22.5795221 119.9739546  35.8719961  23.0047679 120.3522701  36.6415826
  22.7595639 119.0359993  35.9356920  29.5651388  38.0884266   5.2184621
  29.9078393  37.2361279   5.4874936  29.9050999  38.7002230   5.8714334
  20.3292227  12.9498315  64.1742563  19.7509515  12.1895730  64.1122723
  20.1967669  13.4192836  63.3506680  23.5352993  48.4062338 103.7559891
  23.9461613  47.6652956 103.3105278  22.6422501  48.1123495 103.9357853
   6.8996519  45.9739780 105.0475216   7.4736685  45.2092743 105.0917912
   6.0173345  45.6174517 105.1506615  55.5961418   2.8172708  79.3671179
  54.9441528   3.5001099  79.2094183  56.4364672   3.2471803  79.2081738
  39.6213603 142.5885753 109.1439247  39.0192103 143.1251905 109.6593761
  39.9853134 143.1919987 108.4961128  20.8018541  14.9552095  85.5626202
  20.2845716  15.0157070  86.3657284  21.4390850  14.2632532  85.7397175
 116.1626763 142.6395524  89.6015358 115.6022645 142.3173726  90.3074837
 116.1867726 143.5879565  89.7287369  22.4386501  42.0039415 109.0810490
  22.3086977  42.6121521 108.3534336  23.2897329  41.6015959 108.9078045
  30.1658201   5.6691742  71.1412382  29.2878056   5.6627470  71.5223980
  30.1075268   5.0720519  70.3953981   7.3500317  29.1875029  81.3362694
   8.1696212  29.6537042  81.1714649   7.1221757  29.4149780  82.2376919
  28.1234550  29.3447328   7.5855104  27.6875234  29.8573017   6.9047300
  28.2051945  29.9480247   8.3241502  60.5752516  33.6214852  81.0516930
  61.4230871  33.5174966  80.6197357  60.7930231  33.8084865  81.9648457
  45.1779747  10.8860457  89.3071270  44.5496845  11.2040734  89.9554634
  44.9457073  11.3482130  88.5017204  22.6999402 125.5367393  94.4654942
  21.8444109 125.8848352  94.2142296  23.1224704 126.2557335  94.9353313
  56.4687729  14.8496127  76.1597681  57.3089314  15.1783979  76.4795589
  56.4961433  15.0012517  75.2150536   3.9282069  32.7082157  95.6112957
   4.2281765  33.1557465  96.4024734   4.0366167  33.3553457  94.9143696
  28.0599236  69.1818094  95.9205723  28.9307809  69.4681931  95.6452084
  27.7363110  69.8947811  96.4711952  21.8758583  35.8108258  95.3461361
  21.4461708  35.5606079  96.1640549  22.8097534  35.6944180  95.5208397
 113.8427932  39.9799633  88.0444241 114.4826180  40.5294847  88.4970570
 113.1256742  39.8817897  88.6707878  28.3667803   0.7562286 103.6657715
  28.5966516   0.4014230 104.5245457  27.5847673   0.2687904 103.4067440
  23.8944435  54.3506289  93.0049038  23.5478806  55.2287197  92.8465462
  23.1288671  53.8319683  93.2521248  28.3330727  60.2386379 108.5981369
  27.9473710  60.4394150 107.7453995  28.5259795  61.0943651 108.9812183
   8.7738633  15.0258720  94.1225147   7.8892797  15.3850091  94.0534973
   9.2054498  15.2946854  93.3115292 122.4476739  76.0015535  90.9100914
 121.7854641  76.2926769  91.5369511 122.2485054  76.4860630  90.1089573
   4.8919120  45.9635830  23.0583135   5.2654248  46.7331028  22.6287214
   4.0393031  45.8456945  22.6395170  47.2300577   6.4509362 109.0606785
  47.1574259   5.7579696 108.4043598  46.3712978   6.4718330 109.4829655
   1.9106595  56.2985563   2.1455804   1.0507053  56.5370893   1.7994443
   2.4228397  56.0618734   1.3723508  31.6886449  37.9641533  94.8096371
  30.8456588  38.2253456  94.4389820  31.9171119  37.1606207  94.3423367
  15.7835126  43.9227200  86.8125820  16.2005913  44.5644379  86.2377071
  15.2270830  43.4054661  86.2302876  21.3927150  24.4450140  97.5961781
  21.3794589  23.5481930  97.9304981  20.8144569  24.4249463  96.8336582
  29.0207219 141.2654162  95.6873035  29.7278762 141.1469383  95.0531673
  29.3689942 141.8938089  96.3198090  37.5798631  27.0368505  83.5329437
  37.8546071  27.8879523  83.1918144  37.0116043  27.2478437  84.2737484
  33.1170917  15.6098020  25.3316919  33.0616188  14.8780823  24.7170869
  33.6859202  16.2451530  24.8969594  16.3670743  39.3231583 108.6441422
  16.9617474  39.2468333 107.8979683  15.5181289  39.5305181 108.2535934
 116.8090785  29.1504812  20.8660642 115.9948791  28.6631083  20.7404462
 117.2786064  29.0499163  20.0380174  26.4631224  18.4300065 102.0430470
  26.0484982  19.1654682 102.4940586  26.8042827  18.8077402 101.2323856
   8.1232190  50.2230072  88.3813286   8.9587015  50.6666183  88.5276508
   7.7531010  50.1143217  89.2573643  37.5886464  10.2393007  11.1507837
  38.3624840   9.8320764  10.7614652  36.8562436   9.9063122  10.6321946
  36.9772243  10.7333827 104.3826294  36.1393833  11.1642838 104.5516872
  36.9354296   9.9216980 104.8882580  53.2450819  19.3119609  94.4066048
  53.4271240  18.5024643  93.9293194  53.7403965  19.2262697  95.2211952
  26.5343690  49.5838404  85.8760357  26.4642739  49.7410154  86.8176365
  27.2004724  50.2036142  85.5786896  34.6684599  40.0405788  66.8134308
  35.0899720  39.2200756  66.5578318  34.4907069  39.9374485  67.7483130
   7.5869441 141.1783213  11.5784971   7.4628329 140.7067872  10.7547895
   6.8997973 140.8412356  12.1533338  13.2384145  60.2970839 106.3837528
  13.4997523  60.2711391 107.3042202  12.2833824  60.2360010 106.4041138
  34.2212725 140.0908000  92.6656628  33.5223722 140.3616692  92.0703506
  33.9120579 139.2649985  93.0380440 122.8594047  29.2467690  70.9843874
 123.1534309  29.6265841  71.8123484 122.3047943  28.5104513  71.2422180
 109.2249638   9.1474915  75.6973457 109.5973212   9.9556518  76.0501337
 109.1320712   9.3159330  74.7596741  50.9803200  51.5060091  96.0771656
  51.5949774  52.0455599  95.5798531  50.6648302  50.8589840  95.4462433
  19.4063580  50.8667898  68.7506151  19.9121010  50.0639153  68.6247253
  20.0649047  51.5598965  68.7969971  45.6192827  25.8430314  65.0357866
  45.2928019  25.0241828  65.4087877  46.5376139  25.8787727  65.3034115
   1.2402500  24.0139508  64.3533278   0.8332123  24.2345023  63.5155249
   1.0256506  23.0909252  64.4882488  56.1868238  22.7500749  87.9212952
  55.8486557  23.0728841  88.7565613  56.8192863  22.0738983  88.1642056
  49.7468376 138.9662946  90.3671265  49.1731453 138.6646540  91.0714817
  49.1558027 139.3772597  89.7362423  20.7091117  12.0316148 105.4864883
  19.8480582  12.4445820 105.4210854  20.5392623  11.1001050 105.3462219
  11.0483837 145.1120577  41.1898994  10.1636195 144.7468982  41.1989784
  10.9581566 145.9688821  41.6069603  37.4991918   3.2338059  81.4836597
  36.8486452   3.3800182  80.7968903  37.9276347   4.0828314  81.5923882
   7.7792901  52.3072863  84.6329880   8.5838115  51.7887211  84.6410751
   8.0781704  53.2115936  84.5374107 117.6904780  41.4661980  87.3297977
 117.5002725  41.9181061  88.1518841 117.8605492  40.5603647  87.5882149
  74.0801859  17.3930323  82.3202038  74.5180559  17.7892423  83.0735397
  74.4647169  16.5191245  82.2519970  72.6241779  42.2397614  64.6068525
  73.3224630  42.4436569  65.2289915  72.5173283  43.0417919  64.0954208
  27.9368019  28.6127567  62.3303080  28.7437940  28.1418467  62.1223736
  28.0667281  29.4857907  61.9599581  23.0748558   8.1403840  74.0591526
  23.3602667   9.0476698  74.1668797  22.2002172   8.2083005  73.6762381
  10.9734952  16.2079561  69.1008997  11.7635059  16.5620601  68.6925793
  11.1533022  15.2729714  69.1994190  12.6879835 121.3552160  74.9191141
  13.0839574 120.6585951  75.4427147  13.2365489 122.1216507  75.0861025
  22.8365469  14.2799687  98.4563828  23.7188768  14.6340728  98.5674477
  22.9377437  13.5840654  97.8069878  32.7772641  59.0049553  83.3906269
  32.0796180  58.5112619  82.9595947  33.1456065  58.3927155  84.0275860
 114.5821626  55.3345299 103.5241222 114.3686563  55.7949829 102.7125645
 115.3867549  54.8563385 103.3236408  31.7154670  13.1345093 104.9253178
  32.0778608  12.9016352 104.0705299  30.7784557  12.9562891 104.8448277
  49.0679312  17.0040238  87.0595455  49.2276764  17.9459751  87.0009041
  48.3363247  16.8475378  86.4624691   6.0539699 138.0707616  92.3953438
   6.0974467 137.5502993  93.1975079   6.9516194 138.3729214  92.2569370
  53.9078522  25.7698727  84.3855858  53.1585407  26.3013601  84.1167259
  53.5763311  25.2365708  85.1080227  48.2632208  27.2593856  80.1480865
  48.0511761  26.3295841  80.0660133  47.7791834  27.6791215  79.4369173
  28.3977413  24.8019838  90.1295567  28.3378482  24.2195606  90.8868122
  27.5040579  24.8453021  89.7894382  42.6338959 142.2017426  46.2500286
  42.2447586 142.4294237  45.4056549  43.3935165 141.6639451  46.0264540
  33.0686235   2.8551853  58.4200668  33.7208676   2.2379969  58.0885696
  32.5444651   2.3423003  59.0352392  19.7451305   4.0893134  67.1425867
  20.3994942   3.3967102  67.0512629  20.1699448   4.7494707  67.6902676
  43.8150835  55.6692219  73.7823629  43.1761742  55.8380842  73.0898952
  43.3051920  55.7016754  74.5918036  57.1689510  26.7489815  73.5430384
  56.4204884  27.3253083  73.6975670  57.7253437  26.8673468  74.3128777
  14.5162237  14.2185688   0.3638116  14.2848587  14.3649876   1.2810174
  15.4127407  13.8844764   0.3933278  50.1665258  27.9094577  78.0341768
  49.6353054  27.8371191  78.8271427  50.1821518  28.8468409  77.8410387
 115.6702859  18.6198938  84.7344971 116.2786925  18.0710709  85.2293396
 116.1778993  18.9208162  83.9808369  27.6976657  55.2853107  64.1809750
  28.5823655  55.4114628  64.5239353  27.8073406  55.2839565  63.2300806
 109.7277409   9.4647133  52.3106432 109.1466457  10.0282228  52.8215408
 110.5311019   9.9757093  52.2120285  68.2198238  11.2157023  59.6014309
  68.2770634  10.7838166  58.7491226  67.8421879  10.5536759  60.1805210
  26.5448833  19.6663582  78.1983948  25.6013918  19.6949840  78.0395460
  26.7089725  18.7750518  78.5064220  41.4418983   6.4577138  84.3588352
  42.3144531   6.1169726  84.1619205  40.8831453   5.6811845  84.3908978
  40.4163361  15.5512536  74.2081738  40.6482029  16.0733414  73.4401274
  39.9061942  16.1465728  74.7573376  21.3111091  35.3138065  76.7761564
  21.0985255  35.8033299  75.9815454  20.9604979  35.8489442  77.4881458
  23.9993477 141.6910751 105.8393478  24.1047215 141.3592792 104.9477005
  24.5312214 141.1047811 106.3774967 106.7166240  20.4882693  95.6107998
 105.9402162  20.0493169  95.2633190 107.3479731  20.4630399  94.8917770
 116.7704774  50.6060457  71.0309362 116.9570202  51.1544561  70.2689123
 116.8191130  49.7097015  70.6986189  42.2902822  33.4759331  66.6876078
  42.7813482  33.2129550  65.9091902  42.8281307  33.1791568  67.4216890
  25.6675005  10.3305602  97.6252174  25.0794792  10.6301200  98.3185577
  25.2948403   9.4967121  97.3387718  44.3473864  30.9522653  97.6419067
  44.6669054  31.1355376  96.7584133  45.1401329  30.8025050  98.1570339
  15.3642535   9.4670039  57.4263906  14.6180475   9.5979303  56.8413591
  15.7623386  10.3339839  57.5045395  43.8027143  35.4391646  64.7139597
  43.8545513  34.5533442  64.3549776  44.6063852  35.5381489  65.2243996
  39.8728657  43.4579468  93.3054161  39.7327185  43.4562683  94.2523003
  39.7459936  42.5462341  93.0428982  36.8557239  48.1600714  90.2824974
  37.6034260  47.7521563  89.8457146  36.9138908  49.0850306  90.0431252
   7.5582367 126.8213958  30.1290647   8.1980181 127.0914263  29.4702855
   6.7504787 126.6809816  29.6350614 119.9915034  18.3192909  90.7098293
 120.3062753  18.6655748  89.8748302 119.3996221  18.9945865  91.0413265
  91.5214152  37.9480147  82.4930573  91.9548792  38.1845021  83.3130646
  91.1526651  38.7705994  82.1711731 113.0929870 130.1341815  43.9523172
 113.3511824 131.0524268  43.8723612 113.5430867 129.8264546  44.7390461
  23.3030367  70.8295822 104.1977978  23.9148235  71.0289574 103.4891415
  23.1111193  69.8976469 104.0934372  37.9420257  12.9055011  81.6516972
  37.9304409  13.8551223  81.5320396  38.8590074  12.6979029  81.8313599
  26.1862659  18.7745011  87.2073364  26.0165310  17.8351641  87.2785187
  25.3182030  19.1690814  87.1236420  27.6278758  15.5704963  93.8145638
  27.7466106  16.3787949  94.3133450  26.7430305  15.6382132  93.4558201
  19.1843259  13.0954695   9.7590009  19.8274851  13.1424606   9.0516321
  18.4807742  13.6826253   9.4824258   1.1465755   1.1410871  87.6140022
   1.0224981   0.2424616  87.9194641   0.9242113   1.1106088  86.6834831
  27.1612692 118.4266729 104.1250324  27.0829320 118.0482120 105.0007439
  26.2887478 118.3300967 103.7434483  78.6480856   5.7086527  56.6815615
  78.3183050   4.8162487  56.5762520  77.9692268   6.2620032  56.2953186
  26.3300514  31.0504460  84.9401760  26.3857174  31.8401122  85.4782867
  26.9050312  30.4220104  85.3768635   4.4992250  35.7334781  99.7816563
   5.1316661  35.2586961 100.3209496   4.4863546  36.6170692 100.1495361
  77.1490592  34.7835636 104.3470097  77.4496383  35.6896973 104.4163227
  77.7221412  34.3908262 103.6885452  32.6337767 146.1965521  30.5765390
  33.2799625 146.8758589  30.3836203  33.0599451 145.3798380  30.3165555
  30.5262566  63.1035948  78.9031458  30.5608225  62.6875210  78.0417967
  31.3666129  62.8876209  79.3073606  42.2719383  45.6407690   1.2429944
  43.0737209  45.2002954   0.9612886  41.9503784  46.0796118   0.4554406
   1.5998039  19.3328440  73.9379597   2.5356960  19.2456388  73.7570381
   1.1918904  18.6281681  73.4347010   4.2713130  16.1927378  61.9808054
   5.0488693  16.4613473  61.4914322   4.6168101  15.7312393  62.7449274
  22.2223043 121.2120528  33.3323002  21.7062235 120.6764908  32.7297521
  22.1213961 120.7819838  34.1814709  47.4967003  15.6596267  58.6609316
  48.3062983  16.1674321  58.7149143  46.8155861  16.3116062  58.4958982
  19.5048916  19.3939698  71.8103075  19.0405238  20.2066016  72.0108652
  19.1098905  19.0875912  70.9940100 120.4204459  31.5871167  88.3671474
 119.9134094  31.4291143  87.5707912 121.3331500  31.5525579  88.0807781
   3.6240587  65.5262280  62.0769596   3.3881727  64.7002220  62.4992132
   2.8825849  66.1054564  62.2528791 103.5248799   6.0743636  78.2526970
 104.1305799   5.9941679  77.5158596 102.9895682   6.8390059  78.0405760
  13.1064999  29.1097736  13.3089773  12.5986004  29.8872828  13.0771295
  12.5043392  28.5761857  13.8275472  25.6169248  35.6012583  59.9876165
  24.8143411  35.4753065  60.4938030  25.3826690  35.3377700  59.0977097
   7.1946537  14.2411184 100.9357834   6.5521395  13.6214054 100.5902958
   7.9320532  14.1853559 100.3280258  64.0005875  32.4716163  68.6073351
  64.1418123  33.1917667  67.9927874  63.7294102  31.7368531  68.0570507
 102.7421398  36.5787435  70.9151173 102.9178972  37.2362757  70.2420712
 103.5180444  36.0182238  70.9107685  32.7782679   2.0933610  96.7193890
  33.6863780   1.7962651  96.7768669  32.7976370   2.9893067  97.0557499
  29.6961284  20.4914570  63.9901209  28.7545967  20.5198455  64.1602516
  29.9485564  21.4089346  63.8864470  24.3951583  35.3163934  74.4338369
  24.4660044  36.2351537  74.6928549  24.2057896  34.8516655  75.2489424
  26.6976714  54.1069508   4.4973699  26.1060429  54.2164755   5.2418271
  26.9830680  54.9957037   4.2854635  29.0380216  20.1064134  94.6199989
  28.5669827  19.9486303  93.8017941  29.2097521  19.2321730  94.9699211
  47.8607702  38.6240244  83.1135464  48.5970640  38.7286329  83.7161732
  47.9843378  39.3145299  82.4622726  46.6459560  37.6594734  64.8951006
  45.9935093  37.2422028  65.4576206  46.8823147  36.9833302  64.2601252
  29.5385909  52.1169758 103.8197041  28.9292026  51.4352465 103.5366535
  29.5278120  52.7580118 103.1089401  44.1309023  31.7818069  58.9685154
  44.4535732  30.8879471  58.8539219  43.6169147  31.9538927  58.1795692
  33.5655570  12.1799445  68.8663864  32.8003502  11.8043256  69.3018150
  34.1404223  11.4318502  68.7047768  22.1136570   7.9271930  69.3329859
  23.0067849   7.9759717  69.6738291  21.9451022   8.7996674  68.9771652
   8.3153552  11.3246500  61.9060946   9.1502535  11.7505407  62.1005011
   8.1782252  11.4816105  60.9718609   9.6489716  30.6960392  81.2846470
  10.4807711  30.8814931  80.8488178   9.8559284  30.7266927  82.2187042
  63.0949211   4.7719625  64.8244619  62.7898216   5.6767118  64.8921061
  63.5663652   4.6163580  65.6428528   4.4178376  72.2086525  59.4423246
   4.0401050  71.5640974  58.8439131   4.5033401  73.0032873  58.9155674
  34.1465139 141.4747525  47.4585295  33.2351732 141.4338464  47.7483797
  34.3072534 142.4056772  47.3043442  82.1733761  50.6530428  70.9778786
  81.6743183  51.4149237  70.6834030  82.7802372  50.4721975  70.2600765
  58.0403423 142.5444443  85.3949547  57.1933222 142.3277307  85.0053120
  57.9832840 142.2136510  86.2913609  32.4905205  31.4061403  67.9685497
  32.5150704  30.8179879  67.2137594  32.5082159  30.8229089  68.7273359
  22.6843643  11.8275380  96.6066074  23.1655931  11.6138124  95.8072567
  21.7735338  11.6164637  96.4015102  20.9267521  18.1103122  94.9947643
  21.6557813  17.8107131  95.5378914  21.2905288  18.1580067  94.1106701
 102.9500026   3.1454492  82.4876976 103.2859225   4.0398881  82.4296570
 103.5910434   2.6174921  82.0117188  27.0209670  26.0915399  24.5420495
  27.4731874  26.8745708  24.2280618  27.6040912  25.3688598  24.3098203
 121.1326588 130.9742434  91.9991970 121.9080383 130.8171339  91.4603615
 120.9855375 131.9180722  91.9377613   8.9993852  29.5219541  54.2149925
   9.7098285  29.9850893  54.6588516   8.9055091  29.9743509  53.3766890
  35.8266973  32.0241380  16.7834703  35.6655765  31.4113188  17.5009099
  36.6964555  31.7901778  16.4594022  50.9737158  15.6338310  61.0723257
  50.8722496  15.2948129  61.9617081  51.4139843  14.9296618  60.5963612
  21.9008517  28.4019494  98.2312870  21.8048453  28.4138179  97.2789860
  22.4960232  27.6721954  98.4029293  15.1614642  39.2456913  80.8918095
  16.0281169  38.8484669  80.8060265  14.6690178  38.6309838  81.4357376
  37.7223277  31.8589520  24.1235677  37.7998757  31.1326170  24.7421590
  38.6264706  32.0868087  23.9071504  46.5358973  37.0752215  70.8270168
  47.2999668  36.4986658  70.8235455  46.6470432  37.6248217  70.0512457
  44.9306297  36.9316912  73.1055784  45.3135061  36.8568969  72.2314835
  44.3997002  37.7272272  73.0672264  38.4588552  20.0187993  97.4128437
  39.1697860  20.1467061  96.7847919  38.8961577  19.9697530  98.2629013
  37.9347849  25.0478172   4.2980806  38.4930372  25.3664660   3.5888234
  37.0625162  24.9889445   3.9083139  23.3664775 140.7686586  61.9151592
  23.8402653 141.5889783  61.7779350  24.0371299 140.0896055  61.8420601
  25.0494933  11.3479269  80.1932907  25.7883668  11.8634224  79.8699331
  25.4209948  10.8086216  80.8914089  19.2065418  10.6039011  98.4626770
  18.4189630  10.0957429  98.6569118  18.9140368  11.5151429  98.4803009
  40.0367260  57.9306316  88.6407757  39.2446423  57.5221968  88.9900780
  39.8935342  58.8697910  88.7578773  56.4578485  27.8709483  86.2859631
  57.2704887  27.3651671  86.2911034  56.3631153  28.1811786  87.1865177
  22.1963835  15.2041376 102.3828983  23.1451154  15.3274393 102.3523140
  22.0015407  15.0742102 103.3110046  26.1745381  -0.0002470  91.6784573
  26.2309718   0.4612813  90.8417797  26.2030077   0.6936722  92.3371696
  11.7118061   8.7687480  86.3272572  11.5226912   8.9289099  85.4026985
  12.5911188   9.1240388  86.4569187  27.4087119  18.7624454  84.5996475
  27.1240902  18.6955369  85.5111027  26.6682172  19.1655970  84.1464710
  21.3159537  29.4961715  31.9595051  21.7455196  29.9080420  31.2097931
  21.8575335  29.7406721  32.7099347  36.2055492  49.7124720  71.4360332
  36.7713094  50.2415991  71.9983292  35.7925248  50.3452349  70.8484459
 123.9962184  21.3343787  69.7005272 123.2076461  21.2645316  70.2385855
 124.0090250  22.2468615  69.4116592   7.2480607   9.1114575  81.6578197
   7.8509623   9.6771657  82.1402264   7.0864016   8.3753049  82.2478867
 106.5449590   3.7484503  75.9699488 106.3242430   4.6788171  75.9259701
 106.4340372   3.4333152  75.0729418  27.4775314  43.5071850  69.6669626
  26.5979409  43.4181833  70.0338840  27.3397064  43.9091301  68.8092470
  73.0394602  31.6187382  85.7699299  72.0960903  31.5511990  85.6225491
  73.3230543  32.3233151  85.1873684  31.3670254  58.3865976  96.6164207
  30.9764385  58.7426615  95.8183670  31.7138648  59.1516829  97.0753002
  52.7557278  24.5476222  71.1183786  53.4996557  24.5942116  70.5178547
  53.1515408  24.5398164  71.9898748   8.7074000 120.7052416  87.8939629
   9.1501248 120.5414362  88.7266636   9.0716356 120.0520892  87.2965050
  36.9012165   6.2500000  93.1534863  36.3316202   6.4523494  93.8956738
  36.7982316   6.9956958  92.5622463  97.6619238 133.8427467  73.9496517
  98.2942314 134.4036240  74.3989086  97.3604078 134.3677647  73.2082510
  25.5730081   2.8221774  73.4017801  24.8902082   3.4087074  73.0762100
  25.9918094   3.3117837  74.1096830   4.5226786  19.2288578 107.6860237
   5.1916885  18.8742495 107.1004391   4.9454322  19.9771833 108.1073570
  20.8618212  29.3355131  70.7280731  20.6852460  29.7403884  71.5772676
  21.3947535  28.5677791  70.9349537   9.8739058  46.6978598  95.8698368
  10.2776766  46.6895485  95.0020027   8.9697182  46.4240026  95.7159424
  30.8495688 146.0272858 104.8131466  30.1385522 145.4595683 105.1104355
  31.2740898 145.5324435 104.1123295  31.8996191   2.8918880  68.2479477
  31.5614057   2.0981851  68.6625290  32.7058125   3.0867803  68.7257624
 118.5607213 134.2478807  84.8838806 118.1416608 134.7249574  84.1676331
 117.8809876 134.1763479  85.5540180  49.9217224  38.2685733  79.8194599
  49.3096256  38.9113665  80.1777649  49.7649240  38.2888389  78.8754082
 115.1874364   9.6287894   6.3705674 114.7879923  10.2369857   6.9924775
 115.7608867  10.1765716   5.8345453  31.0295320  24.4392419  89.2261314
  30.0877070  24.4988370  89.0659904  31.4132547  25.0964999  88.6456203
   2.9335922  39.2697620  69.0700912   3.4295246  39.3603945  69.8837662
   2.0211157  39.2043638  69.3517685  31.7654824 141.0066945  97.5681305
  31.4765024 141.8714181  97.2766304  31.4703465 140.9492845  98.4768867
  22.2192240  53.8185167  53.9577055  22.3347378  52.9576015  53.5555744
  21.2719655  53.9094925  54.0609407  17.7989650 143.2997490  92.5596523
  17.8072619 142.7131502  93.3160019  18.4281802 143.9859993  92.7818680
  25.2681971  45.9053087  38.9425874  24.8279858  46.0171366  39.7851682
  25.5849338  45.0021315  38.9558434  15.0688756  26.0963202  67.4066591
  14.4351566  25.3798652  67.4430513  15.4791963  26.0973048  68.2714510
  24.0304542  20.8425784  49.7862911  24.4887137  20.6621051  48.9655256
  23.2223940  20.3329778  49.7265053  41.1514664  12.1269286  68.8727283
  41.6088724  11.3929975  69.2830372  41.6104126  12.2618175  68.0436277
  23.5288978  31.0293508  89.5769596  23.4810567  31.5582800  90.3733158
  22.6714110  30.6081700  89.5173073   9.4914466  46.3053846 100.3998470
   9.9868548  47.1150398 100.5234051   8.7355840  46.3961744 100.9800720
  59.4693995 129.1900248  72.1221018  59.7323370 128.4033484  72.5998402
  59.5084524 128.9347620  71.2003899  55.1606703   4.3029332  73.8915825
  54.3781233   4.7740993  73.6054754  55.3725052   4.6852815  74.7431517
   1.0018947  46.0108280  88.4419155   0.1665132  45.6914282  88.7830162
   1.4873956  45.2174520  88.2159233  27.1678495  13.2718897 106.6950703
  26.5538311  13.1756902 107.4230576  28.0173540  13.0314553 107.0648861
  35.9194493  22.6303363  90.5051136  35.3055692  22.0209646  90.9150505
  36.7712069  22.3967552  90.8741474  25.9742880   9.1714495  93.3628654
  26.5977883   9.4654149  92.6987362  26.3368177   8.3453292  93.6827564
 121.5744806   7.1979928  76.4479065 121.0175574   7.8532261  76.8683052
 121.3052384   6.3674796  76.8403196  22.6804256  31.8348241  92.0971394
  21.9725847  31.2712121  92.4094486  23.2908916  31.8825841  92.8328609
  14.2886114  11.4967155  92.3848248  13.6918318  11.1546910  93.0504799
  14.8411882  12.1201980  92.8561592  43.6904192  18.3486605  10.9673635
  44.2316151  18.5669172  10.2086202  43.6438370  19.1618145  11.4702073
 101.5346665  25.2208328  68.9910698 102.4153990  25.3036022  68.6254311
 101.1115355  26.0549974  68.7876987  14.9109089  30.7537317  90.3212929
  14.0245807  31.0851359  90.4656029  15.0589037  30.1432467  91.0435390
  45.1720524  50.8956480  49.8265266  45.9642410  51.2643051  50.2173710
  44.6057892  50.6993151  50.5728722  44.5962381  54.3669939  85.2925682
  45.5281878  54.5608330  85.3931904  44.2659330  55.0655556  84.7276402
  36.8670964  30.3802180  57.3950768  36.8709993  30.7131767  58.2924891
  35.9796143  30.0449133  57.2678709 105.1518554  25.6108308  80.5448818
 105.1276249  25.2348304  81.4248085 104.2655272  25.4848385  80.2060890
   1.1120924   5.7376307  82.9915047   0.5409484   5.9526265  83.7289333
   0.9949702   6.4632666  82.3783398   7.8554732 135.7285256  87.8926086
   8.4355479 135.9865863  87.1762657   7.1226281 136.3420612  87.8402424
  34.0715408   5.0933248   0.7391397  34.9017262   5.5697602   0.7334462
  33.5667300   5.5001765   1.4433233  48.4600830  17.0935214  55.5004978
  49.0802050  16.7607307  56.1492968  47.8770113  16.3548434  55.3255415
  49.2058039   3.5457724  67.5120926  49.5664597   2.9750359  66.8335533
  48.4535265   3.9667341  67.0960331  38.3544254 145.3798440  70.8711815
  38.0479860 144.7385740  70.2300119  38.4301209 144.8852787  71.6872120
  83.0585289  23.1352091  70.5041695  82.5231552  23.9133024  70.3486443
  83.1819630  22.7519274  69.6357870  19.1108692  22.0770764  52.6151705
  18.3921278  22.7042747  52.6943207  19.7469759  22.3574543  53.2731867
 115.3823400 143.6151324  73.6240959 115.4644818 144.3245254  74.2614698
 116.2089182 143.6297400  73.1416178  72.0461798  25.4090500  82.5244331
  72.2271347  25.2406597  83.4491634  71.9842863  26.3622165  82.4621964
  19.1682255  30.6617928  89.4386482  18.8620281  31.4634037  89.8627853
  18.4941292  30.4619765  88.7891102 120.1393200 124.6857376 101.4182854
 119.5409519 124.2221732 100.8323765 120.5775893 123.9918847 101.9109535
  63.8275242   1.6787051  75.8032846  64.1963148   1.7137454  74.9206781
  64.0321827   2.5334305  76.1824846  42.8913260  25.2372050 102.3813629
  42.6377439  24.3153977 102.4282551  42.7656221  25.4737377 101.4624023
 121.3109592  22.4208999  62.7690506 121.3891742  21.7207766  62.1210241
 121.4293352  21.9819260  63.6113834   6.9117665  23.3017826  79.9111176
   7.2400320  24.1690135  79.6736574   5.9862351  23.4424162  80.1107311
  28.5613847   4.1626641  87.7407455  28.6367583   4.5193753  86.8556976
  28.2514954   4.8978010  88.2696819  23.2621527 145.2120989  98.1729126
  22.8173614 144.3754352  98.0373096  23.6558890 145.4143473  97.3242092
  11.4596760  21.9391322  62.8674984  10.7275581  21.3503575  62.6842451
  11.5004528  21.9804382  63.8229370   1.1255699  37.4300504 105.4326248
   1.3841960  37.6398945 104.5352364   0.2089627  37.7004004 105.4871559
  31.0707927  19.8096204  86.5924740  31.1459994  18.9079738  86.2800503
  30.1885462  19.8629725  86.9599342  27.5094509  44.8480463  67.2177076
  27.5375271  45.7662201  67.4867868  26.7322278  44.7848034  66.6625881
  15.9788489 142.0348991  95.1820183  15.3317380 141.6002060  94.6265793
  16.0320055 142.9256750  94.8357201  39.2517161  38.8301253  78.7867212
  39.2012024  39.6928263  79.1983366  38.9071202  38.9653659  77.9040003
  23.2913208  18.6125970  81.2110901  22.7362776  19.3569744  80.9785843
  22.6827765  17.8794336  81.3026142  12.9016852  21.2235498  86.0341549
  13.8466072  21.1166525  86.1433697  12.6117146  21.6362357  86.8476868
 114.3982620  14.5610845  81.6968441 114.2527289  13.8879621  82.3616409
 115.2419717  14.3334758  81.3062191  12.9766965  26.8406653   8.1541292
  13.3409059  27.5504065   7.6251260  13.0415106  27.1562219   9.0554944
  24.5913553   3.1853220  48.5012436  24.7789121   2.3305628  48.8891125
  24.2629790   3.7121150  49.2298651  18.1856251  24.7814989  59.7499371
  17.9166865  24.9885750  58.8549423  17.4201095  24.3577528  60.1380825
 124.4894793  45.1356602  75.7643461 125.4279087  45.0439930  75.5994844
 124.2252779  44.2881489  76.1223269  51.1777306  45.4519796  41.3739109
  52.0107031  45.6665993  41.7938232  50.7905006  44.7827101  41.9381428
  32.2107029  38.5825300  65.1105022  32.3893237  39.2555761  64.4537401
  32.3519135  37.7552438  64.6501875 124.0247243  20.2993488  98.8682938
 123.4595782  21.0637021  98.9805698 123.4650788  19.6476436  98.4460258
  30.8143520  29.8694539  55.8890820  30.5110621  28.9663172  55.9817839
  31.6160798  29.9076009  56.4106274  89.9397702  32.3192000 107.1084023
  90.4488058  32.7235603 107.8109837  89.8963565  31.3931131 107.3465443
  46.8319273  43.2176065  81.6939545  47.4109888  43.8623190  81.2874317
  46.8403673  43.4412575  82.6246262   7.0051157  30.9572840 108.9999866
   6.8443948  31.8959332 108.9033508   6.4585334  30.6957364 109.7409725
  54.3194056  12.2406578  93.4762001  54.4460773  12.8752100  94.1815567
  54.2406702  12.7741539  92.6853752  66.6087008  75.9396076  84.5612431
  67.4736643  75.5576277  84.7101212  66.7100620  76.4582777  83.7631607
  40.3173828  33.6185479  54.1633272  39.4138050  33.9172959  54.2659521
  40.2394009  32.7534151  53.7612152  54.6270180   8.6818224  46.2531471
  54.1172791   9.4865608  46.3468981  54.2521286   8.2488179  45.4862070
   3.0112934  21.0820961  60.5856991   3.0914524  21.9623566  60.2183533
   3.4070134  20.5108905  59.9273968   7.6440459  44.6955252  42.2038317
   8.4686977  44.5669270  42.6724911   7.4308741  43.8310146  41.8525314
  19.0331590  17.2259009  61.8292999  19.8534870  16.8074071  61.5682316
  18.4819102  16.5043068  62.1320486  16.5988064 137.3549844  55.7014561
  17.1302199 137.1176417  56.4613914  15.7017255 137.3787005  56.0344982
  15.2061427  39.9876618  76.0193157  15.2261972  40.9443140  76.0448027
  14.8245347  39.7336221  76.8595934  25.0221944  29.6237612  97.8401947
  25.8079720  30.1672649  97.8984261  25.3545356  28.7348175  97.7154541
  50.1846409  26.3427210  82.4171448  50.6440020  26.7676830  83.1414509
  49.7391891  27.0581841  81.9633579  16.8878281   9.7488528  85.8128929
  16.8179452  10.0458884  86.7201519  17.3617136   8.9190423  85.8683777
  13.1228244  33.0657554  57.9051208  13.5900640  33.8998199  57.9525948
  12.3364437  33.2013226  58.4337568 117.8388781  43.1164122  52.3227119
 117.1578438  43.7885046  52.3494339 118.5915703  43.5208511  52.7541208
   9.6799237   8.9111042  64.5893383  10.3071237   9.0652663  65.2958012
   9.1320050   8.1937498  64.9078035  24.9217033  28.8644958 105.4203320
  25.4049444  29.5356202 105.9023094  24.5820332  29.3204761 104.6503067
  18.5234845  26.3086534  81.3873386  18.7586391  26.7116594  80.5515575
  17.8730690  26.9011569  81.7643452  36.1691546  28.8002706  63.8500547
  37.0936251  28.6168671  64.0172386  35.9880733  29.5949984  64.3519020
  14.8295057  36.2746167  51.9404602  14.7570908  36.9739556  52.5900126
  15.7092071  36.3755536  51.5769100  15.9570408  33.9270020  47.0935011
  16.0115957  33.4432125  46.2693644  16.8677223  34.1102290  47.3244095
   6.4772338  56.7960882  66.8320608   6.7130154  56.2049532  66.1170816
   7.0640111  57.5450134  66.7270136  37.5408554   9.2058057  35.0309038
  37.9489470   9.8304808  34.4313455  38.1179476   9.1946810  35.7944965
  55.0684261  46.3273239  33.6856174  54.7149563  46.6291714  32.8488493
  56.0148716  46.2918472  33.5470033  20.5100465  21.6090369  12.8068391
  20.0418735  21.8429065  13.6083070  20.7479262  22.4491525  12.4146024
  10.0235331  14.1569841  55.9165382  10.2484560  15.0432909  56.1995649
  10.3701937  13.5902798  56.6056728  80.1411152  43.6057806  71.5520477
  81.0411167  43.8491297  71.7688417  79.7859478  44.3746138  71.1059713
  30.8058453 143.9543385  61.4555311  30.8985424 144.6750250  62.0786285
  29.8623919 143.8829861  61.3104820  14.6344113  19.7578168  28.2099056
  14.1694486  19.6517801  27.3799658  14.8950922  18.8696170  28.4535813
  36.1723590  27.3777509  72.3822021  36.0469747  26.5454078  72.8379583
  36.2068987  27.1405625  71.4554977   8.3447808  51.3948107  23.6008096
   8.3615541  51.6462612  24.5242381   9.0690100  50.7758617  23.5079241
  51.6083002  28.5755229  62.6405001  50.7880497  29.0652394  62.7005243
  52.0059824  28.8737297  61.8224812 111.1162931  22.7748728  57.8194284
 111.2190658  23.7207770  57.9239988 110.1852674  22.6164174  57.9753637
   3.1544647 116.7021269  34.8316932   3.6591744 115.8908910  34.7734022
   3.1193271 117.0275087  33.9321804  38.9622188  15.1889098  57.0194435
  39.5930099  15.2754521  57.7341747  39.3467593  14.5322311  56.4388132
  16.2030721  44.9709034  33.6685753  16.1660004  44.3679047  32.9261160
  17.0132959  45.4633045  33.5369945  30.8461761  14.0516329  50.2882528
  29.9785519  14.2409873  50.6454706  31.3094878  13.6151576  51.0031414
  34.4863081  20.6410432  73.8475943  34.6785474  20.5602360  72.9133892
  35.3003311  20.3871155  74.2824745  25.3769279  45.3648376  60.8178043
  26.2597656  45.5748081  61.1223412  25.1017332  44.6316910  61.3682556
  34.1515064  43.5000896  59.9661303  33.7978864  44.3634272  59.7520399
  34.8134589  43.3389378  59.2937613   6.5404081  16.0267198  58.6566019
   5.9159923  16.7507994  58.7018442   7.0895636  16.2309575  57.8996706
  25.0395894  42.7668190  85.5625916  25.7036066  43.4552431  85.5998135
  24.4417286  43.0479193  84.8699284  32.4097657  73.1424427  66.4813280
  31.9682884  72.3169327  66.2816763  32.9248357  73.3342409  65.6976509
  42.7499914  31.3382506  37.6476240  43.0829525  31.6115260  36.7928195
  41.8161392  31.5463710  37.6186085 116.4064670  35.0649285  60.1073408
 116.3855744  35.2368927  59.1659451 115.6478608  35.5349064  60.4535580
  19.0262091   2.1009047  57.3871422  18.1536901   2.4111712  57.1449089
  18.8975346   1.1811748  57.6190281  21.3390183   9.2806274  61.8240309
  20.7442045   9.5147949  62.5364876  22.1542048   9.0373290  62.2627831
  92.2025413  22.8672624  49.8833799  92.3579974  23.1506848  50.7843447
  92.7842111  23.4150076  49.3562460  38.9531636  16.9189012  66.1714745
  38.4330511  16.8506038  66.9721317  38.5124636  16.3399994  65.5494690
  18.9683616  58.4472895  59.4357824  19.6540487  58.7043715  60.0521994
  18.8273942  57.5164843  59.6088648   2.1032929  33.6605525  54.3999147
   2.5560787  33.1469965  53.7309790   1.1833532  33.4113932  54.3112373
  49.2225695 142.8125254  58.5087347  49.8961210 143.2336820  59.0427685
  49.4677353 141.8872971  58.4998846  18.0316162  10.2417016  48.5926390
  18.4876597  11.0433376  48.3364487  17.4008775  10.0896192  47.8888845
  23.2834506  58.2272148  55.9624863  24.0083981  57.7884483  56.4076519
  23.0126667  57.6114225  55.2815199  18.3784783  22.3930120  55.5863047
  18.7824798  23.2094646  55.2923298  19.1175449  21.8198848  55.7901096
 117.0172245  12.4110544  59.5324850 117.0208538  11.8320012  60.2946663
 117.0806271  13.2922530  59.9008656 122.8369333  33.8280416  49.1285372
 122.6650011  33.3379388  49.9325705 123.7542873  34.0917516  49.2003107
  21.3257265  22.0174885  83.1438637  21.2515020  22.2579026  82.2203255
  21.0497737  21.1014843  83.1758308  30.2373433  29.2935848  82.3204231
  29.5352888  29.8888278  82.5831699  29.9352694  28.4291196  82.5991344
  48.5667324  13.9246988  44.2969227  49.0510321  13.8383877  45.1180410
  48.2519197  14.8286474  44.2984104   3.9893669  57.1607924  57.5111723
   3.7376177  57.8657246  56.9145775   3.2073650  57.0042944  58.0405235
  40.2233219 140.6475718  45.8845472  39.3664098 140.6414277  46.3110399
  40.5258465 141.5518776  45.9678602   7.8014046  13.5211158  54.6319437
   8.6604619  13.8494301  54.8973894   7.2461450  13.6546135  55.4001188
  37.3550248  28.5830903  39.0087485  37.7498317  28.6808372  38.1422591
  37.0066166  27.6915646  39.0140128   4.8958570  39.1904259  66.6450119
   4.3002686  39.1011500  65.9010124   4.3221897  39.2003822  67.4111986
   5.9490973   2.3469451  93.9136887   5.6518090   2.4270114  93.0073547
   5.1925582   2.6095852  94.4379902  54.3939352  29.9706388  55.6166077
  54.1773415  30.5644894  56.3353968  53.6760616  29.3375969  55.6043482
  30.9752750  23.4004021 101.8980694  30.5832171  22.7519464 102.4829006
  31.7598605  22.9714966 101.5564632 122.5606810  11.0500872  76.2820911
 121.6308764  10.8234739  76.3005781 122.7537192  11.1941409  75.3556919
   1.5963998  25.3761029  91.5814972   1.4312595  24.4447756  91.7284393
   2.0322934  25.4106283  90.7300091  28.4130692  35.3111076  95.5764389
  28.7702107  35.6426477  96.4003086  27.5874114  35.7826948  95.4662991
   5.6089091   4.1226912  62.5258017   6.3510829   3.5883683  62.2431183
   4.8912778   3.4983614  62.6327991  32.1084046  21.2127399  70.7169437
  32.4656034  21.2760162  69.8311424  32.0788121  20.2730370  70.8967018
  52.3065233 121.1853690  62.8730679  51.7565060 121.7146749  62.2955322
  51.6872549 120.7379861  63.4497690  25.7947540  37.0464396  79.3794107
  25.1267266  36.6487050  78.8210392  26.4840007  36.3847113  79.4367504
   2.9610753  36.1415124  69.4664478   2.9642263  37.0982313  69.4362259
   2.0362592  35.9029222  69.4030333  23.8681388   6.1990345  88.1095123
  24.5071054   6.6508597  87.5583267  23.5740042   5.4592568  87.5780582
  32.5629091  20.0809956  46.4298010  31.8163157  20.3626156  45.9011030
  32.9268694  20.8931828  46.7821026  44.2661619  32.9001093  41.8489599
  43.3426809  33.1517410  41.8589067  44.3174314  32.2030210  41.1949968
  64.9226999  41.3434029  73.4874249  64.7066116  40.6667280  72.8458261
  64.4478893  42.1184444  73.1872511   7.6990604  34.3355656  95.8322144
   6.9260460  34.0678096  96.3291931   8.3605480  34.5198369  96.4990807
  35.3803849  22.1836948  50.3563309  36.0544467  22.8282881  50.1409817
  35.3823686  22.1454763  51.3127613  66.3456535  28.7663579  65.7668257
  66.6980886  28.1027532  65.1738214  66.4060879  29.5845556  65.2737427
 108.8842267  56.3409615  70.5642748 108.4572524  56.8090773  71.2817669
 108.4922225  56.7080832  69.7719431  36.0267544  34.9168444  51.1641502
  35.7761002  35.8302140  51.3025713  35.2296042  34.4194078  51.3467455
  26.2937880  57.6446629  65.0361204  27.0383739  57.1465921  64.6988487
  26.1581564  57.3035765  65.9201431 108.0273611 146.1890553  55.2674294
 107.9809935 145.7566718  54.4147158 108.6657853 146.8917122  55.1452827
 113.4979946  79.9059343  68.2385159 113.1197984  80.0502872  67.3711252
 113.8995308  79.0387726  68.1834316  47.6818514  35.3838253  68.5032654
  48.3106279  36.0208631  68.8424635  48.0872583  35.0498700  67.7030468
  11.8840742  75.9545994  62.5408602  12.7083707  76.3353825  62.8437996
  11.8956447  76.0821438  61.5922689  43.3764172  25.1789856  59.7011328
  42.8739262  25.9706235  59.8935986  44.2601299  25.3745937  60.0126076
  18.3705437  63.5073996  52.0223284  18.2727981  64.3547964  52.4566126
  19.2667556  63.5125160  51.6861582   1.5409139 144.7943892  12.9525606
   1.6448563 145.5812487  12.4175016   0.6042614 144.6008409  12.9144422
   3.3606145  49.2988920   2.4215547   4.2419130  49.5512486   2.6969854
   2.7785900  49.8327780   2.9623357  57.2498274  16.2559974  51.4396572
  57.4882555  16.9236207  50.7964897  56.5099955  16.6344476  51.9146919
  31.2901568  27.8379035  70.3916168  31.1026621  28.5849333  70.9599686
  30.5325556  27.2620964  70.4951429  50.3526402  13.5595071  76.4345503
  50.3477478  13.3758581  77.3739529  49.4520855  13.8159907  76.2359476
 102.7579517  14.4897366  64.6558809 102.6259012  14.2399681  63.7413263
 102.3483366  13.7852979  65.1580858  12.6927745  84.7727203  78.8191414
  12.0953798  85.5097675  78.9460802  12.1934581  84.0077305  79.1049814
   6.5773916  23.2263660  58.5711956   7.0489359  23.4349656  57.7647448
   7.1500587  22.6129699  59.0316629  17.3506045   5.8769870  22.9420495
  17.0111895   6.1180621  22.0801258  18.2673621   6.1516774  22.9238582
  28.9784074  27.2664237  35.9271240  28.8494945  27.8708243  35.1961589
  28.9604163  26.3976860  35.5256224 118.8197864  44.8962784  56.6864920
 119.1738457  45.6279325  57.1920156 119.5589799  44.2971087  56.5824556
  50.2952051  47.5691509  81.1784935  51.1808443  47.5177145  80.8190060
  50.0509739  48.4897089  81.0828304  42.8588057  26.8394399  47.6194334
  41.9853306  26.4696383  47.4909115  43.0619955  26.6603756  48.5375214
  68.7353611  49.6221685  89.6892738  67.7908659  49.5269728  89.8121452
  68.8269806  49.9835014  88.8076401  42.5463200  46.7359352  49.4057655
  42.5507784  46.9356775  48.4696484  42.8326464  47.5473213  49.8251629
  18.4624207  12.3539472  69.0613604  17.5546861  12.1291661  69.2656231
  18.4903598  13.3092678  69.1144180  13.5708952  31.4421606  76.2794447
  12.8074145  30.8649778  76.2656832  14.0573561  31.1772823  77.0601034
  19.7124779  43.5176277  80.2894688  19.7723770  44.4376755  80.5466843
  18.8602102  43.4439945  79.8599911  33.9332604   5.5477524  68.4371710
  34.2409301   4.8627725  69.0307808  33.6917377   6.2731135  69.0131474
  39.7343087  41.2767696  49.0715313  40.5578995  41.1102772  48.6130428
  39.3893933  42.0710182  48.6635733   8.8613403 122.0524640  14.3537939
   7.9190564 122.1123666  14.1964889   9.1220862 122.9430718  14.5884514
   5.1604122  18.5039198  58.4717035   5.8082348  18.7894094  59.1159487
   5.3118992  19.0681696  57.7134752  28.9482903 138.5063196  58.5150671
  28.0165577 138.2877792  58.4964180  28.9999366 139.3701042  58.1058741
  66.8424082  30.8401489  29.2657614  66.7460394  30.0375390  28.7531590
  67.5087500  31.3441324  28.7986231  23.4472299  34.6594977  61.8241453
  22.5351238  34.8620009  62.0321941  23.8059759  34.3066335  62.6384068
  24.6477485  66.8519735 102.1820641  24.7541142  67.7931261 102.3204613
  24.6772575  66.4756966 103.0617142  39.6377921  13.0587208  49.3959427
  39.1826773  13.5391700  48.7043715  39.1466522  12.2417665  49.4831085
   4.1559714  49.5358372  35.9490561   3.9735514  50.4654169  36.0863018
   4.7723672  49.5182610  35.2169490  15.1415610   0.9843376  74.0924120
  15.6926620   1.0502118  73.3125496  15.6845081   0.5221663  74.7310305
  28.8300347  41.9352055  77.5354671  28.2849503  41.6592503  78.2723284
  28.6277270  42.8639317  77.4224901  23.2452941 138.3458311  59.4223785
  23.6360836 138.3372928  58.5486269  22.3210382 138.5422964  59.2694664
  16.9976556  12.7150512  54.4364691  16.7373240  13.1549144  53.6271620
  16.1742032  12.4159038  54.8220444  16.3771749   0.6168673 104.4719696
  15.5667675   1.0229910 104.1645050  16.9917548   0.7297765 103.7468624
  54.4940233  11.3071644  60.3304815  53.9620924  10.8402431  59.6860743
  55.1399851  11.7829037  59.8083353  23.6207390  46.3651466  76.4600801
  23.1746387  47.0430326  75.9524345  22.9129601  45.8703899  76.8729877
  25.0061584  17.1213174  16.0505533  25.0406957  17.3294723  16.9842076
  24.4369936  16.3535678  15.9972227   9.9792320  81.7500019  74.1207266
  10.7337904  82.2264194  73.7744522   9.2348695  82.3293304  73.9578342
 122.1715135  56.8363380  52.6719284 121.8426821  56.7400455  51.7781544
 121.3958315  56.7391586  53.2242918  26.2773228  51.0598612  97.2544956
  26.3816643  50.1084614  97.2409248  26.3445973  51.3213110  96.3361549
  16.5820611  13.3703434  76.6652203  17.4424756  13.2667255  76.2587929
  16.7552829  13.8544559  77.4726009  34.5535064  14.8901057 106.1908913
  34.8177218  13.9879715 106.0104084  35.1936054  15.4255152 105.7220173
 119.9616218  20.0393701  70.2739668 119.0902222  20.1172709  70.6623268
 119.8244444  20.2086282  69.3418884  56.9974947  61.9732666  35.3324866
  56.1322021  61.8980694  34.9301839  57.5080538  61.2672091  34.9361944
 123.2551015  17.2282529  81.2584877 122.9543631  16.7464042  82.0289516
 123.4274471  16.5508413  80.6045437  16.3182127  42.6257992  76.9174337
  17.2594786  42.7776051  76.8325424  16.0401726  43.2263088  77.6090384
  41.3845491  23.6782098  68.1068182  41.0276985  23.1790042  67.3721838
  40.9297609  24.5195770  68.0680704   5.4405946  60.0109005  48.2816982
   5.7156718  60.7257891  47.7076817   6.1392730  59.3609619  48.2064676
  27.4737215  45.9323692  35.7203889  26.9292903  45.3174829  35.2287197
  28.3088565  45.9397411  35.2527070 124.0509782   5.7550305  72.8219604
 124.8392337   5.2258134  72.9436731 124.0610074   6.3715589  73.5540962
  15.8543777  41.8841028  81.3671303  16.5035641  41.7044592  82.0472145
  15.4420388  41.0366344  81.1997700  23.1529093  15.9753740  88.3227825
  22.4125004  16.3051379  88.8319874  23.0866408  15.0230491  88.3929253
  31.8012142  10.6976676  63.5650969  31.9427943   9.7703105  63.7553453
  32.1645975  10.8204472  62.6881075  14.3711841  49.8749876  59.9598312
  14.5884216  49.9450064  59.0302420  14.9013913  50.5513525  60.3813076
  13.5610116  24.3604898  62.3446751  13.6582816  23.4503293  62.0647192
  14.3678164  24.7872949  62.0563459 113.2493836  41.8797445  51.5784550
 113.0312628  42.2192526  52.4464369 113.8376016  42.5362635  51.2053442
  -0.0045971  50.2152920  62.7190208   0.6882264  50.8703327  62.8035688
   0.2815674  49.4908237  63.2753372  36.8700457  42.8400326  37.1137500
  36.0161495  42.4742699  37.3446393  37.0035553  42.5798082  36.2023282
  19.2640936  43.9358473  45.9984446  19.9896586  44.1565561  46.5824604
  19.1167927  43.0010319  46.1421680  12.7753997  11.7499352  79.4314528
  12.5260150  11.7376828  80.3555107  12.4466574  12.5878322  79.1057396
  14.1934144  34.9249315  81.1487484  15.0749576  35.0294232  80.7907104
  13.8587391  35.8184004  81.2258148  41.0798120 134.2668397  38.8131285
  40.3942823 133.9342518  38.2337594  40.8411646 133.9381773  39.6798801
 110.8796031 146.1290817  63.3199739 111.1231501 146.5360246  62.4885225
 111.2887163 145.2641613  63.2922220 123.1530701  25.8040524  58.6812019
 123.8480178  26.4532661  58.7898302 122.7560172  25.7307267  59.5490742
  27.0909238  42.8465080  62.5805807  26.7262006  43.5783672  63.0781698
  28.0244970  42.8549051  62.7917767 124.4095226  12.5011373  26.6515779
 125.2737341  12.1317601  26.4701104 124.4497550  13.3896899  26.2979007
 118.1704188  13.1879282  70.9991121 119.0892542  12.9661620  70.8481407
 118.1302989  14.1368008  70.8796835  28.3291960 139.7960473  75.7658958
  27.5278568 139.2832858  75.6602478  29.0021276 139.1483463  75.9753656
  33.7861943  25.3084111  47.9418564  34.1411424  25.9402108  47.3165035
  34.3463159  25.3944230  48.7132835  45.5104876   8.8081884  70.5113125
  46.0972404   8.6179119  69.7793627  44.7762156   8.2057184  70.3925323
  20.6259274  19.6939194  60.5319834  19.8937523  20.3079820  60.4765081
  20.2716923  18.8683438  60.2015734  35.9868312  52.8242683  64.6975040
  35.3296447  52.4992609  64.0821123  36.6925955  52.1788931  64.6571970
  28.1762266  46.6544819  46.9828224  27.2275686  46.6143990  46.8616915
  28.4961843  45.8172989  46.6466951  33.4484696  35.7928395  24.5236063
  33.0367064  34.9463153  24.6970487  33.0423737  36.0947251  23.7110901
 124.6727807  13.1674278  52.3623133 124.2208361  12.5470245  51.7904043
 124.0925068  13.2635391  53.1174803  16.8369722  29.6784329  59.3638897
  15.8891535  29.7762728  59.2727947  17.1236849  30.4944682  59.7739077
  17.3617661  63.8443995  64.6856642  17.1948135  63.8162804  63.7435579
  18.2839167  64.0905714  64.7582483  38.2427573  18.5664999  57.8761911
  37.5819230  19.0163004  58.4027004  37.7438974  17.9463410  57.3444271
  39.5274591  53.3981133  46.7282677  39.8611379  52.5356579  46.4811754
  40.3111744  53.9385176  46.8282175  29.8888087  39.1113520  62.0615101
  29.6484256  38.8842535  61.1632490  29.3775296  38.5119176  62.6051092
  95.2183384   1.8422695  66.1645746  94.8581666   2.6099294  65.7204962
  95.4256863   1.2316813  65.4571724  27.1313834  35.3210878  72.7566957
  27.6732326  34.9769664  73.4667730  26.2715840  34.9248004  72.8978777
   2.0808838  22.8808403  67.6189756   2.3217474  21.9939423  67.8866148
   1.6958274  22.7723479  66.7493820  54.7949123 141.4096285  66.8738031
  54.3229914 140.6220884  66.6030550  55.7188034 141.1644454  66.8233824
  13.9312589   7.3940015  40.1207256  13.1236398   7.9077858  40.1237392
  13.8144433   6.7683524  39.4057798  43.2754564  29.9066043  73.2532167
  42.6758623  29.8890924  73.9991474  43.0642271  30.7201219  72.7951765
  22.5619245 133.8058037  87.6963902  22.2640562 133.4155590  88.5181141
  21.9913960 134.5640416  87.5706768  25.0618792  50.2590752  53.8669682
  24.9149442  50.0976896  54.7989511  26.0083532  50.1704693  53.7548494
  24.9026275  25.0509572  43.3524704  24.6233678  24.1450357  43.2199955
  25.8031559  25.0737596  43.0288076  43.4687614  17.2097707  38.4714127
  42.9455042  17.2484481  37.6708245  44.1422892  17.8789687  38.3499002
 110.7714183  51.0311842  67.8621483 111.0124583  51.5759134  68.6114216
 110.9690172  51.5733480  67.0984459  58.3721113  31.7203307  56.5437460
  57.7747154  30.9725499  56.5305471  57.8904438  32.4195218  56.1017513
  34.4231629   2.8032047  63.9400101  33.9242411   3.1849134  64.6622324
  34.0280128   3.1766629  63.1522131  34.8398209  77.4234629  60.3916645
  35.4702926  78.0690289  60.7110023  34.8800588  76.7125797  61.0313940
  27.8581452  12.7977884  39.9616551  28.4686875  13.0159330  40.6658411
  28.3668637  12.2485924  39.3651485  24.4437385  30.1295829  57.9862499
  24.0467477  30.2998686  58.8404369  25.1855636  29.5555472  58.1770611
  14.2433870  21.8339729  61.8241596  13.4273458  21.3522458  61.9592476
  14.9314499  21.1829877  61.9620705  20.4006076  23.5798001  70.5039358
  19.4580042  23.6008525  70.3387451  20.7186723  22.8425169  69.9829006
  14.1348433   9.6913517  65.0399017  13.7474036   9.3213964  65.8331585
  13.6501813   9.2818725  64.3232012  21.6140079  27.9608178  57.1955919
  21.9055438  27.1488404  57.6102400  22.1338701  28.0205178  56.3940859
   7.7213299  34.9021244  15.3657365   7.0219803  34.6423292  14.7660303
   8.1362921  35.6519175  14.9393022  38.6789703  43.5083103  72.8466749
  39.3130326  43.2844543  72.1654367  38.9160681  44.3969536  73.1118774
  39.3770242  14.9185753  89.6691704  39.1136265  14.8440003  90.5863953
  38.9184713  15.6961179  89.3507576  43.4555054  30.4028964  63.4984589
  43.6262321  29.5241928  63.8375235  42.7463245  30.2823472  62.8669834
  22.4364543  10.9391570  93.6432266  23.2947803  11.2457466  93.9356518
  22.5653768  10.7077694  92.7233982  25.5879831  57.1967173  72.5785398
  25.7166290  56.9390297  71.6656971  25.2988791  58.1080151  72.5316954
  24.6629214  34.0603137  49.7128439  25.4673386  33.5433006  49.6699095
  24.2158842  33.8768220  48.8865757  14.4051826   6.3217676  64.0869570
  14.9913788   6.9896865  64.4426107  14.9738145   5.5713677  63.9143610
  33.6111641  13.2146955  92.4751091  33.2550406  12.8289711  93.2754993
  34.5041847  13.4684157  92.7082825  48.5232019  38.4887147  95.1608372
  49.1454601  39.1937375  95.3396416  47.7512980  38.7130141  95.6805325
  21.0730386 137.6794005  35.9613466  20.7584286 137.1136082  35.2562714
  20.8955312 138.5679204  35.6527114  40.1652575  32.6718283  62.2040510
  39.3428111  32.7319646  62.6900530  40.3858709  31.7405510  62.2208929
  32.1671629  32.6952147  73.9726830  31.2304521  32.8730917  74.0573454
  32.5703359  33.1899285  74.6860838  14.9478042  29.3149376  55.2071333
  15.1241505  29.7524714  54.3742466  15.6848574  28.7154055  55.3235006
  18.9537430  23.6590147  24.6891809  19.8431242  23.9356899  24.4685364
  18.4647632  24.4765925  24.7824335 121.8244723 144.7512569  78.5866928
 120.9695936 145.1009747  78.8379097 121.9059149 143.9374907  79.0840673
  37.4379539 130.3818447  67.5976562  37.3250175 129.8948688  66.7813635
  37.7142978 131.2550134  67.3193741   0.6464822   1.0228752  52.5359583
   1.1783864   1.8175414  52.5785685   1.2803304   0.3169151  52.4091196
   8.1268692  26.5140247  11.7081487   8.6071956  27.3249078  11.5408540
   8.8067758  25.8680892  11.8997896  28.3317804  49.2126036  18.6241376
  28.5313392  48.9688349  19.5280099  27.3795295  49.1388178  18.5608363
  14.8202693  24.4718313  64.7012997  14.4108832  24.3744254  63.8415623
  14.0927112  24.4157100  65.3207684  13.7757146  36.1567640  68.4489489
  13.4766042  36.7147565  67.7310276  14.7291434  36.1483026  68.3644772
 116.7244095  43.3684731  66.1382389 116.1695564  42.7710247  65.6368208
 117.4364216  42.8177500  66.4637756  17.5017488 144.0667454  66.6276836
  16.9667077 144.4102033  67.3432255  18.1907964 143.5650752  67.0633125
  29.7557545  60.3253603  55.4091311  28.9843869  60.1644516  54.8656893
  29.4040561  60.4686928  56.2877655  46.3634634  38.7496805  78.5771513
  45.7764006  39.1258669  77.9213524  46.3059711  39.3484902  79.3216991
   7.2858578 136.0229773  55.2070665   7.3021585 136.5221936  54.3905210
   6.4611346 135.5381746  55.1749754  40.1687193 131.5394730  94.2909718
  40.2276850 132.0720858  95.0841141  39.2650056 131.6494329  93.9952660
   6.9667810  26.4236307  22.0080519   7.6209742  26.8411303  22.5683713
   7.4308091  25.6908774  21.6031027  34.0905952   8.5437620  42.4754620
  34.0976787   9.3526447  42.9872131  34.7505403   8.6841166  41.7964888
  39.6988201  12.3706293  75.5536652  39.4462419  11.9138098  74.7513247
  39.3544245  13.2568729  75.4432344  30.2289677  26.6325736   8.0438119
  29.9130630  27.5297809   7.9367727  29.4775152  26.0852599   7.8157789
 123.9888833  15.1461542  26.0736132 124.6651740  15.6901419  26.4772725
 123.2087002  15.7006633  26.0654974 119.5751453   9.7164071  21.9286180
 119.2159773   9.0658349  22.5319314 119.1333330   9.5420492  21.0975742
  21.8227005  16.0626411  74.4261408  22.3727655  16.4582181  75.1022911
  21.0218763  16.5869319  74.4318342  15.0430238  24.5406222  37.9989219
  15.0183666  24.7748375  38.9266992  14.1961074  24.1262078  37.8339243
  14.4714141  66.4252710  44.2992210  13.5633981  66.7156839  44.2131996
  14.4747293  65.8790302  45.0852537 116.2659789  13.5087514  29.4514084
 116.3728887  13.2948256  30.3782511 115.7854337  14.3365848  29.4505548
  53.8139105  24.5592618  35.0366998  53.1147003  24.5846915  34.3834829
  54.6082497  24.7691369  34.5455718  33.6492491   9.0408194  46.3485050
  33.5573125   9.9876404  46.4548492  32.7849674   8.7471151  46.0604286
  44.9143553  36.9560337  26.8113589  43.9923143  37.1329141  26.6248536
  44.8962641  36.3122487  27.5194883  10.2306759 134.3744154  48.8624430
   9.9438232 135.2711327  49.0352011  11.1826956 134.4050653  48.9570522
  25.4981351  43.2693338   0.3189407  25.3538895  42.3280811   0.4162424
  25.3484845  43.4397030  -0.6110112  18.7349808   5.0175017  26.7679191
  19.4248307   5.2739650  26.1559010  17.9200459   5.2299166  26.3129544
 118.7531835   3.6013290  69.1179991 119.3147106   3.4774092  68.3527756
 118.5137290   4.5277256  69.0918636  32.3807454  53.0749989  60.1818419
  32.1186686  53.4316826  61.0305595  32.2294259  52.1331406  60.2608156
  27.4134088  41.6164541  80.2763557  26.9889140  42.0624542  81.0092354
  27.1324682  40.7048464  80.3555775  19.9905503  25.1418018  61.5710688
  19.4257188  25.6122971  62.1841192  19.3929362  24.8105216  60.9007359
  12.3161149  11.9397926  75.4669905  13.1027102  12.1975601  75.9476709
  11.7976308  11.4467824  76.1028719  24.9568057  46.5745449  58.2329750
  24.9062204  46.0467577  59.0299177  25.8641458  46.4828777  57.9421854
 118.7070609  37.6835656  21.6163158 119.1407324  37.5716925  20.7703567
 118.6437494  36.7971945  21.9720840  34.3157244  39.1692829  28.9862800
  34.4005013  38.3540750  28.4918308  34.3393469  39.8567152  28.3206129
  41.7450428  41.4874363  28.1468153  40.9342957  40.9787226  28.1581402
  42.3471355  40.9908724  28.7010217  48.7487936  38.9759970   5.2335501
  49.6909046  39.0747166   5.3710520  48.3810043  39.8257923   5.4760581
  10.0556731  54.1386509  68.4860086   9.5243609  54.0900135  69.2807245
  10.9159291  53.8146114  68.7528229  27.2513771  29.8743296  47.5354624
  27.6816845  29.1855884  47.0288038  26.7827320  29.4061327  48.2263994
  58.9287233  66.5688610  36.8731141  58.5916948  65.9116697  36.2642288
  58.8098574  67.4017048  36.4165211   7.3924357  11.0090876  28.4613013
   7.9981965  11.7255330  28.6510134   6.8139005  10.9765029  29.2231846
  36.4294553   5.3307408  72.9776812  36.5486908   5.9654987  72.2712088
  35.6638741   5.6471437  73.4572697  15.3307939  10.5362713  53.7838268
  14.8167694  11.3243818  53.6080647  14.6848750   9.8304296  53.8122511
  36.0433936  61.8173027 106.1204168  35.6332374  62.5867367 105.7254800
  35.7809186  61.0898829 105.5563217  16.3096678  32.8496838  67.2716522
  16.5173817  31.9262648  67.4144268  15.3554237  32.8722191  67.1999311
  11.3599837  10.6604373  70.0874519  11.2906528   9.9440485  69.4564104
  11.0825825  10.2751601  70.9186220  44.8877764  21.3343215  30.0908947
  45.6613684  21.8334818  29.8289204  44.1486597  21.8852544  29.8331976
 120.3874487  20.2338147  96.6675186 120.4701487  19.7001541  97.4578381
 120.3122053  19.5979953  95.9559727  40.8041573  30.5506086  35.5772471
  41.2455893  29.7263098  35.7819438  40.9487534  30.6731796  34.6390057
 111.7033488  66.2118244  84.2897797 111.7442364  66.7886353  85.0525761
 112.1122903  66.7157936  83.5862160  47.4555922  16.3209438   3.4196496
  46.5665197  16.0331786   3.2123411  47.6990986  16.8908405   2.6901603
  17.7035010   6.1371481  49.0953779  17.5331151   5.9896773  48.1650829
  18.3205211   6.8687308  49.1128397  52.8849411  44.1893911  30.1543570
  52.9275846  43.5730362  30.8854675  53.6477613  44.7552395  30.2733231
  98.4097952  51.3972521  37.2298908  98.9042682  52.0306158  36.7097187
  97.8586311  51.9336176  37.7997708  12.2201610   7.4798864  34.3692017
  12.6304138   7.8372544  33.5816669  12.7324677   7.8426647  35.0918126
  30.1876855  25.6901050  45.7148170  30.9855604  25.4490256  45.2441692
  29.4801307  25.2972984  45.2036428  52.1487427  32.4834347  62.6844597
  52.9190397  33.0345130  62.5459337  51.6724968  32.5246501  61.8551731
  51.9910336  42.4893570  44.8629475  51.5052128  42.3129416  45.6686068
  52.6021481  43.1870222  45.0996590 107.8119201  16.6865706  45.6398201
 107.1664137  17.2599447  46.0530901 107.5222773  16.6162717  44.7302055
  71.4087963  10.8695757  40.0550079  70.6436729  10.6896544  40.6013107
  71.6801548  11.7524755  40.3061771  16.3285446  27.1482730  60.6438589
  16.8481565  26.8218684  61.3784981  16.9534194  27.6342678  60.1057386
  42.0721674 144.3994417   7.2240376  42.5457430 144.3497982   8.0543947
  42.1280098 143.5146240   6.8631899  41.9020939  44.6342182  53.8797474
  41.9799900  43.7751579  54.2946911  42.7771759  44.8145628  53.5363293
  45.7467794  39.5295787  27.1980619  45.3318501  38.7320447  26.8694186
  46.4794922  39.6817708  26.6012335  36.1388898  45.3545666  21.3208723
  35.8603311  46.2459469  21.5308166  37.0932722  45.3793478  21.3899565
  11.4750457  42.8590250  52.0118237  11.1706936  43.4775066  52.6759624
  10.8503222  42.9531002  51.2927246   2.1301593  40.7894278  66.9787359
   2.3495932  41.6808987  67.2495747   2.3484261  40.2480507  67.7373552
  14.2222464  24.4863439  48.1418419  13.4405899  24.2599082  47.6378870
  14.8780501  23.8452840  47.8676271  42.9619265   0.5597058  43.3323288
  43.1313801   1.4586204  43.0504227  43.5636091   0.4205981  44.0636683
  14.0453160  26.6901469  59.1212416  14.8640597  26.5365863  59.5927334
  13.7838876  27.5747085  59.3770552 110.7249898  27.8163791  50.3312111
 110.9533507  27.5447822  51.2202120 109.7990770  28.0533910  50.3835773
  15.1199782   5.6531525  37.7764225  15.9970319   6.0218978  37.8814745
  14.8917544   5.8340150  36.8645930  19.0459740  16.5631557  41.0748386
  19.3500400  17.0742059  41.8249083  18.7645698  15.7293320  41.4513779
  27.2737527  15.7531917  84.1494846  26.9216537  15.5887771  83.2747078
  26.8933868  16.5930343  84.4068146  24.5093346  46.3426113  34.9167180
  25.3060937  46.3906145  34.3884182  23.8065219  46.5816593  34.3124485
  51.4476490  45.4217243  48.8138008  51.5013027  46.2934017  49.2056274
  51.4960289  45.5795574  47.8709459  32.4014425  10.5823123  34.8198795
  32.2656941  10.1497817  35.6629229  31.5638590  11.0049105  34.6298838
  19.4503379  28.2429981  99.4043732  20.2137852  28.6308599  98.9766598
  19.4479871  28.6245918 100.2822208  19.5192575  31.9723272  59.3508005
  19.5642281  32.8403616  58.9498901  19.6886551  31.3662982  58.6295080
  12.2557521  52.0809793  50.5221319  13.2075655  52.1227217  50.4297209
  12.0104158  51.2559223  50.1034260   8.9449620  22.5312567  71.3733482
   9.1971028  23.3166170  71.8590117   7.9880100  22.5331426  71.3950682
   0.1379671 136.2073536  58.8353729   0.9882368 135.7942183  58.9856815
   0.2294105 136.6419882  57.9874563   1.0445620  39.7847557  33.6678123
   0.5623441  39.5348001  32.8796387   0.3652604  39.9543118  34.3205237
  48.4250116  33.7995219  47.1730614  49.3552113  33.8435888  47.3944521
  48.3953285  33.2891631  46.3638115  24.7946024  16.5901041   8.2895219
  23.9298224  16.2611914   8.5348874  25.4061937  16.0616183   8.8022494
  18.4535563   7.6071572  54.7888517  19.2202687   7.1483642  54.4455004
  18.6660707   7.7749074  55.7069635  25.0484586  35.5353379  51.9083738
  24.1786122  35.9008980  52.0695114  24.9034905  34.8514509  51.2545300
  52.5211668  38.9035773  18.1145978  52.9802036  38.6629367  17.3098588
  52.4148655  39.8529863  18.0549490 108.9569134  27.2611761  28.3710480
 108.2531661  27.1236825  27.7369595 109.4398410  28.0153632  28.0330896
  32.9276490  28.3149314  10.9600449  33.2649374  28.9504838  10.3287435
  33.0559421  27.4659204  10.5370164  33.7124300  11.1902344   6.1263782
  33.4505987  10.8611190   6.9862378  33.4518123  10.5002320   5.5162907
   6.0590476  26.0347724  66.5002823   6.6936207  26.3791609  67.1287251
   5.4120052  25.5789590  67.0386124  17.6504910  58.8371515  18.6547101
  17.9399955  59.3168879  19.4307721  17.6467979  59.4915438  17.9561484
  19.9407458  57.5777149  70.3072643  20.0851059  58.0992746  69.5177269
  19.5016599  58.1755447  70.9122753  13.7304318   3.9119056  27.7726102
  13.2122898   3.5922593  28.5112500  14.6355116   3.7096977  28.0096197
  22.5291657   8.0161279  54.2578936  21.8066025   8.1982493  53.6570883
  22.8613567   7.1621561  53.9811039  33.1945133  26.5780687   4.5057085
  34.0167665  26.2713695   4.1235209  32.8840446  25.8398628   5.0300139
  39.3329382  29.8497343  44.8877001  39.7689176  29.4345641  45.6318665
  38.5406971  29.3295503  44.7535563  59.8417139  34.8788762  38.1272388
  60.7750368  34.8686981  37.9150200  59.8099041  34.7427511  39.0741754
  15.0879788  18.3232689  65.3453445  15.4998720  17.9034400  64.5901489
  15.7638121  18.3132112  66.0231209  34.9491954   7.1258330  36.5989161
  34.5026708   6.4132798  37.0562077  35.1896167   6.7526722  35.7508707
   0.8893079  41.8022203  71.8255234   0.4793450  41.8804693  70.9641075
   0.5190529  41.0006046  72.1950579  24.8481321  65.1043224   4.4880152
  25.4045677  64.6699858   3.8415152  25.3570700  65.8643723   4.7700468
  41.0105705  31.0906744  28.8779354  41.3153696  31.9980335  28.8726902
  41.7997456  30.5738449  29.0401697  56.4454508 135.7000882  33.8996863
  56.4079428 134.8962743  34.4180560  56.6809702 135.4067046  33.0195212
 118.6473567  86.6672611  31.6888404 117.9777963  86.6432667  31.0052156
 119.0208465  85.7859325  31.6893196  44.1707850   5.5393153  35.2235985
  44.8753262   4.8947713  35.2900529  43.3738232   5.0431186  35.4103494
  28.2181096  23.0440354  39.8745799  27.2969651  23.2898402  39.9600410
  28.3289528  22.3146749  40.4844809  31.7340350  33.1106997  39.3302393
  32.4091864  33.7569737  39.5369601  31.0442662  33.6146688  38.8984251
  72.6041460  56.1909056  33.6122513  72.3821926  55.4373598  34.1591907
  71.8283367  56.3292980  33.0689240   4.0583372 143.6919416  46.2505913
   3.8892391 142.9830910  45.6299686   3.3023900 143.6816899  46.8376732
   6.8218374  30.9549308  72.0727491   6.7541760  31.7864990  71.6035461
   7.0212066  30.3116584  71.3925409  27.7605271 130.2722413  24.4086504
  28.4808588 130.7597894  24.0090871  28.0843902 129.3735666  24.4697189
   0.5462268   0.8297777  43.4026909   0.2669470   0.2708615  44.1278458
   1.3719341   1.2123777  43.6994362  24.9967456  59.9321604  24.3188500
  24.9083829  59.7161436  25.2471614  24.1019106  59.9040270  23.9801621
 124.5852606   6.4099824  70.0943041 124.8629890   7.2802460  69.8084021
 124.5773954   6.4630234  71.0500002  52.0813560  34.0838766   9.5749468
  51.8483019  33.6768222  10.4093468  52.8998947  33.6576509   9.3208796
  10.7605481  35.2922201  33.0002189  10.0009167  35.8707428  33.0673051
  11.0899937  35.2245879  33.8963890  11.8830836  30.7301521  93.9929962
  11.0076892  30.8430386  94.3633652  11.9468689  29.7926831  93.8104820
  48.8773108  26.5611553   8.0469614  49.1942596  26.9328237   7.2237736
  49.6713734  26.3844037   8.5513955   8.5348701  57.4148750  28.3595490
   8.1734145  56.8900108  27.6453352   7.8516793  58.0561829  28.5550141
  19.8111534 134.6224947  53.2391930  19.0815187 135.2162320  53.4162188
  19.5270312 133.7808771  53.5958242  99.2102451   7.5565344  49.8463583
  99.4161553   8.4868228  49.7547293  98.6273999   7.3666894  49.1111851
   8.8383305  27.5812936  29.6795988   9.0713942  27.4574065  28.7595081
   9.2297190  28.4226060  29.9146318  30.3118014   0.5260780  69.7920132
  29.4344258   0.5467750  69.4098902  30.7720089  -0.1528407  69.2985439
  31.2143540   6.3470984  65.2377510  31.7796516   5.7492894  65.7269287
  30.5536628   5.7802105  64.8398113   3.9316291  19.7597682  26.5160465
   3.1009454  19.4683254  26.1402035   4.3145970  18.9679348  26.8936253
  31.1292315  15.3149462  40.1798439  30.2897096  15.7562900  40.3088760
  31.1590219  15.1263773  39.2418742  38.7850046  17.8289735  31.9865322
  38.7588096  17.6751804  31.0421300  38.5123897  18.7408638  32.0883536
  34.2291427   3.7462321  46.6530657  35.0882626   4.1087344  46.4368820
  33.9772320   4.1928452  47.4613428  36.8710518 130.5849273  53.4633160
  36.5219879 130.1751120  54.2547941  36.0969257 130.7947070  52.9408646
  32.9644513 146.1643450  20.5914927  33.5229731 145.7958103  21.2759399
  32.4569607 146.8432503  21.0362077  27.0811963   3.0315685  45.6417465
  27.1703887   3.9560670  45.8732176  26.8108368   3.0395606  44.7235584
  50.6929922  42.6816845  29.2332530  51.2777233  43.2923889  29.6819806
  50.3003168  42.1651697  29.9369931  25.4199076  45.0292587  30.9112811
  25.2226377  44.6597672  30.0505900  26.1930323  44.5484781  31.2068486
  24.5831895  24.9960065  47.4236441  23.8686228  24.7104836  47.9929447
  25.2859831  25.2405787  48.0257177  92.2536082  13.2368493  45.6226301
  92.1692891  13.4794259  44.7005272  91.3759727  13.3606946  45.9840918
  12.9548943  79.5712614  15.0631714  13.2721460  80.2571487  14.4756806
  12.0889056  79.3462563  14.7230744  30.1006627  38.1460857  52.9056501
  29.6117163  38.5214400  52.1733475  29.9450850  37.2039199  52.8396702
  66.6584063  25.8628988  78.9160109  66.3334942  26.1158013  79.7801304
  67.5912333  25.6955695  79.0504169 117.0149667 139.2967034  10.3843701
 116.6249914 139.5570446   9.5498800 117.3201085 140.1168168  10.7723582
  32.8778076  30.1322889  82.7055264  31.9983602  29.7828770  82.5615978
  33.1917858  30.3587580  81.8301105  33.0181479  63.8311148  62.7572107
  32.1289849  63.8118839  63.1111240  33.3693886  62.9606247  62.9445744
  28.7353635  17.4084342  95.5068016  28.1191325  17.1783459  96.2021828
  29.5936489  17.1749735  95.8604622  50.4974318  43.0450726  38.0248880
  50.5910015  42.6691818  37.1495700  51.3617277  43.4045839  38.2248116
  71.4489651  50.0932789  15.6892133  70.8034897  50.5645847  15.1624668
  70.9847593  49.8739958  16.4970887  14.7558188  51.5356827  73.1092501
  14.0478086  51.3535976  72.4913502  14.4232512  52.2518444  73.6503077
  35.2560854 145.5270894  13.9298666  35.0819588 146.4652213  13.8535738
  35.3961134 145.3848320  14.8660219  17.1522081   9.4218355  40.0635386
  17.5314820   9.2469007  40.9248066  17.8471863   9.8711747  39.5825696
  38.5949945  59.3864870  22.4487805  38.9670491  58.5248232  22.6367688
  38.3909845  59.7522449  23.3094978  37.5562787  23.5927916  49.7732925
  37.5674915  23.7494922  48.8290739  38.0687308  22.7926993  49.8894024
  45.0042677  57.5126362  37.3463511  44.9801826  57.4893332  36.3897395
  45.6943321  56.8932056  37.5837255  19.1030002 141.2041516  14.8134673
  19.6435857 141.4292938  14.0562940  18.6745667 140.3845395  14.5666623
   7.4904555 143.4127335  21.6288781   6.5396702 143.3631168  21.5299988
   7.6557744 144.3140372  21.9055605  32.1733308  41.1085653  48.5873938
  31.5844512  40.8036375  49.2776632  33.0097437  41.2493944  49.0310287
  41.1342525   6.6793841  41.1358595  41.0055971   7.0736814  40.2731848
  41.9477940   6.1818904  41.0528946  12.6585472  52.3118114  35.1658463
  12.6983082  51.3557291  35.1894903  12.7708399  52.5334167  34.2414474
 113.3337695  55.7373428  65.6882715 112.3843820  55.8570242  65.6643581
 113.6787946  56.4516783  65.1526308  28.8666010  12.8217781  55.2396727
  28.8170457  13.3554864  54.4466209  29.7394753  12.4300194  55.2105713
  30.5006003 143.2353158  94.0533829  30.4988861 142.3148657  93.7907028
  31.1122942 143.6557365  93.4489727  47.5734043  37.3556018  54.4554138
  47.3178673  36.4339685  54.4944954  47.0380878  37.7811790  55.1251554
  47.2326946  29.1556406  70.4074812  47.4645424  29.1616559  71.3361597
  46.7263794  28.3515310  70.2922249  29.2339802  13.7935448  16.9025230
  28.3117747  13.8016284  16.6461992  29.6813512  14.2688107  16.2023699
   5.2818274  63.0732870  25.4697061   5.0905490  63.5972404  24.6918130
   4.5048666  63.1696844  26.0204053   1.2070978  19.0825164  45.5774498
   0.8653415  19.9753606  45.6250238   0.4305055  18.5345197  45.4641533
  12.2818172 144.3871627  37.1451116  13.0956197 144.5189656  36.6587090
  12.5546086 144.3459401  38.0616903  66.3682222   7.9134011 104.4547608
  65.5624056   7.4417150 104.2440518  66.1039305   8.5575157 105.1116463
   4.0754750  67.5451803  49.0361834   4.3594590  68.4483576  48.8952971
   4.4749445  67.2957277  49.8695087  47.5672340  50.9028435  14.3016040
  47.2367001  50.0821638  14.6669269  47.6571846  51.4826345  15.0579011
   7.9121941  38.5622931  71.2877750   8.2555497  37.6821494  71.1338663
   8.5621619  38.9771628  71.8549204  52.9900694  42.1712780  49.0755033
  52.8679180  41.4256144  49.6631289  53.8418293  42.0171690  48.6668634
  38.0713367  91.4572525  15.0597572  38.3780694  92.3636818  15.0365913
  38.3697510  91.0821629  14.2312098  48.4889126  31.5038919  37.2816420
  47.5683928  31.4002395  37.0405436  48.9532089  31.5377808  36.4452720
  39.3654370  35.4263115  43.4185648  39.4510722  34.6810842  44.0131521
  38.4553576  35.3941059  43.1236935   5.5859941  29.3532872  68.7637234
   6.4006346  29.3806005  69.2655659   5.8472013  29.5778251  67.8706455
  60.2848387  24.7251940  71.4100790  60.3635168  24.5109177  70.4804945
  59.8567057  25.5812097  71.4231539  39.2164445  16.7583013  60.8248472
  39.4974065  17.1856689  60.0157452  39.9687719  16.2292063  61.0899782
 120.8462924   9.6053821  51.4096212 121.2241513   9.8482281  50.5643559
 120.2954335  10.3507698  51.6487503  21.4344430  51.2539339  31.2127352
  20.5831838  51.4966488  31.5769887  21.8787575  50.7964420  31.9265389
  30.9612441  30.4417491  61.7950773  31.3258600  31.0228562  62.4626112
  30.0682473  30.7598710  61.6624641  25.7679439  28.4633160  81.6486931
  25.2262139  28.5291100  82.4351025  26.4676070  29.1020107  81.7857075
  16.2005055   9.2891544  46.4416838  15.6357384   9.2717773  45.6690454
  17.0036149   8.8502955  46.1612368 105.7709522  33.5208511 100.1972485
 104.8865611  33.7917185  99.9508476 105.8501918  33.7706518 101.1178780
  22.6158881  22.3771858  32.0104408  21.7251515  22.4095154  31.6614795
  22.5934052  21.6741824  32.6596808  15.4531407  44.2127037  52.9555273
  14.8454225  44.6992779  52.3986149  15.6203020  44.7968626  53.6951590
  68.2853460  46.3011217  39.1572857  69.0499115  45.7954788  38.8816047
  67.5496721  45.6970882  39.0565133  23.4479880  11.1471045  32.1173978
  22.6435041  11.2512517  31.6092753  23.1681991  11.2316036  33.0288863
   7.5337023   3.4329662  28.1788206   8.4277254   3.4124887  28.5201907
   6.9944245   3.1086764  28.9001036  32.8874230  34.3115020  71.3907957
  32.8568435  35.2296829  71.6595745  33.2240033  33.8484526  72.1579552
  33.6269879  60.1625633  18.6603367  32.9395604  60.3559732  18.0229461
  33.1846476  60.1997757  19.5083821  16.2331271  11.8893278  57.4296045
  15.9738970  12.7845883  57.2115660  17.1642339  11.8496644  57.2112036
  42.6836538   6.4054924  52.5472260  42.2752094   5.5435020  52.6270914
  43.4617710   6.3541859  53.1023169 120.0520546 142.6509715  44.8355436
 119.2370064 142.8200687  44.3629599 120.6110234 142.2070588  44.1977930
  23.8247490  35.6701684  78.1316185  23.0781817  35.8511567  77.5605536
  24.2804790  34.9433947  77.7069521  41.1812115  27.8039575  34.1033506
  41.7286348  27.9733205  34.8700809  41.6945934  27.1951652  33.5722733
  28.1963754  56.5566969  40.2446032  27.7645445  56.3684464  39.4113469
  27.9674149  57.4668598  40.4327726  20.0216103  31.8250847  37.3655844
  20.7729888  31.6602540  37.9352283  20.3580117  32.4134493  36.6896439
  16.0182548  48.4218693  29.2902541  15.1291132  48.2970190  29.6220231
  16.2724435  49.2887592  29.6066833  30.0406075  56.2221384  33.7823081
  29.1095304  56.1164427  33.9776349  30.4707146  55.5297422  34.2841363
  37.9394937  48.0186558  38.6257339  37.4547648  47.2051907  38.7655377
  38.5258651  48.0806684  39.3797588  57.3325300  69.8998213  82.0105743
  57.7872372  70.4542780  82.6446438  56.9714308  69.1841841  82.5337410
  19.7260761   8.3863008  49.8937941  19.2563915   9.1656536  49.5967436
  20.4747534   8.3175236  49.3013573  19.2104924  21.9907737  78.3816195
  20.0635076  21.7669725  78.0094528  19.0076673  22.8514767  78.0151749
  41.7559147   5.5745834  68.6781693  41.1348104   6.0422701  69.2364979
  41.2704372   4.8102856  68.3677006  29.1672850  18.9119995  59.2233229
  29.0136814  19.7442174  59.6705914  29.9371052  19.0719974  58.6774206
  27.9162669  50.1347923  53.6943150  28.6288953  49.7626209  53.1748152
  28.0110812  51.0812902  53.5876131   9.0853000  29.4864011  87.6795292
   8.6652756  30.0163817  88.3569717   8.4331197  29.4295812  86.9812012
 120.6337616  46.2778521  28.7611246 119.9475271  45.6445646  28.9715075
 120.4704706  47.0130730  29.3519044  36.1261272  28.1234574  50.1459789
  35.9447384  29.0626502  50.1106882  35.6755543  27.7636266  49.3819523
 116.5921355  13.4545493  53.5653162 116.7985804  12.5199854  53.5511303
 117.2721685  13.8417149  54.1165781  33.4210443  29.6721840  58.0232668
  33.9817095  28.9995003  57.6367664  33.3687615  30.3541660  57.3536396
   1.5715910  34.8034406  29.7476053   2.2072242  34.9113083  30.4551125
   0.8071435  34.4118023  30.1700640  30.7814384  37.6238441  10.8890724
  31.3692665  37.6090050  11.6443670  30.4837656  38.5319781  10.8350492
  11.6829824  20.1439357  48.4568977  12.3305428  20.1349378  47.7520418
  11.8000269  19.3038011  48.9004135  50.9348774  11.3608158  53.8263178
  51.5013599  11.3878429  53.0552197  50.1999617  11.9323087  53.6037636
  31.0625124  18.2470822  68.1105661  30.6610298  17.7360845  68.8133669
  30.3856063  18.8727641  67.8525925  36.4554429  22.4857759  35.3711700
  36.4331126  22.4021006  34.4178939  36.6546035  23.4091449  35.5259514
  17.5307798  28.4745479  54.9965668  18.0337477  27.6922274  55.2229118
  18.1626797  29.1910648  55.0560427 113.6048800  10.1226771   8.7653011
 112.7987737  10.5793726   9.0058273 113.3368165   9.2119628   8.6429435
   6.0471690  43.4141970  39.9949479   5.8313626  44.3225288  39.7837806
   5.2575684  43.0715561  40.4137039 115.7100452  29.6226716 108.9575672
 115.0170214  29.7886205 108.3185005 115.2442384  29.4230795 109.7696114
   4.4745475  12.3960829  24.8599482   4.4037428  11.9051576  24.0412855
   5.4101110  12.3907924  25.0622487  15.9963417  46.8188620  17.6653481
  15.2538681  46.9236851  17.0703876  16.7166519  47.2771835  17.2325301
  38.7050200  43.1786489  44.5102930  39.3209624  43.4027958  43.8127232
  38.9766288  43.7188435  45.2523518  38.1480336   9.6433973  99.5100578
  37.9739714  10.2332962 100.2435114  37.9441333   8.7720841  99.8498675
  42.3863268  27.2953033  66.7206430  41.7928648  26.8176746  67.3002195
  43.2288933  27.2792101  67.1745682  32.0952797  50.7018661  41.2346840
  31.5254378  51.4427614  41.0283279  32.5084829  50.4779768  40.4007959
  37.2016597  17.0322073  87.3910618  36.7586350  17.2419882  88.2132244
  37.1532893  17.8401148  86.8800068  17.8593516  15.0744689  45.1922417
  17.4739540  15.9460104  45.2823305  17.3332095  14.5192695  45.7677031
  19.5376348  78.7502241 108.5306009  19.8616636  79.0299749 107.6744612
  18.5860014  78.8287926 108.4638874 117.0849080  35.6415129   9.7742164
 116.1543829  35.6660032   9.5511585 117.5034506  35.2412963   9.0120614
  13.4910262  56.1990356  20.4222131  14.1430879  55.5410242  20.6631827
  12.6657224  55.7156610  20.3841114 113.2100326  52.5596952   5.4278982
 112.7093918  52.4508953   4.6193483 113.8761432  51.8732595   5.3913665
 119.1742510  31.8875837  10.9234619 119.4396473  32.2795534  11.7554212
 119.9933020  31.7689371  10.4425156  48.6012793  22.1613097  12.0405316
  49.3277788  21.6360641  11.7050445  47.8968906  21.5299511  12.1870089
  41.9417429  13.9992440  26.8621707  42.5023508  13.8589203  26.0991120
  41.1082268  14.2947614  26.4959025 116.4857996  28.2622552  37.1429229
 116.8297828  29.0089059  36.6525960 116.9548858  28.2867980  37.9769421
   5.5476427  29.1362095   8.0830860   4.9463841  28.6217022   7.5445658
   6.4097393  28.9762306   7.6991206  50.4957008  72.7331018  27.4853063
  51.1038685  72.1715593  27.9659677  51.0573292  73.3630896  27.0337200
  28.1809807  21.7628384  20.9241772  28.6771750  21.8442488  20.1096869
  27.3989892  22.2963858  20.7825875  15.3589237  31.8072271  22.8400636
  15.7017636  31.4825630  22.0074272  15.4987907  32.7534676  22.8040385
  37.5108767  20.3860378  33.6731243  37.2756052  20.7964396  34.5052600
  37.7997661  19.5056939  33.9134741  45.8324718 135.4344232  19.6992147
  46.3210392 134.6257980  19.5453882  46.1899137 135.7781572  20.5179429
 115.5812473 144.8597532  35.1769638 115.8023447 144.9067275  34.2468357
 114.6503002 144.6375483  35.1909328  53.6629868  28.1720376  31.8830824
  53.7966442  28.0628490  30.9415698  53.3000517  27.3348117  32.1721578
   2.8766045  29.4810939  24.7403765   3.2288450  30.1481533  25.3296041
   3.5629335  28.8154459  24.6945763 123.9185357  18.4679723  35.6734204
 123.3046738  18.6264706  34.9562860 124.0430820  17.5189149  35.6767440
  26.4223838   3.3627617  12.2766638  26.7335320   2.7931058  11.5731657
  25.8129978   2.8176686  12.7744138 115.8103216  18.8906980  31.4183140
 115.9723777  18.0957663  30.9103251 116.6744680  19.1519463  31.7364836
   4.4997624  81.2226009  31.2731791   4.1011068  81.6105461  30.4942012
   4.1504213  80.3319168  31.3026929  16.8072438  42.8089046   4.8341063
  16.6792154  43.1766129   5.7085395  15.9285438  42.5589514   4.5483789
  32.7320409  44.5563126  33.3605170  33.6750364  44.3930912  33.3791399
  32.6491499  45.4986715  33.5065246   4.5873725   4.3519562  27.8343654
   4.6429318   5.2830029  28.0495334   5.4794097   4.1100132  27.5854373
  35.1427054  62.4995041  23.8506293  35.0632334  62.0761919  22.9958081
  35.3333259  63.4152985  23.6475968  35.6390858   1.4276420  60.6800413
  34.6912432   1.2942672  60.6740332  35.7480431   2.3756328  60.6047153
  21.4055538  16.9773018  28.0673909  21.3998413  16.1658597  28.5750914
  20.4854250  17.1331191  27.8545094  22.3279905 143.2853503  15.1682878
  21.7788792 143.9883659  15.5153859  23.1973553 143.4604103  15.5285537
  14.6715605  44.2754602  75.0015783  14.6353674  43.5050154  74.4347095
  14.3678546  43.9608192  75.8530426  18.3387947 123.3977098  43.8747120
  17.8099692 123.1120486  44.6196795  17.7118278 123.4901709  43.1573582
  72.7509785  21.6782880  22.2135425  72.6232100  22.6105738  22.3888993
  72.3656273  21.5423799  21.3479400  39.5073414  11.5707612  27.3603010
  40.3179502  11.4297080  26.8711734  38.9600182  10.8172286  27.1392608
  18.6554515  19.3354857  64.0001869  17.9637861  18.9000404  64.4984007
  18.8979495  18.7030029  63.3238792  36.3154721  68.3063650  13.7455821
  37.2564769  68.4326267  13.8672292  36.1624360  68.5183096  12.8247726
  24.1818523  26.7823219  45.4212189  24.1710281  26.2204719  44.6463394
  24.2613268  26.1747026  46.1565495  14.1954648  45.0866032  56.9422960
  15.0170243  45.0717831  57.4332666  14.4513881  45.3372860  56.0546637
  22.0667195  46.5726805  20.1747298  21.8625474  46.2708664  21.0598588
  22.9551721  46.2555504  20.0125194  32.4472976 144.5747704  24.5732641
  31.6365838 144.8341850  24.1354537  32.3713160 143.6260832  24.6754956
  17.4049401  31.3232565  36.7951608  18.3427846  31.5107226  36.7559528
  17.0958328  31.4593673  35.8995295  66.9608927  52.0386696  12.8586400
  67.8033733  51.6968775  13.1580353  66.3483286  51.3150692  12.9905355
  11.7753053   7.1108896  37.4429774  12.3466277   7.8739625  37.3561287
  11.3040423   7.0685846  36.6108990  56.1682987  53.2809591  28.1079483
  56.2034798  52.4888611  28.6442065  56.8056965  53.1266594  27.4107027
 124.2228214  62.7465296 106.7544251 124.2773659  62.7862644 105.7996067
 125.0007542  63.2141113 107.0584311  31.2848353  40.2237320 108.0859361
  30.5840111  40.8035040 107.7876986  31.6975927  39.9127769 107.2802260
  14.7418964  48.9926338  36.0671759  13.9770424  49.0818834  35.4986119
  14.5910954  49.6223593  36.7721152  43.7992716  39.9222946  29.2073703
  44.4988060  40.0185394  28.5611343  43.7520027  38.9803123  29.3706775
  44.5158625  23.1247115  33.3094287  44.8867559  22.2444296  33.2480121
  43.6518431  23.0493689  32.9044247  29.4432354  55.6945705  10.0115633
  29.3297005  55.7253170   9.0616179  28.7340355  55.1302052  10.3193986
  95.5959415  71.0014534 109.4315097  95.7088280  71.3206387 108.5361844
  96.0760784  70.1736593 109.4530008  17.2454882  45.7640791  62.7915049
  16.3191211  45.7643652  62.5505114  17.2714496  46.1995029  63.6435413
  37.5772262  77.3281908   3.3276659  38.1412792  77.0936871   4.0646091
  38.1766748  77.6807261   2.6699346 105.6847090  38.2541919  27.2395611
 106.1854619  38.2105851  26.4249587 105.0172896  38.9203167  27.0750642
  25.5230975  49.2941952  21.3321924  25.2860022  49.5869541  20.4522443
  24.6990347  48.9923382  21.7143393  12.4413908  52.9161310  59.2995691
  11.8360269  52.2390032  58.9974737  12.3099816  53.6435175  58.6913967
  38.4738278 141.8061546  71.8536186  37.9214764 141.1989231  72.3459721
  38.5333633 142.5817827  72.4113703  40.0667334 131.7310209  36.2600660
  40.3541613 132.0289237  35.3970075  40.6435871 130.9948058  36.4636922
 104.9166781  33.7840581  24.8028612 104.9473841  32.8576899  25.0418830
 104.2059345  33.8432622  24.1644502 116.1409140  52.8736830  25.7223701
 115.4468305  52.2217751  25.8198142 115.9658242  53.5147524  26.4112854
  12.1436572  23.0677390  10.0794232  12.0199549  23.4451914   9.2085266
  13.0850577  22.9048824  10.1383698  24.3713307 120.7886405  42.9079199
  23.5805964 121.3146085  43.0276251  24.1915679 119.9752087  43.3793497
  21.9403911  56.8090248  36.4064121  21.5724587  57.6867867  36.5083480
  21.2272668  56.2925053  36.0310578  16.7213762  41.8901157  17.3521924
  16.5311134  40.9640408  17.2024846  17.0751536  42.1997786  16.5184164
  51.0365152  40.1443243  59.5252466  50.3213406  40.2005720  58.8915300
  51.6115189  39.4626045  59.1775942  24.7411776  56.6976404  22.2003007
  24.3295479  56.3688135  22.9994678  25.3487635  57.3721075  22.5038958
  21.6446519  44.4089317  47.8697729  22.0980358  43.9822483  47.1427107
  22.3455095  44.7917747  48.3974648  14.0706849  57.0933867  50.4961681
  13.9484656  56.2557030  50.9429121  13.7289655  57.7440119  51.1094761
  50.8711481  32.3689318  11.3283074  51.7073107  31.9057846  11.2776875
  50.3655481  31.8801594  11.9776928  19.0197825  31.8199134   9.4232386
  18.4193635  32.5524116   9.2847705  19.6066499  31.8451071   8.6674714
  93.7894458   8.8200414  22.9671001  93.6820406   8.3169466  22.1598864
  93.4938712   8.2284749  23.6591363   9.0193987  10.4165161  16.0838699
   9.7421342  10.0080764  16.5603805   9.0825295  11.3459921  16.3036895
  29.0385890  46.8940115  39.3858624  28.9697647  47.8485823  39.4026685
  29.8676109  46.7214680  38.9395618  28.4329224  25.9875917  48.7250853
  29.1531396  26.5579295  48.4563208  28.3158875  25.3866649  47.9892683
  36.5617418   9.3291670 108.8659526  36.4910460   9.0769088 109.7866043
  37.4641967   9.6333355 108.7695735  54.1159105  33.2770753   4.4818613
  54.3587732  33.6799049   3.6482093  53.1667376  33.3890676   4.5344657
  11.8982244   3.6355680  32.2465968  12.0723212   3.1233123  33.0362272
  11.0625613   4.0684325  32.4213147  19.5935845  41.3282824  57.2138071
  19.1039324  41.0561466  56.4376545  19.3022466  40.7307291  57.9024935
  31.7747521  30.1073551   6.8207121  31.1913419  29.3902135   6.5725708
  31.3283706  30.8964467   6.5136135   1.3245425   2.4206191  37.9536366
   0.4570864   2.4021536  37.5493956   1.9014311   2.0238233  37.3009634
   6.3790983 143.0306558  29.2772222   5.9016800 142.2347171  29.5112848
   6.8012816 143.3048714  30.0913477  29.9361324  41.9670057  14.4050503
  29.2472029  42.4828959  14.8239410  29.6503568  41.8793344  13.4957218
  29.6882153  36.2027645  22.6743531  29.7269416  35.2724123  22.4525976
  29.4002223  36.6295409  21.8674135 114.3183715  34.5828891  26.4720726
 114.5428163  35.4346037  26.0973215 113.6429400  34.7775722  27.1217823
  23.8231111 137.1754737  56.3745832  24.1208911 136.2806017  56.2109947
  23.2820845 137.3905302  55.6148005   8.4799808  15.5652595  43.2114744
   9.1895503  16.2032056  43.2874203   8.7561965  14.9829042  42.5038052
  32.3301435  49.4656801  28.9428997  32.2478509  49.2961931  28.0044270
  31.6133666  48.9705086  29.3394709  49.8628902  28.9266682  32.2863770
  49.2941141  28.9494491  33.0559278  50.6108618  29.4742012  32.5250769
  37.3920846  51.1329508 102.4692061  36.8429327  50.4988003 102.9301997
  37.4308014  50.8072472 101.5699580  14.0414238   5.8294952  60.3939676
  14.4650280   6.6484988  60.1370144  14.0393233   5.3003961  59.5962954
   3.9045563  31.6973782  16.7806900   4.5554015  31.2097287  17.2854984
   3.0670199  31.4643741  17.1812820   4.2730504 122.7085013  26.8846130
   4.5120645 121.7933125  26.7378807   4.5074466 123.1510157  26.0688496
  13.4489465  23.1117487  45.0641155  12.8608143  22.4348330  44.7292709
  12.8663826  23.7646198  45.4521942  28.9122105   6.8420696  14.6793902
  29.0810204   6.6186965  13.7640548  28.5513449   7.7280521  14.6470940
  30.2966309   8.1714863  57.6064396  29.7806168   7.4207890  57.3124790
  30.0498223   8.8795203  57.0114565   8.8143647  42.4186230  26.7056179
   8.1181294  42.2459030  26.0718536   8.7468737  43.3562517  26.8859744
   5.1414770  26.8657637  36.4734197   4.4834512  26.1929846  36.2984824
   5.7078153  26.8532395  35.7018399  48.9455748  42.0914745   9.6344250
  49.4201708  42.8218794   9.2375636  49.3396235  41.3104439   9.2458993
  34.0306258  18.2790530  45.1404428  33.4783769  18.7347460  45.7757330
  33.4137273  17.8012121  44.5860624   0.6775619 142.0838062 109.8920292
   1.4682050 141.6442380 109.5791472   0.5908439 142.8515685 109.3270043
   7.2348142 139.3450899  30.2159619   7.8743124 139.8765213  29.7417736
   7.6090276 139.2443425  31.0912037  42.0423412  15.5490041   2.8723353
  41.8659830  14.6089542   2.9102379  41.9034052  15.7819366   1.9543639
  16.6274941  44.2968702  45.6574583  17.4835968  43.8792086  45.5632305
  16.3325083  44.0437889  46.5321970  58.1893349  31.0692835  20.3285956
  58.8167477  30.5753493  19.8007596  58.2577896  30.6859541  21.2030125
   2.1079119 132.8318042  28.7487102   2.5496498 133.5508270  28.2969284
   2.6448658 132.6705439  29.5245361  13.0537832  73.0821896  13.8838959
  12.8254199  72.8666735  12.9796648  12.3868692  72.6419306  14.4107997
  10.8633375   7.0707142  47.3247099  10.4832458   6.7527938  46.5057564
  10.9207547   6.2930787  47.8798866  35.3754067  25.9277940  45.6940842
  35.2629185  25.8517694  44.7465611  36.1874533  26.4233923  45.7998705
  16.1428022  34.1669726  15.1391745  15.3491151  34.3082786  15.6552422
  16.8282580  34.0168977  15.7902193  29.1788459  15.1642144  97.8615161
  28.6655951  15.9705710  97.8105923  29.3000531  15.0162780  98.7994155
  37.4098682  48.3182621  32.4187565  36.7129660  48.3407021  31.7629719
  38.1100035  47.8118134  32.0069909   0.5390898  32.8537202 104.5096430
   1.2617566  32.2974539 104.8004224   0.9659767  33.6122799 104.1114160
  61.6580963   0.9438740 108.3932515  61.4870214   1.0070830 107.4535864
  62.5067663   0.5052461 108.4532208  58.6599064  68.4427738  34.8740435
  59.5164824  68.1041050  34.6136403  58.2180548  68.6376429  34.0475869
  13.1758642  33.7205863  44.7415972  13.0357671  33.9768624  45.6531477
  13.6723638  34.4458461  44.3624973  28.5733867  11.3208473  10.5030298
  28.0932260  11.0423577  11.2828529  28.0621862  12.0515609  10.1552296
  45.9157276  56.5419865  34.7613668  46.8726254  56.5612316  34.7467899
  45.6869745  55.7019472  34.3635798   4.1411409  39.2226624  30.1192737
   4.3114543  38.7732148  29.2914915   4.9625418  39.1490650  30.6051898
 118.3878929  15.0907230  25.4092145 119.0867311  14.8216152  24.8130298
 118.8428289  15.5235600  26.1316538  51.7360640  43.8375568  20.5398297
  51.2990332  44.0684032  21.3595510  52.3750401  44.5371580  20.4038024
 117.5961030  19.2627609   8.0720687 117.1655459  19.6073294   8.8544530
 117.9291863  20.0383878   7.6207483  29.8999429  57.4513435  15.5778599
  30.1827502  57.1767855  16.4501393  30.6776094  57.8515196  15.1888561
  31.0903740  32.9239464  29.7408676  31.7211771  33.4256268  29.2245007
  30.5808496  32.4392438  29.0914989  54.2324400  52.2821665  44.3516159
  54.4986916  51.5607929  43.7815666  53.9139271  51.8543291  45.1464319
  33.0241895 138.1406964  45.2436066  33.9163113 138.4126295  45.4590178
  32.4964643 138.4435744  45.9825230  36.4938235  23.0118942  18.7258375
  36.9515061  23.4412766  19.4486022  36.3707399  23.7035418  18.0756795
   3.5191903  44.0796280  31.1053538   2.6587215  43.9458561  30.7079506
   4.1198817  43.5846233  30.5482459  22.2694659  43.3968735  29.2279744
  21.6698194  43.8884544  28.6667228  21.6990399  42.9427290  29.8481369
  42.4044323  39.8634696  96.4895269  43.1110191  39.3075681  96.1609789
  42.1084452  40.3531790  95.7221862  30.2333331  18.6817920  21.3767195
  29.7942877  19.3922615  21.8443775  30.9722972  18.4464550  21.9377732
  43.6681986  44.4706869  42.2519541  43.8594770  44.4668293  41.3140678
  44.3488693  45.0254583  42.6329327  20.7990456  19.5571434   8.7688529
  21.7164779  19.3760037   8.9731508  20.3588915  19.5521641   9.6188354
  55.4678631  67.1987295  47.8904486  54.8843765  67.0395470  47.1485376
  56.1874485  67.7122211  47.5233555  11.6619909  42.2422409  26.5181446
  11.9745493  42.4856710  25.6467772  10.7171428  42.1320820  26.4115572
 124.2654399  63.2760859  43.5145569 123.3391821  63.0978775  43.6774111
 124.6012144  62.4662304  43.1303406  32.5809240  38.1123352  20.0749373
  32.1964192  37.3964548  19.5690668  32.5643563  37.8017807  20.9802079
  49.0211487  34.2656040  98.5389610  49.3679857  34.0707660  97.6683434
  49.7358322  34.7196555  98.9853927  31.5501738  45.3305674  24.1870785
  31.0906839  46.1593294  24.0519881  30.9567833  44.8137856  24.7321081
  47.3300219  41.6721058  35.5710745  46.5949249  42.2822666  35.6308413
  47.2410917  41.1135864  36.3433313  58.8808012  10.3767204  68.1609392
  58.9068079  11.3300443  68.2429695  59.2347860  10.0552285  68.9901400
  16.2866259   1.2684490  33.9242411  17.0122707   0.7561938  33.5674953
  16.0838199   0.8470692  34.7594309  36.6389990  42.9433107  14.3390465
  36.7674971  42.0411158  14.0461886  35.9130812  43.2671452  13.8057494
  35.1870036 142.4692328  61.3101864  35.3501463 143.4061644  61.4187002
  35.1719379 142.3369423  60.3622913  30.4270744  31.1735368  17.9447234
  30.5121255  30.2220774  18.0057311  29.4828391  31.3304377  17.9501629
  26.4737368  27.8242278  37.0791626  27.2815561  28.2353306  37.3868227
  26.6979194  26.8987370  36.9820213  52.2357130  34.8269343  23.2774282
  51.3220787  35.0888848  23.1638932  52.2487020  34.3588924  24.1122937
  41.6707373 125.7650680  38.6518335  41.7637014 125.1310033  37.9408145
  40.7802582 125.6318206  38.9766717 123.5530380  50.4961300  33.4257889
 123.0457798  50.2964926  34.2125940 124.4658790  50.4229546  33.7043524
   2.3972815  31.3787174  35.7519960   1.9367555  32.0562434  35.2569151
   1.8266183  30.6122041  35.6969190 119.2147417 141.5672369  54.3899632
 119.9719430 142.0762421  54.1004944 119.5913768 140.8282883  54.8678064
 124.0378036  10.0820696  14.3899679 124.2478128  10.9835112  14.1459775
 124.1801724  10.0506341  15.3359985  45.1445580  39.1679883   3.0843928
  44.2083406  39.3617868   3.0377853  45.4622602  39.6959400   3.8169003
  11.8461037  12.2212267  47.8582859  12.6747179  12.0501232  48.3058929
  11.5897501  11.3729632  47.4963951  88.8561196   5.2394480  31.2673640
  88.4500164   6.0059178  30.8625984  89.7863740   5.3224903  31.0576892
  65.4978323  38.1887436   7.5437033  64.9175262  37.7814603   6.9005913
  66.3788652  38.0350494   7.2025323   2.3651016  64.0030766  14.7152078
   1.6426340  64.1306257  15.3300273   1.9812298  63.5028982  13.9950001
   5.0779724  20.2412558  34.1672683   5.5327010  19.9962318  34.9731302
   5.4000717  19.6216369  33.5126257  22.3269081  34.4447351  90.9497746
  21.6956496  34.9811888  91.4293190  22.6222587  33.7948656  91.5874811
  15.5067682  41.5792513 103.6126646  14.9963319  42.2712040 103.1920870
  14.8525512  41.0196590 104.0311023  33.9733267  52.1806860   4.5566359
  33.9481449  51.4843559   3.9003420  34.8962831  52.4294567   4.6066007
 123.7195603  52.0996332   4.9979600 124.4099140  51.4393854   4.9369639
 123.3719198  52.0014811   5.8843827 114.4930381  18.6566699  53.5270452
 114.8121328  17.8600550  53.9510918 115.1540435  19.3180954  53.7315464
  31.4364219  37.0051312 101.4781746  30.5067492  37.0685315 101.6970857
  31.5845919  37.7158237 100.8543184  57.9342699  52.7880001  34.4347239
  57.9140139  52.3302126  33.5943365  57.1508503  52.4831390  34.8924828
  29.5117807  20.5112267  16.9449854  29.3195581  19.5887971  16.7764413
  28.6524343  20.9199214  17.0485389  13.7459540  19.8177707  15.9516370
  13.1814253  20.1568556  16.6463017  13.1463933  19.3772364  15.3494000
   1.5578842  14.7825873  43.4954453   2.1224073  15.4512131  43.8833666
   0.9749477  14.5188296  44.2073774  32.0172858  28.7158990  16.8183970
  32.8668237  28.4997487  17.2028399  32.1869683  29.4908810  16.2828183
  39.1277409  55.5889225  20.5929232  40.0787354  55.6741238  20.5252147
  38.7890983  56.0864830  19.8486197  14.2759800  28.2737517  48.7363243
  14.6679246  28.0146718  47.9023695  14.5936453  27.6232934  49.3626022
  33.6944866  57.4292183  12.4535704  33.4767914  56.8433285  13.1785369
  33.1079960  57.1624994  11.7456710  31.4484024  19.0352142  25.3862691
  32.1743751  19.4474411  24.9180126  30.6718612  19.5099401  25.0898719
  25.8344054  28.1807733  21.8713236  26.0251737  28.8151288  21.1803603
  25.3736520  28.6868477  22.5405240  33.9867425  37.3349094  39.9249816
  33.6538792  37.8427339  39.1850185  33.8892055  37.9172730  40.6783533
  27.1823859 129.1435606  28.9468288  28.0384517 128.7787957  28.7224841
  27.0967269 129.9153025  28.3870888  34.4482875  23.3415532  41.4372015
  33.6617208  23.1522965  41.9487953  34.3109608  22.8829885  40.6082964
  10.7510257  41.0664463  39.6107554  11.1083138  41.9461203  39.4892883
   9.8063290  41.2001419  39.6876192  36.9847012  35.7183218 108.1217332
  36.9434524  35.4362774 109.0355060  36.0738134  35.7116890 107.8276720
  23.6288524 139.7442830  36.0925102  23.1826282 139.5709897  36.9214177
  24.5509839 139.8373050  36.3317823  43.4556198  21.4503980  27.1187997
  42.9156446  21.7971158  26.4085555  43.4791565  22.1541190  27.7672267
  35.0990963  22.5427628  53.0759001  34.3480277  22.3769069  53.6456537
  35.5338025  23.3005190  53.4671354  18.2070076  21.2425661   0.7986043
  17.6496172  21.1562157   0.0252409  18.0938923  20.4165244   1.2688094
  23.8089228   0.2404536  26.0012174  24.7618079   0.3110452  26.0582948
  23.5055280   1.1455197  25.9302258  14.3731868  41.9359636  39.8853040
  15.2414417  41.6104794  40.1228428  14.5080626  42.3951340  39.0563273
  27.5418520  41.7119932  30.2773547  27.1191239  42.5070858  30.6019473
  26.8457413  41.2402201  29.8200893  12.1046007  74.8018742  47.2181702
  12.2633970  75.6442690  46.7922831  12.9673183  74.3896008  47.2626877
 123.9712275  80.6101799  30.8064747 124.1476342  81.4234734  31.2794042
 123.4399273  80.8792782  30.0571156 115.8473141   0.8566846  15.2650881
 116.6645414   0.7868076  15.7585347 115.3733731   0.0510271  15.4713106
  36.0813212  44.9754620 103.9276143  35.8543301  45.5616808 104.6494546
  36.1067319  45.5429125 103.1571659  24.6614695  18.1925499  21.1063027
  24.1047144  17.6060629  20.5941606  24.1527224  18.9997554  21.1826324
   9.2804211  29.5227408  23.1421852   8.3700192  29.7122693  22.9152918
   9.7942197  30.0686836  22.5470448  33.9580154  33.0734849  61.9336939
  33.2017636  32.5324416  61.7065668  34.4441438  32.5502110  62.5709534
  34.5486522 126.3502354  93.5629054  35.3591180 126.7482836  93.8806113
  33.8896537 126.5986449  94.2111691  10.1291955 139.6756161  59.5220375
  10.8912015 139.3893773  60.0256729   9.4842678 139.9245639  60.1840973
  47.7894974  65.5876684  32.8710198  48.4989119  65.8189678  32.2714663
  47.7415562  64.6326256  32.8282356  42.1609926  56.8480587  84.7870930
  42.7946138  56.6533232  84.0965589  42.5139904  57.6228428  85.2245077
  27.6067972  53.9481258  44.7984314  27.6675820  53.4967661  45.6403399
  28.2536674  54.6512842  44.8563910  30.4155707  15.7769942  15.2855206
  31.1515212  16.2519002  15.6716192  30.0492620  16.3844287  14.6428132
   4.6243465  57.7826738  13.2086897   5.1643926  58.2228088  13.8650894
   5.2489614  57.4748468  12.5519323  15.5107033 131.4182789  20.2421236
  15.6375670 130.8564074  21.0066080  15.7037628 132.3007197  20.5587602
   8.1332707   6.2840742  17.3427367   8.1110448   6.5971619  16.4384615
   7.8373277   5.3753644  17.2889173  20.1142597   6.6935956  22.6385832
  20.8522844   6.3970363  22.1060395  20.2650142   7.6315695  22.7556753
  42.1800470 106.8823905  18.8575125  42.1207428 106.1228532  19.4370103
  42.3903561 107.6122422  19.4400203  35.0444555  17.3327923  36.1232162
  35.7032967  17.3674381  35.4297018  35.3172445  16.6007853  36.6763759
 121.6847212  26.6483045  54.0707350 121.0260434  25.9773779  54.2502689
 122.4967537  26.2882376  54.4273663  19.6924782  34.3249178  19.6280289
  20.5389428  34.7631288  19.7157860  19.0713656  34.9163961  20.0530028
  35.5218554  32.7268434  37.3924518  35.6909418  31.8398333  37.0748806
  34.8216558  33.0540180  36.8277311  25.0994968  37.9260397  49.2210245
  25.7627821  37.2475839  49.3474579  24.2718863  37.4469709  49.1787577
  24.6158051  22.3995686  23.6174512  24.3844461  22.3733258  24.5458984
  25.5388403  22.1472621  23.5933995  21.9084167  30.1237774  24.9708200
  22.0723343  31.0544014  24.8181629  21.8986154  30.0354910  25.9238911
  27.6900601 143.7734754  26.7795563  28.2068729 143.7325428  25.9749079
  27.7278137 144.6932376  27.0419383   1.1883731   6.1020648  53.8040924
   1.3498034   6.9736081  54.1654587   0.7927793   6.2671459  52.9482412
  36.2209368 130.8049447  39.8707008  36.2815428 131.3798542  40.6336164
  36.8058181 131.2014026  39.2249727  74.2934656  50.4134655   3.1189001
  74.4151688  50.3340006   2.1727999  73.3816862  50.1614428   3.2651025
  23.6799836  10.4423666  87.3807526  22.8482389  10.8265340  87.1035385
  24.2281675  10.4664898  86.5964413  65.9572172  10.7638597  56.3915062
  66.0073757  10.4270518  55.4969215  65.1349974  11.2532675  56.4174175
  26.0845613  20.3598213  18.9068496  26.8021584  20.5557966  19.5092452
  25.5830646  21.1737204  18.8588893  70.8478498  23.2324934 108.9145630
  69.9492693  23.5480738 108.8186485  70.7848167  22.2865009 108.7828039
  11.3944674  27.6366496  19.4718659  12.1910417  27.2518086  19.8373759
  11.5801823  28.5746098  19.4274569  17.9581547  72.7232695  94.7202858
  18.0530560  72.2744751  95.5604085  18.6739779  72.3819971  94.1842254
  25.1254010  35.7189369  22.5160933  24.9737167  36.4871454  21.9655681
  25.7848024  36.0040236  23.1486654  25.2123785  12.0143557   0.5359406
  24.8860097  12.3728883   1.3612711  25.0950599  12.7234328  -0.0962617
   0.6061762  34.9016094  94.8437723   0.7172580  35.8149433  94.5797452
   0.3411628  34.9483728  95.7623657  18.1538570  33.8948822  17.1202064
  18.8121653  34.0604687  16.4453411  18.6600924  33.6358476  17.8901792
  16.4455199  89.1063023  97.3191544  15.7167959  88.6464977  97.7360114
  16.0760260  89.9477291  97.0513829  37.4642801  16.6482830   4.5950136
  37.3254704  17.2075224   3.8306731  36.9153118  15.8810115   4.4332725
  16.5822065  38.3695388 103.9888474  16.8060720  38.9204860 103.2387986
  17.2299194  38.5979176 104.6555867 107.2860748  20.1025534 109.3083988
 108.1309146  19.7281468 109.0588047 106.9845564  19.5525169 110.0314316
  32.5350022  23.5397625   9.2518693  31.9208837  22.8140402   9.1404396
  33.2763314  23.3146548   8.6897391 122.6034465   7.8187031  31.9020653
 122.8053752   8.0612570  32.8057384 123.3866986   8.0613291  31.4082241
  14.9136925   7.4576992  34.9942970  15.7252789   7.8067321  35.3627205
  15.1228869   7.2829688  34.0767264  73.7276268  57.1375370  15.3639984
  73.5278177  56.2285519  15.5877125  73.5475588  57.6268911  16.1667049
   3.0768409  21.3422894  19.5103168   3.1880775  20.5407023  18.9991283
   2.1856104  21.2849522  19.8547769  44.8887062  47.9100513  12.4812353
  44.7690630  47.8423262  13.4285104  44.8046827  48.8452816  12.2954643
  17.6701629 136.3775034 104.1596844  16.8188405 136.3795252 104.5972677
  17.7431440 135.5010874 103.7817957  50.2959681  29.4336772  12.3657405
  50.2831411  28.6080289  11.8816209  50.7000637  30.0582623  11.7633867
   1.0864450  33.0767417  19.6246541   1.1089122  32.7955127  18.7099767
   1.5762132  32.4019670  20.0948000 113.1599624  59.3983030  36.9961548
 112.3095591  59.1000843  36.6734958 112.9515225  60.1212883  37.5878310
  21.5564156   3.7459368   7.8979105  22.0290947   3.1024948   8.4259146
  20.8805728   4.0866280   8.4839118   1.7987694  48.1210089   5.5872297
   2.2947437  47.7473068   4.8588148   0.9192479  47.7559042   5.4904181
  46.3014936  34.1222334  12.2156346  46.0778046  33.3758259  12.7715766
  45.9843969  34.8848224  12.6995134  74.6134138  42.4106598   9.2732197
  73.8753176  42.8342533   8.8350230  75.3879690  42.8188801   8.8863695
  17.4465799  38.1408596   3.6939195  18.1929040  37.5729585   3.5022938
  17.1746063  38.4754896   2.8393525  61.6698790  31.6240835   3.1148803
  61.8425560  30.9703326   2.4373668  62.0986938  31.2772536   3.8972214
  22.3091650  15.8774638   8.7857813  21.8626857  15.0743258   8.5177183
  21.9981527  16.0384870   9.6766090  43.3293629  45.1067686  31.5396142
  43.2914257  44.1527081  31.6071939  42.6596403  45.3278542  30.8924484
  21.8312836   5.2922046 106.6585752  22.0524836   4.3883243 106.4342939
  21.4337873   5.2330041 107.5273248  49.7592974  31.5315437  98.8800534
  50.5856848  31.8979764  99.1947731  49.7928810  30.6099343  99.1364547
  33.4618020   7.5005847  93.0844005  34.1191936   7.7179396  92.4234732
  33.6136317   6.5755641  93.2780906  46.9706631  14.3165660   5.2561522
  46.1786938  14.6609139   5.6689924  47.3221350  15.0551724   4.7589996
  17.6633227  15.1030052  17.4240124  16.9592881  14.5207667  17.7096093
  17.5547898  15.1624155  16.4748430  40.2594519  44.1283417  24.2100596
  39.9708772  45.0409985  24.2136407  40.7985353  44.0445089  24.9965668
  53.0506754  35.9685087   5.6992704  53.5594368  35.8384085   4.8989806
  53.5925674  35.5902457   6.3917303  50.8817863  31.5701008  17.0838797
  51.6939592  31.8877912  16.6893077  50.8491468  30.6423068  16.8507183
 114.6785862 137.9510553  84.6260866 114.9011523 137.1247620  84.1972097
 115.5121738 138.2768685  84.9655112  44.2946100  10.3438067  95.4342099
  44.6377850   9.6592027  94.8599454  43.3888197  10.0838208  95.6020840
  41.9819403  25.1479459  30.5328608  41.7155838  24.4308257  31.1082101
  42.1272373  25.8872962  31.1231852  30.6624031  49.4824028  99.8772200
  31.0437608  50.3053141 100.1831838  29.9965858  49.7481823  99.2429622
   0.6614855  64.8603439   7.4463022   0.3732230  65.6066227   6.9207501
  -0.0486030  64.7199392   8.0726343  28.8623595 140.2419502 108.8890387
  28.7524748 141.0796619 108.4391550  29.0768886 139.6220512 108.1919482
  21.4366698  42.0102501  42.6261616  20.8305049  42.7215576  42.8331327
  20.9769273  41.4872551  41.9693947  54.2584944  37.6376534 106.3066610
  54.8776770  36.9140339 106.4026716  54.7355080  38.4046817 106.6234505
  22.4931860  12.4542940  17.3072255  22.4320531  12.6094759  18.2497823
  22.5684595  13.3286023  16.9249296 115.0843412  29.7877455  47.7508354
 114.9034000  29.6328068  48.6779213 115.9801967  30.1245165  47.7346706
  13.6930811  36.5380812  24.3324852  14.1571832  36.9745779  25.0468469
  13.7558103  35.6058478  24.5404243 117.6936532  65.1071644 104.8517194
 117.9623408  64.5837450 104.0966906 117.3826105  65.9299755 104.4742658
  53.6296368  14.6734262  80.0801071  53.6588383  14.0056634  79.3949279
  54.1614056  14.3122709  80.7893475 102.9061908  57.1700716  51.6589928
 102.4593086  57.3178911  52.4924707 103.0975265  58.0486250  51.3307047
  27.8809166  68.8422585 105.4709312  28.3113813  68.5817385 106.2852164
  28.5453200  68.7077761 104.7951254  37.5111365  24.7277546  25.2109027
  37.0223165  25.5080914  24.9494433  38.4178901  25.0259376  25.2824402
 110.5757756  25.6516600  55.8146095 111.0100467  26.5046334  55.8058023
 110.2089233  25.5787563  56.6957092  49.7478771   4.9297175  38.2258773
  50.0608826   4.0384424  38.3804321  49.0664339   5.0619215  38.8849568
  25.6569219  23.2219863  32.0073080  26.0156131  24.0846038  32.2157812
  24.7300816  23.2859111  32.2377682  37.1575999  18.0205321   2.3246923
  36.9770765  18.9158416   2.0382254  36.7292595  17.4687099   1.6702849
   8.4043598 136.5863336  93.7381037   8.4885204 136.2207503  92.8574797
   9.1361380 136.2079150  94.2254754  37.2145891  38.8291788   6.0395372
  36.9776511  38.4176159   6.8706262  37.0120335  39.7562456   6.1650270
  31.7425323   5.2649206 107.2792565  32.4211454   5.6293660 106.7110180
  30.9354210   5.3465408 106.7711791  33.4099102  26.4128327   0.7235520
  33.9598656  26.7507601   0.0167397  33.8235545  25.5870414   0.9749477
  46.5417194  17.6362848  34.5125794  45.6174755  17.8721261  34.4326806
  46.6356039  16.8499482  33.9749074  14.6297956   1.9789577  81.2836250
  14.6611369   1.1548212  81.7694720  14.1068947   1.7794682  80.5070862
  30.6215882  20.9946728   9.4259769  29.8980975  21.0149598  10.0523806
  30.6268549  20.0964737   9.0951562   4.1239089  31.0603070  26.8554831
   5.0442541  31.0063815  26.5980196   4.1342035  30.9487557  27.8061056
  98.2744903  24.4479680  14.1211522  98.5944576  23.5671759  13.9260721
  98.9765877  24.8500180  14.6326673  38.8627028   0.3758329   0.4640866
  39.6275377   0.6458791   0.9723532  38.7999177  -0.5682343   0.6090932
  13.3058715  40.6804228   5.8941406  13.7759137  41.0776663   5.1610047
  13.9011824  40.0072289   6.2237656  19.9808490  29.2998552  19.0343404
  19.1240323  28.9773655  18.7548828  19.7946453  30.1368952  19.4596899
  29.3090868  41.7528343 106.1547997  28.4023905  41.7383337 106.4612644
  29.5005250  42.6805162 106.0169979  53.9591074  16.8014586  72.2285327
  54.1547346  16.5185368  71.3352688  54.8163271  16.9712472  72.6191457
  17.8310907  37.3978877  26.3642550  17.5849760  38.2317495  25.9638357
  17.0003641  36.9409060  26.4957571  34.1531825  22.5408649   4.4076085
  34.9176002  22.0099473   4.1839492  33.6349154  21.9823861   4.9870339
  47.1560049  56.0953522  38.0167174  46.9474363  55.1718426  38.1576276
  48.0534077  56.0901260  37.6837420  48.7945509  23.0383277  60.1758003
  48.1348276  22.9921651  60.8678007  48.2882118  23.0800819  59.3645573
  29.0085101   3.5780615  91.3751253  28.3961725   2.9441199  91.0017701
  29.6205926   3.7673229  90.6639513 120.3411863  29.8177862  98.8124081
 119.8854799  29.6059561  97.9977354 119.6662135  30.2029610  99.3712326
  45.3073740 142.0808343 103.7963989  45.0386620 141.1635209 103.8469943
  45.8359671 142.1319912 103.0000284 117.4913055  27.4697757  23.8127494
 117.7252669  28.3847332  23.6567092 116.6238905  27.5097013  24.2155266
  24.5344949 134.8015661   4.2453751  25.0444555 134.1674668   4.7494498
  24.3344283 134.3502886   3.4252813 113.8424403 139.0426315  10.1577652
 114.3890316 138.9538575  10.9385276 112.9901618 139.3215669  10.4925013
  21.0762548   8.2221985   7.8853875  21.5006161   8.0412018   8.7240720
  20.2114892   8.5575289   8.1219548  70.3077316  11.1495233  90.4143640
  69.5389891  11.2141454  89.8477169  71.0456562  11.3587415  89.8417112
  39.7347069   9.6609944   9.4688380  39.9562287   9.1320604  10.2352512
  40.0210094   9.1336942   8.7230384  25.7088256  22.7113271  11.4432812
  25.7967806  23.1542444  12.2872710  25.4077911  21.8302608  11.6653895
   3.4745058  46.9899797  19.8173094   2.5225148  47.0120573  19.9145591
   3.7895909  47.6937294  20.3844833 108.2311661  24.4432592  25.4066038
 108.8761897  25.0927329  25.6865382 107.9516024  24.0183997  26.2175107
 112.8853411  32.0690227   5.8698773 113.1575412  32.8076720   5.3253269
 113.4052939  32.1560359   6.6688204  42.9217720  10.8062983 102.4430301
  43.1456232  10.2132630 103.1602683  41.9778824  10.6969202 102.3275419
  24.6482420  38.8802838  39.1254187  24.9137640  37.9946876  39.3733120
  23.9869046  39.1223431  39.7737026  49.5335865  49.7428274 105.4029220
  49.3355179  50.3963137 104.7321346  49.8182297  48.9728928 104.9105733
  72.0590258   5.9813130  20.3534961  71.8055582   6.4429516  19.5541978
  72.8734827   6.4038873  20.6261086  27.1428275  18.6975574   7.2965670
  27.2118974  19.3172002   8.0228627  26.8175483  17.8922343   7.6989073
  20.4099655  52.8302002   3.6777928  19.9461329  52.6803350   2.8540021
  20.3854418  53.7796068   3.7971848  29.7613025 128.5122234  20.8750582
  29.9431252 129.0033323  21.6762996  30.6033278 128.4736771  20.4214740
  34.3976998  34.0585327 107.0079228  33.8517380  34.1786337 107.7849262
  34.9108338  33.2724333 107.1949270   8.3246005  23.7002921  10.0187755
   8.9168084  23.9589429  10.7249069   8.2056445  24.4971633   9.5019805
  32.2628593  12.5951135 107.7166431  33.1546044  12.4958479 108.0500599
  32.3725629  12.9994786 106.8560120  30.4278278  39.3041539  19.0019238
  30.6450915  39.5991635  18.1176174  31.2600255  39.0001464  19.3642199
   8.3270681  11.3902748  20.7459760   7.7774608  11.1651778  21.4966393
   8.6502600  10.5484867  20.4247713   5.9115654  33.0685759  23.2176232
   5.9075624  33.3535528  22.3038363   5.0948507  33.4125876  23.5793757
  45.1951122   7.7015245 103.6291929  45.8169842   8.4130800 103.7815001
  45.7173157   6.9041407 103.7170401  33.1984258  11.8966687  94.8773464
  33.0349207  10.9548581  94.8274287  33.1517243  12.0986724  95.8118221
  25.0488758  37.4402761  45.6495523  24.7819138  38.3395886  45.8398199
  24.7354412  37.2806501  44.7593212   1.3498107  21.7165232  83.9467391
   0.9407572  21.6017342  83.0889925   2.1696885  21.2259507  83.8886794
  31.1622715  30.2435684 100.0292691  30.3994727  29.8883295  99.5730098
  31.1785555  29.7791672 100.8661070 117.6001245  41.9286919  49.9682188
 117.4093772  41.9785309  50.9048939 117.9566545  42.7898550  49.7502422
  25.8929467  23.2130504  20.8050585  25.0584269  22.7570581  20.9140611
  25.7733440  24.0444398  21.2641025  30.6757021   9.7159559 106.0431599
  30.5544734   9.9934483 106.9511982  29.9729538  10.1539469 105.5630126
   6.4511865  30.3096843  22.7884126   6.1488545  31.1767697  22.5182462
   5.6997693  29.7362518  22.6374841  15.6323636  60.8127689  93.5259255
  14.8993742  61.2269735  93.0705234  16.3038373  61.4936447  93.5678705
   1.3287266  33.8258743   4.9743086   2.2363882  34.0671825   5.1591122
   0.8253181  34.6145058   5.1764691 109.2493100  32.5628948   9.1108429
 108.6064083  31.8587708   9.1952229 109.8653073  32.4119711   9.8277819
  44.8615074 145.3001852  78.2497343  45.2425146 145.1070453  77.3931369
  43.9381838 145.0643223  78.1598648  12.4276006  25.8606172  24.3708968
  11.8645477  26.1513042  25.0883245  13.2770324  25.7015109  24.7824574
  37.7902412  10.4129791  16.9624162  38.3021641   9.6975458  17.3396730
  37.7247810  10.1961756  16.0323930  36.3694167  27.9024768   0.4381642
  37.1289134  28.4381485   0.2091435  35.7988262  28.4935236   0.9294088
   2.4045402  70.0451422 109.7804342   2.3353976  70.8506775 109.2680262
   2.5584149  69.3599796 109.1299695  26.8936896  53.8919926 108.5711555
  26.3317657  53.1814528 108.8803525  26.3241529  54.4226933 108.0141843
   9.8704535  59.2367601  49.0754604  10.0097990  60.0137997  48.5341454
  10.1740932  59.4937754  49.9460793  53.2527304  36.2727308  96.3655397
  54.0379620  36.4567661  96.8810710  53.4148455  35.4110622  95.9815081
  33.9971280  89.5761108 106.5353539  34.1105771  90.3768730 106.0233625
  34.1345882  89.8501110 107.4421392  24.4612622  70.2224493  92.0135304
  24.3338442  71.0769844  91.6015013  24.9439907  70.4138517  92.8176256
  48.7145138 131.0652597  12.6084936  49.1536427 131.5603633  11.9169211
  48.2644796 131.7298586  13.1300378  37.2642374  32.5985861 102.3657885
  37.1836329  33.5523224 102.3547121  38.1540132  32.4370480 102.6795342
   5.8773929  32.1128821  91.1356243   5.6316417  31.1979580  91.2725683
   6.4988464  32.0876312  90.4080328 119.3866188   5.4495543  84.3754157
 119.7327677   6.2641567  84.0109500 118.6101080   5.2621192  83.8480362
  15.4483819  18.3397233 100.7628491  15.4496694  18.7895918  99.9179538
  14.5438957  18.4072220 101.0687586  27.3351336   8.3315581 100.2922853
  27.2360444   8.6332548 101.1952760  26.6185331   7.7093172 100.1676544
 107.6072497 146.4197095  32.4170184 107.0387847 146.2342371  33.1644654
 108.1951887 145.6657974  32.3703694 117.9695446  13.2715666  79.6057042
 118.6858357  13.7849963  79.2321380 117.5100220  13.8840497  80.1801022
  33.8701510  25.3222227  14.7234547  33.4765792  26.1607265  14.4821143
  34.3368816  25.0413370  13.9363730  21.9207692  69.1384125  92.7118787
  22.6362371  69.5450306  92.2229990  22.3276734  68.8337994  93.5229715
 118.5641003  27.1459174  26.8032718 117.7586866  27.3220706  27.2895956
 118.2656491  26.8861079  25.9316897 122.0593545  39.8159981  33.3407569
 122.6262105  40.0543690  32.6072145 122.5751512  40.0245619  34.1196585
  39.1090155  25.3497100 101.6935804  38.5256600  26.0484552 101.3974675
  38.6183310  24.9047899 102.3845997  81.9915295  33.2224226  89.8304566
  81.3474464  32.5162554  89.7783097  81.6920662  33.8675213  89.1898307
  23.2529283  46.8394899  37.1560240  23.8035393  46.6951609  36.3864589
  23.8430786  46.7156410  37.8994036  18.0259562   6.5074003   7.5461191
  17.9701328   7.3193896   8.0498940  18.5572278   6.7349708   6.7831028
  23.9675450  20.8958292 100.9565612  24.5220995  20.3109813 100.4401758
  23.8273859  20.4280376 101.7798223  41.5366793  60.7848835 102.8849360
  42.3532581  60.3429270 102.6523265  41.8082857  61.5077782 103.4505203
   3.2236689  37.1463346  94.2020031   3.7339818  37.4792933  93.4637960
   3.0270517  36.2393546  93.9675649   6.8522698  42.7256012  89.1426166
   6.0848832  42.6555586  88.5747751   6.8121916  43.6163855  89.4906481
  64.7052193  11.6781092  95.7871910  64.6054363  12.6285708  95.8410212
  64.5328999  11.3684475  96.6763743  14.1180933  39.5638275 104.5600929
  14.9583447  39.1112566 104.4866934  13.5891926  39.2039108 103.8480838
  32.9957032 135.3809447  24.5204067  32.6295972 136.2455113  24.7067475
  32.3590374 134.9726112  23.9337611   2.6959243  38.3419847   5.9636539
   3.0250189  38.5185719   5.0823224   3.4414595  37.9581547   6.4252651
  46.5104103  29.1004801  22.5658870  46.4817286  28.8991332  23.5012293
  47.3714638  28.7942100  22.2812533  38.7753820  42.3903894 103.4179845
  38.8730407  42.4975061 104.3641444  38.8581657  43.2769632 103.0667587
  10.3183448  25.8366799 100.2934494  11.2379885  25.7357597 100.5390181
  10.3077376  25.7048917  99.3454238  43.2536697  12.9371727 106.3336995
  44.1085243  12.6311255 106.0307192  42.9448700  13.5147679 105.6356617
  23.9622045  58.9583111  29.4756413  24.0357184  58.5895300  30.3558850
  23.7153363  59.8720121  29.6186018  12.9304910 134.8678238 102.5090476
  13.3612084 134.2397494 103.0889084  12.0023084 134.6384103 102.5546356
  26.9302130  24.1964483 101.8042430  26.8590355  23.8595271 102.6973554
  27.7503061  23.8292146 101.4743664  16.6526437   9.1946685  50.5933428
  17.1857536   9.4422853  51.3487959  17.0756257   9.6250439  49.8503113
  31.2221909  42.9555655  37.9537034  30.7616162  43.3335543  37.2045517
  30.6330562  42.2745562  38.2783198  55.4082298  18.8213456  98.8125273
  55.9479427  18.9494681  99.5926067  55.3679180  19.6862698  98.4044667
  34.5037889  40.3166008  36.1674404  34.2512631  41.2072849  36.4106274
  33.6734939  39.8656178  36.0142803  17.3226702  44.5695305  19.7110713
  17.8400564  44.7336864  18.9226580  16.7847717  45.3547955  19.8123693
   5.8522981 138.8838900   7.0566273   6.7401588 138.5627169   6.8991989
   5.6626433 139.4428039   6.3030505  56.2295055  28.0871773  81.0432752
  56.8800497  27.6144052  80.5241331  56.5682888  28.0558300  81.9379696
  51.0419559 116.0831947  33.1018400  50.5436325 115.4786772  32.5518703
  51.5919828 116.5685053  32.4868798  21.3515806  12.1376729 108.0177223
  21.2747836  11.9185925 107.0891007  21.8456864  12.9573870 108.0303557
  66.1465502  46.5165806  30.6268024  67.0107269  46.8700838  30.4159236
  66.2945461  45.5787277  30.7482934 123.7862290  53.9223671  20.7691884
 123.5705114  53.1498861  20.2467179 124.7161240  54.0738297  20.6001139
  36.5830374  55.5687094 103.3142497  36.1675739  54.7205400 103.1586107
  36.4449310  56.0557318 102.5018653  13.5494316  40.0244522  26.3466501
  12.9556608  40.7715654  26.2725306  13.5859859  39.6589518  25.4627347
  45.7150269  11.4350522   0.4236146  45.1234245  12.1723628   0.2732420
  46.1461496  11.6392803   1.2534681   0.9842314  27.2095752 100.1475861
   0.9862630  28.0170536  99.6335777   1.8068102  27.2347569 100.6364235
 120.1468486  43.5142469  20.9630466 120.7276828  44.2146158  20.6658125
 120.6794131  43.0042648  21.5733933  38.3715677  31.6328740  15.9286928
  38.5282397  31.9924974  15.0555623  39.2379570  31.6033196  16.3345563
  33.5150433  12.9778266  15.1794255  34.4631529  13.0825913  15.2590799
  33.1662607  13.3201826  16.0024524  31.0446262  56.9392061   1.1267701
  31.3236809  57.3771143   0.3226573  30.3166437  56.3803196   0.8548851
   5.2946591  51.6712332  54.7436476   5.8418697  52.1433544  54.1160393
   4.9620047  50.9194422  54.2533636 110.6708414  28.9378595  10.2048743
 111.4520711  29.3772531   9.8689479 110.9898753  28.4066057  10.9344065
  87.1399302   1.4108199  24.8921704  87.2473068   0.7894482  24.1720319
  86.1929578   1.4692451  25.0189161  39.8505950 126.5978546  22.2478080
  38.9768124 126.2070555  22.2441006  40.4442978 125.8559532  22.3632765
  25.3321004  42.6046515   3.1809551  26.1380100  42.1497869   3.4255710
  25.3785133  42.6782799   2.2277202   6.1803579  49.8970938   3.2762578
   6.7981344  49.1882515   3.0970180   6.5602136  50.3632641   4.0209913
  29.9927902  32.4954343 109.0028219  29.8467231  31.5579820 109.1296205
  29.6886826  32.8974390 109.8165439   1.1889578  21.3411665   3.4056768
   0.9383806  22.2647619   3.4260485   1.4672206  21.1486840   4.3010828
  12.3392940  27.4415112  39.3798304  12.5683856  27.2470212  40.2886343
  12.7169764  28.3059096  39.2173433  10.1161838   1.8112215 101.0492840
  10.0644374   2.5801516 100.4815688   9.3000895   1.8272792 101.5492489
  27.0634103  31.1282063   5.6628662  26.8297195  30.7906580   4.7981799
  27.8415656  31.6638422   5.5086040  12.2601247  37.5389957  71.2122973
  12.1653402  36.6309261  70.9247979  11.7786741  38.0481672  70.5602368
  30.2487326 117.8198595  91.1351892  29.3610501 118.1779666  91.1321446
  30.1283073 116.8824358  91.2867352  52.5284529  39.3404102  12.9433966
  53.2802629  39.0717578  13.4714448  52.1482515  40.0754118  13.4244871
  31.9644785 141.3066609  91.3613721  31.9452047 141.0909809  90.4289862
  32.1070266 142.2528810  91.3854309  61.0387087  12.8649199 101.2117978
  60.2291727  13.3585358 101.0805448  61.4666653  12.8746712 100.3556498
   6.0349971  64.0125847 107.1379235   5.4950458  64.0751600 106.3500344
   5.5542624  64.5119858 107.7980193  14.4315302  10.0748503  11.3061106
  14.2730272   9.1343576  11.2249875  13.7070084  10.3943348  11.8439114
   3.5965362   4.5535901  10.7904756   3.9274710   4.4548944   9.8977423
   3.9343947   5.4015058  11.0787857  53.1338644  41.9876480 107.6775245
  52.3444080  41.6672421 108.1137974  53.4364176  41.2453556 107.1543648
  30.4697919  40.0934887  30.4894376  29.7419834  40.4294491  31.0125613
  30.0569677  39.7516346  29.6963787  38.1910920  29.2303157  25.3969312
  39.0422392  28.8601851  25.6309938  37.6733732  29.1667223  26.1995244
  20.6989121  31.1551309   7.0079672  20.8400488  30.2216625   7.1659297
  21.5610504  31.4891601   6.7602307  55.2913427  28.9212322   3.8635120
  54.4930649  28.9659166   3.3372143  55.3980637  29.8061800   4.2123833
  23.2927203  42.5517035  50.6495953  23.7480378  42.2355366  51.4299488
  23.9850473  42.6677561  49.9988699  63.9611578  30.7150602 108.3425839
  64.1248941  30.7402158 107.3998276  63.0137491  30.8245873 108.4241428
  12.7813077  12.7288246 106.0950661  13.0483246  11.8096435 106.0887718
  12.6794052  12.9422843 107.0225811  54.1968870  32.4462271  79.7045422
  54.9512100  32.7299047  79.1880608  54.5722675  32.1487570  80.5332947
  53.2299614 128.2386596 100.3726578  53.0157328 129.1559095 100.5429363
  52.6423883 127.9835207  99.6613979   2.5725073 127.7907617  89.6209812
   2.9269332 126.9099874  89.4991207   2.9948062 128.3151288  88.9405918
  31.2862277  10.2531660 102.7791309  30.8073068   9.5399326 103.2012272
  32.1950841   9.9533868 102.7606487  28.2506990  13.0281687  81.6765308
  27.7675200  13.7673354  81.3072014  28.4246635  12.4576581  80.9278774
 117.3671753   5.1673633   1.5625326 117.0007986   5.2764845   0.6849805
 116.7273725   4.6247187   2.0234243  25.5406022  47.9162836  16.1758653
  26.3039327  47.4257135  15.8710710  24.8057580  47.3147583  16.0558645
  13.9969492 139.1302730  87.0300674  13.8973153 138.4999306  87.7434921
  14.1161215 138.5906059  86.2485409 118.8699771  25.3157449  89.4723225
 119.3147493  26.1200428  89.2049026 118.4859753  24.9745083  88.6646557
  28.1754541 135.5038554  33.2942716  28.4390163 136.1225695  33.9754144
  27.2190905 135.4972882  33.3337060  22.1431160   2.0272961 105.0157642
  21.8195581   2.6216319 104.3387794  21.8803954   1.1570466 104.7159767
  22.8663659 128.5771722  14.7960798  23.1460881 127.8820927  15.3917733
  23.2108831 128.3142192  13.9426175  18.8435102 133.5037584  64.6129036
  18.1780267 132.9834921  65.0631094  18.3707941 134.2720623  64.2927790
 121.4657951  29.9524188  73.9351320 122.0538566  30.4379892  74.5136118
 121.3951281  29.0866971  74.3373346  22.7558875 106.8415208  78.6631775
  22.9631996 107.1553893  79.5433712  22.9305744 107.5912041  78.0942345
  14.4052243 134.0731640  73.5907984  14.4581914 133.1175871  73.6080933
  14.7462559 134.3164081  72.7301216  30.6237006   1.5428667  84.5149517
  31.2625861   2.2536266  84.4613075  30.4492354   1.4478128  85.4513073
  41.2167788  18.6190832  91.6501331  41.7456055  17.8854585  91.9637680
  40.3670740  18.2303286  91.4425182  11.9676650 108.3660550  30.4173700
  11.7020071 107.5882454  29.9267904  11.1481369 108.8259358  30.5993501
  94.7040529  36.7235661  12.2687188  94.7722525  36.0713577  11.5714399
  95.2052159  36.3515902  12.9944650  36.4454293  29.7809100 104.2524338
  36.9146967  30.4588461 104.7386646  36.7775393  28.9570546 104.6090794
 119.9372054   4.2717972   3.0501977 119.6715022   3.5251713   3.5870210
 119.3262071   4.2665291   2.3133889  21.2263846  43.4061432 107.0157719
  21.7093062  44.2325592 107.0081997  21.7581940  42.8131056 106.4850044
  99.7016258   4.6853095  85.0954247  99.5701618   4.6317875  84.1488075
 100.5908317   4.3586174  85.2325916  32.5349021  26.5337992  80.8854294
  31.7711568  26.1115623  81.2786674  33.0622506  26.8181467  81.6319370
 103.8182301 134.6596856  93.8996792 104.2566795 134.6709973  93.0488682
 104.4188160 134.1825814  94.4723034  58.1540823 130.8070202   6.2026922
  58.9109039 130.5276651   5.6875078  57.4032402 130.4137833   5.7579080
  11.3504851  25.2408767  29.2024461  12.1421909  24.7425270  29.4051305
  11.0825348  25.6163549  30.0411741   9.5331413   8.2883638  88.9130974
  10.2489674   8.7166977  88.4436703   8.7672931   8.4206522  88.3543396
  49.0951252  12.9989660 101.3584232  49.4959116  12.4489796 102.0315552
  49.6961212  12.9443872 100.6154156  19.5057225  36.0731196 104.5214272
  19.1141105  36.1761951 105.3887463  20.3855777  35.7380915 104.6941853
  31.1532831  11.3995743  70.0023651  30.4380226  11.1431289  70.5844879
  30.7277560  11.5755510  69.1632032  35.8665895  30.5404782 108.3627129
  35.4283047  30.8840704 109.1412258  36.7953563  30.7161713 108.5135555
 118.7775934  11.4638889 101.4228821 118.8804585  12.3176849 101.0025501
 118.8808394  10.8324373 100.7109547  14.3282831   4.1577527  25.0537721
  13.6429977   4.7082308  24.6748391  14.0974760   4.0917981  25.9803811
 124.0789134   8.7715721  90.3142834 123.2489832   8.6863655  89.8450375
 123.8667063   8.5440236  91.2195015  34.7009826  58.1879854  80.7436275
  34.6340179  57.5136280  81.4196396  35.0571823  58.9501953  81.2001228
  19.6645594  18.4196162   0.6100313  19.8515499  18.5926926   1.5327016
  20.1028848  19.1287649   0.1397077  34.5571995  29.2881632 102.2548199
  34.9470043  29.9416399 101.6740894  35.2174902  29.1462684 102.9331398
  16.2699783  12.3264229  14.9121133  16.3271844  12.0225894  14.0062181
  16.0421407  11.5434623  15.4134122  40.4845428   5.5672497  11.8375818
  39.7807240   4.9238417  11.9206563  40.8549547   5.6320328  12.7178232
  21.6654348  14.9415791 104.9571514  21.8766856  14.0307987 105.1622963
  22.3430920  15.4506624 105.4019451  13.4715855   0.5082697  53.0068827
  12.7629709  -0.1349079  52.9864311  13.7941182   0.4807280  53.9076853
  21.4669681  43.6049175  90.7606697  22.3142815  43.8634014  91.1232662
  20.8597207  43.6752939  91.4972305  22.4226046  13.6356652  80.5691814
  23.1648636  13.4581673  79.9914455  21.6540980  13.3900404  80.0541115
  35.2361369 142.5000743 107.3791981  35.6038046 143.3113308 107.0286083
  35.9616184 142.0934824 107.8531075  29.5070672 111.8423505 103.9400291
  29.5126343 112.2016043 103.0528259  30.2261567 111.2106151 103.9471436
   3.9668891  30.8443236  29.8651258   4.6706828  31.4113188  30.1804391
   3.2080671  31.0867500  30.3958360  59.9495411 126.2895245 103.0462074
  60.8520985 125.9854908 102.9503536  59.5863914 125.7452721 103.7448788
   2.5004619  13.8632035  14.6737615   2.3132889  14.7666585  14.9286500
   2.9153425  13.9378512  13.8143865  28.9017773  29.0686750  98.2168198
  28.2600975  28.4581280  97.8538990  28.6272454  29.1926360  99.1253853
  35.0250793  28.4281015 106.7139053  35.0486255  28.8763523 105.8684826
  35.4033065  29.0566063 107.3288536  31.5874982 134.4893140   1.2278882
  31.1461186 134.2338414   0.4178563  30.9497905 135.0370509   1.6856519
 108.3438546  37.8493142  18.6811296 107.6013584  38.3690619  18.9890138
 108.0844743  36.9421482  18.8423768 124.0794247  34.5207953  38.7107507
 124.9084359  34.0920854  38.4981862 124.0331010  34.4921708  39.6663991
   7.3220241  23.7686729  20.5916158   8.0280352  23.1527328  20.3956739
   6.6523260  23.5826230  19.9334947  42.6665020  19.1617191  40.7329408
  43.4572983  18.9625645  41.2341539  42.0327187  19.4496942  41.3899270
  34.3947458  51.0663891  97.3003960  33.7805295  50.7273722  96.6492176
  35.2532053  50.7721519  96.9959164  10.5575347 145.1618307  74.6907282
  11.4977860 145.1870107  74.5131779  10.2930379 146.0815224  74.7117043
 112.0541078  38.3399820  31.4237348 112.2239739  38.6592770  32.3099748
 112.0998556  39.1224909  30.8743516  65.5335236  13.9272785  11.6664258
  64.5988703  14.1213882  11.5958921  65.6065893  13.0066073  11.4149133
  35.5776477   1.5850663 100.7454491  34.9822664   1.3775355 101.4656448
  36.4383459   1.3067551 101.0584545 119.9009598  24.1759825   1.7621652
 120.8123118  24.2553854   2.0438901 119.3989480  24.6154928   2.4484960
   1.9914064 139.5430512  93.3061123   2.4678457 139.9155367  92.5641632
   1.1880953 140.0608380  93.3592129  27.5523782  19.2242944  92.4920464
  27.8206754  18.3457863  92.2228432  26.6063976  19.1566658  92.6215839
  23.0229688  31.5043426  97.4488163  23.5854363  30.7298589  97.4424553
  23.0039310  31.7790079  98.3655643  28.1230497  10.5867696  66.5688133
  28.6408997  11.2107229  66.0601425  28.6521292   9.7891581  66.5797663
   3.8074923 138.8751245  16.5202752   4.3920946 139.6132714  16.3481942
   3.4928843 139.0216596  17.4123422  67.2988510 144.1265207  97.3510265
  67.1346092 143.1835736  97.3613548  67.9574394 144.2474497  96.6670132
  42.3012590  16.6440248 101.0029697  41.8513155  15.9225368 100.5633831
  43.0781794  16.8037426 100.4671478  29.1268253  11.3955653  96.1315441
  28.5375667  12.1449172  96.0450745  29.9482632  11.7720139  96.4473915
  79.6939182  10.2296150 100.6086636  79.1864204  10.8046985 101.1813450
  80.0262260  10.8079064  99.9220943  34.5044470  20.8913589  91.8432045
  33.7342095  21.3212252  91.4714718  34.1757679  20.4428744  92.6223469
 124.3789361  10.2778482 105.7146931 124.1406590  11.1807311 105.9250641
 125.2144874  10.1404405 106.1610126   8.5005337 137.1208055  19.7802774
   8.2059878 136.4658231  19.1474477   7.7546215 137.2378183  20.3686277
  11.4792335  51.9882345  53.7653542  11.5090895  51.0454559  53.6025190
  11.8261099  52.3807669  52.9642153   8.5709840  12.6469254   1.6230718
   9.3058610  13.2602644   1.6211549   7.9203713  13.0544603   2.1947805
   5.1214856   8.3113599   2.8161565   5.4172301   8.5886782   1.9490568
   4.1908172   8.5344124   2.8344671  59.3390512 137.9494090  99.5189857
  59.0862036 137.4906046  98.7178612  58.6917210 137.6730979 100.1677132
  33.1485987   4.1011229  27.2289602  32.6079822   3.6700797  27.8909055
  32.5209451   4.5480597  26.6610471  31.1858940  17.1500099  70.8154535
  30.4162526  16.8951821  71.3243246  31.6511512  16.3285851  70.6572580
  49.3098116  10.5601168  98.7101269  49.7704935  11.2229741  99.2245388
  48.9898443  11.0328937  97.9417896 112.8296811  15.7722330  65.5993080
 111.9159443  15.7949865  65.3150558 113.2969970  15.3632283  64.8709106
  22.1227026  14.4749033  50.5378819  22.5135183  13.8021779  49.9802637
  22.3535156  14.2114091  51.4286804  30.1775265   7.6244986   3.7257234
  29.3134212   7.6079381   4.1371671  30.0054264   7.8710926   2.8169862
  33.2809424  24.5520020 106.3099098  33.6997104  24.4134617 105.4603958
  33.3774495  23.7148476 106.7638779  28.8870573  25.0678062  17.8404561
  28.2302761  25.7154846  17.5847665  29.6612310  25.5858493  18.0607263
  42.1306229  30.3483605  14.3470136  42.5708723  30.3599834  15.1968805
  42.8272486  30.1571941  13.7190000  43.7232161  16.5296900  54.0471458
  44.3402386  17.2005069  54.3395853  43.0130863  16.5616477  54.6881819
  10.2918625  14.8082948 105.9067917   9.7415650  14.6860456 105.1331902
  10.2824605  13.9570141 106.3443565  24.6663332 145.4170921  13.1411496
  24.1304803 145.6964290  13.8834897  24.2499685 144.6114228  12.8349344
  23.4633446 124.0156479  90.8943367  24.2680120 123.6438269  91.2555790
  23.3642006 123.5902161  90.0426292  28.3311486  35.3321242  98.9925003
  28.5061049  36.0768414  99.5678425  27.4689507  35.5152082  98.6192322
  48.2436705  36.7753983  77.7567911  47.6830196  36.1145496  77.3503685
  47.6600790  37.2567487  78.3432627 110.0517136   6.5958780  19.5620672
 110.3897983   7.1143591  20.2922098 110.8201916   6.1447012  19.2126218
  46.7737103  22.4802065  76.8837309  46.8773222  21.5460944  76.7022657
  46.1762142  22.7914596  76.2037659  33.9499307   5.5215234   7.1698037
  33.6491251   6.4228237   7.2855989  34.4175100   5.3191054   7.9801313
  25.5927467   0.9843163  97.8737736  24.7785330   1.4546809  97.6947689
  26.1714649   1.2231179  97.1496964  26.6148543  40.0590515 108.0519009
  26.6527510  39.6734071 107.1766472  27.1794343  39.4992685 108.5849285
  24.4323444 137.8383429 105.4341888  24.5012164 138.5020668 104.7479248
  23.6848092 138.1172568 105.9629917  44.2948580  31.3199067   5.6703702
  43.4928799  30.9693384   6.0578767  44.5891142  31.9866610   6.2909166
 110.4516489   0.9916070  27.8818551 110.8552951   1.2166557  27.0436136
 110.9336001   1.5096492  28.5265199  15.7575846   3.3882657 103.7207031
  16.3729548   2.9265851 104.2902660  14.8943031   3.1005165 104.0176487
  50.8885336  34.3593478  92.5652695  50.8078814  35.3002691  92.4090862
  51.6393137  34.0920377  92.0350742  11.2917626  10.3963435   9.3607942
  11.8137479  10.0529444   8.6356489  10.9707975   9.6172214   9.8148767
  17.4481595 141.1682690  88.5620975  17.4326348 141.8386269  87.8790092
  16.8627763 141.5043072  89.2407990  53.4706593 145.5826140  96.2070656
  53.8405085 146.2293258  95.6060600  53.9921951 145.6712046  97.0048046
  22.4983454   0.6515119  70.6096745  21.7751789   0.8503142  70.0149155
  22.0768952   0.2717482  71.3806438   5.4292023 135.9375055  15.9898797
   5.0732505 136.6553135  16.5135995   5.2700692 135.1545686  16.5170614
   2.2406925  20.6544828  56.5575647   1.9386780  20.1645303  55.7927370
   1.5436932  20.5428457  57.2040653  10.6373990 141.0457278  88.2568932
  10.4349184 141.2158216  89.1768360  10.5530930 140.0967253  88.1645870
  31.9206691 120.7106085   1.8500940  31.6647100 120.0691409   1.1873475
  32.8543663 120.5519886   1.9889489  17.1377742  27.1175957  98.8900757
  18.0065250  27.4073100  99.1685867  17.3009753  26.5855646  98.1112671
  26.1805511  16.0568094  64.5780802  25.8942485  16.8116760  64.0638399
  25.3751564  15.5738580  64.7633696 122.2839650  26.5752840  72.9410124
 121.9743744  26.2612700  72.0914364 123.2352372  26.6237140  72.8463173
  36.4585686 127.5049479  86.7785454  35.7596660 127.9242129  86.2765598
  36.1348438 127.4969573  87.6793003  25.9395456 130.0636227  75.6802034
  25.4962611 129.6277673  74.9523544  26.3475227 129.3516655  76.1730528
  81.5424728 145.7934207   1.8531362  80.7149887 145.6317176   2.3063031
  81.3115025 146.3842142   1.1362974  41.1882305 133.5238547  96.1131191
  41.3606071 133.9796908  95.2892590  42.0565367 133.3137805  96.4568329
  14.0067923  33.2554984  99.8991776  13.7278044  34.1710806  99.9094296
  13.2092214  32.7642775  99.7021675  24.7554088  23.0773282  14.0469686
  24.0876508  22.4959612  13.6831800  24.4155502  23.3237386  14.9072114
 110.5539472  19.9310434  95.5426979 111.2867278  19.3225598  95.4477787
 110.7488603  20.6384397  94.9280167  51.3101292 133.8721234  99.0094280
  51.2625647 133.1372423  98.3979321  50.4942751 133.8223989  99.5075607
   6.3672608   9.1389227 107.9961300   5.9670234   8.4574783 107.4560642
   5.6984979   9.3524510 108.6468220  44.7668409  26.0040259  94.1643047
  44.5170021  26.3471508  95.0222588  45.1891136  26.7421341  93.7248611
  54.5020962   2.1887158  44.0452329  54.2473125   3.0737945  44.3059102
  55.4566956   2.1837825  44.1155282  56.7252254   2.6710033  85.7381153
  56.4594269   2.2973925  86.5783501  57.4662352   2.1325490  85.4602528
  11.3235939 122.7278490 103.7510395  10.7583427 122.6127000 102.9871941
  12.2025788 122.8282017 103.3856010  16.4220440 132.6884503 100.5071449
  15.9382069 132.3729176 101.2704086  17.3307788 132.7387614 100.8036232
  18.1797588  42.7196360  23.9555494  17.2604334  42.6204967  24.2030279
  18.1985998  43.5098505  23.4157029 121.3646910  29.8813248 105.8409309
 121.8635104  29.2706203 106.3835621 122.0234979  30.4754901 105.4815197
  16.0482788 135.2724785  95.2930927  15.3728473 134.7844333  94.8221016
  16.2621319 134.7204048  96.0452366  56.5198183   6.8664426   3.8110868
  57.0749331   6.1738181   4.1693441  56.1719704   6.4984888   2.9987756
  26.3801098  17.2011554 106.1779976  26.6457272  16.9165683 105.3035259
  26.5317845  18.1462622 106.1786556  10.8440173  24.1753244  81.8432331
  11.7680538  23.9258742  81.8304348  10.4984176  23.7732935  82.6401997
  46.3410091   4.5266145   3.4571496  46.7012215   5.2534342   3.9652959
  46.7101526   3.7431967   3.8648549  61.5630579   3.2854879  96.4319611
  62.3261499   3.8368261  96.6050053  60.8727026   3.9018670  96.1875916
  36.0015225  26.7777872  90.7269192  35.8839369  26.6935587  91.6731262
  36.3830495  25.9422231  90.4576588  47.6068449 138.9811117  16.7692605
  48.4630251 139.3633825  16.5767614  47.0172071 139.7326750  16.8301622
  23.5193515  58.9140940  20.3153364  24.4621253  58.9247751  20.1501218
  23.1805325  58.2402182  19.7259942   6.2073290 137.9857589  98.0445385
   6.7664731 138.4634603  97.4318504   5.9362078 137.2046382  97.5622749
  23.5903144  33.3434081   2.7324144  24.3765736  33.8072348   3.0203286
  22.8681827  33.9236236   2.9734746  39.7206450  14.4051099  69.5070887
  39.9758267  14.9080849  68.7337017  40.1993752  13.5802960  69.4250679
   9.7694659  43.4534645  30.6393281  10.2754045  43.1725740  31.4017907
   9.4635946  44.3318987  30.8652154  19.0263081  43.3087301   3.2215730
  18.7183499  42.8000784   2.4714605  18.2352579  43.4897709   3.7292043
 101.7374439   3.4161630  99.0674400 101.3842458   2.8936246  99.7874641
 101.6396350   4.3226460  99.3589115  35.0211906  30.1113939   2.3741380
  34.4424868  30.2384400   3.1259290  34.4800091  30.3304076   1.6155950
  17.3284793  16.5235150  88.9011097  16.4347100  16.2121272  88.7581158
  17.4438679  17.2236097  88.2586193  52.1351910 145.4663604   8.9786092
  51.6204405 144.6871916   8.7684766  51.5931082 146.1981842   8.6839715
   2.0759039   7.4988484  90.6081200   1.1678485   7.5166565  90.3058815
   2.3193340   8.4209824  90.6896305  31.5660834  43.5281181 104.9227142
  31.4529848  42.7911234 104.3224812  31.8115449  44.2612028 104.3583012
  33.3936501  11.7024958  61.4563465  33.1646895  12.4879646  61.9531822
  34.3174624  11.5527844  61.6573143  35.9214258  16.5880513  83.5896587
  36.0305691  17.3283398  84.1865635  35.2762771  16.0267305  84.0196896
 123.5614195   8.1375265  85.6391144 123.7940863   7.8143364  86.5095425
 123.0038448   7.4524128  85.2703857  30.1031017   5.5058193  95.6047153
  29.6082568   5.2953750  96.3965988  30.8917475   5.9440190  95.9244728
  35.9812450 113.2084818  79.3844604  35.2676249 113.8455338  79.4182777
  36.5521765 113.4494323  80.1139927  54.3235302  18.9658153  32.0084134
  54.1347313  19.5200431  32.7656595  53.5846329  19.1086161  31.4169160
  21.4779639  49.1343069 106.0046387  21.4739060  49.4258976 105.0929451
  22.2403669  49.5655537 106.3906384  21.7130089  16.0733283  67.2534657
  21.0807800  15.3596628  67.1686125  22.2269154  15.8471358  68.0286884
  49.6374416 142.7742256   8.3697072  50.4944229 142.3520977   8.3095208
  49.1332769 142.3965687   7.6489965 106.2961263 136.9516433 107.4940014
 106.9708318 137.6273609 107.4275875 105.4788048 137.4090458 107.2965145
  35.5061722  25.9189177   8.7909261  35.9449434  26.1699128   9.6037713
  34.5837593  26.1241865   8.9434091  15.6068480   7.1909380  89.2562103
  15.4903054   8.0448860  89.6726513  14.7706175   6.7441469  89.3878460
   7.5150120  39.3817568   4.3604795   7.7317458  40.2400923   3.9964429
   8.1648427  39.2427588   5.0494138  56.5901041   0.1616616   9.0374891
  57.1061420   0.9060270   9.3470994  55.8225822   0.1479283   9.6092836
  32.8015304   7.5628525  96.9337368  32.4706507   8.2797295  97.4748802
  32.6927543   7.8717834  96.0343170  27.4960613   3.9930689  75.5615568
  27.1753812   3.3850670  76.2276840  28.0915499   3.4690687  75.0257874
 120.8701415   1.1852504  16.7849008 121.2713761   0.6934340  16.0684053
 121.0871164   2.0988645  16.5992585  16.6966724  20.4817915  54.0612125
  17.1100223  21.2919331  54.3596172  16.3310242  20.7010293  53.2042027
  52.1692324 143.7494043  98.1057644  52.7456808 144.2085681  97.4949360
  52.7577162 143.1998099  98.6233234  53.9439726 144.2562989  37.9080049
  53.3888865 143.8164491  37.2640745  54.2964268 143.5466076  38.4449807
   7.0105737   6.5544224  67.1659279   6.6747636   7.3571414  66.7670488
   6.6523945   5.8503550  66.6253471  13.1001925 135.7478923  84.5682430
  13.6419499 135.1299424  84.0774632  13.5032320 136.6008658  84.4062901
  14.7871387  13.6517286   8.3492986  14.2944443  14.1119301   7.6698152
  14.2914641  13.8093233   9.1528550  35.5030203   2.5201258 104.7031307
  34.9063420   2.0048839 104.1602421  35.0672150   2.5735667 105.5536938
  50.8869696  16.8086541  14.8561994  51.2219620  16.2332654  14.1684953
  50.9834480  17.6911330  14.4982091  47.2440481  12.8067791  93.3891678
  46.9472075  13.6717319  93.6719704  47.4548340  12.3481500  94.2024708
  45.2822351  18.9198172  21.6441766  46.1716843  18.6840427  21.9078389
  45.3992939  19.4593406  20.8622209  18.4633911  32.1592331 100.4673576
  18.8533652  31.6221738 101.1570740  18.3790624  33.0283809 100.8594036
  17.1675682  10.2560902  88.5650253  17.9746652   9.7590852  88.6984921
  16.6111350  10.0124264  89.3047905  18.8602996 129.5322950   3.4683362
  18.2033634 130.2278084   3.4988157  19.3345809 129.6143908   4.2957155
 100.3164238 134.6026058  71.6429615  99.8126549 135.4067595  71.7685938
 100.5085320 134.2992372  72.5302601   2.9861927  17.1107101  70.5457497
   3.2801393  17.8630507  71.0593796   3.5725030  16.3998997  70.8050203
  62.5093412  35.1168585   1.0832826  63.1935453  35.7350612   1.3400403
  62.5045776  35.1486135   0.1266233  46.6038513 125.6995601  16.4466707
  45.6703520 125.5119366  16.3486615  46.8965340 125.1046343  17.1370546
  37.8440619 140.3220708  38.6532251  38.2549644 141.1015923  39.0270368
  37.4142575 140.6360341  37.8576509  59.9610043   6.5030891   2.5682203
  59.5640373   5.6594980   2.7850286  60.9027672   6.3527465   2.6501218
  95.3888435   8.1072694  75.0490189  95.2901978   7.2347087  75.4299927
  94.7440690   8.1342477  74.3420744  17.3559260  10.0724065  21.2426511
  18.2628274  10.1340032  20.9427015  17.4253702   9.9034661  22.1822683
  31.4693952   9.2107946  98.4917068  31.4004326  10.1103914  98.8113976
  30.6694126   8.7850744  98.7999630  27.0093775  34.6465540  79.2844057
  26.4506865  34.0553212  79.7889233  27.4899125  34.0718126  78.6885929
   9.0283072   8.8881522 107.7489376   9.1582084   8.4349978 108.5820103
   8.0979764   9.1132241 107.7412319 113.6030061 136.6952563   6.2397996
 114.3283898 136.0859687   6.1026231 112.8651077 136.1375577   6.4861909
  44.4076204 140.6230188   4.4913427  43.4716129 140.4434449   4.5800821
  44.6473026 141.0554136   5.3109876  43.2297564   2.3905842 101.7956161
  42.9496479   1.8055087 101.0917282  42.9006100   1.9788107 102.5945759
  21.4283848   5.7706767  65.6182957  22.1530724   5.7523006  66.2433720
  20.7268286   5.2836490  66.0505581  12.3556209  17.3556721  29.7022414
  12.7114105  16.7952096  29.0126562  11.4944208  16.9837642  29.8926377
 118.7393708 137.6967538 105.1498413 119.5032937 137.1794660 104.8947620
 119.0196551 138.1665457 105.9353161  63.9418983  22.9085016  62.2141218
  64.5317364  23.3594680  61.6100073  63.4664869  22.2855639  61.6644239
  61.6781998   9.7089380  49.8072338  61.5839338   8.9820868  50.4228926
  60.8745670   9.6884716  49.2876387  26.6309381  23.7430191  28.1200647
  26.2387848  23.1736827  27.4580216  27.5573564  23.7835956  27.8827119
 118.0033631 135.4526145  66.7096758 118.8602466 135.8123166  66.9390154
 117.5316317 135.4087109  67.5414038  25.0736165  17.0239365  79.8077917
  24.3178749  17.5294900  80.1069641  24.9542403  16.9524121  78.8607645
  29.9562931   8.3847380  73.4128189  29.5856762   9.0037388  72.7837610
  29.3378115   7.6542521  73.4228468  31.1393452 143.4484414  83.7617207
  31.6347098 144.2651007  83.8242722  31.4577937 143.0360598  82.9587460
  34.4440746  35.9420633  64.5702171  33.8248372  35.3073668  64.9306870
  35.1368475  35.4072285  64.1825914  26.8731737 111.9572038  56.7520857
  27.7660346 112.2621245  56.9135046  26.3202453 112.5634927  57.2449493
  30.6435704  29.0715384  86.4190102  31.5990138  29.0205741  86.3914013
  30.4579020  29.9939418  86.5948772  65.7059860   6.0101283  75.4425144
  65.7051325   5.7503772  74.5212364  66.3590193   6.7080754  75.4939795
 123.3397644  12.4568772  73.6375475 123.4155481  11.7078948  73.0463505
 124.1817049  12.9062665  73.5639334  12.7119982   2.3830040  88.3010292
  13.0464220   2.4193791  87.4048901  13.4783065   2.5504580  88.8496304
  20.5909014  17.4247003 104.3055058  20.8604169  16.5131116 104.1932487
  20.9497619  17.8763568 103.5416603  29.9409676  49.7939205  26.6794244
  30.1036572  50.7370472  26.6627160  30.4513097  49.4498158  25.9463636
   9.2477447 129.7304685  84.5556355   9.5364910 128.8883502  84.9073315
   8.4720886 129.9519617  85.0709248  13.2753348 143.3782996  49.0677166
  13.6539340 143.6404462  49.9068689  13.8681865 142.7029900  48.7379980
  21.7893934 145.8860217 103.8233757  22.5044107 145.2821986 104.0243244
  21.4501715 145.5836522 102.9809189  32.7984500   1.9814867  91.5627861
  32.1990418   2.2924413  92.2412109  33.0725861   2.7751684  91.1032772
  10.4432285  28.9840007  71.3526583  10.9507239  28.6531258  72.0937395
  10.6027913  29.9278045  71.3554144  36.6601086   3.9615527  88.9808846
  36.4202285   4.8806351  88.8626575  36.1648560   3.6818829  89.7507763
  38.2878566  34.8469162  74.0210867  38.6053848  33.9751577  73.7856197
  38.3353543  34.8690486  74.9768496  42.3855591  37.0555067  51.9526863
  43.2009077  36.7472768  52.3481989  42.6557493  37.7632380  51.3675785
  25.6157923 145.7093421  80.1223850  25.8651543 146.2090654  79.3450022
  25.5318379 144.8080991  79.8110247 124.7816956  31.4637375  64.2740822
 123.8479555  31.2566733  64.3126249 125.1874298  30.6745195  63.9152718
  82.0354939 123.0307145 102.5439167  81.4083004 123.6860413 102.8495407
  81.5479183 122.5130338 101.9032097  41.5526438  41.1976862  75.1452637
  40.8433914  41.0612011  74.5171165  41.7454815  42.1335793  75.0891542
  56.5643024  17.1496224  93.6658859  56.1384630  17.4905205  92.8793240
  55.9970093  16.4347637  93.9546585  36.9445252 134.9827821  58.2070923
  37.6021051 135.5999012  58.5280085  36.1067581 135.3821094  58.4414339
 121.0451046  24.9753571  44.1033173 120.9540538  24.0861368  44.4457006
 121.8047336  24.9317813  43.5225439  42.0103693  28.6174107  87.8450775
  41.4607143  29.2022228  87.3234463  42.8588915  28.6278749  87.4022198
  14.3146491 144.4079550  24.4100610  13.8570833 143.5758741  24.5305005
  13.9491284 144.9819266  25.0832502  27.7915549 122.0886345  93.4171677
  28.0773115 121.2070937  93.6568737  28.4338903 122.3810906  92.7705479
   4.8451930  43.5702848  71.0958624   5.7669914  43.4508181  70.8672857
   4.7648153  44.5049143  71.2862253  13.1180787 144.8127274  89.6516323
  13.2050467 144.3216900  90.4686737  12.4996853 145.5135873  89.8580742
  41.2453318 138.2964147  72.2306156  40.6221628 137.6101679  72.4692774
  41.7340279 137.9303492  71.4934587  20.8056402  14.2710471  70.9412670
  21.2116528  13.4945512  70.5559874  20.8474040  14.9313509  70.2495384
   6.2802666 140.3252877  39.1398263   5.3667420 140.5528510  38.9668536
   6.7037785 140.3662164  38.2823920  60.4536057  25.2541518 105.1380634
  61.0440016  25.8324003 104.6550560  60.1729536  25.7735658 105.8915043
  37.9615235   4.4144076  95.8232784  37.4788332   4.7917542  96.5587044
  37.2981191   4.2755386  95.1473713  21.2899971  38.0488610  87.6569366
  22.1990252  37.8324151  87.4494553  21.0450888  37.4246812  88.3400536
   2.3144750  14.0438044  80.1479053   2.3605420  14.9375117  80.4876041
   3.0292404  13.5833192  80.5875587 107.4863560  13.4685969  66.6123724
 106.9747586  13.9805412  65.9859419 106.8989427  12.7620625  66.8806744
  18.7146986 139.3006159  77.0522547  18.0492461 138.6759586  76.7637968
  18.3260310 139.7296745  77.8145361  50.1642752 137.1102650  51.3338757
  49.6227360 137.5271637  50.6636763  49.5610619 136.5367974  51.8066359
  55.2473450  24.7090125  72.0525694  56.0187387  24.6932507  71.4860582
  55.1736593  23.8132572  72.3818493 110.7355363   5.8740723   5.5364267
 111.1632664   6.5842795   6.0148469 110.3679258   5.3127855   6.2191144
  31.7579174   8.5773891  81.0201073  31.4780474   9.1723996  80.3244972
  32.5813484   8.2073599  80.7018757  17.8422201   9.6328551  23.8112545
  18.6415601   9.2182380  24.1358805  17.3648846   9.8845422  24.6018481
   7.9681951  30.2246094  84.8317432   7.2432601  29.7831130  84.3892670
   7.8894168  31.1405253  84.5650482  21.5817928  16.3757586 109.2946815
  21.8171024  17.1778083 108.8282299  20.9923553  16.6673541 109.9902153
  50.2558756  36.4666915  83.1186295  50.8749676  36.2687731  82.4159336
  49.4746733  36.7857265  82.6667690  41.7541218 134.9606568  20.6942121
  41.8180704 135.3639002  21.5599672  41.8415546 135.6916554  20.0824682
 104.9186809 146.0068433  53.6700106 104.4364852 146.3001928  54.4431019
 104.5496625 146.5176194  52.9494810  32.5312090  16.2156832 100.2411747
  32.2622681  15.6217802  99.5403290  32.0497036  15.9117758 101.0105991
  14.3414164   3.0300415  98.4300804  14.6647561   3.2427877  99.3055344
  14.1271484   3.8780636  98.0412674  64.8639441 125.4768629  10.4335347
  64.1760302 126.1010880  10.6645147  65.6775665 125.9730763  10.5231134
  39.5259571   3.5988912   7.5119916  38.8652658   4.1863704   7.8788606
  39.0383410   3.0354920   6.9111291  25.5571055   2.4381170  61.6887569
  26.2442946   2.0225927  62.2096586  25.8077002   3.3612952  61.6544628
  33.8919854   7.2268969  78.9628792  33.9530802   7.8005224  78.1990385
  34.5127916   6.5209830  78.7825489   7.6631308 145.5209794  85.6861591
   7.6895523 145.1031242  84.8253822   6.7761856 145.8745412  85.7536411
   9.6703076   0.8409393  51.4373398  10.1062989   0.6726672  52.2727013
   9.6631259  -0.0082025  50.9955978   7.9720622  21.2365460  96.6382408
   7.6924694  20.4371738  97.0844078   7.1562040  21.6882014  96.4223385
  32.0757365  23.6062336  71.9733572  31.2602568  23.7866211  72.4409962
  31.8840289  22.8289747  71.4486217  17.8168964 141.1618353  98.9056206
  17.0220566 141.0213942  99.4201469  17.6063919 140.8127291  98.0395699
  33.7755156 135.6088276  51.8673372  33.2035303 135.8264489  51.1313295
  34.6592593 135.7832737  51.5436125 115.5940980   2.9156163  82.6194763
 115.8660573   2.2051132  83.2003880 116.2483162   3.6007750  82.7565479
  58.5000324  13.5702467  90.2340984  57.6610756  13.2299531  89.9233246
  59.0937138  12.8207028  90.1898575  35.4981208  13.2013094  64.8304987
  35.3828025  13.5590136  63.9501667  34.6085119  13.1194866  65.1742077
  28.5197616  56.7995071 106.2347603  28.5971379  57.7455664 106.1114025
  28.0863452  56.4889622 105.4398155  42.6359034 139.6286685  74.4211960
  42.1885872 140.3711886  74.0152359  42.0054865 138.9104385  74.3668985
  26.9617796  54.4765425  72.4019957  26.6134596  53.9219856  73.1001139
  27.5193739  53.8925600  71.8879128  34.9647331  40.7196617  69.6209764
  35.5132461  41.5032101  69.5833254  35.4823709  40.0887394  70.1211929
   7.5667876   3.4914091  54.8427534   6.6972852   3.5859147  55.2316809
   7.5066823   3.9534906  54.0066290  32.7691412  17.7979267  47.9153156
  32.3945165  18.5789490  47.5080156  33.7136960  17.9527462  47.9062939
  12.7212358  11.6171551  88.0315685  13.1674504  11.9263041  88.8199520
  13.3658695  11.0611224  87.5939560  27.8136659  16.5821290  77.6231289
  28.1041813  16.7416835  76.7251444  28.5423422  16.8807971  78.1672430
  31.7487741   2.9037321  80.0399494  31.4025140   3.7820876  79.8823833
  32.1214700   2.9476088  80.9205246  23.3578062  30.0128818  80.4700947
  23.0688906  29.1095901  80.5998039  23.3447719  30.3967547  81.3468552
  19.7248554   9.0833408  58.4035921  18.8668025   8.6745030  58.5168552
  19.6826160   9.4934309  57.5397205  23.8297653  12.3824704  59.8075914
  24.1676092  11.9512844  60.5925560  23.3029628  11.7113674  59.3736172
  32.4072456  16.5723050 107.4265194  32.7035379  15.6636393 107.3739052
  33.1940293  17.0908964 107.2583961 123.1308953   3.1615865  74.9674320
 122.8562588   4.0529758  75.1824474 123.9740297   3.0577591  75.4085398
  23.3635211  51.2810564  87.4107552  22.4550891  50.9851694  87.3521709
  23.3422017  51.9951963  88.0477715  20.3447533 122.2696585  81.4754868
  19.6895492 121.7202658  81.9057274  20.4235101 123.0369372  82.0423222
  18.8936830  20.9470844  95.6433296  19.1330087  21.8352771  95.9080410
  19.6937501  20.4364395  95.7672882  32.5073195  21.1139989   5.7354776
  32.8153205  21.0778546   6.6410486  31.8585730  20.4127884   5.6749669
  45.4223537  30.2511334  83.7385273  46.0085773  29.4945645  83.7518215
  45.4561996  30.5644989  82.8347015  42.3154831  25.4451752  54.3230867
  41.7346430  24.7193861  54.5513201  41.7776299  26.2282825  54.4400835
  54.7097921 125.5262203   7.0445005  54.2201138 125.2445907   7.8172437
  55.4882002 125.9567518   7.3979989  78.7676334 126.9474299  69.4189978
  78.6455393 126.0030265  69.3218994  78.8141918 127.2764642  68.5213327
  53.2966852  22.1916533  88.9608479  53.2114410  22.9258895  88.3526802
  53.8559246  22.5253892  89.6623516  21.9166398 143.8876698  91.3164234
  21.4160275 143.3226741  90.7278728  21.3271832 144.6174143  91.5068054
  16.9349301  22.6203465  85.1489925  16.9289100  22.0753622  84.3621063
  16.6704297  22.0278597  85.8527184  41.4934826 136.9386793  95.3304577
  42.0393896 137.6743490  95.6079674  40.7027340 137.3468406  94.9778271
  14.0497303 133.2672400  88.9296913  13.7370133 133.8865263  88.2702065
  13.9620972 132.4096770  88.5135937  10.1690292  15.9366059   5.1306669
  10.3308427  16.8654895   5.2956621  10.7247996  15.7262731   4.3802587
  35.1266932 137.7817429  96.5174198  34.5796967 137.1976192  97.0426083
  35.6191993 138.2914478  97.1607494  44.5017862  23.5296440  93.2688999
  44.8614979  23.6395383  92.3886967  44.5735931  24.3971539  93.6670208
  48.2915688  11.3323379  19.9305097  47.7450514  11.2845111  20.7148973
  49.1706467  11.5157378  20.2619020  14.9947679  22.8207350  52.0754385
  15.7961035  23.3249187  51.9344044  15.0412226  22.1125245  51.4331675
  32.3624444  50.2751589  91.4316559  33.0561590  49.6613646  91.6730022
  31.6952062  49.7304058  91.0141945  27.3214746  34.7629261  83.2528305
  26.4470577  35.1352382  83.1387711  27.3016453  34.3675566  84.1243362
  19.6921134  22.9770732  81.0201836  19.7672081  22.6313186  80.1307774
  18.7539971  23.1231642  81.1419582  12.7771282   4.9681515  62.4621820
  13.1774354   5.1699990  61.6164637  13.3593595   5.3725559  63.1053782
 106.2809855  11.0602343  87.1912098 106.3060088  12.0171058  87.1926880
 105.4291672  10.8423328  87.5695705  41.2460470 135.5480213  90.9289837
  41.8923235 135.2750177  90.2778053  40.4780293 135.7965905  90.4146004
   2.7238581 101.8855829  69.0943050   2.7314401 100.9320087  69.0113831
   2.4540187 102.1989317  68.2310390  69.8893595  27.9597878  96.5867710
  68.9356947  27.9625225  96.5046120  70.1744127  27.2247529  96.0439014
   7.4897027  19.7037864  66.0485935   6.7059714  19.9826670  65.5750751
   7.1833426  19.0077376  66.6298819  78.0972433   4.2052263  66.3641644
  77.3524666   4.3501970  66.9477034  78.1418324   4.9989453  65.8310080
  17.3908687  33.0257654  80.9689045  17.2452116  33.2755327  81.8813896
  17.1492589  33.8036537  80.4661655   5.8468091  12.9296446  86.5095901
   5.6190294  12.9700613  87.4384212   5.2835131  13.5838616  86.0961533
  27.6244140 134.9829383  61.6389656  28.3593845 134.5763547  62.0980310
  26.8467903 134.6146519  62.0583677 122.7739980 139.4707091  71.5832996
 122.3762820 139.5726360  70.7186270 123.1678126 138.5984773  71.5644836
  29.3003845 135.0692243 101.6061783  29.7320986 134.2555828 101.3457203
  28.4632301 135.0553114 101.1422729  47.3347521  49.4244051   0.3577844
  46.5525627  49.9657965   0.4641095  47.0101261  48.5246897   0.3946344
  43.7556076  37.1648884  86.1338997  43.5322285  36.2530804  85.9469891
  44.1992521  37.4698758  85.3424454 104.7497959 137.5576962  74.1429710
 105.0002152 137.9464812  73.3048964 104.1021318 136.8911774  73.9138031
  52.7239895 124.1228838   8.5663549  52.1635151 123.3484406   8.6146871
  52.5181389 124.6174068   9.3596402  55.7023764 131.5320868   3.4330598
  56.3946581 131.4484877   2.7773229  55.7922840 130.7498367   3.9773313
  12.4949324  47.5585842  99.6261215  13.3541572  47.9525042  99.4751549
  12.6070559  47.0364714 100.4205132  45.5612135  24.7882533  23.9972822
  45.3749752  24.8536468  23.0606500  46.4700985  24.4911313  24.0405790
   5.2653533  23.2951283  61.6396379   5.6382036  24.0183187  61.1354399
   4.4611126  23.6541271  62.0145369  30.9468436  36.2718821  96.8625450
  31.5214467  35.5799818  97.1901703  31.4490604  36.6887712  96.1623859
  66.1116219  17.2509575 109.5315170  65.2054834  16.9547570 109.6175861
  66.1240864  18.1096625 109.9542522  24.9364376 128.2592923  53.7980270
  25.4461575 128.8038237  54.3979454  24.2447376 127.8847963  54.3434954
   6.7833799   6.9604737  71.6781044   7.6908308   6.8731076  71.9698763
   6.5215528   7.8342378  71.9683027  96.8376202  28.4602213  67.1291924
  97.0778222  28.2397199  68.0291414  96.3239593  27.7108049  66.8279266
 116.5091307  28.3711743 105.9543037 117.2794432  28.5214663 106.5022659
 116.3102467  27.4420810 106.0703373  16.8528318 146.1232031  75.8514166
  17.2704625 146.3464215  76.6832781  17.5635540 146.1532300  75.2109480
  63.2138443  46.2799120  73.4742165  63.5113144  45.8255625  74.2624521
  64.0059137  46.6794682  73.1147528  19.8146558  12.9329681  59.2848587
  19.6856999  12.7759576  58.3494711  20.3267026  12.1821547  59.5853901
  45.4391003  25.5923700  87.2905064  46.1076450  26.2104535  86.9951248
  45.9329414  24.8236465  87.5758457 116.0333419  15.2143204  60.3151274
 116.5079261  15.8247232  59.7508478 115.1097948  15.3939486  60.1389790
  37.9272962 106.9424863  82.0005989  37.9842758 106.6969890  81.0771751
  37.0086145 107.1783895  82.1294689  16.5690422  18.8252747 103.4419250
  15.7972574  18.8002968 102.8762722  16.2357914  18.6045766 104.3116760
  40.8266830  20.0862432  55.0732517  41.1894798  19.7779930  54.2428350
  40.8168793  19.3099737  55.6332016   2.6962721 121.7920298 100.1722431
   2.6011887 122.7285285 100.3459167   1.7980802 121.4705677 100.0938606
  14.9969518  17.8213000 105.3880119  14.5138085  17.6434767 104.5810509
  14.6173871  17.2226655 106.0312843  23.3328271  28.8269305 108.6798191
  23.9599967  28.1472874 108.4328842  23.8151765  29.6471477 108.5758209
 123.3823921 119.8070211  58.9667940 124.2915911 119.6371908  59.2132616
 123.4050219 120.6659789  58.5449982  39.6154547 137.2898806  76.3747978
  39.6615458 136.3448746  76.5199566  40.2823639 137.6543922  76.9566917
  22.7317572  16.9957685  49.5833635  22.2832179  16.3360000  50.1122808
  23.6624002  16.8377197  49.7419786  46.0654163  28.3613253  90.1316071
  45.6024122  27.7573442  90.7121754  45.4770279  29.1116977  90.0481129
  26.8469214  22.8299570   5.8361760  27.4982738  22.2242117   5.4825631
  26.7954206  22.6100516   6.7663518 123.5054224 145.8859076 100.1711941
 123.2417542 146.6160835  99.6112347 122.9982818 145.1411098  99.8482132
  32.0054674 134.9907930  77.0037413  31.0656095 134.8489291  76.8907261
  32.0933819 135.9377129  77.1125793  36.5714073  36.7407894  42.9922628
  35.9072375  37.2487164  43.4582233  37.1307755  37.3990870  42.5799704
  33.1435013 138.1800772  42.3166895  33.0132389 138.1776095  43.2649803
  33.9386177 138.6966140  42.1854973 108.2323141  32.8213406  85.6636238
 108.0238659  32.7432537  84.7326660 108.3017475  31.9172192  85.9701824
  11.9354665  41.8402767 109.7999096  12.7519488  41.3770866 109.9871063
  11.4338124  41.2317324 109.2574692  21.1160707  25.2877045  81.5440845
  20.6152654  24.4845700  81.4012527  20.4523325  25.9585881  81.7040920
  50.9528589  18.1440580  84.5871353  50.5347347  18.5117865  85.3657150
  50.7190037  17.2160435  84.6053982  39.8602486  14.2607117  96.6464520
  40.0936651  13.4424865  96.2079906  38.9081860  14.3140328  96.5629864
 104.1720027 131.3924689  52.1724463 104.6972532 132.1202750  52.5050783
 103.4466071 131.3176055  52.7924681  38.4292865  15.0635302  85.5982685
  37.9305124  15.6667280  86.1492729  37.8876328  14.2755389  85.5545139
  45.2992201   2.5971675  72.9454041  46.0172844   3.0248854  73.4119558
  44.9496746   3.2767290  72.3689938  29.9665761 137.2301109  36.6221023
  29.4166112 136.5114284  36.3102293  30.8490396 136.9999845  36.3313532
  26.2512064 139.7833825  49.3038225  25.9188914 139.4385947  48.4750175
  26.6089916 139.0187866  49.7550583 111.1579508  27.4272871 105.2705956
 110.6910331  28.2624960 105.2451897 111.1203439  27.1043754 104.3702984
  45.8549976 145.8548325  87.9439545  45.9093237 146.7923913  88.1290531
  45.5533457 145.8068854  87.0367908  27.9561448   9.1093200  87.4920082
  28.3944035   9.1871023  86.6445923  28.4405828   9.7013086  88.0674171
  23.6520743  14.9812376  72.5627470  22.8458309  15.1513505  73.0498457
  24.0546465  15.8432484  72.4573708  30.4697847  36.3106871  60.5336285
  29.7629619  36.4583921  61.1619711  31.2317538  36.1034203  61.0746241
 121.3110084  26.1371994  82.6739025 120.6113357  26.1645174  83.3265495
 121.5751589  27.0510626  82.5675488  41.5047836 126.5198404  68.9736032
  42.1927834 127.0032770  69.4309616  41.6880989 125.6007118  69.1681051
  53.4709167 116.3143582 105.2962303  53.1372213 116.1513323 106.1784458
  52.8346825 116.9139952 104.9065208  58.9499378 126.8750364  32.3224870
  59.4521284 126.4769239  33.0334989  59.1128826 127.8141243  32.4107686
  19.6030915   6.9309181  90.7171440  20.4265547   6.4429444  90.7124901
  19.1689837   6.6604668  91.5262413  41.3172197  13.7593961  51.2247133
  40.9815311  14.0087581  52.0857382  40.5414200  13.7287390  50.6648684
  14.6702921   3.2393849  76.5024233  14.5752907   2.8829789  77.3856974
  14.1989052   4.0720695  76.5281534  17.4548912 146.4031191  51.0440922
  17.0118308 147.2171969  50.8049107  17.0583737 145.7397633  50.4793215
  44.2535448 146.4039546  65.9290171  43.5377264 146.9956960  65.6973410
  43.8174582 145.6153776  66.2518263  55.9747458  25.1256537  75.5623436
  56.5090942  24.3358517  75.6455231  56.1513805  25.4421282  74.6764135
  39.0777540 140.3292526  82.9320431  39.7130919 140.0937433  82.2559452
  38.5680032 139.5309419  83.0702019  15.6299913  11.5609419 106.8930626
  15.1138306  10.8211565 106.5728569  15.3131866  12.3102164 106.3886261
  72.7764702  24.3877769  85.0790310  72.5989008  23.5862422  85.5712223
  72.5562668  25.0949287  85.6854057  56.9199610 143.3714257  82.0473385
  56.4418077 143.2198066  82.8625774  56.2396955 143.4158806  81.3754082
  14.1886353  16.5695548  78.7727308  14.6420479  15.7759416  79.0570307
  13.2943690  16.4637840  79.0972805  10.4248095 144.4803558  88.0822182
  10.7826304 144.4797828  87.1944141  11.1790967 144.3041770  88.6445808
  52.8733730  24.9403858  91.3230038  52.7613258  25.7016635  91.8923283
  52.5202990  24.2087126  91.8291855  16.2692857  15.1971424  72.2122049
  17.1283054  14.8432183  72.4425459  15.6672966  14.4629383  72.3338032
  33.8749218 121.9522900  21.7010347  34.6853018 121.8106479  22.1903745
  33.4053898 122.6185150  22.2029439  51.4793539 132.8882117  53.4827328
  51.3731146 132.1469731  54.0789795  52.0980692 133.4670717  53.9280939
  23.4544420   4.6618065  62.0293999  23.3848572   3.7257290  62.2168779
  23.3122158   4.7281817  61.0851574  28.5167122 114.6353812  57.9262400
  29.4674683 114.7461552  57.9210424  28.3245516 114.2552609  58.7834501
  47.0016861 146.3023829  92.6852894  47.4989367 146.9019626  93.2415962
  47.3552942 145.4367793  92.8900433  24.0030169  13.4768200  77.9903173
  24.9142385  13.3328283  78.2456112  23.8374710  12.8208327  77.3131847
  19.0474093 103.8562269  64.5758009  19.1289246 102.9040117  64.5221996
  19.7631264 104.1258592  65.1513720  18.5565114 127.4266679  96.1306381
  19.3892634 127.1857829  96.5365124  17.8928864 127.0082099  96.6790295
   5.8982009  22.7848148  84.2679405   5.2192020  23.0745053  84.8772621
   6.4392871  23.5614395  84.1254139  71.5393066 138.9216627  62.9946995
  72.4319506 138.9794088  62.6539898  70.9996319 138.7460447  62.2238922
  22.5432491  21.7678118 106.7083454  22.6474118  22.5249767 106.1320782
  21.6349387  21.8167853 107.0063496  38.7546825  13.9235282  79.0059185
  39.6094465  14.0115666  78.5841846  38.8997459  13.2938457  79.7121000
   9.4553369   9.1513705  97.5048637   8.9654863   9.2606437  96.6897964
  10.0326991   8.4060848  97.3392296  60.7850218   6.5835661  84.4119740
  61.2423468   5.7647932  84.6035385  60.3092718   6.7863017  85.2174473
  83.0661458   6.1503947  68.8874769  82.8600950   5.2637124  69.1833973
  83.2933301   6.6233456  69.6880627  27.0702076 134.7174508  67.8339720
  26.8857455 134.3156500  66.9849968  26.2245250 134.7291917  68.2822037
  50.9929705 141.4971719 100.6282139  50.6933069 142.3877166 100.8108711
  51.9334650 141.5876532 100.4748917  22.7631712   6.4845014  90.7634449
  23.5303307   6.7509013  90.2567577  22.3594785   5.7918280  90.2405071
   3.7811676 132.7901060  59.7210550   4.2725393 132.5009889  60.4899502
   4.4100082 132.7376814  59.0013075   6.8067044 108.4846611  93.0362415
   5.8909708 108.2183928  93.1184959   6.8350536 109.3643827  93.4124374
 117.3589904 138.6470682  83.2395554 118.2334531 138.4310485  82.9156971
 117.3469890 138.3143509  84.1369915 115.9825892   4.3609017  86.5475464
 115.3827674   3.7456390  86.9693279 115.5391193   4.6099856  85.7366657
  39.7287560  38.4024930 101.9024372  39.8670697  38.5401487 102.8395367
  38.9161372  38.8699245 101.7090702  21.2699294   2.3456296  55.5214643
  20.5715799   2.2906737  56.1737823  22.0774913   2.3541476  56.0352707
 124.2846140   5.4964745  63.4116602 123.8419247   5.5371481  64.2593670
 123.7332205   4.9216434  62.8808451  49.1597176 138.9491219  63.7163830
  49.1207981 138.4391988  64.5255136  49.5202208 139.7947169  63.9832830
  34.5597577 127.3535783  34.7931433  34.3479919 126.6930992  34.1334796
  34.6184587 126.8630345  35.6129909  31.2505722  36.2009239  35.6509566
  31.6162777  37.0283151  35.9638739  31.9885302  35.7547903  35.2354860
  25.4205894   8.1450194  47.9707766  26.2176585   7.6274437  48.0849218
  25.1552510   8.3756912  48.8610649 118.6161221   8.6958605  34.4240999
 118.5552705   7.8071272  34.7743607 119.5490242   8.8215369  34.2505169
  28.4342337 126.5591557  73.9582443  28.8637233 125.7427258  73.7028742
  28.8805699 126.8231029  74.7628212  17.9523087   5.0343972  52.6019430
  17.2246075   4.9794596  53.2213497  17.6814806   5.7031667  51.9729519
  18.2461715 141.5630020  55.0923014  18.3365750 140.7340289  54.6223402
  17.3239446 141.7976046  54.9889088  39.2695761  12.9420877  87.8326988
  38.5050273  13.0270720  87.2630787  39.2493296  13.7274611  88.3795261
 116.2768013  23.4430885  48.2385254 115.3487236  23.2284832  48.1444597
 116.6854174  23.0908632  47.4478292  24.1906214  26.2881255  56.8195534
  25.1053452  26.3197899  56.5393543  24.2251778  26.4259219  57.7661514
  47.5290966  17.8889537  80.6752205  47.3240805  18.7283874  81.0869884
  48.4168243  17.9996586  80.3347588  51.7918348   9.1494375  75.1180983
  50.8771181   9.0092242  74.8734236  51.7555857   9.4201165  76.0355139
  27.3382640 139.2844469  89.2986012  28.2689118 139.3488307  89.5130253
  27.3070264 138.7015153  88.5400200  15.7881117  25.0742412  55.1744699
  14.9510467  25.5383754  55.1629019  15.9145427  24.8311639  56.0916185
  13.7445915  61.5508461  34.3013239  13.1235909  62.2221231  34.5841217
  13.3680594  61.2012148  33.4937263  16.1053181 139.6512259  75.8553219
  16.2528491 140.4782958  76.3140440  15.8164120 139.9107910  74.9804592
  27.8995991   5.9906280  59.2554760  27.5850439   6.8898338  59.3488359
  28.3477926   5.9802580  58.4097528   6.4598727   1.5621470  64.2521238
   7.1420246   0.9794073  63.9184856   6.9326425   2.2094430  64.7753143
   7.8448576   8.2399184  28.1467032   7.7512598   9.1924149  28.1318283
   8.6060202   8.0827463  28.7054181   6.7947048  26.9691396  49.4134998
   6.8549371  26.1573720  49.9171257   5.9835106  27.3783016  49.7148037
  53.8164425  22.3989224  65.2705669  53.1842422  23.0137563  65.6427622
  54.5732594  22.4508524  65.8543205  28.7811685 125.6339783  60.1961946
  29.5904517 126.1381073  60.2807188  28.2250786 125.9527106  60.9071159
  16.5372980  61.0977888  56.0040855  17.3523474  61.1797047  55.5088949
  15.9051263  60.7585478  55.3704405  16.8340993  22.1354556  58.0186939
  16.3306212  22.9100180  58.2692766  17.2846544  22.3925877  57.2142553
  43.6919308  27.7718949  64.4049358  44.5069742  27.3044920  64.5878887
  43.1536388  27.6284146  65.1833200   3.2041591  34.2951322  46.1036777
   2.8583038  34.7509766  45.3363323   2.6394749  33.5284567  46.2015152
 122.5134850  21.2838006  55.8512354 122.9055443  20.5122662  55.4422712
 121.7403109  21.4703560  55.3186655   5.6996000 128.3842773  56.7497206
   6.5628040 128.3484811  56.3376188   5.8621365 128.7631662  57.6135826
   3.3847508 137.6641370  72.1633387   3.6206988 138.5321976  71.8361807
   2.4591102 137.7390535  72.3953056  26.9755554  20.6759191  63.8916922
  26.3250923  20.0283456  64.1633129  26.6535568  21.0006809  63.0508089
  44.7887945 136.1745710  17.4165574  45.4714108 136.5983761  16.8963090
  45.2411556 135.8713205  18.2037298  31.6940475  19.8655593  89.9491405
  31.7132998  20.7549715  90.3024197  30.9988165  19.8840773  89.2914581
  46.0917902   1.7149690  63.3973265  46.4637661   2.3685905  63.9894772
  45.1477432   1.8690097  63.4331656  13.2248116  16.7020595  61.4473438
  12.7933383  16.2013555  60.7549858  13.3649755  16.0674345  62.1500778
  66.2762451  13.0861723  63.7745810  66.0140991  13.3419573  62.8902245
  65.4505301  12.9555345  64.2408037  18.2955980   5.0924695 109.1403103
  17.9471779   5.2803308 108.2687950  17.7222931   4.4078159 109.4849873
  32.4395132  18.1744111  93.8290405  33.3512592  17.8831494  93.8398647
  32.4895382  19.1226292  93.9499187   4.6099892  39.4785428  44.8524284
   4.7995353  38.7399411  45.4310226   4.2446727  39.0774298  44.0638304
  48.9070415  12.2762573  13.9190388  48.6889696  11.3760507  14.1605043
  48.9367390  12.2671223  12.9623437  13.0574572  17.6631689  44.2782164
  12.2063673  17.4765921  44.6745300  13.5218942  16.8265665  44.3032646
   3.1213820 145.8766034  61.1211967   3.6914605 146.2307541  61.8037081
   2.2725578 145.7687325  61.5502596 123.5953778   1.3737842  32.8048420
 123.9002773   2.2807011  32.8325915 124.0168688   1.0030122  32.0295334
  35.1716614  14.9670148  88.1819725  34.6371436  15.7604003  88.2145405
  35.9045863  15.1953077  87.6101875  18.5035563 135.6257660  84.9674988
  18.4895575 135.8057649  85.9075165  19.1961884 134.9741084  84.8587036
  26.6545177  18.2431614  55.4920435  25.7576084  18.2295787  55.1579714
  26.5780115  18.6205900  56.3683605  36.8729043  47.3697329  99.2216015
  36.8413544  46.9921494  98.3425903  37.7918172  47.6061249  99.3478966
  35.3878546 140.4154278  65.6153059  35.1565766 139.5629812  65.2464199
  36.3273335 140.3546316  65.7882690  81.5966339  16.1015785  56.3636971
  80.6788463  16.2132406  56.1158466  82.0691604  16.0849285  55.5314255
  53.2905006  48.0662346  44.9396181  53.5135555  48.5904121  44.1703892
  53.0692434  48.7102270  45.6123352  46.2231159  10.0871253  50.8528280
  45.3889799  10.5209422  50.6732559  46.7563486  10.2630579  50.0776243
  16.7240119  27.5646162  83.1584358  16.5698266  28.5022688  83.2736206
  17.3092270  27.3279524  83.8779831  41.5071964 132.3094351  85.9910202
  41.1897135 131.8175823  86.7483330  40.8725691 132.1207900  85.2997208
  29.8724484 139.0504981  34.6634523  29.9591899 138.5850132  35.4953328
  29.0360665 139.5108295  34.7326509  44.4364166   1.5499280  40.2375412
  45.3917551   1.5923291  40.2794981  44.2393064   0.6137236  40.2075100
 106.6411967   3.5073754  91.0588360 107.5569016   3.7429753  90.9098148
 106.2987418   4.2126432  91.6079712  37.4769735 128.6720187  65.2451229
  38.3772993 128.5654277  65.5521774  37.1356249 127.7794821  65.1895237
  32.2177315   3.8435715  35.2426219  31.9635677   2.9440454  35.0365043
  31.6197085   4.3853801  34.7277975  45.0661182 124.2058725  41.8079090
  45.9387684 124.5688266  41.9595003  44.6451664 124.2273850  42.6673079
  48.9137793  11.4841533  65.2265263  49.3806028  12.2048712  64.8035908
  48.6515474  10.9124744  64.5049667  26.1347103  26.8762970  85.6875801
  26.0307193  25.9634590  85.9561729  26.6273117  27.2813582  86.4013767
  15.2726114   6.4070082  50.6479836  15.2952099   7.3240423  50.9214258
  16.0722363   6.2902766  50.1349497  85.4416961 130.9831483  72.0014191
  85.9335989 131.4253134  72.6933384  85.0626344 131.6944117  71.4850378
  29.2314076  13.5702872  78.9233208  29.7084951  14.0432870  78.2414913
  29.9154568  13.1919456  79.4757414   8.1633937  47.3422956  41.7250967
   8.3755684  47.5543404  40.8161163   7.9440892  46.4106989  41.7088032
  25.8385921  22.4855995  78.2336283  25.9261322  22.8630018  77.3583364
  26.2818003  21.6392231  78.1749439  43.3672857 137.0477993 101.0985756
  42.4807453 136.8531031 101.4025021  43.5334969 136.3997955 100.4139614
  20.3489327   2.6249641   5.9345794  20.8351898   3.2512724   6.4707929
  19.6550989   2.3042901   6.5107685  33.3685946   3.8933891  61.5989876
  34.1689467   3.8844758  61.0740232  32.8052282   4.5347157  61.1659145
   0.2041405  37.5959969  80.7679749  -0.5285432  37.3041916  80.2255154
   0.9512667  37.6173449  80.1699924  12.6194954 140.7408894  45.6537437
  12.5487113 141.4729644  45.0411367  13.0228448 140.0391401  45.1427746
 106.3117070   6.6106087  33.0285788 105.3916509   6.4359546  33.2266331
 106.5007753   7.4351639  33.4764552  21.9915867 143.6096869   3.0997506
  21.5340424 143.0459378   3.7235109  21.8069243 143.2204718   2.2449819
  18.1149232 129.4490559  54.6728659  17.9973328 128.5345382  54.9298954
  17.5546551 129.9405892  55.2734756  28.8473558   4.4652933  64.1627264
  29.6022916   4.0392461  63.7567854  28.3593655   4.8382398  63.4285545
   2.3462717  19.4273651  37.6816702   2.1373115  19.3806469  38.6146140
   1.6024397  19.8871219  37.2923517  15.9405351 145.4279065 100.7687283
  15.1317275 145.4652476 100.2581787  16.6107619 145.1673348 100.1369667
  35.9644103  21.7403674  77.3301888  36.2701702  20.9826994  77.8288698
  36.3717985  21.6410184  76.4697266 122.5328696  32.8308058  44.6742439
 122.1990577  32.0027733  44.3290424 122.2847978  33.4814811  44.0175009
   8.9839673  14.2917967  70.2736092   9.8740435  14.2270744  69.9274778
   8.9679372  15.1284873  70.7382870  17.5233305   8.5880601  81.8638802
  17.6162744   8.6039007  80.9113312  18.2203937   8.0041587  82.1628666
  42.3133659   6.2528044  56.5086412  41.9951057   5.6158477  55.8689308
  43.2487202   6.0656315  56.5880442  60.9590101 139.2246521  46.6886282
  60.1689959 138.8606746  46.2890863  61.0617828 138.7354178  47.5049114
  39.8957682  73.2265329  36.4112043  40.6670904  73.0207253  36.9393516
  40.2511644  73.5161543  35.5709410 112.3431677  17.7181709  68.0878305
 112.0233900  17.4281502  67.2335100 111.5967137  18.1689930  68.4825420
  41.2842607  10.4765189  35.8131742  41.1285734   9.5390952  35.6981516
  40.6649160  10.7404542  36.4936042  29.2442131   0.6168209  77.4198961
  30.0809860   0.4392017  76.9903660  29.4199491   0.4831233  78.3512783
   6.1005008 145.6668838  78.8831425   5.7294434 146.5344987  78.7225437
   5.9426028 145.1848508  78.0713892  40.5284595  17.9358935  85.6899929
  41.4341354  17.9199994  85.9994030  40.0638580  18.4675801  86.3362789
  21.1230874  18.8910174  65.4796505  20.4473042  19.5129478  65.2099276
  21.0855365  18.1964183  64.8221159  46.0799122   9.5395249  29.4163966
  46.9312143   9.3886447  29.0056038  46.0445833   8.9067060  30.1337004
  51.8647718  36.2895679  64.2002392  51.7244577  36.7112875  63.3524799
  52.1221828  37.0037079  64.7833157   1.3484220 119.4708390  59.3211174
   2.1054484 119.0330166  59.7102880   1.3135321 120.3220553  59.7575188
  27.4478197 140.7458598  97.7590847  27.8993201 140.8390010  96.9202232
  28.0494618 141.1271233  98.3985424   9.4840366 144.3369686  50.8578920
   8.5388601 144.3927466  50.9984684   9.5972979 144.5041184  49.9222279
  40.2050257 133.6366589  68.7915325  39.9118781 134.5478494  68.7863064
  39.6713567 133.2095189  68.1214714  15.1117706  48.5475826 100.0512409
  15.8514977  48.8199902 100.5942249  15.5015028  47.9901695  99.3777180
  32.3555374 139.4916893 107.3902893  32.7818203 139.8185463 106.5980244
  32.8190064 139.9242074 108.1074715   6.6695940  20.5037165  56.6089582
   7.5643861  20.6616187  56.9100332   6.3530469  21.3650060  56.3365459
  67.9492617  35.9671974  89.0348339  67.0118761  36.0543728  89.2078590
  68.2970238  35.5319238  89.8131847  21.4985037   5.2949929  72.3120260
  21.1050630   6.1671227  72.2833061  21.3883734   5.0123352  73.2198858
  17.9722273   0.6293181  91.5602207  17.1065724   0.2715898  91.3629913
  17.8027284   1.5323135  91.8287373  57.1193457 129.3104310  49.0363121
  56.8965769 128.4501667  49.3920517  58.0559444 129.2558975  48.8464832
  49.3799305  19.0000463  53.9975977  48.9258099  18.2867873  54.4462252
  49.2451668  18.8218486  53.0668354  25.6263089  27.2817206  79.1327858
  25.6479263  27.5749421  80.0437069  25.1308203  26.4630818  79.1563797
 112.0597655  36.4868188  45.3394651 112.8452451  36.0456061  45.6628609
 111.3521201  35.8616376  45.4963732   9.3725383  14.5909059  32.5748587
  10.2295732  14.2126930  32.3781919   8.8006842  13.8342071  32.7037859
  61.1658239 125.2954096  49.7014380  61.9866180 124.8181076  49.5801592
  60.9902430 125.6907577  48.8475609  58.3970118   0.5204171  59.3057537
  57.9853535   0.9988388  60.0253963  59.0204191  -0.0663600  59.7338772
   2.9569218  11.4567935  56.5063334   3.1536955  12.0938396  55.8195400
   2.1144417  11.0813010  56.2504721  21.7961764   2.2383854  47.3201227
  20.9605742   1.8820706  47.6218462  22.3553300   2.2283489  48.0969620
  20.6739640   9.8561275  55.7812548  20.9853601   9.0628964  55.3453064
  21.3771963  10.4924428  55.6516504  22.1172118   4.2258465  41.7460203
  23.0449367   4.2074940  41.5110254  21.6826463   4.5950168  40.9771919
  27.9309058  18.3420181  81.2610531  27.0056772  18.5839748  81.3015747
  28.2238269  18.3620358  82.1721077  16.2306166   1.7517816  61.6166592
  15.4096889   1.4762618  61.2087393  16.8441927   1.0432345  61.4224529
  38.1707621  22.5739360  40.0847387  37.6603222  22.2062206  39.3633032
  37.9805446  22.0022273  40.8285093  21.7514634  17.9209816  62.9751968
  21.2879014  18.6851418  62.6325607  21.8832183  17.3586345  62.2118902
  29.9499726 132.9221470  66.7840862  30.4057360 133.4281535  67.4567461
  29.0615606 132.8167863  67.1244669   6.1530030   1.1199372  58.9374542
   6.3496757   0.3634345  59.4899511   5.4692763   1.5922099  59.4125414
  23.4862399   8.3701497  45.8832788  23.5462165   7.5576675  45.3807735
  24.0937018   8.2461274  46.6125488   0.6590740  27.3161817  52.0977402
   1.2843147  27.6701975  52.7301836   0.0693912  26.7739940  52.6217079
  90.5360956  32.0353484  73.0140209  90.0645060  31.2027860  73.0399990
  90.7539219  32.1585035  72.0901060  58.1213188   4.9600223 101.0080719
  58.5137320   4.4268560 100.3167152  58.8564444   5.4452598 101.3827324
   4.3903896 122.7770991  90.6414032   5.2455592 122.5249667  90.9897423
   4.1385323 122.0483989  90.0741291   8.4682101  48.5932779  39.0536165
   7.6678902  48.9812469  38.6997843   9.1756892  49.0251637  38.5748887
  15.6712043   5.6026834  92.0275402  15.6601012   5.8950889  91.1161613
  15.0384760   4.8850173  92.0565414  29.3801117   0.4618636  35.1803851
  29.8354936  -0.2053089  34.6668267  29.5194793   1.2746769  34.6944404
  22.0030451  24.7478294  55.8832359  22.8022742  25.2493238  56.0443830
  21.7758608  24.3785214  56.7366028  35.2438712 125.3684444  30.3370523
  35.6631136 124.5907731  30.7054210  34.3646049 125.3684373  30.7153702
  45.7180405  36.8394732  43.3765173  45.6954241  36.9234872  42.4232817
  44.9752951  37.3610926  43.6806202  17.3809206  15.2446425  31.1221027
  17.7346504  15.2139437  30.2331924  16.5282285  14.8148537  31.0555410
  56.4787817  19.3005419  41.6284227  57.1730661  19.4071817  40.9781694
  56.0342979  18.4919405  41.3738012   4.0487429   6.2441868  38.1740379
   3.8840979   5.4166752  38.6260867   4.7603774   6.6500735  38.6690784
   3.4013113   5.5454874  85.8043385   3.7242955   6.3761175  86.1535740
   2.5213394   5.7457751  85.4853344  17.1756971  30.2483988  80.8115959
  18.0090535  29.9915504  81.2062836  17.2359252  31.1995435  80.7225323
 123.5481398 122.2261376  33.5009050 124.4495477 122.4136586  33.2391214
 123.6127541 121.9818158  34.4241405  37.4961329   5.9972805  65.3907442
  37.3119283   5.0868607  65.6219101  36.7069101   6.4740413  65.6477642
  19.8003852  30.0788498  81.4672565  20.3944159  29.4596267  81.8914318
  20.3443503  30.8445501  81.2827682  29.1709280  11.6157830  38.1123543
  28.5491753  10.9859824  37.7476549  29.9742913  11.1117244  38.2418394
  30.5396104 137.8837831  75.8395433  30.7413626 138.4856434  76.5559864
  31.3950419 137.6031596  75.5143976   4.6001294 143.7360827  87.2836876
   4.6410811 142.9585407  87.8404522   4.8860309 143.4297500  86.4230824
  38.4746027  29.9207306  71.8978405  38.5235715  29.9925447  70.9445953
  37.6562452  30.3599405  72.1293974  14.6840608   3.6794648  94.3252087
  14.4401765   3.5344547  93.4110260  14.0106642   3.2215434  94.8282719
  39.8638296  26.0179400  37.1243024  40.5418873  26.4863706  37.6111746
  39.4761825  25.4227424  37.7659416  33.7800670 146.3365775  67.6184797
  34.1311479 146.0583066  68.4643745  33.2613444 145.5906037  67.3173428
  69.4271088 118.5857863  65.2409601  68.5375929 118.9219279  65.1314068
  69.9480867 119.0748114  64.6040392  14.9756181  15.5496299  88.6548042
  14.2819130  15.2190614  88.0840778  14.5808721  15.5662906  89.5266533
   5.9468067  33.1243873  46.4439249   5.0561827  33.3918333  46.2170029
   5.8337897  32.4956083  47.1567345  71.4964867   3.1405255  46.4115000
  71.1651850   2.2477680  46.3142586  72.4321604   3.0315882  46.5814447
 117.4199033  38.3435154  79.9024963 117.4103267  38.3546853  80.8595848
 116.5598590  38.0015445  79.6583414  24.5678282 132.7703674  59.9773550
  24.7286797 132.0691056  59.3460131  24.8176455 133.5705752  59.5153046
  18.6345112  10.6502235  10.6605474  19.4948542  10.5870903  11.0753480
  18.5715520  11.5623724  10.3772584  17.6341915  17.5991309  66.1017847
  18.3886731  17.7001441  66.6821146  17.1809375  16.8230200  66.4310932
  33.3703399   0.6142057  44.3041611  34.1750884   0.1028303  44.3884611
  33.6564922   1.4533722  43.9434004  14.0845954 135.7163698  87.5147915
  14.6074307 135.9383328  86.7443371  14.4124365 136.2965007  88.2019615
  27.0857596  29.4670081  71.4626408  27.0681095  29.2930126  70.5215549
  26.9499087  30.4118204  71.5341187  17.9650700 135.2159829  74.3025970
  17.7225304 134.8128302  73.4690094  17.2179568 135.7708234  74.5266628
   5.6865531 141.2908197  59.6708250   5.4977632 142.2039072  59.8872995
   4.9892581 140.7940740  60.0989056  47.0737171  22.9806709  62.2749567
  47.2881031  22.1034288  62.5923157  46.2625837  23.2081890  62.7294111
 120.2075253  20.8898377  51.8614626 120.6413073  21.4688420  52.4882174
 120.9113485  20.3409934  51.5155792  17.1934390   6.8633080  75.5357075
  17.4873435   7.6398706  75.0594711  17.0534563   7.1703821  76.4314413
  21.6328168   9.3335032  91.0663033  22.5699854   9.3808204  90.8773422
  21.3372159   8.5425633  90.6154537  29.9134398  25.7358432  82.3984909
  30.6187820  25.4327798  82.9702282  29.3877339  26.3132238  82.9521179
   2.1127994 127.6547713  63.6895990   1.5512753 128.4223337  63.5811043
   1.9804688 127.1461911  62.8895569  66.4927912 132.4693138  67.1727324
  67.2429943 132.1466572  67.6720524  66.8788481 132.8813011  66.3997793
  22.8362179  36.1057186  48.5551739  22.9655600  35.6009746  47.7522230
  22.3359609  35.5229473  49.1264486  46.4760017   6.6802740  94.5630932
  47.0683384   6.6974866  95.3148079  46.7068863   5.8781618  94.0945435
  26.3659954 135.1580960  80.8841896  25.6014943 135.7095380  81.0505772
  27.0230603 135.7591803  80.5331993 117.8857923 141.8281964  92.6442432
 118.3791423 142.4330811  92.0902157 117.9335231 140.9896786  92.1850777
 124.2384986  31.2847900  38.1780648 124.6057999  30.4016161  38.1416368
 124.8332365  31.7680645  38.7516165  26.3825178 127.9533417  65.5558538
  26.0891819 127.8294713  64.6531677  26.4703321 127.0656819  65.9031010
  15.8893859 126.2136359  74.2530537  15.0832593 125.7715697  74.5194578
  16.2958360 126.4867158  75.0755262  26.9730783  15.6269515  71.0007286
  27.1510601  15.3821611  71.9088173  26.9781470  14.7971654  70.5235863
  21.5662789   0.2143389  60.6273556  21.2794352   1.0194787  60.1964235
  21.1741138   0.2566743  61.4995050  22.7107859 132.8735168  56.6982174
  23.1011009 132.1130545  57.1290112  22.4645948 132.5563879  55.8292818
  35.1212406  13.6238909  72.2315884  35.8088160  13.4062588  71.6022158
  35.4956222  13.3978212  73.0830383  71.2199402  29.7293925  60.4788589
  71.7026424  29.5275903  59.6772957  71.2370443  28.9142799  60.9803867
   1.8117923 134.6231146  63.4432125   2.0400153 134.0610022  62.7028275
   1.0228999 135.0848348  63.1591463  31.6161847 142.9446004  76.4149046
  32.2719216 142.5959993  77.0188189  31.0094571 143.4297679  76.9741201
  21.3248658  41.9519520  75.1981497  21.9910836  42.2218323  75.8302450
  21.6392565  41.1124611  74.8625231 119.8403451  13.4086967  32.4840808
 119.3198771  12.6642466  32.7859735 120.5259377  13.0177081  31.9424868
  84.4025344  18.9846766  74.9578571  84.7225255  19.5061886  75.6939697
  85.0944871  19.0495408  74.2996597  24.1375566  30.4068136  30.0019717
  23.8581777  31.2724566  29.7039080  24.8087740  30.5853891  30.6606150
   8.0023611  29.1039205  73.7903023   8.4236300  29.4992900  74.5534849
   7.5642532  29.8342562  73.3533812  46.9324303 138.6143888  67.9270697
  46.9341516 138.7620921  68.8728046  46.0053205 138.5662777  67.6938581
  26.5703797  25.9644270  50.7025576  26.2722206  25.0790000  50.4943466
  27.4811435  25.9857368  50.4088116  62.6937056 103.8269205  33.5038042
  62.0651102 104.4285316  33.1048465  62.3495483 102.9557008  33.3069348
  81.2981033   0.9135694 100.5551910  80.4352283   0.5397012 100.7338333
  81.6537094   1.1191633 101.4197731  19.9775064  19.4310927  52.8539944
  19.7739291  20.3621054  52.7645445  20.8683062  19.4132388  53.2038355
   1.2648515   0.4715579  55.3750372   0.7467231  -0.2996042  55.6054354
   0.9422087   0.7274665  54.5109510 112.9943020  16.5591609  47.1523380
 113.6324460  16.3806498  46.4615870 113.4199924  17.2111893  47.7090025
   0.7552394  11.1296546  48.0018616   0.0342266  11.7574513  48.0492353
   1.4653224  11.6119528  47.5783014  64.5361376   6.1759043  47.7788591
  65.4323053   6.4317572  47.5605583  64.0329552   6.9876498  47.7147722
 111.4518113  48.6296988  41.6998386 111.1154670  49.4586229  42.0404196
 112.4035389  48.7185144  41.7504215  12.7843523  52.1947813  66.7300415
  12.9275727  51.6527367  65.9542131  13.1840372  53.0365658  66.5112066
 122.2604488  12.1331167  67.7704000 122.8276145  12.8957045  67.8844833
 122.5741268  11.5022528  68.4183550  26.0320282  24.4095206  98.2683563
  25.6441855  23.8705564  98.9577961  26.9314432  24.5598912  98.5593414
  26.5957904  13.6072910  69.3627834  26.5528226  12.6532078  69.4268799
  26.2752795  13.8028657  68.4822989  66.8783236 139.6103359  35.7581592
  66.5629244 138.8918651  36.3063884  66.9662333 140.3497733  36.3596034
   8.6123019 146.5807108  28.0345893   8.7196976 145.7363027  27.5967860
   8.6875296 146.3782933  28.9671135  39.2833710  25.8640838  56.4579439
  38.7160778  26.6242218  56.5867901  39.7690535  25.7857680  57.2790480
  44.6182632 106.6000719  81.7662525  43.6710262 106.7107076  81.6841507
  44.8484468 105.9831161  81.0715485  37.6418090  14.1957784  47.8531599
  37.6563931  15.1500154  47.9269981  36.8803716  14.0096724  47.3037863
  18.3930337 135.7357545  77.2553253  19.2914617 136.0338516  77.3974466
  18.4193945 135.2911682  76.4080477  29.2726707 125.7265491  91.7130184
  28.9047670 126.5985782  91.5700531  28.7380648 125.3529639  92.4136353
  40.9214973   4.8980659  47.1396875  40.2077723   5.3748125  47.5634098
  40.7829046   3.9852431  47.3922300 115.1918990   8.5936695  31.2390256
 114.4100518   8.9550734  30.8214927 114.8531157   8.0288160  31.9335747
  15.5300641  20.7044482  87.0208931  15.6620860  19.7680068  87.1688175
  16.2369788  21.1261082  87.5094700 121.8573195  33.1254387  56.2611866
 121.2333507  32.8601074  55.5855465 122.5893923  32.5165319  56.1635494
  62.8313923  24.9364853  10.8308017  62.0913839  24.6361566  10.3031456
  63.6043787  24.6529746  10.3425920  20.0976443  36.6729808  78.8683653
  19.2048740  36.9385266  78.6477327  20.6206489  37.4650311  78.7444592
  16.1118019  10.3059280  96.3358974  15.6541836   9.9905163  95.5565834
  15.4195905  10.6640792  96.8915939 120.8225233 119.2951412  29.8465300
 120.7090337 120.1996083  29.5544791 120.0959767 118.8202138  29.4430375
  12.2446871 143.1460623  18.3172750  13.0233169 143.6183209  18.0224216
  12.4949169 142.2230182  18.2771933   2.4725193 130.0806505  14.8092580
   2.6982298 130.9731347  14.5470381   3.1943727 129.8075683  15.3754616
 124.3165850 137.5404079  68.0430794 124.1924256 137.3156942  67.1209526
 123.9058292 138.3998156  68.1375790  23.7537050  35.5400920  35.6734967
  24.5931005  35.9279084  35.9209752  23.3373594  36.2022066  35.1216865
  34.3063307  24.0848565  81.8727875  35.1065683  24.5582294  82.1003246
  34.6011853  23.1949139  81.6796780   9.5243400 129.8929412  43.8216734
  10.2307868 129.5545764  44.3718338   9.7676057 130.8030982  43.6523581
  10.3660214  14.6670628  65.8384085  11.0924065  15.1605642  66.2192678
  10.5209637  14.7028947  64.8945141   8.6400574 143.4529171  41.7347717
   8.0190277 143.7421952  42.4032545   8.1911993 143.6144627  40.9049129
  25.0618386 121.9538016  50.4303074  24.7942495 122.0798225  51.3406610
  25.5849266 122.7286834  50.2249575   2.4593151   7.8231263  57.5613022
   3.1118384   8.3445704  57.0938158   2.5135690   6.9558018  57.1600103
 119.3133057  28.8028455  56.0723066 118.8580675  29.2576885  56.7809010
 119.7809888  28.0897117  56.5069818  53.6657476  25.8833456  49.6438122
  52.9327440  25.9757733  49.0352154  53.5801983  24.9944901  49.9885607
  36.3387680  14.0312636  45.0277090  35.4077840  13.8624537  44.8827934
  36.4011502  14.9837303  45.0994587   9.0761822   7.3433584  42.4671078
   8.1702542   7.3646468  42.7754498   9.0752429   7.8922457  41.6829205
  24.9246049  15.8970118  57.2832489  25.5666494  16.5670490  57.5178957
  24.1213346  16.1691558  57.7270126  36.3115549  24.6560836  54.2683077
  35.7718253  25.4438782  54.2026806  36.2894964  24.4273639  55.1975203
 118.0096925   8.5378557  54.6741152 118.0261720   7.5866425  54.5685005
 117.3960126   8.8424629  54.0056515  18.6409080  15.8088470  47.8522396
  18.4134388  15.0962532  48.4494829  18.3805919  15.4895258  46.9882393
   8.3517271  20.4602242  24.7155404   7.6869607  19.7887552  24.5624089
   7.9566669  21.0453725  25.3618813  37.7805400   1.1817277  48.5159969
  37.2041392   0.5761289  48.9820910  38.5780621   1.2081107  49.0446663
  12.6560068 144.9950718 104.1260910  12.1381652 145.7552754 103.8612080
  13.0401695 145.2477070 104.9656296  98.9016170 124.7402043  73.2810545
  99.4325990 124.3581052  73.9798307  98.1353468 124.1694922  73.2231617
  45.3057432  24.1585779 100.7225037  46.0387278  24.7538805 100.5657101
  45.2938795  24.0381670 101.6720200  22.5107288  14.6774483  42.0108891
  22.5138521  14.1511452  41.2113714  21.5833640  14.7930145  42.2179413
  12.5084949  23.0912781  26.9864202  11.9223154  22.7825046  26.2955618
  12.4196100  22.4418306  27.6839519  21.7860293 132.5034053  41.7815971
  21.2263775 132.9995579  42.3789692  22.4223757 133.1433088  41.4625025
  10.6176233 116.0254068  38.7432933  10.4817617 116.4573736  39.5866060
  10.6592703 115.0930113  38.9557457  13.5716176  14.9837255  43.3842754
  12.8172910  14.6454024  42.9018211  13.8609266  14.2475736  43.9233589
 119.0090991 131.1939270  30.0403452 119.7238917 131.8303258  30.0576353
 118.5082484 131.4175410  29.2558837 112.6986594 131.6417844  25.8042479
 112.1414632 131.9592757  26.5148568 112.5357539 132.2491021  25.0825429
  44.0424633  16.5299332  58.0560255  44.1054201  16.8218911  58.9654350
  44.6724129  17.0755315  57.5851583  59.7883987 117.7246208  52.3277903
  60.5022240 117.1301455  52.0969629  60.1091862 118.1972189  53.0958891
  24.7443461   9.0474480  50.6725693  24.7061634   9.2705005  51.6026306
  24.2006969   8.2637793  50.5916929  21.2947869   0.6950959  39.8920107
  20.9688950  -0.0749546  39.4261265  20.5061531   1.1321485  40.2133751
  42.4450064   9.3980551  44.0689659  42.8952026   9.0342569  43.3065987
  42.2840691  10.3129423  43.8380718  56.2818050  21.3132143   6.5752429
  56.3782358  22.1573925   6.1344510  56.8813992  21.3619113   7.3197860
  27.2133517   3.5310820  25.2464628  26.4026690   3.9838669  25.0140619
  27.5445151   4.0082031  26.0073304  17.0167482   5.2585441  16.8347442
  17.7468991   5.6045568  17.3479569  17.3973060   4.5381638  16.3322914
  26.8298435  10.8590841  68.8095188  26.1179900  10.2283847  68.7012863
  27.3442292  10.7798684  68.0061722  44.3420601 113.0602498  33.0758047
  44.8050165 112.4800725  32.4714065  43.7158442 112.4904794  33.5223985
   3.1995353 128.5906226  49.9112463   2.7548215 129.2465586  50.4480934
   3.2472289 128.9858813  49.0407705  20.5683374 145.8261787 101.1610699
  19.9225891 146.3611648 101.6226292  20.8258724 146.3581097 100.4081059
  39.0408206  28.9977169  41.2634087  38.3609986  28.8670993  40.6023407
  39.2327237  29.9348021  41.2277079  33.3068013  21.5148878  81.3113117
  33.5134125  21.9086123  80.4636574  32.3545575  21.5826297  81.3811398
  19.4275224   6.9353557  34.1139221  20.3108120   7.1441180  34.4179773
  19.5625448   6.3419443  33.3750963  35.5887938   5.9760273  42.4213457
  35.6441855   5.1119757  42.8294849  34.8915601   6.4232439  42.9010248
  33.2428336  21.4218497  55.2482748  33.7396598  20.6108069  55.1405525
  33.1990504  21.5518808  56.1955881 100.5330700   7.1004695  82.1374607
 100.3375906   8.0284333  82.0074463 101.1698265   7.0876598  82.8520298
   8.9633816 129.7135765   2.9898161   8.7793827 128.7824113   3.1135389
   8.6262745 130.1316733   3.7821451   9.3133658 133.6381192  24.7887373
   9.3959373 134.4557948  25.2794695   8.8759166 133.0389161  25.3935719
 115.2538175  14.3038177  32.6161671 115.3594947  14.9172866  33.3432984
 114.6733136  13.6241531  32.9586625  24.2774773   8.0000454  56.8939924
  25.1644707   7.7772003  56.6114759  23.7270689   7.7968407  56.1376905
  38.8988400   8.3786851  76.4085245  39.1079116   9.0316850  77.0764399
  39.5984674   7.7294546  76.4810133  60.5398083 142.5985886  19.3810105
  59.6984959 142.7805189  18.9622915  61.1150408 142.3407222  18.6607039
  39.6610641  10.6861317  19.3798649  39.0229869  10.0387025  19.6797347
  39.1438818  11.4752853  19.2186522  76.0641336  15.6615686  17.2380686
  76.3522339  16.2075901  17.9695690  75.4242611  16.2012601  16.7738211
  12.0815313 132.0447774   5.2629399  11.3994586 132.3439903   4.6617073
  12.8098607 132.6488871   5.1186436  24.4656920  10.4156005  53.0390215
  25.4090905  10.5524647  53.1256247  24.2562389   9.7620380  53.7062693
   5.0471848   3.5096425  48.7419558   5.0306946   2.5525844  48.7420082
   4.6273053   3.7563759  47.9179049 112.3244316  18.6982441   1.0432481
 112.7354140  18.9596069   1.8672717 113.0570824  18.4600163   0.4751780
  35.4051065  10.4116809  67.7001572  36.3397098  10.5371368  67.8645039
  35.2941489  10.6246567  66.7735720  19.9707747 132.7455754  26.6179729
  20.7592583 132.2728462  26.8845344  20.2605605 133.6510141  26.5064573
   3.5842100  42.6436281  26.4814353   3.4618032  42.1394396  27.2858238
   4.4352871  43.0675936  26.5916753  42.3119545  12.0901000  54.9606228
  41.4537239  12.4702489  54.7731066  42.8530836  12.8361642  55.2190828
 101.1552209 125.8632297   6.5492141 100.7948512 126.6922791   6.2345052
 102.0978803 126.0187263   6.6079068  17.1990681 139.9456001 105.7743036
  17.7451801 140.1819540 105.0245499  16.3427413 139.7491051 105.3944024
   0.9826179 140.8438916  78.3023787   1.2971906 140.1882524  78.9248037
   0.5569981 141.5062121  78.8468122  94.7344202 144.7706794  43.3506489
  94.8930926 144.1737505  42.6193953  95.1553506 145.5890744  43.0874395
  55.0158739 120.0501008  43.1020594  55.1695061 120.0180478  42.1578121
  54.0627575 120.0635905  43.1893206  46.0220861 145.0055168  80.8211327
  46.2712574 145.7328715  81.3913059  45.9090424 145.4051041  79.9587011
  53.4510088 140.2617688  10.7021499  53.2809496 139.9602390   9.8097426
  52.9454565 139.6671588  11.2563014  44.3059349   9.0627038  42.1329641
  44.3156147   8.8874292  41.1919975  45.1190233   9.5407802  42.2959280
  24.2464089 142.8694565  42.1701384  24.5565629 142.1111757  42.6651573
  23.3699393 143.0388305  42.5156021  44.3753338 138.9537264  38.9827895
  45.2604246 138.8921679  39.3420386  44.2261744 138.1047280  38.5666347
  26.5719509  13.4025919  16.2660396  25.9557509  13.5363781  16.9862020
  26.3850904  12.5178313  15.9521723  11.0795784  46.8197346  30.9493947
  10.6040668  47.3054123  31.6233659  11.1917710  45.9440947  31.3193941
  10.9681368 139.4255448  34.1786790  10.6046891 139.1315282  35.0139594
  11.6400206 138.7770540  33.9682889  19.5613146 100.7701130  45.1980972
  20.3700805 101.2430067  45.3943014  19.6071160 100.5971260  44.2577744
 115.3572876 133.7461955  13.3208930 115.1008309 133.0898029  12.6731181
 114.7798837 133.5847003  14.0670538  33.1209421  41.2503672  40.3185844
  32.7529001  40.5765772  39.7469401  32.5329089  41.2712908  41.0735750
  15.8841980  19.9995100  38.4157062  15.9354794  19.0832245  38.6877751
  16.5842319  20.0972390  37.7702355  13.3140993 144.6118971  74.0037489
  14.0187216 143.9795724  74.1448355  13.4900630 144.9770767  73.1366205
  10.7097781 145.6678526  61.8944025  10.8348203 146.4642993  61.3783884
  10.5329311 144.9871089  61.2451363   6.5046078  18.6993146  50.0811100
   6.0710400  19.5272577  49.8743248   6.0603416  18.0527711  49.5326233
  26.0513902 142.7917204  55.0275278  25.4013753 143.4878782  55.1227951
  26.8685579 143.1831706  55.3361273  28.4609699  10.3203022  49.5193005
  29.3721032  10.3056622  49.8123026  28.1249428   9.4512010  49.7383451
  35.1699042 119.2520446  45.7913065  34.8186374 118.4199519  46.1082697
  34.5659900 119.9121351  46.1316013  63.0388641   2.2650194  71.6309166
  62.2104263   1.8675187  71.8990850  63.0700397   2.1371794  70.6828022
  23.3458352  19.4602728  45.6434155  23.9925647  20.0784373  45.9837770
  22.6455808  20.0130200  45.2965069   8.2270885   6.1169678  48.8479662
   7.8525054   5.2645308  48.6259985   9.1659284   5.9511113  48.9334249
   9.3967170  18.4546208  49.2840481   8.5000408  18.4326327  49.6182966
   9.4602317  19.2913783  48.8235760  18.0055928 125.2946729  60.1463032
  18.5734832 124.5317597  60.2544451  18.0691695 125.7606811  60.9799814
  55.8630753  23.1508183  38.3989811  56.1321926  22.6860261  39.1913033
  55.7630348  24.0610933  38.6775923 124.2256951   5.2334934  20.1816797
 124.2195646   5.5548322  19.2800498 123.6429094   5.8294052  20.6522965
  22.0204759 133.0683500  97.9388523  22.2138214 133.2923979  97.0285511
  22.4693656 133.7405986  98.4515095  31.0605597   9.3933010  49.9260807
  31.2515426   8.5266078  50.2846861  31.5796185   9.4399971  49.1231918
  21.9396281 142.7164180  21.4317322  21.4012122 142.7975316  22.2189808
  21.6290712 143.4153081  20.8561110   3.0698609  10.7616460  50.0536251
   2.5973803  11.5607965  50.2867603   3.9579910  10.9043896  50.3808546
 116.3993216  49.1218138  40.1650572 116.0400111  49.9982786  40.3026533
 117.2757561  49.2749596  39.8120117   6.6925651  21.2875247  26.7289424
   5.9935725  20.6359863  26.7849493   6.6742885  21.7318678  27.5765610
   5.1724404  11.1545765  22.5509048   5.8192760  10.5264521  22.8723025
   5.0017643  10.8824348  21.6492176 119.1532875 128.5326202  20.4989767
 118.9352841 129.4385464  20.7180762 119.7055251 128.6008103  19.7201228
  48.6616325 132.3912747  46.8219566  47.7534723 132.2778148  47.1023321
  49.0920639 131.5721817  47.0670033  23.3315134 125.8845896  75.4199743
  23.1746316 125.7088751  76.3477373  23.1548023 125.0504441  74.9849939
  18.3274913 128.2843012  29.2960501  17.6689422 128.9508671  29.1005111
  17.8849137 127.4529559  29.1251063  20.0328469   5.1374245  39.8788548
  19.1404247   5.0860363  40.2211618  20.1976252   4.2702851  39.5085168
   8.2955664 118.0782742  39.0680790   8.6552125 117.7847619  39.9051785
   9.0596622 118.3582515  38.5640931  27.5824332 135.9816355  58.8135147
  27.6962137 135.5269761  59.6481228  28.4731460 136.1101980  58.4874296
  48.4194231  22.4215579  42.3677683  49.2829132  22.6421165  42.0185232
  48.6024618  21.9709635  43.1922054  26.2901282 139.2287416  57.9259014
  25.4402804 139.6467830  57.7872372  26.3161922 138.5200579  57.2830009
 123.1597737 138.0613292  27.6372552 123.6362999 137.8511710  28.4403658
 123.2501941 139.0099044  27.5463629  33.8570929 140.3204311  25.5394387
  34.6331239 140.6804133  25.1099968  33.9112496 140.6408782  26.4397788
  27.3495197 139.2888553   3.4503719  26.8829131 138.6271645   3.9609364
  27.3452878 140.0676806   4.0068293 124.2519545  15.9440780  35.9452438
 125.0406404  15.4305732  35.7705450 123.6891149  15.3551102  36.4477968
  58.7498999  16.2153900  18.2175982  59.6403122  16.3397217  18.5461402
  58.1875896  16.4375842  18.9596689 119.0825654  49.1925716  39.5795894
 119.5876384  49.6972895  38.9421010 119.5563740  48.3646774  39.6591449
 119.5606334  17.0744658  36.2700391 119.8787910  16.2328708  36.5967298
 118.6663902  17.1389592  36.6053033  18.3761156  34.1213679  29.8874736
  18.8940525  33.3945012  30.2333593  18.8336504  34.9062419  30.1889181
  31.9230056  10.3422964  39.1880298  31.8853927  10.4406130  40.1394224
  32.4497676  11.0843515  38.8911986  33.3784962   6.3726991  44.3156385
  32.9215264   6.5721399  45.1327276  33.4939194   7.2232521  43.8919973
  35.8586764  26.6630673  31.2756419  35.9814787  27.0178986  32.1561217
  36.6176844  26.9758034  30.7833672  71.5889692 141.1799849  16.0248971
  71.4077330 140.2797223  15.7548761  71.4362907 141.7016927  15.2370250
 111.8142933  18.7269950  54.0966606 111.5448136  19.6451712  54.0729141
 112.7435369  18.7441087  53.8676500  42.1218681 138.4414888  45.6556511
  41.6456175 137.6249612  45.5049849  41.4402676 139.1123105  45.6963205
 124.1184169  24.3087411  69.5247316 123.2976548  24.7352266  69.7710896
 124.1933520  24.4596815  68.5824823  59.0539026  14.9918187  35.0096226
  59.4499874  14.6603787  35.8155346  58.6678839  14.2191339  34.5970941
  76.8312407 138.5287447  29.3055034  76.4729691 139.4159199  29.3336368
  76.1512852 138.0093420  28.8764238   7.2542065  11.5748286  35.7463241
   6.7127520  12.2876954  36.0852647   6.9117892  10.7898569  36.1738777
  31.4678836   1.0639780  39.0842128  31.5900636   0.4268479  38.3803868
  31.6555548   0.5748431  39.8853111  23.7004781 131.1616988  62.7708864
  23.6457849 131.8833775  63.3973217  24.1932940 131.5215296  62.0334005
  48.2361984   5.2862465  15.6600809  48.0138063   4.4014636  15.9497905
  48.2117748   5.2385706  14.7043812  17.6075494  57.7266026  64.4895172
  17.1588624  57.0370722  64.0001726  17.2832716  57.6343298  65.3853750
  26.8960595   6.7851359  76.1749125  26.2057114   6.4070189  75.6302309
  26.9394755   7.7022171  75.9041548  10.2864885  22.1460342  66.4869356
   9.9115747  22.1044040  67.3666716   9.7420573  21.5554142  65.9663630
  30.7569337 132.4306328  57.6557350  30.3979850 132.4207873  58.5430288
  30.1907921 133.0344803  57.1750259   1.1738183   1.4394912  47.5265789
   0.3946858   0.8866267  47.4672031   1.0290555   2.1278909  46.8774366
 102.8241724 126.5000708  83.0663872 103.3167381 125.9247679  82.4810314
 102.5670499 125.9361930  83.7958813  39.1196990  18.2775128  74.5444632
  39.7363353  18.8366246  75.0170994  39.1908264  18.5598361  73.6326170
  33.4532809 136.3476867  33.4851098  33.7134242 136.7668057  32.6648068
  33.5698867 135.4115064  33.3232474  20.2419925  11.9998205  48.4066582
  21.0279012  11.5259397  48.6787176  20.5703998  12.7168179  47.8641701
  30.1568866  11.6464210  60.1435804  29.6864414  12.4649560  59.9857473
  30.7993627  11.8657124  60.8183908 112.0589430 145.5808968  55.8938885
 111.6566474 146.4333306  55.7273149 112.1470291 145.1841686  55.0272369
  15.0101125 145.3964302  97.6221963  15.0072134 145.5243373  96.6735848
  15.9325969 145.4599385  97.8696212 101.3314886 119.3228216   3.4092501
 102.0439429 119.3737621   4.0464669 100.5662770 119.0691204   3.9253098
  46.9590664  12.7450073  42.3320913  46.8305683  11.8341386  42.5967360
  47.5319052  13.1115913  43.0056667  24.2737412   8.4710270  28.4142518
  25.1384830   8.2222551  28.7406945  23.6901379   8.3459300  29.1625786
  13.2334089  13.6325741  72.9706287  12.8412151  14.5046329  73.0145502
  13.0735528  13.2542431  73.8352394  19.7683048  23.3785892  47.9904032
  20.1748776  22.7888346  48.6253214  20.4907060  23.9165473  47.6664114
 124.3418172  32.9607701  54.1311359 123.5408890  33.3102894  53.7405205
 124.0347519  32.3513150  54.8023367  37.0842314 143.8132370  47.0568180
  36.1326671 143.8600833  47.1493530  37.3995996 144.6498070  47.3987627
  25.7130504  17.7629697  47.2996235  25.8352113  17.4941611  48.2101440
  26.5953779  17.7597952  46.9285154  52.3149967 138.2983077  87.6565933
  51.4608097 138.3083851  87.2247410  52.1640110 137.8255464  88.4750843
  40.9948921 140.9006519  17.0938528  40.7867002 140.0710923  17.5236428
  41.1230898 140.6683565  16.1741590  23.9578247  18.3140182  36.8876958
  24.0760779  17.7727866  36.1071086  23.2336116  17.9010522  37.3580217
  29.4174480 110.7260246  24.7315025  30.0022793 111.0417218  25.4203701
  29.2876029 109.7994489  24.9335623  40.3351831 143.1984321  58.3378172
  41.0886526 142.6272140  58.4868908  40.5808687 144.0297794  58.7436914
  63.1113768 144.9761639  43.9511585  62.2977638 144.6547283  44.3396759
  63.7733412 144.3393744  44.2204809  55.9010696  43.4988928  19.8932815
  55.1947212  44.1356039  19.7842050  55.5035925  42.6586914  19.6645916
  24.7104907 114.1534109  45.6717587  25.2955794 114.8446102  45.9818316
  24.0226245 114.1061420  46.3357162  51.0917616   5.6340253  33.7744260
  51.3864946   5.4921097  34.6739936  51.8646622   5.9678727  33.3190060
  14.2033303 138.4577424  82.0166016  14.5914555 137.7298439  81.5310574
  13.3817792 138.6391432  81.5601158  23.3036876   5.5595469  53.3556557
  23.6114502   5.1660532  52.5391531  22.4337888   5.1833767  53.4898376
  38.7563062 145.5083684  10.1931119  38.6960077 145.2274513   9.2800498
  38.0560017 145.0305084  10.6374705  28.9491558  30.8103704  66.4912987
  28.9624953  31.1571336  67.3833847  29.3144536  31.5142393  65.9552431
   8.0951774  15.3299081  14.7653508   8.7939566  15.9814620  14.7069061
   8.1368828  14.8586702  13.9332283  51.6763735 137.9819621  38.1120634
  51.2571955 137.2869641  38.6195064  52.5457191 137.6378108  37.9070473
   1.5664583  16.3441586  61.4809370   1.3967940  16.0992146  60.5712938
   2.5093415  16.2207329  61.5903425  31.3280225 143.3665902  18.4434974
  31.8017077 144.1443402  18.1486082  31.6793299 143.1886435  19.3159354
   5.5246562 141.6396580  41.4475060   6.0345942 141.5822909  42.2555304
   5.9613258 141.0371275  40.8454180  55.9952784   1.3597508  46.9642448
  55.9544754   1.9544017  47.7132177  55.4338884   1.7667812  46.3043976
  44.7676420  16.5916634  13.0732965  44.4807529  16.9878542  12.2505212
  43.9560795  16.3366807  13.5121393  28.2923532  15.2907681  47.9937840
  27.3559594  15.4679322  47.9042864  28.3344960  14.4413781  48.4330893
  38.3819318 123.3579416  20.0934196  39.1309881 123.5489816  20.6579113
  38.6918497 123.5547585  19.2094254 101.6950125  12.8148651  40.8897400
 101.1491770  12.4995446  40.1694107 102.4904890  12.2850704  40.8371449
  36.4101338  18.1162083  38.8331294  37.2685480  17.8843677  38.4787202
  35.7906747  17.8502643  38.1535864  22.0234227  38.2891035  68.2023954
  22.9149604  38.5028315  68.4775543  21.9993448  37.3322797  68.1904268
  43.9641333   5.8482701  78.5400772  43.4445477   5.0447130  78.5636425
  44.3534565   5.9074253  79.4125223   6.1599118   5.0866365  92.4690056
   6.9835913   5.3829831  92.0817566   5.4870248   5.6019747  92.0241642
  47.1054840 133.0461008  13.8896310  47.3368788 133.5247547  14.6856081
  47.0572472 133.7192566  13.2108331  38.5012007 122.1756549  35.8664751
  38.5868740 121.2340827  36.0159135  38.8736820 122.3148436  34.9957752
  21.6976261  25.2493310  47.0752335  22.1842551  24.7543740  46.4161110
  21.3566422  26.0080242  46.6015863  23.9816809   1.5328462  40.6319046
  23.0461836   1.5561821  40.4305887  24.0334582   1.7706166  41.5576601
  14.2695379   7.4363929  10.6692898  13.5797572   6.8125838  10.8957756
  14.6794975   7.0666862   9.8873168  29.1925263 133.2618005  63.7179804
  29.8333287 133.7238950  63.1775427  29.0940785 133.8114459  64.4954300
  95.3375340  61.2794876  17.9216766  94.7158337  61.9897890  17.7629709
  95.0166130  60.8534098  18.7164688  30.1086235  28.1146836  40.1864481
  29.7240257  27.2515845  40.0335598  30.0788760  28.2252240  41.1367798
  21.9307089 122.3258824  14.9682999  22.3905516 122.4497695  14.1379809
  21.6716242 121.4044232  14.9634397  12.9480970 119.3773884  23.9914846
  12.3655868 118.6189217  23.9509559  13.5273063 119.2751712  23.2363033
  30.2976990  22.3674202  49.4644785  31.2292695  22.5378942  49.6035671
  30.2046299  21.4238739  49.5959663  46.3835049  22.1945572  26.9100022
  45.6216860  21.8579531  26.4382362  46.8877411  21.4137697  27.1387982
  57.4399853 127.5680132  36.1019993  58.3723640 127.3549647  36.1409378
  57.3940468 128.4896011  36.3565493   7.4310583  17.1391058  56.3173676
   8.0250901  17.5985074  56.9109249   6.9880092  17.8368092  55.8345127
  16.9351780   8.4412718  26.8891239  16.7290783   7.5727630  26.5435147
  16.8322480   8.3526194  27.8366351  15.3259385 126.0607404  64.4615793
  15.5597210 125.1576299  64.6759748  14.6479475 126.2899847  65.0971937
  15.6772518 130.2450902  45.4794550  15.4330564 129.7927816  44.6719790
  15.4934180 129.6121008  46.1735439   5.8563906  16.2315476  47.8998899
   6.1094481  16.5801156  47.0450830   6.4492017  15.4937077  48.0427122
  15.0687158  23.7434435  21.6707444  16.0104036  23.5718441  21.6738391
  14.9248195  24.3035626  22.4334955  27.1597743  44.3023491  19.1971552
  26.3368297  44.0562201  18.7747610  26.9406652  44.3717718  20.1263499
  21.3499856  55.6119061  67.7545404  21.8095803  56.2293291  68.3235693
  22.0255446  55.2855539  67.1601152  43.1650257 141.6601298  93.1772995
  43.9083052 141.0676957  93.2903862  43.1611633 142.1939213  93.9718342
  12.5052607   6.0555053 103.1531048  12.8486419   5.5532652 103.8920689
  12.2510493   6.8966562 103.5326767  13.3393586 140.6754948  32.7606010
  13.4845066 140.2157492  31.9336820  12.3950827 140.6155283  32.9054403
  19.7758603   7.1225524 106.1683145  20.6242895   6.6809833 106.2059584
  19.1358554   6.4234370 106.3019630   4.2164034  31.3851118  38.6511540
   4.4807249  31.4280868  37.7321768   5.0408554  31.3469243  39.1359758
  15.1746225  10.5743611  38.3743048  15.4081059   9.8279613  38.9262152
  15.9873891  10.8018911  37.9227829  40.6780815  19.9665713   3.2659113
  40.0039196  20.5942321   3.5262480  41.4918566  20.3309631   3.6140826
  24.6982670 139.9365092  31.1463737  24.4203854 139.8053856  32.0529175
  24.8619127 140.8772583  31.0797119  21.0068464  15.0168729  29.6949911
  20.1406884  15.0574338  29.2895770  20.8291340  14.9354184  30.6320143
  45.7939816  22.7892613   3.3038145  44.9930286  23.1818509   3.6510691
  45.6247711  22.6886392   2.3670782  39.2448711  32.0344925  12.9828799
  38.9762330  32.4956346  12.1882653  40.0779915  32.4391270  13.2245648
  25.3792930  22.9007554 104.0050110  25.4295826  21.9566536 103.8554349
  25.7473445  23.0245852 104.8799040  22.3660803 109.4754476  98.9698347
  23.0023146 108.7967391  98.7444600  21.6330481 109.3242139  98.3731564
  29.8793054   6.1767149  11.8386352  29.0101981   6.2126809  11.4391482
  30.1703596   5.2757168  11.6982007   7.9873621  25.2826643  30.8835602
   7.0518816  25.4148459  30.7298207   8.3678436  26.1580992  30.8122945
   5.6557351  13.3580089  28.4479022   5.6448078  12.7810133  29.2115688
   5.2005732  12.8626859  27.7669358  35.2368331 142.6915673   2.8221607
  34.4943190 142.8293062   2.2339998  35.8737469 142.2092668   2.2949436
  64.9566841 106.5496010  55.0799990  64.6794033 107.0118041  55.8710194
  65.2301788 107.2438068  54.4804049 116.6356612  35.2870655  24.2846179
 116.9770480  35.2901578  25.1788664 117.2721589  34.7737336  23.7870312
  42.2644234  35.4838085   1.5033777  42.2804499  35.4964614   2.4603599
  41.6771269  36.2008119   1.2641679  46.4422464   5.6069893  37.9907393
  46.7176723   4.9522859  38.6324048  46.4887524   5.1523972  37.1496582
  14.8165214 135.2656896  26.7728066  15.1837873 136.0180337  26.3087749
  14.4305527 135.6383140  27.5655317   9.9396908 136.0131437  45.0338984
   9.7876519 135.2625985  45.6081772   9.2385280 135.9635038  44.3841743
  22.8761458   4.7897074  27.5162435  23.1710577   4.0885335  26.9351959
  23.2305670   4.5550376  28.3738828  19.7157133 143.6367638  17.5455475
  20.1768136 142.8064204  17.6644909  20.0849700 144.2136947  18.2141519
  42.8804350 135.2687699  45.2147913  43.5488272 135.9461589  45.1116991
  42.0837164 135.6623072  44.8589849  49.4106531 122.7537293  32.3494458
  50.0073338 122.6664967  33.0928159  49.5340967 121.9481439  31.8474245
  49.5229769  15.1293147  41.5690088  49.2052126  14.6451545  40.8068800
  48.8280058  15.7594180  41.7593050  37.4075103  10.6474185  46.6573572
  37.1809292   9.9904788  45.9990835  38.0721068  11.1910868  46.2343073
  32.0818710  44.0714216  14.5795321  31.4140129  43.4587145  14.2716575
  32.8494287  43.8797045  14.0407073  11.8681920  25.4781651  41.9224596
  11.5653217  24.5781040  41.8024826  12.6621234  25.5365729  41.3909578
  43.4583902   8.0160314   8.7680650  43.5043478   8.9164555   8.4465742
  43.8609076   8.0507004   9.6358258   6.4981699 126.5704651  34.1038060
   6.4979893 125.6755061  33.7642765   5.6355774 126.9146974  33.8721371
   0.2000507   6.2033993  51.2971783   0.2405280   5.4767674  50.6754065
   0.3970579   6.9791400  50.7721567  45.3582525 143.8328133  24.3969631
  46.2063694 144.0649616  24.7751617  45.2862310 144.3811517  23.6157012
   2.9125568 131.3887877  25.4324937   2.0204662 131.4863355  25.0994921
   3.2879192 132.2672887  25.3727341  34.1057611   1.7001015  29.6229219
  33.9526343   2.1985254  30.4256392  34.9369240   2.0359389  29.2873430
  16.1439610  33.1637764 107.1945446  16.8774772  33.4835410 106.6692471
  16.5192676  33.0102825 108.0616181   5.4436600  13.6980188  44.8312855
   5.3936136  14.4818246  45.3784418   4.5315766  13.4391248  44.6997261
   6.6535962  18.2990634  24.8003793   6.4679819  17.4258816  24.4549346
   6.2905061  18.2884490  25.6859756  17.1066654  18.1269050  29.9524879
  17.3628449  18.9618123  29.5606542  16.9754720  18.3274841  30.8791971
  26.7449546   2.6999572  35.8785486  26.1054230   2.1180883  36.2892294
  27.5899792   2.2817537  36.0436916  27.3515344  21.0267353  23.6743593
  27.1001101  20.1185679  23.8424325  27.5588560  21.0488892  22.7401447
  30.1166582  40.5714464  54.4436264  29.4795394  39.8614049  54.3651819
  30.5108142  40.6367540  53.5737944  33.3376575  21.6031694  36.2193847
  34.0906549  21.5370226  35.6321454  32.5822973  21.6628528  35.6344938
  14.3479943  28.6241889  85.0270176  14.9934292  29.0823245  84.4887257
  14.2588222  29.1685414  85.8092976  39.5654559 115.4563851  70.7022238
  39.3824625 115.8787198  69.8629522  39.0605354 115.9613938  71.3396072
  39.8392653  19.0660405  47.9013014  40.7809162  19.1432643  48.0547953
  39.7698665  18.6037064  47.0660400 124.3229644  44.1446924  59.8014021
 123.6012765  44.4422340  60.3553534 124.5952216  44.9271488  59.3219519
   5.8699530  21.9034624   9.7987545   5.2568692  22.3246288  10.4012311
   6.6535783  22.4521446   9.8320842  13.3943570  19.5269144  81.7785358
  14.1843832  19.6918178  81.2638569  13.0938578  20.3968620  82.0414543
   0.5777104 142.6298443  27.8232551   0.1190665 143.3296654  27.3583603
   1.2891531 143.0745829  28.2840014  29.7124362  25.5934167  39.5908618
  30.1662946  24.9318719  39.0687442  28.7845659  25.4511642  39.4036365
  24.5707679  57.3209381   8.9214623  24.7757626  56.3934088   9.0393519
  24.1450167  57.3651981   8.0653036  30.0945282  40.8224249  26.7836165
  29.6747088  40.0489521  27.1600747  29.3839478  41.4559507  26.6838431
   9.6805942  23.7464142  32.2040725   9.0546519  24.0882325  31.5656447
   9.7065431  24.4102693  32.8931689  24.3969870   3.4410456  34.3966603
  24.3977833   4.3451113  34.7111392  25.3165388   3.1767640  34.4250703
  15.4514074   3.6360040  54.0359879  14.5760977   3.7832505  54.3942928
  15.9263575   3.1923583  54.7387218  54.3471479   9.7698486  94.3392368
  55.2618647   9.5728099  94.1374906  54.2818117  10.7207048  94.2507180
  21.2773180  11.6560280  30.5474997  21.4662194  11.7140782  29.6109223
  20.3552079  11.4028776  30.5906105  30.6651592  29.6108198  27.4126101
  30.4732084  30.5159664  27.6577568  31.4957738  29.6617794  26.9396257
  39.3335009  44.9662352  52.5751209  39.2875886  45.3727579  51.7097521
  40.2655792  44.9711609  52.7929115  28.9176106  65.5347872  14.0568459
  29.3329287  64.6923876  14.2415261  29.6486330  66.1367512  13.9172900
  35.6320405 141.9308806  16.8901134  36.5869975 141.9091425  16.8283284
  35.4353309 141.4886869  17.7159476  14.9779224 103.7890882  37.9469657
  15.7972395 103.3492489  37.7200460  15.1762438 104.7219438  37.8651905
  60.0986719 133.3617277  26.4746261  59.6454000 133.9492268  27.0792913
  59.4878531 133.2499714  25.7461715   9.3028188   2.4107939  20.3645253
   9.0427077   3.3318728  20.3508186   8.5379285   1.9409411  20.0322390
  38.0141401  47.2499228  13.4938180  38.4523964  48.0893803  13.6333621
  38.5915160  46.6069555  13.9054751  15.8351159  28.7660551  22.1454811
  15.9373701  27.9176378  21.7142487  16.3304007  29.3746281  21.5972447
  70.0200367  13.8400924  48.1897306  70.7673120  14.3979633  48.4055805
  69.9686575  13.8676333  47.2343063   7.6393270   7.4009258 101.4615979
   8.5507548   7.5023770 101.1873027   7.5006223   6.4541525 101.4863529
   2.7132869  18.1616747 105.3989216   3.6266208  18.2170713 105.1178803
   2.3193014  18.9795673 105.0955098  16.8170524   1.9230264  46.8070650
  16.9424593   2.5893483  46.1314011  15.8699369   1.8947804  46.9427347
  82.7200603 125.3479499  32.6061249  82.4523640 124.5274133  33.0200005
  81.9010162 125.7454557  32.3105168  40.0678253  24.4582891   6.4503974
  39.5573020  25.1954985   6.1155522  40.9754276  24.6825051   6.2449348
  51.1340809 146.2222418  19.8345542  51.7095375 145.6664481  19.3090308
  51.5018702 146.1808665  20.7173038   6.6694540  17.0131588 107.4085885
   6.5487772  16.0640955 107.4393828   7.5672317  17.1304917 107.0980080
 115.1521660  19.4774973 103.7607654 115.8738906  20.0667715 103.5414454
 114.6498997  19.4016457 102.9494657  23.2346582 139.0460236  44.2674494
  22.5048900 138.7004275  44.7814846  23.5781646 138.2858385  43.7980270
  48.3451605  29.3758392 106.5508374  48.5152340  30.2937508 106.7623689
  49.0137482  28.8907433 107.0344728  27.9750013 127.8787489  48.7592459
  27.8832650 128.7992115  49.0053415  27.8925920 127.4008233  49.5844889
  46.8989515 129.1446395  10.6082749  47.6574707 128.5619456  10.6450307
  47.1725559 129.8578663  10.0314903  26.3886547 132.7355857  40.2840090
  26.0257268 132.2642882  41.0339355  27.3042583 132.4588711  40.2475023
  19.1832781  39.3454766  34.5472813  19.0012276  39.7499084  35.3955293
  18.7699389  38.4836817  34.5991874  28.4905386   9.1876692  45.0175047
  28.5717893  10.1174450  45.2299786  28.1499553   8.7879699  45.8177996
  19.1997385  31.0484409  52.6678324  18.4273314  30.5014229  52.5250387
  19.5219505  31.2423515  51.7875957  18.9674640   2.3008436  34.3278384
  18.4551764   2.3265590  33.5196733  18.5007012   2.8844604  34.9259663
  20.3190994  46.1357355  41.8439960  21.1120081  46.6001177  41.5758991
  19.7980714  46.0696745  41.0437489  37.6968694  20.8232594  13.3449078
  38.3832407  21.1846733  12.7840984  37.2038221  21.5876770  13.6429024
  42.6096153   9.1276187  61.2528992  42.1640539   9.4471186  60.4682827
  42.9811192   8.2851982  60.9910917  17.3235893  30.1829720  27.4327254
  16.9325519  29.5346856  26.8470263  17.3589170  29.7463751  28.2838225
   3.3674446  47.4388313  33.7495136   3.8369620  47.8334332  34.4844103
   3.8989565  46.6813374  33.5047102  89.0779018  13.2424724  95.7989796
  88.5987759  13.4066665  96.6112097  88.7733555  13.9236212  95.1993784
  36.2103415 140.9781826  45.5503416  35.4627347 141.0816909  46.1390734
  36.9760847 141.0914923  46.1133957  52.8409290  20.7452154  98.2877287
  52.4364710  21.0496211  99.1001197  52.2424412  21.0347104  97.5990804
  15.8906722 135.2283067  38.7502217  15.9005105 135.9324557  39.3985367
  15.4016328 134.5215625  39.1716313  10.6045985 139.6440292  52.9758358
  10.7262599 140.0931031  53.8123512  10.2634180 140.3189571  52.3890638
  45.4852629  19.9386227   9.1123623  46.0486460  19.2276216   9.4178271
  45.4930305  19.8574781   8.1586397   5.0112981  36.0094118  17.7483213
   5.7952237  35.7678127  18.2415986   4.8424560  35.2558255  17.1827841
  40.2607727  29.8966622  11.8859220  40.6263828  29.3590498  12.5884438
  39.7944474  30.5987811  12.3395741   6.6578674 145.1659542   8.7318802
   7.1768284 145.6158297   8.0651546   6.7266840 145.7244867   9.5061779
   6.8596900  27.3042631  41.7877722   6.6567969  28.0996442  42.2801542
   6.3373041  27.3772407  40.9890127  39.6298647  33.0931354 103.9083191
  38.8612461  33.3219337 104.4309183  40.3562832  33.5409021 104.3419751
  11.1130321  55.1154041  55.7189560  10.4550397  54.4641495  55.9621525
  11.3398862  55.5460167  56.5431786 119.8718930   9.9364126 105.7400619
 119.2517454  10.2047801 105.0621041 119.9804244  10.7144713 106.2869414
 102.8168625  58.1070375  23.7591195 102.1658749  58.7616825  23.5063505
 102.4907321  57.7517796  24.5859575  37.4862218  35.0119495  46.5459728
  38.0256248  34.5635366  45.8946657  36.6368771  34.5733166  46.4965534
 115.3119869  55.6847382  26.3848925 115.9378213  56.3624477  26.6403723
 114.6057541  56.1625719  25.9499884  19.0075004 140.3115202  51.5750456
  18.9108050 139.7640438  52.3542452  19.0138566 139.6914024  50.8459044
   9.3660140  54.9091959  48.9206266  10.0202990  54.6510887  49.5698738
   8.5753864  55.0803852  49.4323254  17.8517556  22.3120260  45.9140062
  17.7518129  22.7892208  45.0902796  18.5632658  22.7638197  46.3677311
  23.0657101  20.1323104  26.3966584  23.3730102  19.4584215  25.7903004
  23.8663030  20.5085993  26.7622948   6.9258529   3.9811510  16.0784936
   6.6484267   4.1320711  15.1748955   6.1095893   3.8498965  16.5609026
 124.5624087  23.4938717   5.8190203 124.1454395  22.6333618   5.8624893
 125.0465018  23.5672736   6.6415149  10.9112430 137.6360107  20.9322691
  11.3075066 136.7647643  20.9205461  10.0825548 137.5285269  20.4654145
   6.0089022 130.4344673  31.5503073   6.6717023 129.8650903  31.9411254
   5.6125689 129.9022455  30.8604574  68.6224651 122.9673762  26.0457516
  68.0190992 123.3160348  26.7019653  68.5135365 123.5442514  25.2897191
  20.5158830  18.5021532  32.1459699  20.9856629  18.8709533  31.3979554
  19.7804654  19.0989065  32.2848153  29.6275163  28.9541149  13.4351504
  30.5125189  29.3078303  13.3463526  29.3446755  29.2323208  14.3062603
  51.0255003 134.9516148  39.7246361  51.0985804 134.8284681  38.7782073
  51.9076777 134.7850127  40.0566673  18.4767115  20.4189754  32.3747516
  17.5951457  20.3670645  32.0054555  18.3454359  20.7536125  33.2618928
  34.2506742  29.9859762  36.4505601  33.5224223  30.4513144  36.8620682
  34.0314341  29.9740911  35.5188823  16.5141487  35.3600073  79.7223958
  16.8720520  35.4960442  78.8451108  16.8929935  36.0649037  80.2475890
  32.8907347  13.7315989  12.5859797  32.8712726  14.6860170  12.6562583
  33.1104708  13.4309387  13.4677684  14.4105053  32.9451227   4.7206163
  13.6569393  33.5057640   4.9051523  14.0313911  32.1496892   4.3467340
   4.4498199  20.6089115  16.5673757   5.1182061  19.9652827  16.8023944
   4.1275710  20.3188586  15.7139957  30.8005261  73.2487059  27.7867365
  31.5548682  72.6783562  27.9347181  30.6840706  73.2501411  26.8366480
   4.3289548   6.9149286  27.9998016   3.4575731   7.3037070  28.0758095
   4.7965044   7.4913442  27.3953390 120.1666386   6.1308491  41.1998463
 119.4364995   5.5152673  41.1351347 120.9425605   5.6026906  41.0121584
  27.2289491  17.6862311  66.7306376  26.4620256  17.6608443  67.3028374
  27.0423961  17.0383227  66.0511923  27.5363207  43.8876295  32.0902729
  27.2903228  43.6128950  32.9735851  28.4933925  43.8991880  32.1008587
 112.4964971  32.6560426  28.2392025 111.8330116  33.1351519  28.7356615
 112.8715557  32.0423889  28.8708615  47.1362114   2.2547239   4.6101338
  47.7664185   1.7094174   5.0809914  46.2891674   2.0273493   4.9936128
  29.6026754  21.8642974   4.8332918  29.9648905  21.0530114   4.4771367
  30.1962996  22.0987606   5.5466431  14.3373048 137.4594671  10.2124441
  14.7759545 138.2838000  10.0019848  14.5369375 137.3111082  11.1367643
  11.3337207  24.4105530  65.8837843  10.8360004  23.5935473  65.9155607
  11.3815689  24.6257925  64.9523258  23.0585265  20.2350044  22.3971367
  22.3006058  20.7676315  22.6381683  23.3695364  19.8718739  23.2263780
   6.3340199  43.4607553  37.3218417   6.2227410  43.2279682  38.2436132
   5.5521762  43.1148434  36.8913817   0.2561272 140.4074634 106.2773299
   0.1075833 140.3101207 107.2179099   0.9909716 141.0174365 106.2127655
  20.7989693  15.2428377   2.7700418  21.0225844  14.4085288   2.3575413
  21.6255760  15.5587792   3.1349152  39.1948581  26.2434316  12.8303039
  40.1114893  26.2194681  13.1049716  38.7192535  26.5347099  13.6082435
  56.2803411 143.7891314  51.1383820  55.8018875 144.1663612  50.4001331
  56.2999535 142.8496418  50.9561586 121.8276576   8.4084564  46.0501814
 122.7049119   8.7678868  45.9180164 121.3578547   8.6206943  45.2436590
  24.3410087   5.3545713  12.5008869  24.4593358   4.7283560  11.7866850
  24.8495221   4.9903804  13.2254636 111.8684441  44.2891216  45.4251528
 111.1938519  43.6762857  45.7177114 112.6304776  44.0827799  45.9664106
  20.5221844 141.8538014   6.9647914  19.6576571 142.2643928   6.9493473
  20.4024839 141.0258920   6.4995289  37.6639366 119.8715610  39.0152836
  37.8351045 119.9026150  39.9565434  37.0018530 120.5473704  38.8698196
  28.7007737 127.4746484  18.6530995  27.8957486 126.9990916  18.8580692
  29.0622663 127.7127666  19.5068300  17.8183162  34.1752481  33.9853001
  17.6129961  33.2564735  34.1582918  17.2515607  34.4132781  33.2515693
  11.7879462  10.4389954  38.9848566  12.2341132  10.3658164  38.1411672
  11.0753036  11.0579860  38.8260388   9.8940015   4.4771653  42.5376749
   9.7558355   5.3786933  42.2471809   9.0594023   4.2215434  42.9305315
  83.7002563  12.6439130  22.3598909  84.2674255  11.8729985  22.3753262
  84.1254425  13.2418120  21.7451048   0.4928570 142.7656386  15.4335201
   0.0140445 143.5042972  15.0575483   0.3398950 142.8357316  16.3758159
  24.5398664  14.3959975  33.1106782  23.6981249  13.9437091  33.0546808
  24.8015714  14.5286417  32.1995544  25.5895209   9.4080859  31.9893503
  25.6102276   9.1669893  32.9154587  24.8318410   9.9875617  31.9095945
  25.2341938  36.1662769  39.4844747  25.1995921  35.2952313  39.8798394
  24.3688226  36.2863398  39.0933871  17.0455849  28.2094336  43.6149597
  17.8813207  28.4818077  43.9938927  17.2122455  28.1663108  42.6733685
  38.0589151  58.9874077  38.8851261  37.6942945  58.2987881  39.4410801
  37.4879766  59.7414637  39.0323019  34.4214940 133.2242186   4.6182960
  33.7098813 133.3180720   3.9850262  35.1795030 133.6187393   4.1870096
  23.0657887  37.9731107  34.3716216  23.4268188  38.6623859  34.9291062
  23.0728507  38.3488274  33.4912705  33.4267998  13.8956606  62.7849388
  33.0802751  14.7446942  62.5105429  33.2554436  13.8598382  63.7259960
  32.6121449 133.6935861  12.3362672  32.0632887 134.0552253  11.6404188
  33.4499407 133.5118515  11.9104707   4.8970106 124.5194692   7.9876262
   4.7279304 125.4153461   8.2792538   4.0276271 124.1303534   7.8927881
  39.2132640 140.4662342  35.0570416  38.5096073 141.0793609  35.2695894
  39.6335673 140.8427156  34.2838430  45.9698772  27.0578337  37.3790264
  46.4307594  27.1683073  38.2106614  45.3338957  26.3627386  37.5481415
  44.3240833  20.0739956   0.8849518  43.6893606  20.1268172   0.1704086
  43.8756037  20.4678059   1.6332915  10.0328028   9.6444893   5.9556842
   9.8149502   9.5173222   5.0323200  10.6774843   8.9629471   6.1457336
   8.1002438   7.5964069   9.9931031   7.4396491   8.1795794   9.6192628
   8.8903898   8.1338382  10.0484991  27.5206852 130.2677602  62.7227449
  26.9079852 129.8556692  63.3318520  27.7643728 131.0900552  63.1478071
  21.6319942   4.7892001  11.3992572  21.0250235   4.1363287  11.7479360
  22.0771170   5.1387948  12.1711910 111.3221366   2.1419805  22.4034095
 112.0534868   1.7659312  22.8932524 110.6721336   2.3583198  23.0719352
 108.9041764 114.4834537  35.2678466 109.6104462 113.9326472  35.6055260
 108.1789214 113.8772506  35.1170039  13.3835852 129.7650165  37.5466919
  12.6854265 130.0383348  36.9516277  14.1896534 130.0541825  37.1190619
  41.4499807  86.6570377  89.0274438  40.8754778  85.8925438  89.0690216
  40.8672714  87.3826408  88.8034257  43.2618046 142.6926796  25.7341480
  43.9392757 142.7696998  25.0623345  43.5435390 143.2890032  26.4278746
  48.2199717 118.8207812  48.5887194  48.1307125 118.1232280  47.9393482
  47.3204327 119.0854497  48.7811041  20.5791187 142.3929856  29.9161863
  20.5714154 142.9912240  30.6633711  21.3283920 142.6748315  29.3914175
  21.4291382   6.7729187  26.7238450  21.9650126   5.9874427  26.8338418
  21.8727469   7.2713262  26.0375261  43.3726215  48.8149834  25.0972819
  44.0980816  49.1217422  25.6411910  42.7155495  48.5111666  25.7235241
  32.0934510 143.5404623  41.2337542  31.4261460 143.6715952  41.9073582
  31.6417503 143.0610017  40.5392647   7.0948571 141.6489545  43.7226868
   7.7649528 141.0860790  43.3349085   6.9957000 141.3221652  44.6168947
  28.8775706 131.6920406 104.1306981  28.4259820 131.7586107 103.2893481
  29.7640610 131.4101607 103.9050701 121.3057224   8.0042237   8.4511000
 120.9065018   8.8597059   8.2929713 121.4400742   7.6374048   7.5772429
  35.0283384  17.6376402  24.2267323  35.5571628  17.8931630  24.9825644
  35.6352091  17.1618712  23.6596489  20.5972695 139.9333388  34.3348527
  20.5046487 139.0492452  33.9798450  19.7019768 140.2692718  34.3776345
  28.3514643  21.2990999  10.9271204  28.5366154  21.0534906  11.8335569
  27.7418089  22.0336485  10.9977591  22.5025249  12.7832711  40.2628326
  23.1172013  12.0787859  40.0576353  21.8706894  12.7667964  39.5439863
   5.8381033 132.4891205  38.7347722   5.5422080 131.9389445  38.0095243
   6.7372477 132.7242489  38.5056734  33.2993698  19.1401935  14.2186189
  32.8201509  19.9315631  13.9730310  33.8827252  18.9739549  13.4781492
  27.9860926 138.1545312  29.8390269  28.5854077 138.3657140  30.5548882
  28.3144331 138.6593116  29.0949702   1.7418061  27.7332997  30.9021831
   2.1952771  28.3548784  31.4715981   1.4682847  27.0273995  31.4879513
  38.8621616  17.2189879  37.9056811  39.0533638  16.2810814  37.9035020
  39.3737102  17.5660133  38.6365199  30.0707459 138.5926724   5.2450866
  29.8159957 139.4753731   5.5137390  30.4448009 138.2007314   6.0341972
  11.3337684 146.0188477  30.3542113  11.7729783 146.8607119  30.4750061
  10.4028833 146.2380099  30.3135467  30.7221174 124.1384644  25.9623504
  31.6601276 124.1121597  26.1512232  30.3775930 124.8084254  26.5528488
  26.4337301 126.1276931  30.6083989  25.5421638 126.4443488  30.7535458
  26.8280935 126.7796225  30.0290060  18.3267450  34.8475313 101.9525638
  17.6663435  34.7769117 102.6418492  18.6687315  35.7373881 102.0387819
   2.4313506 145.3919789  95.5313917   2.9542071 144.8326527  96.1058541
   1.5440956 145.0386224  95.5958077  25.1658320  17.2106326  27.6292515
  24.8692131  16.4381456  27.1480942  24.3615270  17.6093149  27.9614830
  15.7083619 142.3874167  10.0695074  14.9886835 142.9767887   9.8438174
  16.4840877 142.9481644  10.0760508  46.5452719  39.0312171  46.4987755
  46.8860531  39.1731739  47.3819256  46.8584776  38.1592131  46.2584877
  29.3337440 143.2771830  24.5156074  30.1996636 142.9910991  24.8064137
  29.4814610 143.6363373  23.6407232  40.2049971 140.4232449  27.2336245
  40.7116365 141.2155993  27.4117374  39.4315886 140.7341940  26.7631125
  36.7845368  26.7984200  18.0363214  37.4573541  27.3438597  18.4438074
  36.4737940  26.2331009  18.7434864  26.7147088  32.1435523  49.2100286
  27.0523143  31.4874983  48.6002350  27.4197435  32.7866912  49.2844009
  69.9264956  12.9791510   4.9654293  70.8405685  12.9815006   4.6813551
  69.4850683  12.3967075   4.3472618  52.4725008  26.2408972  33.1593275
  52.5208426  26.8674135  33.8813877  51.5648937  25.9368753  33.1663728
  42.7263308  10.5392241  15.0957727  42.0604086  10.4489839  15.7774150
  43.3423281   9.8268378  15.2669156  54.0693521  16.1464918  37.6002669
  54.4159794  15.9606898  36.7275953  54.3381310  17.0478570  37.7778292
  29.0067720  25.7308817  63.3084106  29.6885848  25.7696319  63.9791298
  29.4250011  26.0798240  62.5212955  18.9966500  23.8723087  14.0088260
  18.3744586  24.5146799  13.6675501  18.6670661  23.6601233  14.8820865
   8.9984173  13.2890999  23.6596036   8.2162344  13.3336699  23.1096625
   9.7261965  13.4213245  23.0520773  59.9210405   6.4118797  82.0026621
  60.2960157   5.6090152  81.6406783  60.2822065   6.4672267  82.8873810
  47.7790976   8.6179149   8.6539698  47.4990702   8.0778790   7.9149318
  46.9861841   9.0789825   8.9277118  42.8140306  59.3221092  85.6858405
  42.8429747  59.4564247  86.6331276  41.9904470  59.7256279  85.4117736
  49.5739651 142.9584167  80.9192165  49.7035360 142.9505278  79.9708589
  49.1921663 143.8170076  81.1016544  49.2193508   0.6952641  89.3240031
  49.1217041   0.9355160  88.4026035  48.3480215   0.3998776  89.5881375
  35.6387472  16.6136503 109.9555225  35.3908086  17.0070660 109.1188724
  36.2097287  15.8833814 109.7169448  35.6439972   9.3134308  39.9679446
  35.6179810  10.2089345  40.3050327  36.0137010   9.3989480  39.0891743
  75.3197384 114.9708147 109.3944154  75.4443550 114.0671987 109.1042766
  75.0153112 114.8922534 110.2985087  39.3740797 145.0788670  13.7154210
  39.4887161 145.5395519  12.8842413  39.6772695 145.7001930  14.3774343
  31.9927931 131.7185409   1.7905375  31.4944291 131.0082442   2.1946958
  31.6208553 132.5162942   2.1666807  31.7737389 126.6710896  94.3619987
  31.0897255 126.1262507  94.7512361  32.1495438 127.1484894  95.1016554
  14.5679581 136.2599678  15.0137341  15.2363849 136.9268073  14.8563778
  14.7136343 135.9836514  15.9185326  10.5541372   7.1907860 105.2354204
  10.0481701   7.7524662 105.8225700  10.8409667   7.7748483 104.5334014
  97.9876804  27.1415830  12.8699517  98.5169125  27.3081422  12.0899463
  98.1208611  26.2120819  13.0557513  37.1503472 146.2109458  31.7020392
  36.3455796 146.6456016  31.9842720  37.3138595 145.5496204  32.3744559
 121.7773241  22.5640488  30.4790115 122.3998079  22.4907374  29.7555685
 121.8281085  23.4816742  30.7466221  10.9658694  30.3754163  19.6604788
  10.0277054  30.4060268  19.4730151  11.0371888  30.6570959  20.5725121
  30.8737159 125.7714839  80.2150735  31.3750219 125.5509276  81.0001095
  30.1093292 126.2444777  80.5440434  24.3132448 125.2058620  50.4759026
  25.1625109 125.1994581  50.9174252  23.6824727 125.3875298  51.1725807
  38.4510756  13.1232607  18.9351511  38.4795022  14.0324140  18.6370480
  37.5239730  12.8879929  18.8982904 118.8553572  11.8140149 109.6025243
 118.8455147  11.0511899 110.1806541 117.9527832  11.8919766 109.2934716
  35.5787039  35.8329153   4.8679814  35.2347231  35.7523584   5.7576001
  34.8978400  35.4531336   4.3126228  34.3069863  13.3495009  21.6492677
  33.8066244  12.5360203  21.5850925  34.5852995  13.5309601  20.7515788
  58.0256701  32.7261758   1.8593007  58.2523632  31.8419838   2.1474785
  58.8379097  33.2240200   1.9522910 118.3614183  28.9248133   8.9423001
 117.8955222  29.1716790   9.7411931 117.9884339  28.0773139   8.6996955
  29.4275165  20.5893278  72.4377712  29.6919799  20.6924510  71.5236291
  30.2128887  20.8060360  72.9402217 105.5190081  15.7293808  20.7438731
 106.1341996  15.9781528  20.0540280 105.4474730  16.5095866  21.2937760
  31.2942314   5.5078870  20.0391889  31.1995316   5.8749813  19.1602671
  32.0982695   5.9016585  20.3778648  10.5116343  14.4961417  47.5242090
  11.3460124  14.9575078  47.4394369  10.7503200  13.5692227  47.5332546
  31.7859221   4.1783652 109.8581777  32.7164578   4.1502786 110.0807731
  31.7280078   4.8213631 109.1514731  44.3522263  23.8759160  13.5445225
  43.7325764  24.2337537  14.1803026  43.9150333  23.9797926  12.6993573
  26.2378573   0.3336193  17.1380019  26.7828321  -0.1461349  16.5142488
  26.8500781   0.9063676  17.5999284  34.1007924  28.6473942  95.7500311
  33.4078741  28.4017134  95.1370557  33.6717868  28.6556959  96.6056701
  23.6900544  27.2272897   8.8469648  24.6187615  27.2937584   9.0690404
  23.6742949  27.1940136   7.8904736  56.6920805 125.9576196   4.4457221
  56.6614580 125.5090279   5.2907425  56.9253445 125.2725715   3.8191992
  34.4518495   2.1157494  40.2606678  34.3761182   1.1694300  40.3830481
  33.7381530   2.3378006  39.6627045 101.2352008  38.4869456  16.0017347
 101.3349242  39.1940045  15.3642750 101.9495577  37.8819203  15.8020520
  35.6137681  35.2247119  14.5793915  35.8101821  36.1239433  14.3166482
  35.8742976  34.6930861  13.8272405 121.1291940 136.9856394  23.7044001
 121.6024328 137.0990110  22.8801298 121.6829000 136.3990862  24.2197609
  56.6310501  28.6452699  90.9783002  56.7158508  28.8506174  90.0472399
  57.2110987  29.2690682  91.4149448  15.0578499  38.3986187  53.3759260
  14.8202229  39.2488980  53.7457705  15.7225966  38.0551100  53.9728737
  32.3236895   5.2739841  16.7641115  32.4321890   4.6801230  17.5069356
  32.0450830   6.1010110  17.1573496  33.3333087   8.6646593  32.7293253
  33.1089997   9.2154896  33.4793258  33.1846595   9.2250019  31.9676471
  44.3097210  42.2697878  76.9092926  44.3301296  43.0929184  76.4211663
  43.9579916  41.6317987  76.2884148  12.4260783   5.3472203  23.0645370
  13.1139958   5.0621909  22.4630713  11.9422781   4.5475864  23.2713079
  41.3685751 122.4586315   9.8608756  41.0505152 122.4483819   8.9581203
  40.6669903 122.0485229  10.3666675  43.6296415 140.8809234   7.5623167
  43.8616467 140.0109554   7.8872186  44.4705439 141.3028944   7.3860997
  29.5803642  16.8504667   4.3600270  28.6441541  16.9098401   4.5503345
  29.7650599  15.9112597   4.3569681  30.5640507  20.9266901   1.3784409
  30.4437518  20.6725740   2.2934194  30.3461909  20.1388168   0.8804189
 113.4398944  15.0747406  23.0257559 113.0832679  14.9575281  22.1452379
 113.7572653  14.2062485  23.2731962  36.1839437  18.6303961  98.6812028
  36.6699219  19.4436657  98.5446390  36.1112833  18.2452726  97.8079148
  43.2083130   3.4444723  38.6280560  43.8723183   2.8192657  38.9186454
  43.3636761   4.2240331  39.1613269   9.6310639  19.1585302  30.3282070
   9.5316100  18.2177663  30.4741669   9.7942609  19.2391765  29.3884754
  40.4619884 123.7546653  24.8133135  41.3785362 123.9463586  25.0118732
  39.9665284 124.2603249  25.4575634  22.9118562 136.0566659  28.9779687
  23.0380154 136.5649844  29.7791743  23.6129856 135.4052300  28.9947248
  38.3472347 129.7466988  12.6032615  37.9878020 129.4722194  11.7596376
  39.1936970 130.1378650  12.3871088  35.3175044 138.7773926 104.1143771
  35.4529524 138.0749811 103.4783699  34.4420934 138.6162401 104.4663920
 122.7585620 143.3931986  16.7275977 123.5590110 143.3560554  17.2511756
 123.0554243 143.6478175  15.8539426 119.7017384 127.5511427  22.9952550
 119.5935900 128.2424767  23.6483955 119.3685181 127.9340775  22.1837401
  36.0812593  11.2929273 101.8750658  35.3790426  10.6465018 101.9475796
  36.5200591  11.2662959 102.7253457  39.3356490  31.8124199   1.3087678
  38.8158417  32.5651026   1.0268054  40.2137280  32.1667528   1.4489704
  38.5329175   4.9435943  77.5889047  38.3846235   5.0395328  76.6481408
  39.4380927   5.2264756  77.7187666  53.7146091 144.4389742  89.2594489
  53.6534262 144.6028570  88.3183702  52.8133488 144.2659488  89.5315250
   4.8720813  32.1807122   9.9987090   5.8017892  32.2823095   9.7948629
   4.4970253  31.7813802   9.2137897  27.5238848  56.1608601 103.8379564
  27.7666211  56.1700964 102.9120918  26.7131686  55.6528521 103.8679578
  46.8053627  32.0816803  26.0429859  47.1283340  32.9362082  26.3288236
  46.0813379  31.8878889  26.6383529  16.6062152  23.7782812  95.0141390
  16.3521838  22.9435515  94.6205302  15.7797325  24.2435479  95.1433035
  11.1439276  16.4060271 102.8277417  10.3793204  16.7706382 103.2734635
  10.8510077  15.5521691 102.5093754  35.2341366  19.7844923  21.4974046
  35.0185680  18.9963555  21.9960022  34.9731731  19.5788550  20.5997157
  27.8905463  37.0351648 104.5217081  28.5758972  36.6996932 105.0996228
  28.3588839  37.5673318 103.8785192  21.1599755 136.3909049  63.5104521
  20.9340191 137.2488589  63.1511601  20.8764696 135.7685537  62.8407248
  29.8162556  14.7429574  43.8444138  28.9383173  15.1159239  43.7647295
  30.0914383  14.9660051  44.7336578  19.5598173  55.7092571  99.4449373
  20.0903797  56.0034132  98.7045261  18.8963974  55.1410675  99.0534505
  95.5992765  42.2536659  14.1447449  95.2247233  42.3843813  13.2736218
  96.1668057  41.4888144  14.0491366  26.2869382 142.3703704   9.7335744
  26.7694807 143.1510408   9.4616622  26.9317484 141.6640935   9.6932697
   9.6703255 141.5322790  22.1168542   9.7726464 140.9031380  21.4027500
   8.9799881 142.1240110  21.8176556   1.6246948  19.2795897  16.4260161
   0.7668233  19.6744621  16.5821075   1.9680032  19.0989339  17.3010790
  49.4509459 143.7154568  10.9105861  49.2330885 144.6143518  11.1570752
  49.6235275 143.7601227   9.9701321  48.3479977 142.4716405 102.3522338
  49.1344357 142.9713694 102.1331098  47.6303101 142.9720879 101.9640174
  49.0214825 124.2798705  98.3163115  48.4108686 123.8296122  98.8999613
  48.6081791 125.1258130  98.1437107  47.5728083  29.3889308 103.3467492
  47.8265238  29.4248343 104.2690130  47.4564075  28.4560871 103.1665024
  63.4002352  22.1662378 109.9040877  62.6515961  22.7621961 109.9287515
  64.0727472  22.6463461 109.4209124  61.6125154  12.5258958 103.9080062
  61.3308287  12.2210979 103.0454632  60.8660889  13.0236208 104.2416909
  24.0885115 144.5148222  24.0918803  23.8294435 145.3564529  24.4670796
  24.3771243 143.9964109  24.8430037  30.5695701 135.1294739  13.1933570
  29.7740722 134.5973046  13.1788993  31.2724233 134.5047791  13.3722019
 105.8753914 103.5784073  15.1797163 105.2795596 103.4890146  15.9235084
 105.3341312 103.3840675  14.4145370  43.1349373 138.8511647  22.8411365
  42.2389507 138.7096895  22.5354886  43.0545044 138.9269102  23.7919402
  20.7299757   9.3089032  23.0463624  21.0510540  10.0374770  23.5776997
  20.6002331   9.6860105  22.1761942  10.8547378   8.3902341  11.0301316
  11.1985195   7.5309008  11.2742472  10.3632617   8.6788613  11.7991424
  61.1465788   8.9858866 103.6984589  60.5008650   9.3309879 103.0818638
  61.9771194   9.0288359 103.2245507  53.1325340 136.0137279   0.9146293
  53.4187460 136.4910180   0.1358422  52.9190111 136.6974581   1.5495728
  16.6654146 143.1896693  82.9610881  16.5732896 143.2221375  82.0088848
  15.7666242 143.2120777  83.2895788  21.1116171  16.7046046  11.0691595
  20.6465769  17.5026917  10.8181083  20.9591603  16.6246998  12.0107567
  21.3416314  27.2871780  20.3458786  21.7109776  27.4982333  21.2033582
  20.9341621  28.1024289  20.0533628  11.9631064 144.9510623 109.2309964
  11.1473298 144.7165383 109.6734195  11.8550038 145.8743861 109.0029195
  22.2099161  32.0751643   4.5899531  21.6358471  31.3569117   4.3238902
  22.8804445  32.1111202   3.9078033  29.7737956  56.3418770  26.4985299
  29.7080207  56.5684462  25.5708599  29.8536062  57.1843910  26.9457793
  49.8759079  41.6517925  85.1611742  49.7939253  41.9231272  84.2469057
  49.0522575  41.9232082  85.5663427  45.8359528 127.2978074  30.0009704
  45.1726246 127.4715681  30.6688261  46.6630125 127.5443418  30.4150033
  45.4750204  45.9008360  93.6292645  45.6266832  46.6855288  94.1560408
  45.7201290  46.1579895  92.7404293  27.1060801  53.0771303  25.8245063
  27.2468805  52.5846958  26.6331577  27.9870892  53.2954121  25.5205202
  47.9392433  35.9036922  14.1432858  47.7953959  34.9688888  14.2905426
  48.8143349  36.0695171  14.4939196  57.6508522  44.2272854  22.0671964
  57.0001936  44.9293280  22.0636106  57.5762653  43.8271713  21.2008381
  26.5622616   9.2882413   6.8230659  26.7857456  10.1854241   6.5753758
  25.6945825   9.3587166   7.2210574   2.0367803  12.1916962  22.0660305
   1.9615243  13.1431365  22.1390247   1.3023581  11.8533468  22.5782561
  21.6553020   7.7505612   0.3177737  21.0616112   8.3837360  -0.0857758
  21.3261509   6.8981475   0.0326722  23.2589746 143.3838792  74.2057236
  23.7765336 143.0175031  73.4886941  22.8569841 144.1690714  73.8340958
  15.3209591   5.7514435   8.5357136  16.1176980   6.0646659   8.1075418
  15.0391698   5.0078768   8.0028576  17.7842820  35.8849978 107.1795520
  16.8449378  35.9326768 107.3572891  18.1850076  35.7630038 108.0402311
  41.2514114  35.0861835  92.9966029  41.6210604  35.9291458  92.7339145
  41.9347763  34.6809173  93.5304638  39.0883708  30.2136612 107.1128907
  38.7011576  29.6726727 106.4246821  39.9980545  30.3333092 106.8401405
  13.4845650  31.1242175  18.7556100  12.5869715  30.8202314  18.8903320
  14.0051401  30.3221178  18.7123775  60.8752584  39.0010500   0.6534831
  60.4671621  39.4694185  -0.0747474  61.6794109  38.6368680   0.2834312
  28.9658594 143.4331221  12.5736761  29.2705107 144.3330478  12.6900887
  29.2449236 143.1983779  11.6886628  71.4089680  33.2605910   0.5636694
  72.2322321  32.7945757   0.7096143  70.8135653  32.9078007   1.2249295
   8.4335607  21.3846660  43.9039755   8.5088736  20.4309607  43.8722467
   8.0885130  21.5687394  44.7776413  18.7734318   5.4158193  78.8358315
  18.3708560   4.5851472  79.0891060  19.2792726   5.6808847  79.6040090
  12.0236814 129.9122793  35.0993514  11.9533956 129.3959756  34.2964053
  12.7020192 130.5602057  34.9088717  58.9672995  66.4333439   4.8335811
  59.1749859  65.6018734   5.2599120  59.5930433  66.4953327   4.1118932
 120.9950862  20.3167748   2.2623445 120.7681657  19.6893609   1.5759844
 121.8380058  20.6777430   1.9877188  40.9427023 138.6632098   0.6566320
  41.2340117 139.1951419   1.3971853  40.8493519 137.7814252   1.0171501
  26.1010337  54.2579460  98.1551346  25.5268359  53.6687183  97.6659127
  25.9467840  55.1193571  97.7673014  25.2931809   0.4452852  37.1392965
  24.3583369   0.6320117  37.2255039  25.6245279   0.4618503  38.0371642
  55.6839132   9.4635093  21.4955592  56.0083151   8.6583501  21.8989420
  56.4660740  10.0011075  21.3712621  66.7775536  46.3793278  48.4235668
  67.2690964  45.9793568  47.7061844  66.9137478  47.3201847  48.3118963
  20.3937221  19.7102332  25.8340549  21.3261938  19.7098720  26.0502148
  20.3420830  20.1716161  24.9969816  50.2388668  23.1759501   4.9288994
  49.5244551  22.5497222   4.8119318  49.9008369  23.9952230   4.5672980
  49.3039227   7.3769641  26.8658638  48.5623312   6.9606221  26.4266253
  49.1317749   7.2499645  27.7988505  42.9502296  11.8496788   2.6444861
  43.8334990  11.4816034   2.6687235  42.5171280  11.3860333   1.9277667
 108.2413608  23.8714004  28.2830834 108.5248954  23.6735845  29.1756678
 108.0907924  24.8166823  28.2835555 124.9009094 145.1262605 104.7658315
 124.8794129 144.4361851 104.1028341 124.3744743 144.7817824 105.4872417
  49.3567562 117.9249997  29.7579956  50.0623274 118.1010003  30.3804278
  49.6858597 117.2047467  29.2202616  59.7127485  46.1727476  13.4012175
  59.5757627  47.0951653  13.1853235  58.8472795  45.8562803  13.6601496
  28.7430930 130.7252497  38.8992119  29.1166306 131.6065247  38.9067984
  28.9443016 130.3873319  38.0265379  47.3856449  25.1570559   1.4599943
  46.7584658  24.4635582   1.2552011  46.8492889  25.8707643   1.8052079
 121.4078367  22.3349190  22.1861172 121.1205963  22.9155254  21.4814043
 122.3588846  22.2905707  22.0872593  22.2537374  35.5786371  38.0560517
  21.5839934  35.9761786  37.4996066  22.9801798  35.3929472  37.4610448
  23.3143067  10.0451219  15.6394696  23.0808711  10.7276177  16.2687063
  22.5260687   9.9286282  15.1090527  45.8061981  10.2738059   9.0962183
  45.6469822  10.8602846   9.8357618  45.0459719  10.3940785   8.5271662
  43.9672232 141.4180458  21.8585992  44.0340900 140.4788042  22.0306039
  43.3228254 141.7323972  22.4927664  52.0130587 141.4407755   7.5834674
  52.6034689 140.7294459   7.8317761  52.5867891 142.1976335   7.4641734
  11.5787160  17.3095119  86.3068803  11.7652941  16.3755178  86.2116131
  11.9527161  17.7097511  85.5219182 112.7527840  28.3060694  16.8777001
 112.1629221  28.7051558  16.2381494 112.2076721  28.1669545  17.6521242
  22.2604156  23.6941314  23.0334473  23.0987597  23.2519245  23.1671119
  22.0783472  24.1205335  23.8708639 115.3916765   2.6988819 108.5353357
 116.3188124   2.9300827 108.5918746 115.3519595   2.0348537 107.8470620
  34.2817736 136.6884763  13.3435655  33.4858537 136.6013832  12.8190112
  34.4258952 135.8147652  13.7070084  60.5132771  11.1305845  16.2406886
  60.6649017  10.7560873  15.3729367  60.7006359  12.0633101  16.1350894
 122.4376567  12.3279321  93.7965437 122.2218356  12.4199557  92.8685435
 122.0993755  13.1265807  94.2014607  52.3370695 111.8438859  35.0433064
  52.7182436 112.4034805  35.7199121  52.6297522 112.2318954  34.2186737
  19.3521047 126.5472395  10.7377827  19.2871451 126.7927534  11.6606784
  19.2357051 125.5971522  10.7339227  34.0566373  34.0760732  97.0178672
  33.5433912  33.3856964  97.4376150  34.0636945  33.8390708  96.0904988
  25.1428580 135.4203148  32.9850054  24.2886686 135.7541771  33.2590985
  25.3668451 135.9403164  32.2132158  20.9651923   2.6703715  59.5016718
  20.8193374   3.4800699  59.9909019  20.4302859   2.7669325  58.7137747
 115.1256961  18.9155257   5.4001600 114.8828686  19.7103059   5.8751231
 115.9795768  18.6736381   5.7587826  44.7380877  32.8077197 101.2214281
  45.6236219  32.8753328 100.8643677  44.2606449  33.5318303 100.8165332
  27.3798585  11.1114883  27.4589396  27.8215742  11.9468284  27.6116610
  26.7655945  11.0284960  28.1883383  11.0460770 140.0836975  93.6424240
  10.6902599 139.2841638  94.0302035  11.2064528 140.6610841  94.3888398
  27.3905349 142.4129758  16.2384045  27.9679775 143.1343372  16.4882672
  27.8635979 141.6244239  16.5041685  55.6942987  22.8280067  32.7382183
  56.0476446  22.7951622  33.6272073  56.3310623  23.3465314  32.2463918
  63.0142164  36.5280962 102.0576742  62.6185131  37.2880840 101.6309788
  63.0167246  36.7504549 102.9886856  26.1234593  11.2270248  30.0471950
  26.5732193  11.3666201  30.8805370  25.7811475  10.3350782  30.1062441
  31.0089326 107.7296490   8.7194353  30.8400393 107.6296706   7.7825725
  30.1591849 107.9644961   9.0922731   7.6384497  25.5436468   2.5365165
   7.1323848  26.3181758   2.7819437   7.7364975  25.0531149   3.3526021
  34.2740655  29.5475364  29.1587949  34.4878197  29.1632152  30.0089931
  33.6180735  30.2160501  29.3562603  21.2286091  20.0764561  38.5317302
  21.4895463  19.2115116  38.2154822  21.9197178  20.3256607  39.1453242
  33.8907719  33.6192608  15.8987796  34.4822073  33.0355644  16.3738918
  34.4308162  33.9919853  15.2018857  41.2236452 138.7724871  36.2920809
  40.4288483 139.1435797  35.9089088  40.9395981 138.4149832  37.1333551
  15.1624012   0.5207713  25.1707768  14.8364508  -0.1520659  24.5730495
  14.3757761   0.9767161  25.4700518   9.4677299  42.1839571  47.8858328
  10.1204312  41.9442225  48.5436630   8.8430291  41.4587450  47.8928614
  14.7825384  30.9168649  97.1701678  15.4627562  30.3780413  96.7661806
  14.9455857  30.8431602  98.1104954  32.1524429  19.8872757  38.1003404
  32.2581196  20.2162576  38.9929986  32.6012111  20.5316114  37.5529194
 118.2258297   2.5962311   4.9327090 118.0548126   2.2657552   5.8146220
 117.5132716   2.2409296   4.4014335 113.5072631  13.3442795  45.6966972
 114.0213425  13.5418034  44.9137926 114.1559214  13.2696307  46.3966274
  50.2077675   9.1334319  34.4955635  49.2820597   8.8905078  34.4788551
  50.4415512   9.1224754  35.4237103  60.6022215  16.1326718   5.8035535
  59.9061584  16.5845454   6.2805665  60.4427767  16.3494205   4.8849514
   2.4216899 140.4238934  21.1337948   2.0168188 139.8291124  21.7651010
   1.9440910 141.2466658  21.2395167  20.6805921 140.9790874  17.3996508
  20.1739669 140.8166630  16.6039240  21.4140201 140.3663678  17.3458731
  31.8309712   1.0041026  49.3519592  32.2050238   0.9609345  48.4719276
  32.4150777   0.4668164  49.8870993  44.6805334   5.2669346  90.5383655
  44.4664717   6.1815691  90.7223614  45.6162500   5.2757978  90.3369089
  26.9038939  19.3387830  99.5429786  26.3178182  18.7853801  99.0267512
  27.4389482  19.7933412  98.8923439  14.5929468 140.8358485   6.9837654
  14.6433091 140.0448603   7.5204527  15.4900694 141.1689998   6.9634128
  33.0908084  40.0697136  77.1293696  33.2692885  40.5347967  76.3120159
  33.8351274  39.4772577  77.2352799  13.7486386  21.6514397 104.3857911
  14.6994388  21.5859795 104.2967685  13.4429348  20.7446599 104.3628123
  24.7266102 144.0771749  16.3554096  24.7018933 144.9057687  16.8340051
  25.6125784 144.0347668  15.9955573   9.4929338  27.5666523  27.0703650
  10.3917503  27.6771140  26.7602730   8.9770830  27.4492311  26.2726545
  57.4972343  51.6497278  22.4456263  57.6122999  51.1507225  23.2543182
  57.9719400  51.1465120  21.7840695  39.3219137 129.7091264 104.4826468
  38.5238051 129.2347259 104.2498430  39.1497970 130.6124158 104.2167988
  51.8557549  23.1613135   7.1077698  51.1851835  23.1634951   6.4247203
  52.3795605  22.3808837   6.9266838  44.9689388   8.8985914  15.8052540
  45.5056381   9.3895394  15.1830339  45.5774021   8.2814109  16.2115705
  22.3367572 139.3172515  92.1117433  22.8024530 140.1526911  92.0743283
  21.9827127 139.2799778  93.0002781  26.1368561 146.1045933  82.6860714
  26.0962272 145.9897518  81.7366505  26.9830990 146.5244102  82.8405476
  27.8383756   5.1629620  53.9294720  26.8966889   5.0127392  54.0124893
  28.1139255   4.5737343  53.2272482   6.0307533   0.4414635   5.7975141
   6.7573702   0.7177430   6.3560239   6.4113438   0.3821259   4.9212400
  24.8512268  23.7633686  92.2973347  24.6098399  24.3863468  91.6118622
  24.8042583  22.9077702  91.8707466   3.1571150 141.6489315   9.9179498
   3.0376604 141.7728806   8.9763490   3.2060102 140.6996059  10.0302545
  26.0704470   0.4126149   8.6873666  25.8063698   0.5657749   7.7801458
  26.3511992   1.2714272   9.0033475  31.1662412  12.7058487 101.7148209
  32.0194936  13.0808907 101.9328594  31.2058949  11.8098717 102.0493031
  14.9795890   8.5475045   5.1569215  15.4884672   9.3543320   5.0774995
  15.6371176   7.8541069   5.2124635   3.2345954  93.3712292 104.6692753
   3.0111969  93.8741875 103.8861084   3.9591697  92.8093529 104.3944740
  21.2537766  36.3718777  32.7860013  20.8258653  35.6175976  33.1912175
  21.9283462  36.6304760  33.4139386 118.9015651  13.7037449  13.1953660
 119.3559641  12.9212647  13.5075513 119.5570088  14.3991833  13.2500688
  51.7923307 100.5453205  23.6166040  51.5235996 101.4405727  23.8228742
  51.1309862  99.9942780  24.0351716   4.0724745 138.5321426   4.4149438
   4.9090418 138.9970112   4.4317476   3.4589800 139.1274261   4.8456327
  40.2411890  10.6186562  97.8139591  39.9129152  10.2901440  98.6509418
  39.4527888  10.8189946  97.3094559  11.2739503 125.9867477  98.8785362
  10.8882380 125.8916569  99.7494030  10.6214702 125.6140232  98.2855988
 110.2930529  89.0665722 105.0454426 109.9605638  89.4318295 104.2255211
 110.2928693  88.1199646 104.9034405   7.8032684  16.9346791  33.4757654
   8.2916892  16.1792927  33.1485597   7.1523422  16.5602093  34.0693036
  16.9505775 142.1780872  76.3066149  17.6387382 142.1406555  75.6423378
  16.7451572 143.1095695  76.3864422  35.8889318 145.3721809  42.2703878
  35.8796477 145.7328796  43.1569806  35.8448887 144.4244003  42.3969404
  33.4603000 136.3436794  81.5351486  33.1151056 136.4816284  82.4172115
  34.0431809 137.0883274  81.3868809 116.4796359   4.0993958 100.1115036
 116.6156305   3.7150555  99.2454624 117.2642166   3.8609295 100.6052589
  52.0904350 132.6578617  43.7292719  52.0913267 133.0833435  44.5867109
  52.4489307 131.7858028  43.8942528  29.0967512 131.9071960  19.9071351
  29.3639302 132.3910618  20.6886140  28.2242656 131.5746880  20.1179353
  59.6903133 120.0450611   0.7745019  60.3941059 119.3963242   0.7815019
  59.8412800 120.5536366  -0.0222453  10.0903404 116.9465351  99.7365856
   9.3569940 117.4246502  99.3494892  10.7033920 116.8209267  99.0122795
   1.6244386 131.7877865   0.4626409   1.0543641 131.4811516  -0.2425059
   2.4827012 131.4186478   0.2544252  19.5103347 131.8797779  97.7718925
  19.2365491 132.1841526  96.9066525  20.3852654 132.2495842  97.8901005
  13.9864147   6.8966084  44.3294811  13.9353669   7.0919686  45.2651405
  13.7528026   5.9705906  44.2650557  29.2433858   3.1543522 103.5116005
  28.6901021   2.3734360 103.4949875  29.9115896   2.9605179 104.1689968
 122.3330889 107.9714584  87.4803066 123.0505372 107.6709652  86.9224453
 121.7355538 107.2250080  87.5248814 123.6477575 143.7911510   3.7180082
 123.2063147 143.8633537   2.8717557 122.9429427 143.8576126   4.3622533
  43.6594391  21.3139325  82.4567986  42.9330254  20.6933003  82.3986721
  44.0352678  21.3258725  81.5765476  57.3251581  74.0461111  95.7266808
  57.1570015  74.5368576  94.9222469  58.1357718  74.4210815  96.0709763
  29.3421817  11.4601307  85.5709839  29.1367650  12.2365647  85.0502300
  29.0466261  11.6793137  86.4546299   5.7696068 145.9008694  66.4543581
   5.1355618 146.5739918  66.2071085   5.7203758 145.8647919  67.4096107
   9.5321727 115.0776100  15.8069269   8.8433188 114.6176720  16.2866918
  10.3467095 114.6895599  16.1265794  32.3501515 101.9593906   6.2774984
  33.0644226 101.3259602   6.2080900  32.7430391 102.7927876   6.0180417
 123.5523550   0.7025414 103.0094719 124.0988388   0.1220875 103.5392475
 123.1979468   0.1373368 102.3230457 119.4941283  82.1048450  69.1655540
 119.2288978  81.9023418  68.2684088 119.4641048  81.2629509  69.6200132
  33.8566780  18.9376431  67.5022507  34.3197823  18.1176358  67.6736164
  32.9320097  18.6909657  67.4829054   5.4666191 133.0846405 107.0237637
   6.1140877 132.5736809 106.5380287   5.5076206 133.9572525 106.6324806
  21.8569899 130.7339764 102.8403378  20.9131336 130.8876896 102.8820515
  21.9756651 129.8663235 103.2267666  21.9420242   8.0251198  88.5031414
  22.6104498   7.3533993  88.3681297  21.4402318   8.0309277  87.6880360
  13.0455005 143.2769585  91.9512844  12.6840436 143.3589077  92.8338242
  13.5631299 142.4722481  91.9782352  25.9060931 145.9898281 102.4726963
  25.5422735 145.4950905 103.2069302  25.5902743 145.5305862 101.6945076
  16.8662834   8.2800942  97.9951859  16.7164850   8.9088898  97.2891998
  15.9885144   8.0354290  98.2882595  15.1836908 122.7510643   5.8698980
  14.8085248 122.8488636   6.7450658  14.4255602 122.7207375   5.2863256
  11.7120588  14.0085583  78.5295248  10.9818947  14.0414982  77.9114580
  11.5253305  14.7057705  79.1582108  18.5396695 129.5663071 108.4081364
  18.0891359 129.2854881 109.2046261  18.1610715 130.4223633 108.2079601
  73.9340973   6.2515049 102.1641731  74.3744946   5.6484585 101.5653324
  73.8607931   5.7636147 102.9844284  37.0531559 124.1470909 106.6048717
  37.1144176 124.7094345 105.8327007  37.9600048 123.9146423 106.8044472
  28.7772703 143.4601593  81.2584019  29.0738249 144.2888832  80.8822441
  29.5767403 142.9437733  81.3604927  14.9512470 116.2703133  81.6925049
  14.4326854 116.8687344  81.1547184  15.7894957 116.7177010  81.8083572
  32.2308373  27.7626782  62.8938293  31.9742417  28.6641674  62.6996565
  32.3308921  27.3518734  62.0350695  29.3320537   8.4945660  96.0195351
  29.3276501   8.0758744  96.8802834  29.1608262   9.4185334  96.2017536
   3.5304856 104.6756172  41.7080823   4.4515771 104.7210693  41.4516584
   3.3409101 103.7385559  41.7550889   8.9934647 132.5356483  75.8191967
   9.1297346 131.7623329  76.3666010   8.0424041 132.6067543  75.7375860
 107.1778709 146.1918354  20.8337060 108.1244964 146.0667610  20.7667104
 107.0769174 147.0861244  21.1597101 109.6794123  12.5760823  95.7991028
 110.3367085  12.2252827  95.1981640 108.8470859  12.2405987  95.4660702
   7.0856613 127.3536301  15.4578344   7.6395923 126.7601871  14.9506704
   7.0295900 126.9481659  16.3230935 110.3398449 145.5754375  12.9535142
 109.9548275 145.6260777  12.0786229 109.6562046 145.1787853  13.4934560
 106.2792499 101.4411545   9.5264474 106.5292401 100.6803131   9.0021840
 107.0474643 102.0116711   9.5020906  33.0394244   2.3804360  82.3805237
  33.8561988   2.3467331  82.8784943  32.4694562   2.9531174  82.8937531
  51.8389082 108.1649399 108.9655972  51.4411068 107.5960159 109.6246243
  52.7495670 108.2559967 109.2460155   1.1557467   1.1243325  23.2745973
   1.9861467   1.5332871  23.5183755   0.6184767   1.8474942  22.9511586
  87.1817369 117.9990482 100.5867672  87.3267884 118.8786602 100.9352970
  86.2380022 117.8615952 100.6686306  28.9281392 145.5506420 108.7064838
  29.5094991 146.1885166 109.1204548  28.0475974 145.8908081 108.8651085
  40.6775475  98.4452343 103.5815907  41.1289358  98.8740063 104.3086624
  40.0635719  97.8433895 104.0023613 124.7857747 141.2813377   2.5931875
 124.4105859 142.0204163   3.0719606 124.9741365 141.6309452   1.7222539
  14.5523381  19.0375882  49.9243871  13.6714470  18.7258129  50.1318876
  14.8071265  18.5371380  49.1492311  49.9731970 122.8680801  45.0574207
  50.7935143 123.0497265  45.5160284  50.1519728 123.0996513  44.1460228
 116.6174627 134.6767044   3.7715474 116.5907944 133.7358761   3.5973016
 116.4068741 134.7540188   4.7020952  36.1862206 122.8232574  69.8516655
  36.7481232 123.4821701  70.2595139  35.6695056 122.4682426  70.5749893
  32.1189547   3.9489537  22.5757829  32.0102620   4.6021920  21.8846170
  33.0669069   3.8582211  22.6726476   7.9058921   1.0143071 103.0062771
   8.5279042   0.6742363 103.6494637   7.5637758   0.2348309 102.5685501
  20.5908895 134.0065765   7.2080652  20.2658701 134.2502308   6.3413278
  19.8011661 133.8946533   7.7372495  25.1047564 131.9056225   5.5677739
  24.8843169 131.0205650   5.2773992  24.4264627 132.1239090   6.2069169
  34.8084831 144.4919014   8.3342401  35.6472754 144.9282074   8.1849042
  34.1668367 145.0493431   7.8940240  42.2055340   5.7957917  74.6486855
  42.2309494   4.8924713  74.9642706  42.9301214   6.2279492  75.1008415
 117.0097364   7.8440457  81.4000416 116.4313019   8.4213238  81.8984318
 116.7353857   7.9576283  80.4900646  25.6416583 118.2596493  70.7523823
  26.2026000 117.5144196  70.5374384  26.2395811 118.9122009  71.1169481
  17.2597408   3.0109864  92.1062565  16.6496539   3.7460404  92.0452404
  17.2321248   2.7526360  93.0275154 118.4401256 105.3491974   9.0718881
 118.0266077 105.6224346   8.2530061 118.1416315 105.9906483   9.7166196
   5.7598841 142.6426315  84.8237991   5.6137127 141.9271374  84.2049885
   6.6423678 142.9552078  84.6244240  17.6918185 100.0916290  97.6140785
  17.0505512 100.0468349  96.9048500  17.1767592 100.3168774  98.3888149
  11.1391056 103.7881851  16.3112871  11.4482510 104.3314457  15.5863611
  11.1601377 102.8951836  15.9672967 119.2055244 125.9109497 108.9388847
 119.5847530 126.7401791 108.6476994 119.5751143 125.7716274 109.8108006
  17.3410165 125.9060001  17.8304521  18.2848620 125.9627724  17.6815740
  16.9556725 125.9860897  16.9579068  12.1524894  14.9648838  31.6722528
  12.9895639  14.5741825  31.9230501  12.1194971  15.7908421  32.1548787
  41.4879704 124.7142982  90.6934834  41.9827318 125.4604149  90.3547478
  42.1181393 123.9938736  90.7038975  93.2497115 144.3868446  16.1050550
  94.0997595 144.5426655  16.5166036  93.0593867 143.4670448  16.2893621
  28.6977267  11.4335804 104.7773743  28.0606461  11.9310074 105.2901363
  28.2193661  11.1705475 103.9911079 123.8070733 128.3909130  13.9568750
 123.9220173 128.2063484  14.8890535 124.3602307 127.7466011  13.5151521
  13.8872063 136.5933800  92.6198006  12.9998577 136.7748165  92.3100853
  13.9629138 135.6398296  92.5844955 106.2578399 127.7921867  85.8813953
 106.0200674 128.1299686  85.0179195 107.1061284 127.3693180  85.7479000
 103.3314151 134.7308445  21.6112653 103.5523672 134.4321632  20.7291166
 104.0131277 135.3674221  21.8263665  20.9632564 137.5342369   8.7776128
  20.5932260 136.9384098   9.4289914  21.2815428 138.2790279   9.2877237
  24.4992280 121.5779591   6.1391393  24.2027569 122.3034191   5.5895559
  23.9198112 120.8513927   5.9097806 118.3194346   4.3101864   8.1083623
 118.1326903   4.1123181   9.0260736 117.5055850   4.1042023   7.6485196
   6.2050408 132.4929047  75.6834269   5.6695563 133.2740307  75.5443907
   5.6911993 131.7797184  75.3045416  41.9975805 142.2142124  99.5876598
  41.5841866 141.3909149  99.8475266  41.2942171 142.8615475  99.6373653
 108.6493964 127.9729271  83.5147381 109.3175620 127.7771091  82.8578949
 107.8186817 127.8233528  83.0633259  21.2972116 129.4051170 107.9189968
  20.3683805 129.4775200 108.1386852  21.7098951 129.0913200 108.7236500
  48.2463169 140.8367634  88.4668827  48.8625383 141.4565182  88.0764961
  47.4667549 141.3597679  88.6539078  21.1681628   3.0485897  15.9587613
  20.2957797   3.1274014  16.3447229  21.7363119   2.8223400  16.6951314
  38.6591935   3.8554173  -0.1947077  38.1470752   4.6611290  -0.2639064
  38.2738233   3.3896714   0.5474607  25.3526521 132.4013329   9.0156785
  25.0441527 133.2552624   8.7125913  25.3765488 131.8611526   8.2258264
  20.1227546 145.0170422 109.0322399  20.3699136 145.9393883 109.0987110
  19.3223262 145.0207996 108.5073280  21.1108971 123.1634903  94.7547150
  20.7176232 123.1030560  95.6252956  21.6790891 123.9323902  94.8014164
   1.9286184 128.0930138  92.5553703   2.0889607 127.8424835  91.6455650
   2.6912758 127.7653027  93.0320168  42.1723652 144.5794392  78.8832140
  41.6408443 145.1693344  79.4177580  41.6088724 144.3537331  78.1431007
  36.5294456 126.4798737  91.5571976  35.9715104 126.2188911  92.2898865
  37.4213243 126.3247776  91.8682098  23.2777619 138.8247013 109.5504475
  24.0785170 139.3488979 109.5347786  23.5610151 137.9638577 109.8585796
  13.8258219 144.5504665  10.0812475  13.8200104 144.9959278  10.9284631
  12.9800391 144.7690010   9.6899358  99.6587581 143.6378956  69.8851299
  98.7432784 143.4174728  70.0570107 100.0395412 143.7731266  70.7528591
   5.4828948   9.6021920  77.2418880   5.8645236   8.8724785  76.7539215
   5.2886784  10.2607708  76.5749693  28.4006453 113.0761051  99.0295792
  29.0292001 112.6104259  98.4779453  27.7148175 113.3591366  98.4247875
  16.6432846 111.4144325 107.5343704  16.4916170 111.6063976 106.6089725
  15.9155607 110.8445549 107.7831650 118.7964732 106.7311096  84.1647816
 117.8904981 106.6360664  83.8708210 119.2123378 107.2672749  83.4896374
  28.9860392 105.8140659  54.6232224  29.0588546 105.7400036  55.5747700
  28.1924224 105.3254223  54.4049835  25.0132251 130.6575871  94.0343761
  24.1645241 130.8154774  93.6208439  25.3874636 129.9271393  93.5418224
  44.2344379 105.7636833  16.7233888  43.6248875 105.9723949  17.4312917
  44.6703100 104.9615955  17.0113317  22.1162415 131.3133717  71.6254663
  22.6360202 130.5431747  71.3955641  21.3946915 130.9673214  72.1506739
  98.2124323 114.4755459  94.9324512  97.5809259 114.1909599  94.2718220
  98.6153216 115.2584934  94.5570755   9.8278284 132.2492027  58.1319380
  10.0220919 133.1692600  57.9530811   9.9768502 132.1513748  59.0723896
  42.6698732 128.9970970   8.4139768  43.5164452 129.1455746   7.9926721
  42.3293638 129.8754787   8.5834829 122.0859314   3.1452542  91.7480373
 122.3161616   3.0833798  90.8209991 122.8492569   2.7962380  92.2082043
  22.7511263 111.6296387  82.4348640  22.9725742 112.2496319  83.1297016
  21.8525481 111.3630867  82.6291370  35.0087857 109.7476959 107.5023174
  35.0138760 109.6483803 108.4543324  35.4813027 110.5649948 107.3442364
  33.0712390 101.1203575  89.1657734  32.2399855 100.6637192  89.2951298
  32.9115987 102.0056725  89.4928265  32.8143001 117.5686264  92.2407150
  32.9328084 116.6582298  91.9698334  31.8847799 117.7433014  92.0933533
  -0.1257738   3.7032490  12.6798669   0.5986986   3.0891686  12.7993623
  -0.2714359   3.7206822  11.7339746   4.2116427 125.9757614 100.2830124
   4.2049113 125.5397415  99.4309139   4.5964682 126.8348408 100.1094246
  26.8044281 138.8389397  91.8379688  26.8861055 139.2663765  90.9854031
  26.4630580 137.9674911  91.6372681   3.9600930 122.6630688  97.8095818
   3.9018580 122.1552658  98.6188793   4.2552528 122.0330143  97.1522045
  22.4177003 142.4962234  10.5631582  23.0859947 142.4600792  11.2474862
  22.9065514 142.6769829   9.7602979  15.1289058 139.9561119  24.8353330
  16.0749972 140.0987053  24.8637716  14.7924352 140.4288960  25.5965749
 123.2201061 145.1758385  69.3876028 123.6082250 145.7572365  70.0414848
 123.2995085 144.3009567  69.7677565  42.3440456 131.1313725  80.1690674
  42.5068092 130.2709770  79.7824717  43.2162905 131.4809322  80.3513432
  16.2920439   3.5441475  79.5823193  15.4387355   3.7591057  79.9590015
  16.5259218   2.7062588  79.9816608  57.5608540  32.0800000  89.6121693
  57.3567247  32.0033818  90.5442047  58.5170174  32.0573979  89.5737457
  34.3941545 107.2755146   5.5303708  34.7000813 107.6293755   4.6952573
  33.9856791 108.0206490   5.9709970  23.8913870 143.3606529  81.4720440
  24.4605708 143.4107399  82.2399998  23.4442329 144.2066956  81.4497471
  40.7129383 109.1346359  82.4866581  39.7706199 109.2896652  82.4215508
  41.0869646 109.6206474  81.7517185  19.8005533   1.1868458  69.4702435
  19.4434559   1.2119847  68.5825014  19.2163086   1.7486554  69.9794149
   8.4345067 123.3230209 109.6639061   7.6079899 123.6069012 109.2733765
   8.2782996 122.4143219 109.9210072 114.8166794   1.6643410  12.8864614
 114.2963762   0.8638745  12.9555551 115.3184790   1.6948872  13.7010137
  51.0372591  19.1484623 108.7868404  50.6305838  19.3245106 109.6352863
  51.5202856  19.9490719 108.5820293  26.1048818   4.7099572 100.5882168
  25.7771206   3.9928704 101.1309814  26.6970229   5.1944142 101.1634541
   5.3103483 115.7750702  90.6738949   6.2167716 115.8745384  90.9649849
   4.7950348 115.8073425  91.4799023  14.2635810   5.3655224  16.4969961
  15.1805544   5.1417904  16.6561548  14.2827952   6.2881737  16.2428514
  16.5394640 138.5919380  91.5934849  16.8702149 139.3875504  92.0104313
  17.0449829 138.5178280  90.7840443  17.3729193 117.3074722  78.9956808
  16.7033529 117.9463100  78.7511396  17.7307415 117.6389027  79.8192978
  41.9038153 134.8622513  93.9164734  41.6954470 135.7213974  94.2834473
  41.9230270 135.0043201  92.9700661  35.0120807 143.2688904  10.7724325
  34.9875522 143.6924934   9.9144117  35.8639908 143.5116482  11.1351243
 124.3996797 111.2845898  65.0356483 125.3565734 111.2757397  65.0130987
 124.1404791 111.4658356  64.1322088 121.2089578 118.4966373 107.5458241
 121.7910147 117.7929783 107.8327274 121.5975032 119.2921925 107.9096317
  26.5309858 124.7803974 102.4800396  26.8868375 125.5784321 102.0892143
  25.5823827 124.8726463 102.3912907   2.0037580  12.1695881  82.8364372
   2.8634503  12.4617176  82.5334263   1.8869543  11.3096409  82.4326038
  26.0681224 116.8044758 109.4428444  25.8859348 117.7242756 109.2504597
  25.2122760 116.3775730 109.4039726  25.1576734 134.2866516  87.2307587
  25.1713729 134.7336388  88.0770779  24.2327356 134.0947342  87.0762062
  41.1360073 141.3003731   1.7049733  41.6896296 142.0753956   1.8001691
  40.4431152 141.5733719   1.1036340  98.5504598 125.0442505  77.5224781
  99.2251558 124.3675137  77.5776482  99.0253491 125.8663940  77.6441002
  29.4022202  25.8583622  70.1361752  28.4499788  25.7911854  70.2065563
  29.6723032  25.0291806  69.7415447  62.4746895   2.3121434  79.2581892
  61.8166113   2.5652294  78.6107969  63.0058146   3.0990963  79.3800640
  92.4115843   3.4159737 100.9130001  92.8301353   3.0492382 100.1341820
  92.8489131   4.2569046 101.0464191  12.0845544  16.7495518  65.8546543
  12.9994643  16.5216618  66.0197020  12.1128118  17.6630955  65.5703020
 112.8322143 144.2903233  34.5872331 112.3334939 143.9231873  35.3171086
 112.5988585 145.2186203  34.5806217  13.3985949 145.9435844  27.9510537
  12.8752720 145.2357197  28.3269445  13.8877678 146.2996769  28.6927644
  91.6419691  19.5763951   3.0308572  91.8216080  19.6969586   2.0984308
  92.3307056  18.9842205   3.3328573   3.0232936 117.4985504  68.3601618
   3.3143741 116.6266251  68.6270905   3.4950474 117.6694298  67.5450039
 114.3862719  95.7227612  75.3852940 114.1708881  96.1026955  74.5335340
 114.2018086  96.4216232  76.0128307  18.8642204 128.6124039  85.6137657
  19.3888211 129.0196609  84.9244404  19.2578554 127.7484226  85.7354736
  15.4042614 119.2310143  79.2449331  15.5397439 120.1416492  78.9829588
  15.2151322 119.2770195  80.1821327 123.3566963   9.8712235   6.0824815
 123.0186788  10.4954987   6.7245523 123.5536697  10.4034500   5.3116552
   7.9744214 136.6600800  79.2897940   8.7392282 136.8084049  78.7336445
   8.3372682 136.3394737  80.1154995  24.1588068  18.5378437  98.8592052
  23.5681677  19.2564946  98.6335373  23.5775089  17.8061848  99.0665627
  26.4154553 131.8661308  57.6846790  26.6533995 132.5790119  57.0918846
  26.9663548 132.0017338  58.4556246 123.2307132 103.1420040  81.7286301
 123.9511676 102.6662254  82.1419239 123.0482536 103.8669205  82.3264790
  19.5816696 130.9874249  91.2351513  18.6484921 130.9400558  91.4429283
  19.8560965 130.0738335  91.1559868   4.4881716 106.6962910  75.2599192
   4.1988638 107.3334122  74.6067715   5.4437613 106.7180061  75.2088404
  13.3284664 127.3108959   3.5868779  13.6917305 126.7527294   4.2744294
  13.8365030 128.1202698   3.6420766  47.6266050 109.4747925  84.2934990
  47.4748659 110.0347710  85.0548267  46.7524719 109.3075943  83.9411259
  37.3929119 129.5207500  95.6699944  37.9380822 129.0458107  96.2972546
  37.6543975 130.4360676  95.7702827   6.9149071 126.6861153 101.5412617
   6.7264378 127.5455189 101.1642361   7.3379439 126.8791676 102.3779202
 113.1866092 138.3732510  70.7130146 112.9774625 138.4570885  71.6433191
 112.4495108 138.7867165  70.2636099  39.8180771   0.0022202  43.9979124
  39.2267418   0.1932412  43.2698584  40.6849670   0.2444821  43.6722708
  18.3266580 146.4080906  64.9031401  18.0970693 145.5430984  65.2427101
  17.7622437 147.0122814  65.3854513  35.6556702 128.5118103  76.5687132
  34.7847271 128.9001274  76.6517925  35.6201625 127.7252960  77.1131086
 119.3613440 128.5599327  73.6680698 120.2681804 128.8597488  73.6049366
 119.0982551 128.4001541  72.7617121   5.6847751 115.3720856 105.1963139
   4.8426807 115.8138371 105.3056812   5.7322508 115.1752281 104.2607784
  14.6386778  25.2401715  96.1650753  14.8908651  24.4217472  96.5926552
  14.0271401  25.6511097  96.7761326  16.6447330 139.8666668  82.8666878
  16.2931275 140.7058907  83.1638622  15.8953536 139.4183350  82.4746990
  98.8661808 118.8056850  98.9825439  98.4886784 119.0095139  99.8382187
  98.1197781 118.8139915  98.3833408 106.8277366 136.2450886  60.9654379
 106.0035235 135.8782387  61.2853241 107.0009655 136.9865894  61.5454388
 123.0226426  28.6766796  89.6306229 123.4572967  29.4011860  90.0805092
 122.2871051  29.0850430  89.1740417  38.7039423 115.1540470  75.2484465
  38.0912900 115.5825806  74.6507502  38.2698274 115.1873684  76.1008930
  30.0834060 128.8965130  85.4878616  30.7902956 129.2876244  84.9744701
  30.0241518 127.9965591  85.1672268  22.5213552 134.2328167  81.3046837
  23.2680392 134.4660187  80.7530403  22.8266120 134.3871021  82.1986961
  22.2557592 130.0848484  60.4798174  22.9210091 130.3946209  61.0944033
  22.7278256 129.9661732  59.6556187   3.5007465  96.5820408  78.9880514
   3.3696148  96.0974598  79.8030519   2.7908409  97.2239685  78.9742041
  -0.1832644  12.7898197  80.6312084   0.0291485  12.0561295  81.2081051
   0.6612675  13.1996899  80.4441166 117.7145166 128.8580132  60.8555555
 117.8529061 128.2566929  61.5873289 118.4256179 129.4943523  60.9306765
  14.4670391 122.4981785  62.4051905  15.2921498 122.6698112  61.9513512
  13.9115071 122.0851135  61.7441320  34.4231677 134.5173931 108.4136486
  35.3588939 134.3223667 108.4647655  34.3790007 135.3650570 107.9712009
  20.5112553  31.3282566  95.9997272  21.3195992  31.3480168  96.5119934
  19.8432946  31.6719799  96.5929508  35.1070762 137.9336739  10.7603780
  34.9318004 137.4603558  11.5736905  34.3762922 138.5463047  10.6775323
  22.5070810 115.8513260  62.0570755  23.2519484 116.1228085  62.5934601
  22.7486372 116.1044312  61.1661100   2.7993152 125.6360531  76.7508173
   3.7483612 125.7590103  76.7301512   2.4827984 126.3147736  77.3469591
   5.2679950 142.8405762  52.4786758   5.1209670 141.9432354  52.7776527
   4.6425071 143.3650970  52.9785490  29.5405293 136.0668755  56.7796993
  30.2462506 136.6365051  57.0858240  28.8822055 136.6676521  56.4305401
 111.6968877 142.9664803  97.7062511 111.8692536 142.3859596  96.9649506
 112.5066585 143.4656048  97.8129387  25.2386975 123.3724308  78.0252266
  24.4453216 123.9042091  77.9619741  25.6100035 123.5967731  78.8784790
   3.1772670 129.2597103  82.5772572   2.4972677 128.7908459  83.0609894
   2.7502683 130.0642204  82.2828579  31.6959095   5.2700119  86.4766598
  31.8942666   6.1980896  86.3519382  30.8424807   5.1494294  86.0603046
   4.8159778 133.5974979  64.2246199   5.1855713 132.8574944  63.7429237
   3.8731271 133.5362053  64.0712976  26.4900970  21.0720044  94.9450397
  27.4329853  21.2339001  94.9136734  26.1036587  21.9351750  95.0927544
   4.9205479 132.8246021  47.6787138   4.3328232 133.5472965  47.8989887
   5.6322640 133.2356930  47.1881104  36.9917178  24.6130925  82.0027733
  37.4532127  24.6326619  81.1643982  37.2323561  25.4362469  82.4279213
  29.2937016   2.0367985  74.6831322  29.0373087   1.1369496  74.4811964
  29.4768620   2.0285588  75.6226063  24.7844362 122.2043228  89.0594482
  24.0940189 121.5989590  89.3298149  25.4980779 121.6379833  88.7658310
 105.8476502 118.9218807  63.2553720 105.5714125 119.7362995  63.6756802
 105.2433068 118.8144398  62.5208950  39.2870712 124.6770000  84.6893311
  39.1773820 125.1536655  85.5121231  39.1234493 123.7622452  84.9188232
 118.7573523 121.2093830  75.7656813 119.1830040 120.4096603  75.4566622
 117.8286166 121.0745430  75.5772638  91.6140217 133.7892151  92.1666050
  91.6250128 133.0708122  91.5341473  91.2899966 133.3918095  92.9748726
  42.0104313 121.1695385  68.9889812  41.5390635 120.4213524  68.6225605
  41.8850422 121.0917759  69.9347448  10.4656434 141.5787697  91.0966015
  10.8757722 141.3326550  91.9257355  10.1468194 142.4694920  91.2421894
  18.4054756  28.2798367  91.8003559  18.4974623  29.1194516  91.3499737
  17.4990082  28.2709675  92.1077156  48.4083652 114.2267513  89.3310452
  48.4878063 113.8699436  90.2156925  49.1487360 113.8517284  88.8541412
  43.7125158 116.5390015 106.2037563  42.9969406 115.9601879 105.9407616
  43.8012362 117.1556187 105.4770184  49.7137308   0.4028969  85.9053516
  49.0779877   1.0181408  85.5399323  50.3751278   0.3066998  85.2201271
  19.6593523 125.8418465  75.7750130  20.1646948 125.0452995  75.6126022
  18.9802575 125.5727100  76.3935852   5.9067255 111.3661480 102.9431343
   5.4941064 110.8713627 103.6510658   6.5121430 111.9599056 103.3871460
  46.3212585 133.4489536 108.1425095  47.0365381 132.8708458 108.4078407
  46.7003155 134.0003777 107.4580479  21.9070673  25.3831845  78.0537367
  21.8736482  26.3044720  78.3113241  21.4828086  24.9174671  78.7743807
  72.1992016 112.9832077  91.3106632  72.5141430 112.9887581  90.4067707
  71.9793177 112.0675087  91.4820576  51.4848614 139.3969154  52.7880716
  51.1182165 138.6047935  52.3952055  51.6959715 139.9585342  52.0422459
  26.8954158  13.7937146  66.3060331  27.4275756  12.9981499  66.2961197
  27.2928309  14.3560200  65.6411123   2.1894860  12.8347378  95.5148506
   2.2897965  13.2316380  94.6496105   3.0837020  12.6351624  95.7919407
  50.6496000 123.2685852 107.4841404  50.3019762 124.1318226 107.2600651
  51.5644503 123.2987404 107.2041798  42.3591566  13.5475903 101.5513515
  42.2122717  12.6892739 101.9487762  41.8258619  13.5379391 100.7565308
 124.7023220 141.5324688  95.7798290 123.9494262 141.2576580  95.2565193
 124.4247586 142.3535252  96.1860943   4.4556424  16.2113171  81.7039490
   5.2245349  16.6020184  82.1191502   4.7634146  15.9367924  80.8401585
  19.2193711 127.9922295  82.6056194  20.1156187 127.9228306  82.9344940
  19.2864537 128.5739803  81.8484592 104.4228644 143.4288311  54.5811510
 104.8506016 143.2651997  55.4216862 104.5106429 144.3725777  54.4474506
  27.3983002 101.7796421 102.8671360  27.8367734 101.1412334 103.4296417
  27.7525640 101.6125298 101.9937515 120.2506939 129.3827915  94.0713978
 120.7014165 129.7913074  93.3323383 120.5772672 129.8511505  94.8396492
   2.9740387 120.2519512   6.6246072   3.0394408 119.4032001   7.0623056
   2.5313592 120.8152866   7.2593633 115.8475030  10.4129677 105.4861832
 116.3929648  10.1415425 104.7479248 115.9071834   9.6873551 106.1075974
   7.2289205   2.8401165  51.5008307   8.0655330   2.4069481  51.6701794
   7.2889870   3.1294518  50.5903864  18.5123324  21.4667683  60.1754999
  17.9954302  21.5737515  59.3770027  18.1242859  22.0832997  60.7964134
  33.3350325  25.1087170  66.6879845  33.3225441  25.5227833  67.5508976
  33.6065912  25.8063488  66.0914803  28.8008833 144.3417931 105.4075623
  28.0208826 144.6429539 105.8735371  29.2800546 143.8224888 106.0532761
  10.9329736 134.7599411   1.3452283  10.1314914 134.8858547   1.8531743
  11.0558510 135.5887032   0.8823243  46.9859791 134.1198158  74.9920797
  47.6358795 134.7409344  74.6633482  47.3845243 133.2605743  74.8539257
   3.7665850 138.7137699  78.1114769   3.3218789 139.1779804  78.8206863
   3.0828425 138.1768513  77.7109146  31.5418720 119.8817253   5.9354535
  32.2203088 119.5264721   5.3612176  30.7185698 119.6045971   5.5334417
  48.5821486 106.2621212  82.9851246  48.1646872 106.4101696  82.1365738
  49.5078802 106.1348057  82.7776623  95.3522248 103.4880733  61.2609243
  95.5620951 104.4073677  61.4254808  95.2722210 103.1009102  62.1326685
  26.4531612 128.6526680  98.3570766  26.9673014 128.0599308  97.8088379
  27.0611238 129.3559933  98.5850048  17.9740763 137.0690155  95.8720493
  18.6800528 136.5931988  96.3095760  17.3925257 136.3842392  95.5417252
  39.7949386 134.5401764  56.4756823  38.9139366 134.4054413  56.8248463
  40.3299999 133.8783264  56.9137526 120.6763489 119.3753910  99.7288990
 121.1625916 120.1578999  99.9886513 120.8557070 119.2815113  98.7933540
  25.4860830 123.0870533  92.7028275  25.2024245 123.2511806  93.6021805
  26.4215803 122.8985882  92.7773571  19.2377079   7.2192650  83.5565853
  20.0232601   7.4377137  84.0580082  18.5152543   7.3667698  84.1669464
   0.6473419 146.2342358  91.7839146   0.3623405 146.2581825  90.8704376
   0.2331341 145.4498100  92.1435547  21.1440682 104.5546246  66.1293030
  21.9333816 104.9374390  65.7463312  20.9071589 105.1530361  66.8378305
  23.3888268   9.5449524  78.8516235  23.9523220  10.1784687  79.2958784
  22.5612807   9.5828610  79.3311644   9.6243697  11.5134793   7.7002279
   9.7874600  10.8189946   7.0620195  10.1123750  11.2433510   8.4781114
  21.2997508 139.0935040  71.1477661  21.1695433 138.2393360  71.5596819
  20.7313561 139.0772247  70.3777695  90.8964319 133.1193256  67.8792763
  90.9181590 133.3921337  68.7965155  91.0432214 133.9262962  67.3858404
  58.4120083  97.3486710  59.1717768  59.3590927  97.4359512  59.2797041
  58.2888889  96.4555454  58.8502169   3.7667653 139.5823383  85.6746769
   3.9084882 138.6370373  85.6241894   4.1962975 139.9309731  84.8935318
   8.2118523 143.5818481  66.1127377   7.3478633 143.8637829  65.8122921
   8.8238662 143.9954567  65.5039692  19.5621789 131.1212730  60.3775311
  20.3583527 130.6350327  60.1632595  19.6578288 131.3410091  61.3042450
  88.4661621 131.4448738  78.8852739  88.3285899 131.3590717  79.8286438
  89.3655247 131.7618561  78.8022327  11.1888874 136.5799713  91.3366127
  10.5953979 135.9102440  90.9967995  11.2472630 137.2271729  90.6337833
 122.9034326 145.4317951   8.3045904 123.7266843 145.0147820   8.5587350
 122.5471910 144.8625755   7.6224557 115.6269408 127.5329781  63.8393641
 115.9069676 128.4469891  63.8885117 115.8162678 127.1774483  64.7076845
  82.8859062 114.1095352  99.1022587  82.7226419 113.4845829  99.8086643
  82.7340431 113.6095524  98.3002758 111.2230558 130.3089333  80.2762413
 111.0371692 131.0549927  79.7060776 112.1381850 130.4249573  80.5317974
 107.5736243 143.2244015 104.4638824 108.0952711 142.5067902 104.8232555
 108.2114632 143.9123344 104.2737961   1.7483291 135.2046776 101.9670582
   0.8545949 135.0169659 101.6802883   2.0988515 134.3539524 102.2309494
  17.0649171 107.1029186 108.9489460  17.4398041 107.5071430 108.1664562
  16.8893015 107.8373337 109.5371914 113.4365374 100.8981133  62.2965479
 113.0652065 101.4173508  63.0098104 114.3654353 100.8214760  62.5145054
   1.6828912 145.2653599  67.3548603   2.4648483 144.7266674  67.4756384
   1.3314362 144.9908829  66.5078783  45.0629282 115.8579063   4.4430295
  44.9218607 116.0100746   3.5085908  45.7792568 115.2239132   4.4769994
  99.6056361 119.5985126  67.8621674  99.6399230 120.5469131  67.9870081
 100.0335783 119.2390156  68.6392546  34.0188146 144.7522259  79.4032526
  34.7266126 144.8558521  80.0392628  33.3472395 145.3714275  79.6892691
 120.2858148   0.6473999 104.1326523 119.4933218   0.9224682 104.5936489
 120.9531207   1.2763291 104.4072151 108.9483518   3.3468991 105.7038593
 108.4517080   3.8826828 105.0853825 108.5548789   2.4768906 105.6368160
 121.9245485 110.7061577  91.3151073 121.4265964 111.4985657  91.1142254
 122.3936839 110.5062866  90.5050468 117.6620681  38.5861187  83.0415916
 116.9301099  39.1752224  82.8587246 117.2777272  37.8811436  83.5626602
  18.8553643 124.8866749  82.3885155  19.1493928 125.7948971  82.3184013
  18.3548176 124.7344112  81.5869617   0.6100971  88.1025791  80.4305077
  -0.2369921  87.6755714  80.5583191   1.0625447  87.5509167  79.7923851
  35.3218818 145.6182861  89.0427685  35.5133915 144.8802853  88.4640598
  35.9010482 145.4901409  89.7940159  36.2307262 109.9373913  64.5203781
  36.2082553 110.2352428  63.6109781  37.1246004 110.1197815  64.8101282
   6.4484644 119.4710732  83.6301041   6.3099700 118.8059902  84.3044281
   5.5960500 119.8957729  83.5339355  16.2524664 118.8021564  67.9789352
  16.9477379 118.9739513  68.6140060  16.5115929 119.2956352  67.2007561
  96.5504260   5.3244477  84.7870350  96.7980189   5.9287815  85.4868221
  97.1502704   4.5850640  84.8857117 121.2012920 125.3807640  17.6754609
 121.7418147 125.9216690  18.2512132 120.3013725 125.5890274  17.9264680
  35.6446862 133.7349701  62.0326900  35.9961367 133.1036186  62.6604700
  35.8948255 133.3864880  61.1769915  31.9985247 110.6112099 103.9841175
  32.4965644 111.2881374 104.4423103  32.6639986 110.0732613 103.5551834
  44.3893814 144.2444038  71.0326433  44.6782637 145.1445103  70.8823729
  43.6406279 144.1322231  70.4469681 105.2058560 140.7978058  90.7121277
 105.4242415 141.3444138  89.9573040 104.2691917 140.6239796  90.6189823
  64.9514675 140.4019642  74.1863441  65.6661749 139.9436855  74.6283913
  65.0598621 141.3179779  74.4421101  32.2102237 136.4187813  83.9889908
  31.3965297 136.4567852  83.4863091  32.0895505 137.0604801  84.6889114
  32.6310062  85.4529285  99.4615936  32.5566578  84.8984814  98.6848736
  33.5619926  85.4313755  99.6830273  21.6409492 133.6493111  95.0346947
  21.6639066 132.6964283  94.9468613  20.9511924 133.9287758  94.4327164
  13.0844557   1.0922032  65.1576662  13.1355655   0.1524430  64.9831438
  13.8978636   1.4470272  64.7989130  16.9407463 101.8303680  62.3637676
  17.4651992 102.3568726  61.7604637  16.3378084 102.4558926  62.7655363
   0.4587168  18.7367230  96.1686611  -0.0542659  19.4549351  95.7981682
   0.0504323  17.9450970  95.8181667   9.1277546   8.0539494  84.8713398
   9.8015988   7.3922234  85.0271702   8.5336256   7.9710465  85.6172466
  20.8174396 140.6170940  90.3747177  20.1749516 140.0029182  90.0194359
  21.4936066 140.0599957  90.7602978  18.0893660   8.6608391  42.5517941
  18.7198055   8.1729966  43.0816889  17.2343385   8.3597737  42.8592300
   0.9771887 139.0147972   3.5499803   0.8387679 139.8650455   3.1326619
   1.1576246 139.2243195   4.4663755   6.0124117 131.9830513  81.6287518
   6.8500608 131.8445301  81.1867237   6.0916895 132.8503895  82.0258331
  19.5523071 143.2069874  90.2507401  19.8664474 142.3050404  90.1872444
  18.9375150 143.1954098  90.9843063  24.8279786 143.0883503  61.1969852
  24.4766736 143.8892460  61.5860653  25.4246044 142.7415466  61.8603134
  97.7957434 132.1523952   2.1212617  98.3386464 132.9287910   2.2580282
  97.9911513 131.8783188   1.2251989  12.9175985 125.5815029  78.4408998
  13.1345773 124.7677422  77.9859829  11.9689906 125.6646633  78.3436441
 115.3125269 114.8926449  91.7657852 115.0466455 114.1790962  92.3457718
 116.2672991 114.9114037  91.8312740 116.2669713   9.8950463  94.2771149
 116.0081494   9.4009953  93.4992027 115.9496672  10.7831555  94.1133595
   6.3691068 128.2385159  83.3111000   6.6184795 129.1452026  83.1323147
   6.0933083 127.8940296  82.4616909   9.9839622 128.7723541  99.4652557
  10.7438278 129.0505409  98.9539433   9.6048468 128.0537033  98.9592457
  16.0805190 110.8901501  96.2911224  15.4876792 110.4908466  96.9277859
  16.0119200 110.3315830  95.5168247  32.4997592 103.4059238  66.9280291
  32.0450902 104.2366791  67.0671129  33.4277821 103.6229897  67.0168543
 111.0719878   3.8896256  95.2152729 110.4596383   4.0724068  95.9279060
 111.2285513   2.9468994  95.2698994   3.6796474 131.6758823   8.3505575
   4.4672483 131.1672497   8.5434476   3.6089256 131.6552067   7.3961965
  33.3441997 129.9127007  76.2415504  33.4681082 130.7875443  76.6097021
  32.3963952 129.8287010  76.1374235  44.8525333 107.4482918  93.7502670
  45.6237316 106.9155693  93.5561180  44.3967724 106.9671535  94.4409370
  15.9007633  96.2511349  94.0550041  15.8813703  96.0340214  94.9870491
  14.9792910  96.3300705  93.8082409  21.9059873 107.9228020  88.5737133
  21.3944197 107.6199627  87.8234959  22.7645993 107.5157928  88.4581184
 120.5673394  10.3836994  95.5945396 119.8158664  10.6798725  95.0809288
 121.3036663  10.4190426  94.9839592  24.1225195   1.6995697  83.3355141
  24.5350122   2.3874455  83.8579178  24.8405194   1.1092072  83.1070900
  37.8482461 136.2375069  74.2597389  38.4371400 135.9555817  73.5597706
  38.4219265 136.6569328  74.9009895   0.5297568  89.9026299  77.4412727
   0.7023937  90.5184364  76.7290831   0.8501118  90.3478050  78.2257605
 117.5352228 115.9125519 109.7691917 116.8785686 115.5529022 109.1727924
 118.2138384 115.2388954 109.8126698 116.6525430 144.8213196  65.4768229
 115.7668567 144.6867085  65.1396704 116.7531264 145.7725430  65.5128050
 124.0514751   3.4048825  42.8197479 124.2845910   2.4793892  42.8928328
 123.6993438   3.4939747  41.9341421  15.7794607  10.6318074  75.8854723
  15.8977532  11.5809326  75.8480501  16.6682291  10.2819615  75.9481573
  21.8349862 140.1400089 104.4868565  22.0335984 139.7289467 105.3281689
  22.3896813 139.6785164 103.8579178   6.9369066 134.5817661  72.0302439
   6.9816482 133.6897469  71.6859627   7.7180046 134.6669674  72.5769234
  18.4777272   6.5151387  93.0291748  18.0605996   5.6564885  93.0996227
  17.8485966   7.1200257  93.4222889  21.9540739 134.8202038  47.6061392
  22.5548673 134.2333221  48.0653095  21.1223841 134.7221470  48.0697155
  18.2656300 116.9388199  18.9162838  17.5104249 116.3985729  18.6838424
  17.8907013 117.6882553  19.3788970  31.3858795 138.9671230  67.1084023
  30.5988336 138.7431431  66.6117859  31.4448547 138.2897091  67.7821016
 109.3312234 124.0156078  73.5907125 109.8785061 123.5765362  74.2418146
 109.8150343 124.8110294  73.3683252  23.8869500   4.2567139  71.5734911
  22.9821563   4.4398289  71.8265724  24.3170071   5.1117688  71.5864658
  26.5435147  90.8117294  56.8161821  26.6329265  90.4223537  57.6860237
  27.2935486  91.4014721  56.7395163  27.6538682 122.2746944   6.6116086
  28.5483885 122.4744511   6.8875829  27.6767778 121.3466263   6.3783685
 119.2195178 146.3266945  63.2678270 119.6470005 145.5347824  62.9416847
 119.0118999 146.8286991  62.4797153  30.8687711 123.6636066  56.9024992
  30.4941154 122.9570770  56.3765001  30.2158117 124.3624973  56.8646860
  99.1425795 115.4607391  44.8929024  99.8693699 115.1974773  45.4574394
  98.4540600 115.7323360  45.4998636 102.1361679 146.4015102  75.4953146
 102.8905839 146.7471504  75.9724092 101.4950604 146.1976528  76.1762381
 115.2259011   8.3371048  23.9658856 114.3669254   8.6469822  24.2528892
 115.6525011   8.0365734  24.7683358 117.6942427   3.6510067  75.9445000
 117.7507210   4.5726948  75.6924772 117.8208692   3.1707554  75.1262331
  19.7155178 110.5722141  96.7401409  20.1895785 111.2292671  97.2498226
  19.1644192 111.0817242  96.1460686  24.1671133 130.6804180  57.9805994
  24.3452692 129.7421074  57.9169083  25.0052428 131.0974407  57.7809286
 122.2131915 127.6150799  45.1038265 122.4904252 127.3259544  44.2344666
 121.5964518 126.9431591  45.3943205  46.3873720 123.7733650  60.7225037
  46.9239664 123.0994701  60.3051710  45.4917240 123.4426117  60.6543493
 106.8523330 130.5674553  33.3627653 106.4342839 129.7063828  33.3587980
 106.1999530 131.1522102  32.9771590  12.5287020 140.9649277  39.7166085
  13.3362389 140.7671833  40.1909637  12.6648557 141.8463039  39.3689299
  19.0887642 129.3160820  72.4024677  18.5403895 128.5871410  72.6925802
  19.2255688 129.1560459  71.4687109  22.8830981 118.8370514  51.2511683
  22.8422523 119.6904087  51.6828251  23.5964513 118.3781528  51.6947603
  40.7737017 103.4746647  56.9653988  40.8056068 104.2650223  57.5044155
  40.4459143 103.7757587  56.1179733  37.5682116 119.3663216  41.8006754
  37.5415897 119.9083042  42.5892019  38.3308673 118.8012123  41.9240999
 117.2328604 139.0734959  91.5509033 116.4566953 138.5263443  91.6710091
 117.4065710 139.0395737  90.6102085   7.0716614  35.5015354   7.8510133
   7.3266345  36.4232045   7.8089372   6.4406872  35.4601460   8.5696164
 112.0996267  10.2750187  84.8167992 112.2659201  11.0729866  85.3186226
 111.2376148  10.4140168  84.4245625   6.1331660 134.9427891  82.2747421
   6.6441953 135.6802940  82.6081562   5.7869899 135.2504921  81.4370632
   4.6417105   3.2519608  86.5863800   4.3485340   4.1351967  86.3623810
   5.5888104   3.3349495  86.6975021  98.0718488 130.7787895  28.6552072
  98.6393780 131.1984062  28.0086279  97.3916883 130.3509045  28.1350851
  19.2225814 128.8370132  69.8540306  18.6929870 128.1930828  69.3837881
  19.1243899 129.6434593  69.3478394  33.6090827 134.8092937  90.1877213
  33.2144809 135.0940514  89.3634415  34.0757036 134.0039635  89.9642658
 110.5549795 134.5122433  90.8527660 109.5998926 134.4839764  90.9097004
 110.8210749 133.5929775  90.8333874   5.3389245 112.6149654  55.1074076
   4.6587861 113.2821560  55.0151825   5.6584489 112.7209377  56.0034609
  26.8779230 100.1301193  69.9722242  26.3326406  99.8084164  69.2543077
  26.2931371 100.6869698  70.4862070   3.5040358 110.2150822  92.1363735
   3.0412552 110.2018261  91.2985897   3.5275689 109.2985821  92.4115276
  37.1636367  22.3287373  99.5022964  36.5200901  22.9425412  99.8562908
  37.1105385  22.4465351  98.5538578  18.6897528   3.6616116  72.1896029
  18.0228400   3.9212303  72.8252602  19.4859850   3.5514241  72.7093172
 121.2866384 106.7278385  56.7817450 121.9098440 107.2206688  56.2479210
 121.6297585 106.7940140  57.6728773  10.7456148 132.2022820  27.4351168
   9.8376197 132.3244953  27.1579146  11.2247992 132.9103851  27.0047545
  16.9161475  17.8462200  59.4603872  17.4677694  18.0831318  60.2059221
  17.4784350  17.9737454  58.6963177  23.8576722  15.1639538  69.0214491
  23.9896607  14.3232327  68.5832644  24.1563964  15.0158863  69.9187088
  34.2424321 114.7494316  69.3895578  33.8389397 115.5525017  69.0601587
  33.7630653 114.0445232  68.9541864 121.3023911 138.1780624  45.2403831
 121.3785518 137.3647976  45.7394171 120.5900935 138.6547661  45.6665516
 113.6695403 113.3289051 100.9072208 113.8542706 113.8383198 101.6962719
 112.9705340 112.7290440 101.1675930  21.6701293 141.3018703  66.2952328
  22.2132611 140.7614231  66.8689489  22.2800469 141.6467190  65.6430721
  44.2462444 126.1754322  78.0414772  44.9865389 126.3365173  78.6264992
  44.6002436 126.3151073  77.1631813   7.8128606 120.1936150  67.8609800
   7.7515370 120.6879807  68.6783409   7.0039719 120.4022121  67.3936319
  32.3384666 111.6930103  44.5237494  32.6564121 112.5568867  44.2613602
  31.3936234 111.7301941  44.3750143   2.3581223  19.2672520  80.5010796
   1.7262095  19.8841076  80.1317215   3.0008787  19.1365986  79.8039246
  24.6514511 101.2737083  86.6960526  25.1221538 101.0842133  85.8844185
  24.2294574 100.4461670  86.9270039 113.7045497  14.0997105  70.9459639
 113.7227864  14.9904805  70.5960512 113.0323476  13.6537152  70.4307413
  21.9094062  92.3793316  48.4195709  21.9425917  92.2172928  47.4767685
  21.7770195  93.3242702  48.4956789   6.3305485  19.1548329  94.3307209
   6.6563249  19.1389065  95.2306366   5.7642734  19.9257069  94.2946053
  35.4356623 135.6454086  79.5915365  34.6995354 135.4232121  80.1616096
  35.2325559 136.5235901  79.2694044 120.5227984  77.6150370  72.2920227
 119.6242583  77.6459312  71.9635344 121.0594926  77.4870253  71.5098429
   2.3740324   5.3943138  56.1981153   1.7778912   4.8619728  56.7248583
   2.0021799   5.3690129  55.3164577 113.4943110 144.1994190  83.7769222
 113.2495660 144.2041016  82.8515530 114.4509286 144.1664982  83.7714958
 122.8180640 101.3790321   9.3589631 122.2830719 100.6243801   9.1129438
 123.0855692 101.1993504  10.2602807  21.9733834 105.4730701  82.6592159
  22.0333123 105.3280926  83.6034775  22.1490526 104.6148205  82.2735023
  37.9199028 133.0016708  66.6248512  37.9884028 133.2983589  65.7173681
  37.0602751 133.3086872  66.9129705  33.0891085 113.9214993  82.2158623
  33.6489606 113.3559895  82.7478504  32.4032879 114.2130566  82.8165913
  29.5364308 124.0886402  78.7552309  30.0973129 123.6156368  78.1404829
  30.1243806 124.7073078  79.1885805 115.1511580   2.8243809  73.2045078
 115.8794511   2.2735386  72.9174566 114.7030086   2.3015766  73.8693905
  18.1102943 129.2187023  48.2752895  17.4293625 128.7074471  48.7125397
  17.8508067 130.1298237  48.4121943 102.0750613  95.6661415  40.2504158
 101.9423026  96.5494537  39.9063802 102.6120991  95.2297306  39.5890784
  28.2706428 128.1899261  53.6456442  27.7656722 128.6578655  54.3106747
  28.8898778 128.8399982  53.3136892 111.1685545   4.9389534  92.7784061
 111.2672610   4.5181637  93.6324692 111.9515581   5.4818898  92.6869774
   6.8164533 145.6165791  73.0263376   6.1277270 145.1583576  72.5447512
   7.5912607 145.5371189  72.4699306  13.0524588 121.6068935  40.8216381
  13.2622910 121.4300919  41.7386675  13.6885035 122.2702503  40.5539846
  27.4605155 130.4107380  79.2638493  26.7994952 131.1001873  79.3266201
  28.0536103 130.7096004  78.5745382 115.4336507 119.8200512 105.3646088
 114.9619252 120.6375217 105.2050686 115.8549220 119.6195793 104.5287991
   9.5815122 123.9062500  28.8781905  10.2719462 124.4758320  29.2174673
   9.9503094 123.0245972  28.9320827  43.8367462 125.7795525  74.0486050
  44.6337652 126.1596870  73.6791611  43.4471416 125.2895641  73.3244848
  22.3537755  18.0852299  52.8165197  22.0972633  17.1646481  52.8710318
  23.1018448  18.0904560  52.2193623   8.3466727 133.4806538  65.5231094
   8.4419394 133.2410049  66.4449167   9.2339325 133.7019825  65.2402449
  46.6502857   5.4271489  68.0333662  47.1435833   5.1671200  68.8113594
  45.7520294   5.5374890  68.3451128  25.0891972  13.4184151  63.5804796
  26.0101819  13.6204892  63.4156036  24.6225905  13.8066273  62.8403473
   7.9267317  11.3015633  51.9700670   8.1342459  11.2191277  51.0392714
   7.5406015  12.1734886  52.0530653  63.9938688 101.5090466  88.0184364
  63.4390354 102.2763920  87.8785515  64.2732906 101.2521267  87.1397209
  18.6835539 116.2859535  61.2808752  18.8744807 115.3553486  61.1636448
  19.0464473 116.7050648  60.5005598 122.6883969 124.6390724  24.8474193
 122.1044389 124.5259094  24.0974736 123.1851781 123.8219643  24.8895931
  19.1033304 140.0785542  84.2427444  19.0826702 141.0352707  84.2202282
  18.2646692 139.8119450  83.8661861  13.3399200 129.7701359  71.2892389
  13.9600611 129.0447330  71.3629627  12.5302684 129.4330025  71.6726828
  86.0744876 136.2053490  84.0812016  85.7730693 136.1144829  83.1772518
  85.3158993 135.9627342  84.6121597  11.6440046 133.8004589  72.0241928
  11.1617160 133.0322647  72.3299742  12.5365865 133.6651611  72.3423529
  22.7416158   0.5864601  79.2420197  22.6509547   0.1912003  80.1090813
  23.5238004   0.1766568  78.8725805  21.8900514 130.5771637  46.4715576
  21.8818927 131.4518738  46.0829067  21.4056802 130.6748009  47.2913647
  11.4415562 119.4802761  34.6715975  11.4161479 118.6482906  34.1989660
  12.3091030 119.8373032  34.4815397   3.8663638   0.8652573  50.5376482
   4.2659166   1.5241604  51.1054802   3.5218003   0.2065735  51.1406755
  14.9828362  30.7495289 103.7770462  14.2076504  31.1572438 104.1631699
  15.4291975  31.4649182 103.3240318  28.7738442   5.5054169  56.7474699
  28.4396362   5.5295544  55.8508348  28.8859749   4.5737534  56.9362926
   8.9156687   0.5437069  58.0854082   8.8624161   0.9642582  57.2271919
   8.0247664   0.5929642  58.4319639   1.0723633 129.3575478  73.7081242
   0.8444394 129.7049141  72.8457880   2.0107350 129.5259285  73.7937880
  16.8351686   1.3952713  71.8700075  17.5703990   0.7826596  71.8505049
  17.2281027   2.2333317  72.1139097 121.8469155 116.7265797  17.2038281
 121.2428812 116.5553284  17.9263568 122.3537163 115.9190083  17.1188104
   1.9309022 140.6617641  58.0351353   2.8438261 140.9066391  57.8840017
   1.5705523 141.3853550  58.5477686  96.7808384 145.9509659  66.8492222
  96.0004062 146.5032005  66.8023920  96.8429465 145.7017803  67.7713251
  25.0974512 146.2442970  77.0626974  25.2434111 146.2665367  76.1169529
  24.3994713 145.6002712  77.1822453  13.5406184 126.9676590  42.6648569
  12.7304125 126.9089222  42.1585512  13.3049715 126.6399002  43.5327768
 109.0764315  26.6932087  52.8020000 108.7696642  27.5924855  52.9178953
 108.4914548  26.1683064  53.3483601   4.7114849  10.4363804  52.5159645
   4.9911711   9.6036892  52.8962708   5.3668368  10.6250649  51.8442917
   4.8431548   5.6884175  34.0955067   5.3405809   5.8152085  33.2875919
   5.1572293   6.3776188  34.6808124  21.9240832   1.5021115 107.8669167
  21.9270635   2.0224266 107.0634937  22.5892925   0.8298378 107.7193737
 106.0600395   8.0766564  69.1913176 105.4382867   7.8149681  69.8704147
 105.5122227   8.4093075  68.4803486   0.3493680 129.5391273  68.8530731
   0.1864659 128.6231327  69.0781164   0.2598519 129.5713329  67.9006147
 121.1971746   6.5937119  95.4242611 120.6778187   6.2596970  96.1556625
 121.0870201   5.9398156  94.7339630  93.1874413 102.3403549  93.2456207
  93.1525130 102.7934933  92.4032021  92.4312777 101.7535877  93.2334900
 109.9379820  13.7691288  67.8721046 109.0914769  13.4097843  67.6065302
 109.8361308  14.7162800  67.7784348   6.2061036 145.1586914  31.2587929
   5.9058064 145.9089947  31.7717290   5.4652125 144.5526600  31.2645650
  13.6598361  15.1155644  63.6822605  13.9020312  14.2181378  63.4538126
  14.1752827  15.3109341  64.4648075  15.4860258 133.0828571  47.1418476
  14.7861195 133.3731937  46.5569830  16.2789977 133.4805489  46.7823124
  35.8521676 108.1140995  90.6905460  35.2401543 108.6484337  91.1966610
  35.3778529 107.9036331  89.8862076  23.3397841 140.8742332  80.9430313
  23.4123540 141.8286228  80.9334373  24.1103292 140.5803108  81.4289379
   0.3918035   3.2557087  76.8814182   0.5435425   2.5513153  77.5115252
   1.2560736   3.4369641  76.5120745 114.5131750  90.8999252  85.6653786
 115.2518190  91.4430141  85.3902626 113.8562638  91.0242176  84.9803543
  27.7377605   3.9687901  82.6002312  27.1582723   3.8584595  81.8463993
  28.4793568   4.4699269  82.2609138  24.4105220 145.2439117  90.0779438
  25.0268507 145.5617809  90.7377434  23.7779903 144.7227383  90.5724239
  28.4480953 112.0184612  73.6752701  28.3154416 112.2525406  74.5938778
  29.2814660 111.5476799  73.6660051  20.9733319   3.1576996  38.4748840
  21.2914205   2.3432141  38.8643289  21.0387659   3.0133610  37.5308943
 106.9816048 109.7557926  78.2904100 107.9098637 109.9518299  78.1633854
 106.8390126 109.8703098  79.2299747 118.7355292 115.9387398  66.7330313
 117.9870725 116.4759254  66.4732647 119.0946943 116.3836098  67.5007057
 103.5305852 116.1022186  42.7492094 103.9137573 116.6432571  42.0587778
 103.4303159 116.6974831  43.4920740 122.1706889 142.1914768  53.7402630
 122.5176739 141.4326859  53.2711506 122.1867389 142.8992462  53.0960274
  43.7010908  13.1251602   5.4276220  42.9604816  13.6023693   5.8017770
  43.3495235  12.7211552   4.6342603   8.9478976 135.4371738  81.8060017
   8.3132857 134.7586346  82.0363998   9.6139324 135.3848934  82.4914837
  14.0579200 132.6843166  44.8375463  14.5531106 131.8985367  45.0689697
  13.9689016 132.6396084  43.8855457  26.3112593 108.5338783  50.1591492
  26.5603733 108.9336205  50.9924412  25.7696152 107.7841377  50.4056168
  10.4232848 116.0476303  48.6910772  10.0124478 116.5408707  49.4011164
  11.2213063 116.5365791  48.4902763  32.0800209 146.1002922  18.0454838
  31.9636178 147.0163822  17.7935696  32.4492311 146.1395645  18.9277387
   3.4289810 131.6310215  40.3356552   3.1803128 130.7067585  40.3468752
   4.2342559 131.6686821  40.8517408 123.4238628 124.4566631  51.8259621
 122.6630229 125.0012493  51.6240072 123.2516437 123.6287498  51.3774824
  16.1864197 144.9017525  68.9819384  15.6552207 145.6148052  69.3363523
  15.5487239 144.2508316  68.6888790  27.7214241 142.1945381  68.0599546
  28.1613469 141.6029358  68.6704493  28.2532525 142.1571732  67.2649765
   5.4478759 129.2535973  59.3393660   4.7597462 129.5503330  59.9348927
   6.2195307 129.1521549  59.8965836  39.9817920  21.1908512  58.8171625
  39.0418696  21.2064915  58.9975214  40.1565504  20.2931576  58.5345888
  17.3536253  98.8339520  90.7819748  16.8755269  98.8234329  89.9527931
  18.0256653  99.5050049  90.6624699   2.0662530 124.0361214  86.4001751
   2.7681619 124.5861340  86.0522652   1.2877527 124.5920849  86.3674450
  20.0341249 135.0917912  89.5735836  20.3177238 135.7284737  90.2296638
  20.1614714 135.5377960  88.7362766  30.1741815  23.1526928   7.3079228
  30.0054932  22.6354962   8.0955106  29.5665908  23.8896733   7.3706448
   3.5293075   1.0642605  66.4363146   2.8760955   1.2166195  67.1192026
   3.6920488   1.9305115  66.0629988  85.6818933  12.7232437  70.2774620
  85.8223361  12.1441155  69.5283842  85.1348323  13.4299260  69.9345970
  36.9645786  19.2741757  68.1596327  36.3720489  19.5922833  68.8407660
  37.1971488  18.3886509  68.4389305 122.9535981 144.0545273  42.0191431
 122.0361627 144.1218567  42.2837400 123.3972668 143.6883354  42.7841854
  29.5574474 104.9639225  82.9438305  29.2531157 105.8580875  83.0990314
  29.7986460 104.6390533  83.8113117  14.2051780   9.3640118  48.8007689
  14.9352551   9.2811089  48.1872988  14.5967209   9.7386151  49.5898199
  72.4602604  16.8816357 100.8355045  73.1126070  16.2299519 100.5786133
  72.8944778  17.7231579 100.6958389  99.0802450   2.6410466  55.4261541
  98.2407422   2.9587345  55.7586336  99.0317220   2.7808743  54.4804668
   9.6463132 130.9878254  34.3977213  10.4833150 130.7257938  34.7811222
   9.4387782 130.2902126  33.7760401  20.1438880 106.4117908  86.3582039
  20.1266479 105.4682827  86.1977863  20.9153605 106.7213726  85.8836269
  41.5789938   1.6420155  82.0658207  41.5006495   1.4616280  83.0026054
  42.3772764   2.1645050  81.9884586  59.6207237 122.8974628  83.4740067
  59.2620802 123.3895111  82.7354240  60.4533482 123.3283424  83.6671543
   1.8958372 113.7989616 108.9204502   1.1378571 113.8213730 108.3363247
   2.1002378 112.8683281 109.0119934  22.3661661 110.2767181  65.9202576
  22.3291206 110.1720619  66.8709946  22.3569465 111.2239933  65.7830334
  99.7193665 134.6729755  61.3325644  98.8421745 134.7945213  61.6958714
  99.7452993 135.2516556  60.5705357   9.9178869 133.1534004  91.1761665
   9.4809812 133.9997292  91.0808849   9.2043722 132.5154305  91.1874008
  49.6577835 121.1411858  83.6451721  50.3234005 121.7845154  83.4016228
  50.1440096 120.3244209  83.7579155   1.4144462 133.0079842  74.2256260
   1.5992428 132.2747803  73.6386967   0.9035762 132.6222420  74.9372721
  29.4675303 122.0721531  24.5950603  30.0979590 121.8138027  23.9227176
  29.8862791 122.8045464  25.0472641  13.3429778 104.8081017  71.6530609
  13.0428362 104.3598747  72.4437809  14.2416811 105.0701523  71.8527937
   8.3785009 111.0876274  55.3894854   7.6933140 110.8508110  54.7644472
   8.4685963 110.3166676  55.9496117   2.2652321 142.1891975  69.6529770
   1.8639459 141.5393829  69.0759706   2.6663667 142.8226471  69.0579462
  99.7600502 143.2795048  47.3499775  98.9422173 143.3681965  46.8605757
  99.5210571 143.4819221  48.2544899  22.1090555 125.4373837  31.3925529
  21.4013267 125.7798958  30.8466268  21.6622019 124.9958134  32.1147513
   9.5602113   8.9466744  57.1015549  10.1307654   9.6654110  57.3738146
   8.7217999   9.3663197  56.9086838  14.5890534 111.4387989  69.8945284
  15.3234315 111.7937851  69.3936253  13.8909054 112.0846558  69.7863722
   2.9965079 132.8715515  80.8149910   3.3331621 133.0819893  79.9440050
   3.7641132 132.5731468  81.3028049 119.6993495  38.5355740  36.9746399
 119.2598814  39.3307286  36.6732788 119.9913443  38.1042652  36.1715531
 123.7432279   5.4323178  56.2180138 123.4796792   5.2938252  55.3082895
 123.5092913   4.6171646  56.6618919 120.1527894   0.1990967   3.3814415
 121.0114560   0.5793648   3.5667014 119.5397485   0.7356911   3.8839161
 119.9362690 116.1970711  55.4593039 119.2436624 116.7450714  55.8283806
 120.2681709 115.6963062  56.2044954 122.6856882  97.7860928  52.2849989
 122.2574148  97.0535278  51.8421078 122.6794047  98.4929371  51.6395760
  15.3537261 125.0054932  70.3454208  14.8747015 124.4095135  70.9212494
  15.6864321 124.4452667  69.6442223  85.0158829  51.1353283  28.8623929
  85.8442015  51.3702374  28.4441352  84.3481225  51.3607769  28.2147026
  22.3196721 126.5332699 107.7277229  22.6655054 125.7978439 108.2334749
  23.0509448 127.1480370 107.6683215   9.3803900 140.8336544  70.0461245
   8.5420996 140.4858303  70.3502989   9.5857376 140.3166580  69.2671633
 104.1177744 135.4773426  35.3308988 103.2696218 135.9057522  35.4463553
 104.6555657 135.8137035  36.0477495   6.1535954 129.4006252  39.7659683
   6.2126738 130.3312683  39.9819493   6.0323197 129.3822861  38.8166595
 113.1377680 144.7764778  58.3267307 112.8227932 145.0027370  57.4516153
 113.5372192 143.9129829  58.2216883  10.2428460 130.4643345  88.8529205
  10.7366157 131.1851025  88.4618759  10.9018922 129.7953796  89.0383720
  14.6294987  90.2224159   8.2139635  14.3414652  90.5349064   7.3562831
  14.6490836  91.0077667   8.7608331  12.2429109 142.7302170  22.7915001
  11.6314042 142.2485352  22.2344780  12.1843457 142.2962379  23.6426544
 112.0940000   5.8164292  43.0589247 111.6250760   6.6142731  42.8144169
 113.0188794   6.0590058  43.0143547 120.5779550 134.0921879  41.2036991
 121.1167929 133.3622932  41.5088892 120.6177703 134.7326565  41.9139385
  21.9586372 133.3366299  74.4595098  21.9416356 134.1751862  73.9982414
  21.3417053 132.7857018  73.9777279 106.8195517 129.6647739  78.3169127
 106.9426865 130.1469517  77.4992514 106.1041743 130.1218605  78.7591124
 117.7796633 127.0283890  38.1928349 117.0820434 127.6333237  38.4450531
 117.5633461 126.7739582  37.2957826  19.1212535 130.3986263  81.2651730
  19.3910611 130.5264282  82.1746254  19.6702993 131.0027122  80.7653141
   7.8394061  94.7077465 102.2362819   8.3701491  95.4616165 101.9789346
   7.6462013  94.8556805 103.1620356 104.1505427  50.1023912  30.8118892
 103.5331697  50.1382113  30.0812745 103.8661999  49.3487549  31.3290048
   4.3714461   2.2938805  33.6726117   4.4838890   3.0871182  34.1964149
   4.1000772   2.6119309  32.8115439  29.1902089 120.7215881  31.6774821
  28.8829017 121.2353420  32.4243712  28.4997892 120.8163071  31.0212970
   7.4189132   5.8026963  26.6939640   7.3814571   5.0339203  27.2630072
   7.6041532   6.5308552  27.2870111   3.3289459 121.5068340  40.3263474
   4.0164167 121.8078995  39.7322249   3.5547706 121.8964767  41.1709833
   6.9384789 106.5431499  99.6796703   6.1528879 106.5020180  99.1343403
   6.6591829 106.1996365 100.5283356  29.2814898 144.3750858  41.9970226
  28.5546684 144.9578762  41.7772198  29.5426559 144.6400452  42.8789663
  21.5518737  10.7341175  25.2948284  20.7975459  10.5584984  25.8573031
  21.8547654  11.6012650  25.5641937  36.5454841 116.9149208  88.8798141
  36.2259579 116.4193726  88.1257820  37.3868489 117.2705078  88.5936451
 122.3061000 103.7494087  62.6308584 121.9682998 104.6004391  62.3518038
 121.5583724 103.1571198  62.5512695 110.9878427 115.2182388  63.5786963
 110.9338004 114.2835617  63.3794975 111.7437715 115.5263519  63.0788231
  95.8975834 116.2108517  22.2026968  95.9600777 117.0312881  21.7136073
  96.0770649 116.4584541  23.1097293   4.7918671 143.8212967  60.5289221
   4.1483125 143.7068272  59.8296595   4.2866904 144.1659355  61.2653017
  14.2100132   3.6095314  91.7442989  14.3725061   3.4648114  90.8121586
  13.2723391   3.4498768  91.8515778  16.3037455 135.3929329  35.9770036
  16.3168073 134.4358253  35.9736657  16.2042534 135.6278896  36.8995690
   1.1944655   9.7962361  93.2406425   1.7932476   9.2297631  93.7272644
   1.6449130   9.9664383  92.4133778 103.7523431  10.9145146  40.4834461
 104.1119451  10.2096348  41.0220146 104.4068307  11.0501366  39.7982597
  15.5944419 133.6152363  32.4058700  14.9202311 133.0860901  32.8321075
  16.3383627 133.5852242  33.0074620   9.3736923 133.8544178  21.0126066
   9.2117250 134.6714592  20.5409741  10.2048123 133.9995480  21.4647198
 102.3816175 120.0238991  33.9513445 101.4926023 120.3780079  33.9735031
 102.2659511 119.0795231  34.0562320 110.7096750   8.7489586  55.1126051
 110.5043680   8.9992791  54.2118168 111.1227853   7.8890782  55.0340080
 114.2796833 125.8152962  30.2968144 113.3598179 126.0072422  30.1145029
 114.6861345 125.7480907  29.4328046  16.9943547   3.7689095  20.1739955
  17.6060355   4.1999417  20.7708931  17.5014007   3.6236077  19.3752325
  36.2603760  93.5943890  36.6274166  35.5973053  93.2286835  37.2129321
  36.8117929  92.8476334  36.3938999 118.3620132 112.9821491  31.3993192
 118.7745113 113.7928772  31.6973138 118.1900550 113.1287479  30.4691720
   8.0279171 119.7647667  62.0335770   8.2784611 119.0182400  61.4893675
   8.7815285 119.9073029  62.6062775  24.3567109 134.2508030  26.6999912
  24.5296431 134.0678120  27.6234841  23.6910129 133.6102486  26.4494681
 124.8199727 134.9177551  54.8045492 123.9732137 135.3360939  54.9601841
 124.6293952 133.9797878  54.8158360   4.2746627 119.3519783  80.9946823
   3.5065609 118.8470745  80.7276344   4.5622218 118.9381695  81.8085003
 109.4455702  96.0305214   2.1121255 110.0372261  95.6310177   2.7497617
 108.8677401  95.3169441   1.8416635  19.8195434   6.0799008  76.5658617
  19.5483541   5.9500294  77.4746132  19.0042508   6.0462265  76.0654688
   1.5217187 135.5274677  16.4356363   1.5166390 134.5877647  16.2535381
   0.7714169 135.8696747  15.9496546 108.6964936  98.9158821  30.9537840
 108.8669009  98.1942654  30.3484178 108.2572324  98.5051250  31.6984749
  26.3672042 144.8483849  66.0242796  27.0858574 144.2175865  66.0674238
  26.4807057 145.3943539  66.8022680  13.8233125   0.3090935  60.9727669
  13.1267691   0.9304600  60.7607269  13.5637760  -0.0632114  61.8155384
 113.7940676  86.3399124  74.5989513 113.5445554  87.1946812  74.2477274
 113.4156472  85.7094383  73.9861488  12.1362782  36.1828404  52.8221273
  12.2704172  37.0945340  53.0810785  12.9726624  35.9168034  52.4401283
   1.8935297 123.0661964  21.5928721   2.2512691 122.8216553  22.4463677
   0.9876155 122.7579212  21.6156435 115.5926121 131.7179871 105.6056881
 114.9703128 131.9837189 104.9286652 116.0464913 132.5262356 105.8443737
  24.2347026 123.4426498  30.4725266  24.4204569 123.2541561  31.3924146
  23.6307311 124.1848278  30.4973388 107.4954862 131.0360622  89.6986008
 107.8531224 131.0863495  88.8121414 108.1950921 130.6384182  90.2169228
  11.6884410   6.4256554  17.8486884  12.5526261   6.1117535  17.5824583
  11.2494147   5.6504612  18.1987643   9.4622064  12.6543217  38.1306338
   8.6175591  12.4410038  37.7340221   9.5408851  13.6030560  38.0308580
 109.9595732 126.4366722  61.1669302 110.6882626 126.5833187  60.5638218
 110.0596530 127.1165085  61.8332911   6.8683934  35.2785855  31.1089993
   5.9945321  35.6583004  31.0172629   7.4651295  35.9999066  30.9094024
 118.1997038 143.8830948  48.0318499 118.3443076 144.2749691  47.1706009
 118.1256056 142.9446220  47.8585911 106.9942421  12.4638634  72.5307798
 107.8544909  12.0550900  72.4353313 106.9229681  13.0505352  71.7778111
  47.6008320  99.5993233  61.6467667  47.6994896 100.1692009  60.8840418
  46.8837166  99.9897671  62.1463013   6.7710173 142.5554848  36.9447231
   6.6183728 143.0219364  37.7665186   7.7093565 142.6546574  36.7837453
  38.6456037 125.6449986  31.9998121  37.8644490 125.3591251  32.4734211
  38.3344412 126.3436508  31.4242291  25.2450728 141.5697861  94.8878384
  24.7031379 140.9132290  95.3254223  24.8405313 141.6793346  94.0272713
  14.5980561 129.5675087  59.4972134  14.5225179 130.1678658  58.7555265
  13.7719882 129.6664715  59.9705553 116.1691845 130.2563858  33.8172030
 115.8748687 129.5025349  34.3283987 115.4364753 130.8712387  33.8535857
 112.2550864 127.1408367  44.9539757 111.7720456 126.3148403  44.9287653
 111.9753022 127.5571251  45.7692432 123.1713659 118.9287186  33.9142823
 123.7826946 119.6637917  33.9609694 122.8489449 118.9422131  33.0131197
   8.3890390 101.1116982  68.2984161   7.7980930 100.4470634  68.6523628
   9.2577916 100.8436680  68.5978508  30.2480507 108.2944870  65.2652502
  30.9226966 108.5971546  65.8730984  30.6008625 108.4926891  64.3978024
   8.5611659 116.3154125  28.6325026   8.1631517 117.0439816  29.1089487
   8.6949283 116.6529846  27.7468491  33.5135794   2.9509240  31.8187404
  34.1367197   3.3130818  32.4486399  33.1138587   3.7181645  31.4090991
  11.0806513  12.1651821  31.7707300  11.8777025  12.6945286  31.7977118
  10.9716868  11.8504124  32.6681042  17.6757824 142.0905972  48.7188482
  17.5318599 143.0351639  48.7763929  17.5274873 141.7710590  49.6088743
  96.2812275  29.6074276  49.6423817  96.3194174  30.1971798  48.8894129
  97.1970696  29.4636326  49.8806810  94.1521758 138.3776474  18.0622888
  93.8353223 139.2358875  18.3438098  94.4414157 137.9524803  18.8696337
   2.8200522  93.8322735  74.8471975   3.4424654  94.3799305  75.3256369
   2.1488544  94.4428158  74.5423126  19.0222275 137.3369312  42.0607662
  18.4044993 137.2594738  42.7878475  18.5356796 137.0228767  41.2986183
  21.5154076 132.9873657  38.1227040  21.0704470 133.4791565  38.8129139
  20.8069348 132.5829124  37.6219916   6.6575187 123.8353634  33.4584904
   7.1413475 123.8545990  32.6327968   6.4704317 122.9081154  33.6049223
  36.5834856 117.6771259  53.7251663  36.5068626 116.8316269  53.2830238
  36.3444877 118.3194065  53.0568933  17.8814340  90.3619862  31.8574953
  17.6069105  90.0843716  30.9835386  17.4162638  89.7741032  32.4526787
  16.6405904   3.9876061  44.6810770  16.9586468   3.3126717  44.0814686
  15.7141411   4.0858822  44.4613838  30.3528523   3.0088120  29.2890215
  30.5708623   3.7778263  29.8156476  29.7682810   3.3424740  28.6084509
   3.0395022 107.0828819  58.1692886   3.2236505 107.2740459  57.2496271
   3.1057951 106.1301613  58.2338047   4.8147157 109.5299053  60.6396961
   4.6194667 109.6573448  61.5680647   4.5180523 108.6392689  60.4526138
  33.8555765   0.9093743  35.8510470  33.2090545   0.6202011  35.2071381
  33.7825894   0.2758675  36.5648866 109.4922847  96.9530678  28.9852381
 109.9989600  96.1930561  28.6990595 108.6683804  96.8872356  28.5024548
  16.4198053  98.7943363  69.1890001  17.2650790  98.3866310  69.0005398
  16.5564573  99.7240925  69.0070009 120.2353874 126.4939117  67.1303940
 119.7750301 126.6315651  67.9582596 121.0822812 126.1278057  67.3852777
  22.3101282 115.0293636   8.1538051  21.4864874 115.2549267   7.7214092
  22.9866958 115.2706242   7.5211316  83.9197034 113.1056023  49.5169115
  83.0226106 113.0128956  49.8376226  84.4199438 113.3874035  50.2827930
  53.9032936 141.2371445  46.4036751  53.5625935 140.7859612  47.1760702
  53.1442404 141.6904640  46.0368395   8.1603092 138.2721424  47.9507113
   9.0747517 138.4888172  47.7688360   8.1971157 137.7056217  48.7213850
  91.9336051 140.9648037  27.8230929  91.3597197 140.2518272  28.1033754
  92.7268619 140.8538818  28.3471847  15.6897771 116.3554287   8.3252686
  15.9773600 115.5271244   8.7092483  15.6212425 116.9534397   9.0695286
 120.6504852 136.6732407  58.0364037 120.5088679 135.8325768  57.6011229
 119.9006805 137.2076797  57.7748728   7.5451010 140.9748650  89.8418045
   7.9331392 141.5539455  89.1858101   6.6159213 140.9435844  89.6140385
  40.1896524 123.4315777  22.1972728  40.6694937 122.6126575  22.3212004
  40.0436401 123.7602234  23.0843496  45.2336073 132.5442696  37.7717495
  44.3447685 132.3378658  37.4826169  45.6955051 132.7891445  36.9699264
  96.4491052 140.6161690  69.1943407  95.5380268 140.3658009  69.3475962
  96.9612760 139.9299049  69.6220779  21.0652590   9.2644291 104.9399396
  21.7557931   8.6025505 104.9761447  20.2816057   8.8101559 105.2493873
  25.4703951 132.8805637 108.1505684  24.7349024 133.4431171 107.9080433
  25.8897710 133.3360386 108.8805653  48.4423685 131.0329533  67.3166084
  48.4831905 131.2999725  68.2349014  48.6408854 131.8306255  66.8261719
   6.3247836 111.1001205  28.5142875   6.9205225 111.4258289  29.1890049
   6.7141604 111.3917446  27.6899266   3.0166030 101.8186378  41.7240381
   3.3622971 101.4242077  42.5247574   2.1738231 101.3856030  41.5882635
 112.5297076   0.2571087  47.4485826 113.0599863  -0.4793663  47.7529573
 112.4801917   0.8444481  48.2027769  93.4540505 135.8796024  51.4729738
  94.1906733 135.9602070  52.0788765  93.5550684 136.6189003  50.8734274
 112.6410872   8.0383091  52.6963663 112.9574651   8.9396553  52.6354074
 112.9630644   7.7281838  53.5427618  37.4839306 115.6106281  32.1304774
  37.7325606 115.2148247  32.9657936  36.5728927 115.3465271  32.0020461
   1.2526636   3.1961327   4.9673024   0.4491615   3.7163239   4.9718103
   1.1306320   2.5608044   5.6727749 113.2221145 143.7217903  72.1033764
 114.0615005 143.7029552  72.5630569 112.8340752 144.5620251  72.3476362
 108.9302546 134.6652317  60.5328417 108.2435555 135.2186966  60.9048033
 109.4785149 135.2684593  60.0310850  41.6417027 132.3534966  52.7370739
  41.4856577 132.2150898  51.8028784  41.5395403 133.2972908  52.8597212
 102.9236168  90.2738094  69.7141647 103.8170809  90.4547024  70.0061083
 102.5173921  91.1371136  69.6371746 112.7305228 116.0057259  66.2891006
 112.8691167 116.5248013  67.0812988 111.8516213 116.2461567  65.9959221
  24.0433478   6.9818383  95.3247929  24.7350264   7.3295288  94.7618294
  23.4257674   6.5712052  94.7196484 111.1805386  13.4784298  38.5891294
 110.4959459  12.8771572  38.2958198 110.7572395  14.0145855  39.2596388
  10.3015995 112.1754551  53.8635397   9.9638557 112.0056915  52.9841375
   9.7262710 111.6746902  54.4418669 124.4055844 118.7097263  20.1161337
 124.4262593 118.7035847  19.1591775 123.8149135 117.9929447  20.3475499
   3.2317883   3.3717232  31.1636758   3.7635112   3.2069378  30.3849912
   2.4577427   2.8210335  31.0460758 114.8216457 125.1311779  50.2329683
 114.8242546 124.5058632  50.9576797 114.9372566 124.5917320  49.4507504
 121.1490080 144.2228222  71.7962646 121.6893089 143.4638119  72.0158195
 121.7441303 144.9691296  71.8675613   6.5073347   1.4261513   0.2385173
   6.6076654   1.1365395   1.1453199   6.0347360   2.2560387   0.3030310
  30.5223989 131.4152241  49.7153664  30.9902835 130.9079266  49.0520668
  30.5375814 130.8609581  50.4956150 122.5996192 134.5802498  51.1796236
 122.6554450 133.6359024  51.0335922 123.5101971 134.8647118  51.2581015
  14.5193613   8.9552765  94.3482590  15.2768612   8.6742096  93.8350010
  13.9888704   8.1644326  94.4450760   8.7794971 126.1606026   1.0076244
   8.7206602 125.2110195   0.9024084   7.9406810 126.4897823   0.6847367
  12.0572114  98.3750820  31.3272619  12.3210752  98.5206032  32.2357941
  12.2962153  99.1846085  30.8758450  44.3881130 127.1389866  62.3292637
  44.4386387 128.0745888  62.5250340  45.2731323 126.9046021  62.0499182
  15.5593872 117.4925423  10.8675885  15.2197504 116.7103100  11.3023341
  15.1075101 118.2197285  11.2956405   6.0936570  15.2145748  42.1871710
   6.8835306  15.6381016  42.5232649   5.8396453  14.6003704  42.8759861
 103.1850094 141.2369919  54.0672255 103.6156792 142.0894909  54.1306067
 103.0092878 140.9893513  54.9749851  30.9006953   7.1927815  17.7431631
  29.9750781   6.9686871  17.6470101  30.9042001   8.1388169  17.8888893
 118.6035646 113.9082241   3.2829332 117.9354543 113.2264042   3.3535895
 118.1543196 114.6410465   2.8617677  11.9148552 109.8153496  56.3696051
  11.1635590 109.2764282  56.6172838  11.8975627 110.5479050  56.9854689
  30.2606177  22.6448422  81.7367458  30.8802152  23.1352215  82.2769928
  29.9245501  21.9621640  82.3174763  44.1193914 112.0042038  14.0936565
  44.8251057 111.5827179  13.6031973  44.5195675 112.7934170  14.4586706
  21.4646840 142.1619892  72.1911287  21.4884424 141.2774563  71.8260527
  21.6730046 142.0442390  73.1179380 105.0447959 124.8110485  68.0256844
 104.9949295 125.5035591  67.3667669 105.8512301 124.9960327  68.5070086
   0.1164319 129.7385120   9.5538467   0.7226004 130.4447365   9.3301666
  -0.6558358 129.9056149   9.0135586  23.9608765  97.2619343  63.9598894
  23.2158685  97.8419018  63.8022900  23.6584949  96.4002514  63.6730194
  22.9572105 124.4874573  41.4244509  22.8100443 124.5465851  42.3684216
  23.8651633 124.7662735  41.3056707 121.1964635 112.3528385  14.0950751
 121.6433943 113.0670643  14.5493603 121.3548777 112.5232887  13.1665897
   9.7909224  15.9923153  30.0771809   9.8020661  15.4428845  30.8609009
   9.0369779  15.6803875  29.5766854  34.8146129  16.3390332  67.3976421
  34.8574281  15.4472714  67.7428770  34.2403507  16.2731724  66.6346788
  38.1035972 122.5383854  77.6238823  39.0427089 122.5649738  77.8071737
  37.6897836 122.7297020  78.4655380   3.5057047 125.7691574  49.6230316
   2.7067849 125.2713680  49.7967291   3.3106512 126.6522217  49.9366903
   9.6412963 123.6970425  65.8636713  10.4662728 123.6336613  65.3823900
   9.8891538 123.5781479  66.7805433 122.4299190 116.8067741  21.3756418
 121.7752612 116.2187576  21.7523193 122.3871774 117.5929546  21.9199991
 116.5486360 129.5885372  80.7531071 116.2073297 130.0427151  79.9827385
 117.4899895 129.7610760  80.7353687  40.2359676  96.1884785  67.9487228
  40.1172972  96.4952850  67.0498276  40.2111816  95.2339745  67.8812599
  12.5564134  30.4013806  98.6983585  11.6324067  30.1527577  98.6733437
  12.8313684  30.3938656  97.7815342 110.9168107  16.1353665  70.5983353
 110.9325129  16.0503750  69.6450424 111.1502225  17.0492726  70.7612038
  26.2912083 130.0954247  33.3058882  26.0262847 130.9635258  33.6099505
  25.4671478 129.6426392  33.1266046  31.8044543 139.8529053  12.4324751
  32.5414062 140.4374027  12.6099432  31.1374855 140.1080799  13.0698705
 117.6548434 125.9985638  81.1328030 117.1123672 125.2261066  80.9738731
 117.0278180 126.7142391  81.2371063  96.1124963 135.4994392  47.1956158
  96.0550184 136.1989975  47.8464222  95.6117863 135.8260441  46.4480495
 119.4733918  25.0982457  70.7925606 119.0141082  24.3251019  70.4646015
 120.0008163  24.7721272  71.5217495 100.4326910  72.1850395  41.9300461
 100.6201405  73.0174208  42.3639059 100.8449048  71.5257835  42.4883413
  32.0392418 108.7428474  60.7451582  32.4531436 107.9324627  60.4481840
  31.2780142 108.4527683  61.2477732   7.4435419 129.4579697  13.1350160
   6.6402054 129.3650627  12.6229107   7.5272536 128.6267090  13.6021781
  40.8865595  88.9778233  55.1022100  40.5035019  88.9127445  54.2274141
  41.4310360  88.1948376  55.1841116  20.9003210 126.7957687  54.2502975
  21.2330532 125.9861565  54.6376610  20.0480127 126.9273758  54.6656132
  36.7413545 123.3638096  66.9986248  36.1270499 122.8649616  66.4600992
  36.5609837 123.0785275  67.8943491 103.5721797 108.1465149  18.0637956
 104.0468759 108.4049797  18.8537884 103.8631958 108.7671185  17.3956716
  38.4226537 135.6416893  79.4549417  38.7479186 134.7651768  79.2496490
  37.5651097 135.6841373  79.0318012  29.7572684 128.7964725  28.0172515
  30.0304484 129.6409416  27.6588130  30.2446580 128.7152863  28.8370633
 124.4500829 125.7603264  34.9524140 124.4959128 125.0959969  35.6400180
 124.6094859 125.2772045  34.1416001 107.9992837   4.7190934  99.8976757
 107.6597292   3.8651829  99.6297916 108.3179457   4.5810395 100.7896545
  47.0717716 109.3203068  29.5088577  47.9871750 109.5062828  29.2998648
  46.6654730 109.1357994  28.6620355 122.9848777  16.9385701  95.6745609
 122.3954298  16.2592869  95.3468927 123.8592061  16.5583401  95.5895981
   8.9730978 124.8762417  23.4097719   8.2221013 124.3191624  23.6144638
   8.5964280 125.6267548  22.9503441 101.7211885  23.9384823  43.9693165
 101.3526983  23.7148075  44.8239613 101.1022515  24.5677166  43.5988855
  31.5028095 101.7692471   9.4847929  31.0549450 102.0617485  10.2785778
  31.9278002 100.9497166   9.7377449  14.4392347 137.8206444 107.4450884
  15.3686082 138.0245590 107.5495643  14.0522265 138.6305332 107.1126270
 104.8273987   3.6611824  49.1570187 104.7293837   3.8537960  50.0895023
 104.5196289   4.4526463  48.7153244   7.6964527 142.3414898   8.1959379
   7.9276288 142.2980404   7.2680902   7.2250170 143.1695747   8.2867891
  17.0893812 137.2858810  34.2541933  16.1968136 137.3203278  33.9101458
  17.0593572 136.6093826  34.9307132  10.1618803 111.1039925  39.4994640
   9.2332375 111.3333225  39.4639397  10.1865888 110.1712608  39.2858338
  30.9549952 133.8093376  29.5702982  30.6879401 134.1143703  30.4374027
  31.6347432 134.4259453  29.2983389 111.3281710 124.5441437  21.9844651
 111.1880428 124.6281147  21.0413074 110.6680221 125.1157475  22.3765135
 116.8513072 122.9142857 107.5501724 116.6653079 122.0941067 108.0072863
 117.7618743 123.1102848 107.7708148  26.1436248 114.3608093  97.2221279
  25.6430125 113.6740303  96.7817307  26.9506788 114.4331169  96.7125511
  21.9120002 133.6511612  10.0619340  21.4471936 132.8175163   9.9896950
  21.8726945 134.0243912   9.1813725  30.3209615 129.5649529  55.6244516
  30.8670712 130.3217125  55.4115963  30.3670931 129.4969559  56.5781164
   8.1650865 108.0697727  13.2452440   7.9534167 108.7691307  12.6269162
   8.3479005 108.5243320  14.0675545  12.5227427 136.2330246  28.1661630
  11.9829977 137.0198822  28.2420826  12.3189223 135.7260227  28.9520621
  15.4929686 140.4200649  73.3268102  14.7295022 139.9765205  72.9571947
  16.1472833 140.3924274  72.6287135 101.2801475  11.2284642  35.8720350
 101.1832351  10.2865773  35.7317138 101.3616890  11.5946656  34.9914265
  11.2182808 127.2658730  10.4099154  10.5142009 127.2787857   9.7615832
  11.8709540 127.8762722  10.0669014 121.9935319 128.8443756  51.6651440
 121.4644027 128.1154919  51.3411474 122.7695418 128.8446712  51.1047506
   2.9859310 140.7500172  90.8984026   2.1317616 140.9208679  90.5016216
   3.2318425 141.5810966  91.3046809   0.3573126 133.7014103   5.6188035
   0.0164545 133.7652016   4.7266269   1.0941133 134.3121433   5.6379408
   4.8789698 143.7837219  35.3285789   5.4785621 143.6273670  36.0581517
   4.0921849 143.2876301  35.5546379   1.6142352   6.1610203  22.6553631
   1.8986432   5.2651100  22.8362012   0.6764335   6.1579018  22.8470659
 102.9574508 121.4338017   9.9728370 103.7131471 122.0000076   9.8161042
 103.3347029 120.6130314  10.2894461  26.6192746 125.3259087  27.1285939
  25.8684707 125.7872581  27.5023293  26.3962698 124.3987656  27.2116661
 101.5987391 136.5499878  22.6479197 100.9660859 136.8149185  21.9802427
 102.1220440 135.8690166  22.2252250  20.5672121  10.8654099  70.3097304
  19.8527884  11.2310868  69.7880872  21.3627315  11.1782437  69.8790106
 106.8338484   0.3045349  11.6731501 107.6412923  -0.1073761  11.3655794
 106.6139001  -0.1690597  12.4753749  13.1352711 121.4842224  94.2050728
  13.2109606 120.5926609  94.5451089  13.1951761 122.0421982  94.9805101
   4.0580204   7.0484143  52.2830486   3.6628884   6.1803990  52.3645878
   4.8078451   6.9167023  51.7028379   4.9537256 119.9815083  15.1691937
   5.5942732 119.3375111  14.8671913   4.5654139 119.5854378  15.9493053
 114.4643707 145.4667091  16.3946319 113.9392073 146.0880089  16.8990338
 114.2233998 144.6092892  16.7453492  97.3935670   1.3975125  17.4859679
  96.8396420   0.6714611  17.7727699  97.3673791   2.0202236  18.2124460
  11.8767691 122.6677608 107.1190881  10.9749269 122.9626846 106.9928571
  12.4123764 123.4185314 106.8627670  51.2177181 143.6628819  32.1090794
  50.6204844 143.0218315  32.4945569  51.8879032 143.7988853  32.7788448
  51.0087538   7.3043232 109.0280562  51.4220905   6.4791661 108.7741033
  51.0986853   7.8644829 108.2571017  16.7161942 131.7185402  49.0106964
  16.2256026 132.0979118  48.2815695  16.0539520 131.2725163  49.5386410
  25.5100965 129.1064644 105.4136913  25.1192927 128.5828400 106.1132028
  25.3200984 130.0122929 105.6578656   0.0339589   8.8152676  25.4300427
  -0.1899775   9.0796070  26.3223481   0.9549913   8.5594731  25.4800367
   5.3673208 118.5941410  41.3040733   6.2134075 118.6739254  40.8636141
   4.9129510 119.4114876  41.0998154  15.6248033  27.2124272  30.4085183
  15.2543426  27.2259884  31.2910175  15.8183992  26.2895375  30.2441740
  12.2266126 138.4525871  26.6331863  12.0490766 139.3630886  26.8692088
  11.8074811 138.3402348  25.7799935   8.0100352   9.8882656  31.5007925
   8.3332390  10.3301888  32.2859502   7.3409051  10.4775410  31.1525726
  12.1022499 127.9341030   7.6003408  11.6301107 127.4529839   6.9207537
  11.5896571 128.7322140   7.7287793  31.8428540 134.1074371  16.8271899
  31.0883760 133.9353371  16.2638283  32.5283599 133.5291100  16.4927578
  19.4472277 117.7364159  46.6571903  20.2067304 117.5876808  47.2204494
  19.7624564 118.3400249  45.9844971  86.5309138 132.8733349  40.3088427
  86.6557474 132.2735786  41.0443258  87.3403711 133.3831406  40.2754641
  31.8529010 146.2027931  88.0308088  31.3061786 145.4716015  88.3183678
  31.3152027 146.9793606  88.1858667   6.7236894 120.1024342  17.7213335
   7.5044334 120.6441593  17.8362381   6.7672342 119.4652462  18.4343064
 122.8412876 121.7665768  16.6004705 122.8133570 121.8379307  15.6463420
 123.5066252 122.4003124  16.8686712   4.5280147 123.0212498  59.2836285
   4.1018707 122.5085449  59.9704790   3.9768389 122.8924370  58.5117197
 121.3788587 125.5927467   6.7188329 122.2983632 125.3270531   6.7066169
 121.0750852 125.3639507   7.5972426  22.7533913 128.0916309  18.6081433
  22.5003600 128.6416054  17.8666997  22.9458046 127.2385693  18.2189214
  -0.0487149 116.1643410  12.4271464   0.3182021 116.4747334  11.5993404
  -0.2253533 115.2355480  12.2775495 113.1087703 138.1876850  93.7588998
 112.5347168 137.4221706  93.7849947 113.5451550 138.1309509  92.9088517
  90.3343410 126.2198830  22.0198798  90.5518431 126.0781574  21.0985565
  90.2342004 127.1685314  22.0991492   4.3997064  25.2316456  17.4296331
   5.0675428  24.5936947  17.1781242   3.6112714  24.7085362  17.5744426
  15.6951964  16.2495022   2.3076411  15.1936281  15.8361416   3.0103511
  16.5871906  16.3046055   2.6504815   7.9866922 118.6915493   8.9668036
   7.4467260 119.0949821   8.2871634   8.7550718 118.3640671   8.4992737
  23.9278841 108.8880920  29.2276812  23.8283396 109.8261642  29.0654206
  23.3237505 108.7040043  29.9469662 118.9884461 138.7192631  48.4809732
 118.1118465 138.3353519  48.5014248 119.4858528 138.2149792  49.1248035
 118.2408459   8.9523964   0.0496421 117.5160266   9.1943722  -0.5268281
 117.8471476   8.9005452   0.9205864 112.2313876 141.4712811  35.0409889
 111.8706066 140.7988453  34.4631481 111.6944487 142.2454834  34.8720455
  25.5739093 137.3228645  30.9256649  25.3934836 138.2086086  31.2405300
  26.4662552 137.3678780  30.5822635 114.0282030 123.0620670  78.6946853
 113.8578135 122.2920799  79.2372020 113.2188184 123.5710335  78.7402710
  18.9888668 130.3901196  20.1257205  19.7489274 130.5749226  19.5740092
  19.1917443 130.8102798  20.9615040  60.4963112  96.4111519  36.6011810
  59.9642181  96.0455894  35.8944440  60.8925438  95.6481266  37.0219231
   6.8846935 107.6819515  59.2625189   6.2105864 107.4247074  59.8915148
   6.9929963 106.9148254  58.7003613 117.7564759 132.2490406  32.4329782
 118.7067903 132.3084831  32.5309634 117.5326861 131.3879395  32.7860403
  29.8694730 123.6110306  15.0483751  30.1981378 123.0586529  14.3390858
  29.7000027 124.4571495  14.6341360  18.4976149 139.4747639  28.5064363
  18.7898159 140.3792477  28.6194229  17.9502642 139.4961834  27.7214646
  36.5541816 144.5110989  21.7121053  35.7126427 144.6403313  22.1495342
  37.1909380 144.4687176  22.4255323 119.0561665 100.9441090  20.9606409
 118.6651606 101.8172932  20.9307623 118.5283566 100.4671192  21.6010499
   9.1589963  28.6883717   9.5365888   9.2374885  29.2866116   8.7935102
   8.9778841  29.2577534  10.2844012   6.1626554 116.3504505   3.8914093
   6.3666326 116.0421944   3.0084592   7.0092696 116.3774490   4.3372202
  94.0951294   9.4854050  90.4943522  94.3594593   9.5195370  89.5750054
  94.5200414   8.6989765  90.8367070 111.6998882 141.0038090  21.5245914
 112.0992834 140.3161526  22.0573640 110.8230240 141.1130142  21.8925762
   6.2175667 122.5908661  14.4901264   6.3703567 123.2037926  15.2092957
   5.7087737 121.8819714  14.8836100 104.8222668 130.1501465   9.4584757
 104.4938034 129.9457550   8.5829371 104.9939866 131.0915565   9.4361377
  12.5094604 136.6686916  36.6589403  13.3011818 137.1832752  36.8158245
  11.8126607 137.3199463  36.5778875  21.6971922 132.5416374  23.5382843
  22.5573349 132.1267509  23.6035466  21.8053889 133.2124996  22.8641415
  17.3807573 138.0373001  37.3059535  16.7988002 137.8730583  38.0479670
  17.9174244 137.2472000  37.2430015  28.3547616   1.9819813  17.8662920
  28.8080096   1.9648915  17.0233762  28.9709830   2.4096089  18.4609604
 114.6283001   3.0925064  10.3676891 114.7251136   2.5721245  11.1652219
 115.1785863   2.6475888   9.7231221 103.7257857 146.3490391  94.7977539
 104.0935606 145.8244228  95.5089184 103.3452291 147.1111298  95.2343639
 107.2399814 113.7025738  40.8439445 107.5094814 113.8025093  39.9309182
 108.0503268 113.5019875  41.3122797   9.4516838 109.5883560  29.7367144
   8.8171756 109.9304676  30.3664708   9.6249026 110.3230381  29.1480899
 112.1596164 134.5480347   0.7790296 111.6214413 133.8125038   0.4864482
 112.9796500 134.4524002   0.2946413  22.4122524 135.0898933  22.1290398
  21.8286252 135.7564163  21.7666078  22.7347922 134.6126556  21.3645506
 124.8267835 134.6204376  33.6005473 124.4358095 135.4751205  33.7819076
 124.4851733 134.3785954  32.7397060 119.8573566 124.7612953  23.5111666
 120.0975457 125.6513023  23.2534170 119.0015579 124.8557854  23.9293933
  16.9364381  17.2555905  14.3011022  16.9856679  17.9573803  13.6520231
  16.6564596  16.4877301  13.8028657 120.2405289 108.1107521  11.1948538
 121.1153287 107.7731323  11.3871288 119.9318869 108.4650135  12.0288014
   7.2085589  13.5629254  25.6568694   7.7709293  13.8019734  24.9201012
   7.2606778  12.6080304  25.6979990 123.8905191  -0.1890011 107.6361994
 124.3510098   0.5106716 108.0994863 122.9678763   0.0622635 107.6789432
  15.0423431 101.6744518   8.9758879  15.4587817 101.7509651   9.8343498
  15.6517124 102.1032333   8.3750099  11.9771636 101.9924831  85.7493337
  11.7198467 101.0908127  85.5569752  11.2188900 102.3676109  86.1971458
  14.4660997 126.8812847 108.6658523  14.0691090 127.6130009 109.1383187
  14.8838210 127.2856045 107.9054170 113.8549656  24.1278439  43.3259583
 113.0614442  23.6550312  43.0749798 113.7712497  24.9801617  42.8984165
  12.7733588 139.1897774  30.0955629  13.1977677 138.3390427  30.2067327
  11.8467224 138.9814377  29.9765229   2.7130532 141.0040569  64.2621899
   2.2330442 140.6626892  63.5076714   3.1464505 140.2373886  64.6371841
  15.5531895 130.0990105  40.6353712  14.6412849 130.1776886  40.3552485
  15.5104589 129.6050644  41.4541674 113.3168787 113.8854790  97.1043988
 113.5591716 114.4022369  97.8728315 114.0851969 113.3421421  96.9291791
 103.2716865 113.1793880  20.3769732 103.6509389 113.9724159  20.7557964
 102.4955410 113.0068684  20.9099531  31.1580300 111.7745209  39.2799330
  31.1174655 111.2481213  38.4815001  31.2710047 111.1348915  39.9830294
  90.3594322 121.4072514   3.9047658  91.0506529 120.8202839   3.5983080
  89.5483632 120.9223461   3.7522277  10.6884491  16.8997746  41.9163084
  11.2816060  16.1499005  41.8708372  11.0848761  17.5539761  41.3408899
   3.8886738 117.5686455  26.1936116   3.9556965 116.6931057  25.8125854
   4.3544677 118.1342125  25.5776548 123.6462455 143.9217663  11.2105632
 122.7394121 143.9956665  10.9132004 124.1673774 143.9982414  10.4113102
  37.1619058 127.6669693  42.4606419  37.2030115 126.9950867  43.1411695
  38.0665803 127.7616596  42.1625996  90.9424943 116.4245224   1.2988928
  90.9191079 116.9600773   0.5058835  90.6764168 117.0209789   1.9986586
  23.5126424   6.0370236  32.7346992  24.4309616   5.7671242  32.7431393
  23.0257177   5.2357655  32.9273558  28.9984488 137.2857094  14.1906524
  28.3807254 137.1509171  14.9093199  29.6169615 136.5591812  14.2670178
  14.5127165   8.6575871  59.8378086  14.7706187   9.0814762  59.0192556
  15.3119075   8.6476117  60.3645229 117.1451891 110.2040005  30.9491539
 117.3185999 110.9288311  31.5498114 116.7789686 109.5154285  31.5041161
  36.4413214 136.7194462  70.5754948  36.5223742 137.6012135  70.2119780
  35.9821057 136.8440628  71.4060497  27.1096683   7.6998501 103.1615277
  27.7602410   6.9988423 103.1218203  26.3549089   7.3018627 103.5953232
  29.7068524 124.6851921  42.6703739  29.4825602 125.0815868  43.5122728
  29.2169809 125.1968956  42.0266199 106.8562133 130.1258850  25.7238340
 106.7133862 130.7786274  25.0384474 107.3524744 130.5906773  26.3975739
  15.7283068  15.7481366  41.8160677  14.9380672  15.5066471  42.2992182
  16.3698184  15.0797253  42.0567179 124.8209349  10.4129391  81.8446255
 124.0563010   9.8385125  81.8845844 125.1575055  10.3021794  80.9554195
  23.1491256 137.4093914  97.5965691  23.4258556 136.5741730  97.2196484
  23.4364772 137.3674870  98.5086536 122.4995210 119.6207714   3.0205601
 123.3768567 119.7904205   3.3636826 121.9421936 119.5798016   3.7976956
   7.1327347 134.8950291  14.2093122   8.0676305 134.7014141  14.2779791
   6.8407351 134.9906826  15.1158535   7.7452832 118.2221794  30.7585835
   8.4033036 118.8204670  31.1125517   7.6462448 117.5493717  31.4321995
   6.3136882 108.0732346  32.0423126   7.0501924 107.4743176  32.1651840
   6.3056421 108.6088753  32.8355694  61.4985466 132.7253914  46.0652494
  61.6694689 133.4966946  46.6057110  61.8079662 132.9705906  45.1932621
  40.4735994   4.1129570  16.9548607  39.6808720   3.6081772  17.1365523
  40.3403091   4.9419194  17.4145174  86.6179199 143.5980606  43.1693840
  86.7373318 144.4353199  43.6176777  85.6960244 143.5936069  42.9118586
   3.2913333   3.7418442  88.9697417   3.8455433   3.5406857  88.2156738
   3.3885679   2.9846840  89.5472225  24.2545652   7.9832344  41.1588860
  24.7573805   7.8576641  41.9636488  24.5936418   8.7985306  40.7893562
  12.7578294 142.9552937  54.1913557  12.7178264 142.1150970  54.6481800
  13.5169673 143.3981895  54.5705509   3.8131407 108.6093140   6.0851449
   3.4981656 109.5092869   6.0010737   3.0895412 108.0713177   5.7639056
  16.4173400 114.5912361  18.6147022  15.9900558 114.9590397  19.3882513
  15.8449793 113.8735771  18.3434057 122.9953013 106.9582176  11.8251920
 122.8583275 106.3160038  11.1287534 123.5749126 106.5176678  12.4466383
  29.3514371 121.0395622  12.5555944  30.0999594 121.0858250  13.1504095
  29.3822122 120.1511860  12.2005308 110.4295570   3.8008480  31.8246794
 110.3428764   4.7286778  32.0434070 109.5489830   3.4440689  31.9409990
  63.5416460 118.3608246  28.0853534  64.1780138 118.6659813  27.4387097
  63.9199877 117.5521946  28.4306192 111.6174049 112.9174709  35.5153942
 111.8043179 113.4618473  36.2802172 112.4420244 112.8953362  35.0298595
   9.8446065 140.8539486  76.2087440   9.4029862 140.0051498  76.1814022
  10.2877688 140.9207153  75.3629398  60.8201361 126.8347263  22.9833841
  60.5600071 125.9368706  22.7774429  60.2319527 127.3802471  22.4611950
 117.7425922   2.9701500  27.4692655 118.6294836   2.6396828  27.3262763
 117.8387333   3.6211377  28.1643891  17.0436060 122.9402447  46.3635063
  17.8435326 123.3292103  46.7171335  16.7274892 122.3664474  47.0614100
  37.2799706 110.0077152  19.3286991  36.6564393 109.3213749  19.5661283
  37.9297018 109.5631409  18.7842453  33.1275320 141.2433434  43.5526657
  32.3862338 140.7985401  43.9635897  32.8956032 141.2883472  42.6250792
   4.2499202 119.5542717 107.1209719   4.8720625 119.3531895 106.4218744
   4.5589256 119.0451527 107.8703376  92.3488850 117.8403282  36.3291097
  93.1633300 118.2131290  35.9915781  92.5460786 117.6184940  37.2391295
  90.0810069  21.8070202  35.1485634  90.7020254  22.2487431  34.5693874
  89.6162910  21.1941891  34.5787215  27.8229260 141.3744926  28.3447504
  27.6484394 142.2428322  27.9817533  27.1119142 140.8278084  28.0103421
  97.2191805 114.7070599  43.0769396  96.3659090 114.6503258  43.5069942
  97.8521437 114.6590519  43.7933826 117.7995915  18.2400303  23.2817674
 117.3784328  19.0732556  23.4929276 118.7350935  18.4096127  23.3927011
 100.8145661 143.6721325  14.1612172 100.2294368 144.2879200  13.7200224
 101.0904641 144.1306210  14.9548793 108.8531489 123.5839462  27.0392537
 108.9084739 122.6738548  27.3306417 108.1343336 123.5897827  26.4071918
 107.9327673 136.4156342  53.1455803 107.7743847 135.5507851  53.5239840
 107.2418661 136.5210819  52.4915409  16.9988954 142.3576450  36.2378883
  17.8264320 142.1567631  36.6749907  17.2135258 142.3533535  35.3050709
   9.1522849  95.2897263  28.9721227   9.6502316  95.7678890  28.3090687
   8.7246913  95.9724522  29.4891167 117.8921629 109.0839100  97.2672352
 117.1942312 108.5722065  96.8582352 118.0603254 108.6387444  98.0977663
 112.1258993  18.2243519 100.9645166 111.2802119  18.2579975 100.5174013
 112.7011318  17.7625828 100.3545132   5.5594450 133.6453438  17.4649203
   4.8928878 133.2518482  18.0280304   5.7651377 132.9638290  16.8250287
  99.7565050 119.7945023  27.2241569  99.0595192 119.2423153  26.8698454
  99.9789137 119.3906975  28.0630279  10.8379400 126.4334583  19.6696758
  11.2310898 127.0998287  19.1061020  11.1250794 126.6666508  20.5525136
  11.6431618 100.4805756  52.3524046  11.4084697 100.8957100  53.1823587
  11.6850269  99.5460892  52.5554228  11.4169168 136.7518806  12.5247514
  10.5613375 136.9562054  12.9022026  11.2163806 136.2527561  11.7329860
  22.1809912 129.0888500   7.3974800  22.8117299 128.8560581   8.0788082
  21.3511395 129.1898251   7.8637242 108.1148750  24.1898136   6.2014151
 108.9829511  23.9428120   5.8825558 108.1291706  23.9667111   7.1321452
  12.4930823 120.4382324  51.5659952  13.1538904 120.8866024  52.0937586
  12.6646256 120.7285500  50.6701612  13.7540734  16.5303021  22.6920033
  12.8165078  16.7197972  22.6560593  13.9554060  16.4939480  23.6270833
  14.3646443 128.6846542  47.7046108  14.8868883 128.0568600  48.2039690
  14.0866280 129.3331051  48.3514929 118.8705880 131.6878319   2.2007124
 118.3895577 132.3136711   1.6592681 118.9267910 130.8986282   1.6619822
  22.9122353 116.1909294  21.1200953  23.1983232 116.7456055  20.3943467
  23.4333348 116.4859200  21.8668675   6.3631099  26.0251599 107.6074674
   5.9096485  25.4693966 108.2412999   5.8151734  25.9905224 106.8233772
  36.1355233 112.8786373  92.5523087  36.0377097 113.7852192  92.8434714
  35.7064962 112.8541660  91.6969916 119.8763154 123.8633919  11.8959999
 118.9304418 123.9573669  12.0088053 120.2128590 123.7449551  12.7842247
 113.5856134  98.5349655  24.9764895 113.6856336  99.3422508  24.4719839
 113.3156962  98.8282776  25.8467460 110.8542902  91.4774704  14.4022548
 110.2833802  92.2257328  14.5766222 110.5390496  91.1244392  13.5702562
  46.6782475 139.8048782  49.8022366  46.2542343 139.1295815  50.3317833
  47.5691843 139.4810104  49.6696711  33.6525583 122.2966480   6.5620840
  32.7390432 122.5407600   6.4133090  33.9307046 121.8963051   5.7383174
 123.0001709 144.8793221   0.7670856 123.6111607 145.6053543   0.8927567
 123.1471044 144.5961094  -0.1353741 108.7586386 122.6550293  20.0716352
 108.6014838 121.8505287  20.5659175 108.0525989 123.2429218  20.3401899
  34.6698403 128.5802650  99.4289883  34.4538307 128.8107681  98.5254189
  34.5470929 127.6318550  99.4701143  26.5168667 112.1628380 103.2024064
  26.6680717 113.0559349 103.5118439  27.2615957 111.6637993 103.5379239
  33.5599804 129.2886734 102.0781090  33.3186245 128.3866405 102.2886237
  34.2939377 129.2044067 101.4694729   0.4866293 116.2257099  36.9420886
  -0.2362464 116.0793304  37.5522161   0.9466232 116.9877434  37.2941446
   9.2438233 142.4318409  28.9324832   8.2943887 142.5124741  28.8413596
   9.3750769 142.1609402  29.8411179   3.0828539 140.6103802   0.1378955
   3.2147279 139.7103691   0.4359421   3.4493569 141.1506367   0.8379181
  26.9312501  39.0987568   4.1621852  26.3989210  39.5462780   4.8198962
  27.8153491  39.0989094   4.5290643   4.1726542 111.7794037   6.5684128
   3.8228971 111.5806007   5.6998634   4.6601045 112.5945663   6.4494938
   5.1929069 101.7311478  26.9227147   4.3006289 101.9709492  27.1728492
   5.4305393 102.3651123  26.2460685  23.7113929  18.5239010   6.5521491
  23.9213657  17.8368359   7.1846795  24.4034410  19.1750889   6.6672897
   4.2095140 141.1176777 107.5622396   4.3763378 142.0316696 107.3319697
   3.5471293 141.1614799 108.2518479  13.4153247 137.6715279  19.0490270
  14.2703366 137.7779770  19.4659865  12.9823256 136.9887352  19.5614100
   8.7219805 117.2942162  85.1683506   8.4464127 116.7330837  85.8932146
   9.4687390 117.7829838  85.5143222   9.9425447 119.4329643  12.3920274
   8.9922982 119.3223381  12.3600173  10.0863588 120.3440475  12.1361232
   2.5810120  10.6783657  11.4709139   1.6744381  10.4986458  11.2218010
   2.6105398  10.5017071  12.4112082  48.9465714 127.5990295  10.2862692
  49.8704481 127.4319458  10.4727256  48.8211107 127.2800636   9.3925399
  26.6127348 137.2356796  35.2278543  27.0521879 138.0522156  34.9904203
  25.6875229 137.3998070  35.0454378  17.5946319 122.1376324  39.6902537
  18.1893361 122.8810978  39.7893739  16.7738783 122.4332809  40.0841999
 104.4253487  68.5113621   6.5134060 104.3811268  69.2563152   5.9139723
 103.7676949  68.7026358   7.1820903 110.7181746 115.5283070  93.8562342
 110.4016752 114.8224068  94.4199344 111.5465850 115.7982063  94.2526301
 112.6939935 106.8288136  85.4386481 112.6135296 107.7517700  85.6792697
 112.4870355 106.3527107  86.2428435  22.7022862  96.7559814  98.6158963
  22.7506375  97.3957443  99.3262395  23.1274629  95.9741592  98.9683505
 121.0153926 117.9308033  14.8028064 121.1943272 117.5982666  15.6823707
 121.3135109 117.2340584  14.2180860   5.1946992  27.6696568  93.9915069
   5.2943075  27.9188137  94.9103244   5.7945430  26.9325810  93.8768407
 114.6588356 125.1820564  62.8569460 114.5691187 124.7112751  63.6855268
 115.0957585 126.0004807  63.0925798  48.7020445 124.7273064   8.4843141
  49.4073439 125.3418350   8.2814729  47.9287720 125.2796555   8.5991812
  16.3653564 120.2490330   1.3464993  16.8446839 120.6823921   2.0526731
  16.8864274 119.4717407   1.1451583 118.1100256 142.0203972  95.3479429
 117.5433463 141.5362453  95.9485301 118.0285913 141.5559292  94.5149561
  20.8123302  96.4275742  13.9356041  20.6610274  96.2597847  13.0054486
  20.7423782  95.5669403  14.3487036  32.1683383 137.1491718  11.8769920
  32.0452809 138.0642033  12.1295929  31.4513540 136.6833878  12.3073590
  18.5772192 108.6910152  38.0453229  18.7534475 107.7764988  37.8243542
  17.6367664 108.7953949  37.9008126  10.2901316 113.8604164 104.4794890
   9.7560537 114.5024776 104.0117803  11.0077238 114.3722057 104.8528119
 113.0505843 125.4253769   7.5759709 113.6472279 124.7072506   7.3649502
 112.8290815 125.2898693   8.4972781  33.6113334 122.3959827 105.4183456
  33.7663364 122.8188801 106.2629529  33.5745025 123.1186867 104.7917979
   3.9385208 143.8244820  11.6447318   3.0773228 144.1702843  11.8792260
   3.7599757 143.1834316  10.9566867 111.7513008 126.8359566  30.0854015
 111.5848512 126.3745403  29.2634392 111.4174051 127.7204132  29.9354434
 102.5703282   4.9951821 104.6787854 102.5467748   4.4309693 105.4516616
 101.7277665   5.4493218 104.6880051 121.1273781 103.4997177  28.8548112
 120.3373016 103.9100933  28.5032392 121.7357553 104.2265797  28.9881635
  16.2404072  93.7229252   7.3012650  16.7044711  93.2235909   6.6292965
  15.3585005  93.8384724   6.9475383  41.3958788 126.5257835  43.5647678
  41.2484455 125.9034634  44.2769575  41.7711830 125.9983444  42.8596592
 123.5659072 123.3557224 101.1948463 123.7260965 122.4740696 101.5313806
 123.4065097 123.8850689 101.9762655  85.8331890  86.7880535  16.0438228
  86.6830749  86.5176487  16.3913953  85.5542416  87.4997330  16.6199636
 121.5793884 139.8742867  12.8292334 121.9561980 139.2050743  13.4005463
 122.3335612 140.3722763  12.5138533  22.9137135 140.5454922  14.2698073
  22.0490098 140.4217434  13.8783920  22.8656244 141.4040184  14.6903312
  13.9527118 129.1789436  56.1366034  13.7663615 129.2402554  55.1997232
  13.1260049 128.8957214  56.5272093 106.3912899 108.2995987 101.4440402
 106.8437547 108.7426758 100.7262763 106.3656933 107.3799896 101.1796358
  26.1823201   3.5308819  15.8167338  25.6558776   3.1656533  15.1056099
  26.9858313   3.0107193  15.8114457   4.2507890  34.1912251  16.0112679
   3.3166313  34.3050175  15.8362544   4.3068448  33.3590107  16.4808691
 110.8931405   2.2928028   5.3993046 111.6538186   2.7480774   5.7603079
 110.5812473   1.7413788   6.1168611 114.3630714  16.9452839  99.4590934
 114.7117621  16.5129834 100.2386882 115.0629980  16.8704396  98.8104542
  26.1610293 121.8120193   2.7321780  26.5486741 121.5378666   1.9010329
  25.9687567 120.9928799   3.1885380  25.8593440 143.3432293   0.3016504
  26.0214090 142.4023438   0.3702115  26.5435958 143.7438297   0.8378914
  14.9543095 139.7892952  13.0861008  14.6276653 139.2067623  12.4003923
  14.1928494 140.3106499  13.3402646  35.7966042 142.8239536  26.7207599
  36.5097499 143.4261227  26.9330096  35.2384281 142.8302002  27.4983406
 122.8235183 127.4314213  25.2945161 121.9852764 127.6807499  25.6836367
 122.7726739 126.4797115  25.2056313 105.8632798 103.0212498   2.5040027
 105.5074961 103.6331081   3.1484208 105.1444716 102.4142265   2.3277393
  11.7853427 129.7594833  97.5570019  12.2433186 129.1722393  96.9556376
  12.4769175 130.3038311  97.9333469   9.0323269 124.6316719   8.4704876
   8.7723929 124.4001293   7.5788277   9.8803341 124.2044544   8.5913301
  54.7566032 145.3111649 105.0223877  55.3295326 146.0567188 104.8431238
  54.3063736 145.5448246 105.8341324  40.1336622 114.7506809   3.5378844
  41.0171080 114.4645596   3.3057442  39.8944902 115.3716850   2.8498596
 117.1179838 130.4690075  10.7084060 117.9155189 129.9531078  10.5900216
 117.4107308 131.3786602  10.6530404 105.9697802 107.2058964  79.3850073
 106.8309695 107.6219845  79.3468507 105.6260175 107.4453259  80.2456649
  13.8938785 126.8365574  98.3009204  13.1758058 126.4411354  98.7951358
  13.5121536 127.0433044  97.4478241  33.6920118 125.6927586   8.0822915
  32.9260063 126.1974049   7.8087944  33.3472443 125.0524330   8.7046707
   0.5735382  97.5157452  14.2663181   0.6416261  97.4615955  15.2195561
  -0.3499098  97.3439693  14.0820134  34.6048594 106.4417362 104.0600713
  34.1578102 107.1471596 104.5277926  33.9352155 105.7671356 103.9473059
 121.2525002  11.9413548  22.2370338 120.8361701  11.1272507  21.9539404
 121.8707520  11.6707497  22.9158330  23.3544636   0.7934933  18.1900549
  23.0557871   1.6781216  18.4008980  24.2872572   0.8944493  18.0004883
   4.9861410 139.2255306 105.7699119   5.3077114 138.4520245 106.2330680
   4.8396018 139.8735905 106.4589571  79.3478584 139.1613579  20.4833245
  79.1291380 139.7889996  21.1721349  79.7910881 138.4474659  20.9417248
  13.0297124 116.9274426  99.5770999  13.8042068 116.8827915 100.1378109
  12.7840304 117.8525639  99.5812389   7.8196716  22.2766667  82.1987113
   7.6452601  22.7231579  81.3701829   7.2978073  22.7549534  82.8430184
 100.6954140 127.8521538  26.7392516 100.9508509 128.5219669  27.3735476
 101.2187642 127.0863724  26.9757152  12.4180162 114.2948818  16.5759957
  12.5846016 114.9252892  17.2767580  13.2888317 114.0399933  16.2711275
  32.2775364 128.7161732   9.7591287  31.6881418 129.2426395  10.2991962
  33.1070423 129.1935825   9.7745031   3.5349903 145.6880093  14.7327781
   3.9585435 145.3307152  15.5132735   3.0024961 144.9665928  14.3977582
  94.0546650   8.7070351  11.4771867  94.3257875   7.9320889  10.9850538
  94.4922728   9.4356137  11.0368538   5.8365208 139.4015312  13.1669652
   6.4348888 139.0773964  13.8401103   4.9935132 139.0034962  13.3840835
 117.1234769 122.6613998  48.9565229 117.3201973 123.5715103  48.7346506
 117.8553075 122.3858929  49.5085669  20.2070951 105.2309799  49.6166801
  21.0694146 105.6309509  49.5041943  19.6183157 105.7821846  49.1011763
   7.5120795 128.6898422  20.4145741   6.8265414 128.8392067  21.0656953
   7.8829223 129.5575333  20.2538753   7.5676757 124.0204525  30.6000638
   7.5085145 124.9594975  30.7759547   8.1920993 123.9509106  29.8779202
  37.9489040 110.7995033  47.3347807  38.0024529 111.3967800  48.0808592
  38.5996199 111.1305714  46.7157555  18.0550420   1.7762261  95.3278049
  18.7293983   1.0991173  95.2730187  18.5435617   2.5932103  95.4283794
   6.5832382  18.0282765   7.8509927   7.2760093  17.4531727   8.1758881
   6.3725394  18.5931187   8.5944802  22.2932267   5.4073887  21.4214110
  22.7271128   4.6175175  21.0988092  22.9955959   5.9200459  21.8215275
  10.0388813  31.6282826   4.9382392   9.7242653  32.5009709   4.7023043
  10.8043480  31.4906864   4.3802446   4.0698987 124.0600300  34.8812652
   3.4406242 123.5407639  34.3806624   4.7398394 124.3050098  34.2429876
   9.7774404 121.4308739   3.6575097   9.1728133 122.0988178   3.3342290
  10.4878366 121.4202404   3.0160612  62.5997448  99.3777657  34.0693593
  62.5196457 100.1150036  33.4641361  61.7776680  98.8972664  33.9716530
   6.2017095 114.9531460 102.3005679   5.2821130 114.7106647 102.1920451
   6.5059215 115.1421928 101.4129033  49.1447353 132.2481346 106.5865641
  49.7726345 132.8767967 106.9425949  49.5952892 131.4050865 106.6366350
  29.7812080   5.9212094   0.4450573  30.6897378   5.6348210   0.5388061
  29.7395158   6.7472248   0.9269251   2.7107891 142.3169518  18.1130409
   3.5439986 142.7668190  17.9729891   2.9466131 141.5165901  18.5821295
 107.9832858 118.2163715   5.3152055 108.8015325 118.2007027   5.8116508
 108.1237859 117.5934124   4.6021730  18.0533290 139.4088078  11.1893320
  18.3841324 139.1788769  12.0576239  18.8348711 139.6468830  10.6905878
 114.6211309  10.8545094   3.3715239 114.3198723  11.0319310   4.2625883
 113.8878531  11.1154728   2.8143600  24.2439198 111.6781425  36.5132332
  23.5523224 111.8118095  35.8651137  23.8854051 111.0257626  37.1149802
 115.6259490   5.4498558  20.6380701 114.7347755   5.5509739  20.3036785
 115.5191297   4.9843006  21.4675760  45.2804947   5.4138928  13.0813289
  44.8634958   4.9299317  12.3685038  46.2186670   5.2859860  12.9409695
  32.8135395   7.4705105   2.7255985  32.8677988   6.9052391   3.4961554
  31.8935370   7.7315216   2.6843235 120.0267223 124.6924114  14.9797416
 120.7486895 124.8395157  15.5907679 119.6309341 123.8706303  15.2700365
 121.2372706 145.4799175  64.9049854 120.8862800 145.0715637  65.6963682
 120.5076981 145.9918499  64.5558691  94.0939922 141.4918327   5.9246612
  94.7694344 141.2402821   5.2947968  94.5252771 142.1253777   6.4981151
 116.7199422   3.7718754  16.6913307 116.5066678   3.0838757  16.0609305
 115.8718205   4.0546589  17.0333159  14.9135554   6.7715531  13.4002209
  14.8304784   7.1253186  12.5146806  15.8574176   6.6959076  13.5403478
  32.8446531 134.6108723   7.7919728  32.7395725 134.9390602   6.8989539
  33.7541199 134.3152142   7.8330243  10.0831151 115.8362103   4.1471794
   9.9970353 115.3900719   4.9896684   9.9180424 115.1536369   3.4967384
 120.5877907  22.9949360  35.3378105 121.3865147  22.4788456  35.2286506
 120.7158748  23.4628468  36.1629629 108.5410292 141.8485260  78.5406622
 109.2782134 141.4176559  78.1080636 108.0409760 141.1322212  78.9319309
  11.3654983 107.9876995  96.5460297  11.7522168 107.2784901  97.0595547
  10.5659127 107.6098061  96.1798414 119.1128779 118.1674862  50.6857777
 118.3513737 118.7101173  50.4810905 118.7568743 117.4352264  51.1890602
  37.1560431 127.5244617 100.0058224  37.6971102 128.3140278  99.9977686
  36.2650490 127.8431988  99.8617335 121.4257348  40.9114247  37.7627516
 120.8854828  40.4032307  38.3678198 121.2268249  41.8239003  37.9726219
  15.0593281 128.4958458 102.6240548  14.9634588 127.5442505 102.5852104
  14.9365819 128.7860298 101.7201974   5.4534829 130.0849247  89.2402967
   4.8165393 130.6808281  89.6345552   5.1555175 129.9794865  88.3367857
 121.4780451 133.4379101  23.1902456 121.7946661 132.5798512  22.9078889
 121.9186742 134.0586472  22.6099348 117.2090418 135.8269596  71.6896471
 116.9679005 136.4081573  70.9683379 117.3203928 136.4103317  72.4403199
 116.4039118 127.7267361  19.7847521 116.4107967 127.1926308  20.5790520
 117.2922296 128.0782032  19.7247493  30.4700541 122.0155525   7.3726195
  29.9538350 121.6504860   8.0912787  31.0412788 121.2977695   7.0992911
  21.4665651 136.8928623  38.9969039  20.6565619 136.6541386  38.5461950
  22.1584058 136.7009926  38.3638382   0.6650539 111.1403275 101.3872125
   0.5448526 111.9488430 100.8891340  -0.0903948 110.6007671 101.1539634
   8.4718591  10.3740292  99.9755069   9.1236728   9.9150830  99.4456574
   7.6427990   9.9484616  99.7569188  33.0126739   4.6917420  97.5277158
  33.0929637   5.6451969  97.5011202  32.9663610   4.4812088  98.4603258
 108.5796375  12.0224171  99.1630253 107.7795023  12.1368676  99.6757802
 108.7841064  12.8996544  98.8391718  19.5371306 124.8494816 109.8318671
  19.2103052 125.0578117 108.9566431  20.0428462 124.0454388 109.7135832
  32.7762008   6.6266041 101.6305360  32.2960901   7.1994858 102.2284778
  32.0979834   6.2245159 101.0877814 112.1561033 114.1917038   4.1252533
 112.8012521 114.6762753   4.6402359 112.2797555 114.5058537   3.2295680
 111.3289864 108.8518238 106.6726735 110.5439217 108.8402176 106.1251607
 111.0582883 108.4306335 107.4884861  18.5460114 117.9182243  37.8224373
  18.3560312 116.9893742  37.9542732  19.3451452 117.9268169  37.2956157
  95.8915800 124.2613411  28.7368894  95.8634681 125.0780106  29.2353845
  95.4900569 123.6133957  29.3158388 121.7710961  98.0093288  13.8595259
 122.1249924  97.6869011  14.6884000 120.9463740  97.5357723  13.7508476
  10.3025901 123.8654137  53.2409334  11.0760093 124.4089317  53.3914042
   9.6120566 124.2839050  53.7549925  37.0693970   8.6437779 106.2034207
  36.9489050   8.9017945 107.1172812  37.8329945   8.0667286 106.2161531
  99.9059052 127.7373314   4.6608987 100.1867313 128.5888481   4.3258259
  99.8097724 127.1924400   3.8798159  17.1111786 124.6913147   5.9184450
  16.7423189 125.5745697   5.9135157  16.3555443 124.1155338   5.8012831
  -0.1714087 142.6943302  30.5783558   0.7278783 142.7954960  30.8902550
  -0.0871709 142.6064682  29.6289253  19.3658185 126.4199352 107.5066591
  19.0323400 127.3169422 107.5264245  20.3163123 126.5189171 107.4519383
  87.4694580 141.7090225 107.6278713  86.5827507 141.8333817 107.9662737
  87.9790158 141.4293194 108.3883634   2.9699880   5.4546051  15.3918338
   3.3663183   6.1373310  15.9331632   3.0812290   4.6511917  15.9001458
  16.3574803 133.7629318  29.8679304  16.5043509 134.7087955  29.8673153
  16.0423446 133.5700607  30.7509470  28.0301356 130.1144791  15.1390660
  27.4601245 130.7567978  14.7162783  28.0187488 130.3569126  16.0649872
 106.8380124 125.0607586  72.9675635 107.6087326 125.4009342  73.4219822
 106.5045065 125.8072662  72.4698480  29.7437382  84.7492218  35.4166913
  30.5984282  84.3689251  35.6194615  29.5292211  85.2792645  36.1843324
  46.7052317  69.7780371 103.2639476  46.9806719  69.7997856 104.1804042
  47.4733734  70.0746584 102.7758839  22.9602718   3.2320671  97.6819738
  22.7586246   3.2346039  96.7462584  22.4195147   3.9332943  98.0454251
 123.6158767 144.6009636  14.0608561 123.5376559 144.3745422  13.1341171
 122.9926411 145.3166103  14.1859925   0.5883551 124.2905140  10.3786278
  -0.2855381 124.1735744  10.7512796   1.1808657 123.9363766  11.0417676
  21.0711670   5.8728104  93.1529745  20.2798581   6.3570767  93.3886691
  21.6435075   6.5285187  92.7545913 101.8780012 143.1197643  36.0983968
 102.5378198 143.5086536  36.6725397 101.9771594 142.1760750  36.2243223
 122.0895091 139.6286488   2.4941007 121.3389928 139.6438694   3.0880109
 122.5929803 140.4095173   2.7243081  34.1562700 130.6068516  10.4492799
  33.6236644 131.3473225  10.7395593  34.7469282 130.4346275  11.1825601
 112.5467677 140.1281834  98.7165833 113.1482274 139.3861485  98.6544418
 113.0181236 140.7752705  99.2413044 120.9072659  18.9167767  22.8991453
 121.2027535  19.4116764  22.1349565 121.1395774  19.4683247  23.6461679
  25.1195431 140.5735683  16.5172712  25.6761432 141.3518333  16.4901296
  24.8115039 140.4679108  15.6171647  52.6340246 120.2174282 102.3137665
  52.9392338 119.9814987 101.4377499  52.3611450 119.3870926 102.7040291
   1.6991749  34.0353756  84.8234367   1.5924294  33.1265622  84.5425606
   1.4321479  34.5536404  84.0642738   2.6926962   1.2927037 103.1336498
   2.3507059   0.5716782 102.6050758   3.4690303   0.9298306 103.5600948
  14.4777083 101.7198086  -0.0209864  15.2001417 101.4785480  -0.6007346
  14.8412478 101.6395950   0.8608571  25.6256557 119.3192863   3.5512677
  25.3335690 119.1871262   4.4531862  26.4974761 118.9252186   3.5216752
  12.2560215 141.4199638  74.1295624  11.5379620 141.6914463  73.5577965
  12.6186979 140.6421089  73.7057209 107.9142005 105.4699802   5.9359208
 107.4281115 104.8737621   6.5055505 108.7844736 105.0776768   5.8654920
   5.5109012 126.7742062  24.9232236   6.3361192 127.1353626  25.2469770
   4.8761201 127.4801064  25.0456468  14.8497963 145.1403427  84.4937515
  14.1813231 144.7002792  85.0188446  15.5000985 145.4345226  85.1315498
  32.9071045 125.3148556  19.6214525  33.2409501 124.5071888  19.2309991
  32.0674872 125.4621506  19.1860429 116.2990243 144.3015099  99.2962551
 117.0868558 144.8330402  99.4103718 116.5860481 143.4062004  99.4759083
 122.3281794 129.7077560   2.6576749 121.7688120 130.3649616   3.0716935
 123.2124898 130.0673294   2.7279035  22.2101569  24.5794087  93.1483364
  21.5290809  24.0574437  92.7241707  23.0295825  24.2477780  92.7811909
  32.9729271 142.0735550   1.3235608  33.2114673 141.6527748   0.4975549
  32.9369521 141.3561249   1.9561902   8.9436436  97.5168896  96.7136955
   8.9321589  98.4737301  96.7372894   9.0805835  97.2564793  97.6245594
 117.5532228 118.1767941  73.2705259 117.2287238 118.9807796  72.8648901
 118.3677674 118.4373379  73.7004900  95.2204699 106.8337345  65.3808928
  95.2158231 107.7431774  65.0823641  94.3695087 106.7158604  65.8030367
  52.0625353 124.1453266  26.5831987  52.7755404 124.6692467  26.9483892
  52.0490265 124.3739510  25.6537954  25.1540112  12.6971989 103.1999302
  25.3835034  11.7679673 103.2091618  24.2037606  12.7080994 103.0852985
 112.8155035 135.3953457  87.0564175 112.6877517 136.3391495  87.1520519
 113.3064956 135.1397705  87.8373432  51.1483812 115.1499939  52.1841565
  51.6537809 114.3379498  52.2213689  51.5709972 115.6638050  51.4959661
  12.1548557 135.0292873  22.1762601  12.0958912 135.6552315  22.8980295
  11.8827522 134.1954517  22.5595323  11.1976075  26.9020825  81.2166882
  11.1082482  25.9514218  81.2837029  11.0690439  27.2183590  82.1109295
  11.3179171  92.9425240   5.8055822  11.1579978  92.5661564   4.9401323
  12.2649145  93.0784512   5.8363859  14.9503589  96.5783882  78.6221409
  15.4211128  95.8125877  78.9510393  14.0444613  96.4395237  78.8983631
  19.2757976 143.5754204  86.9257641  19.1471350 144.1537380  87.6775742
  18.4453130 143.6112118  86.4511585  45.0771379  93.9004898 108.9275455
  45.6134796  93.3365250 108.3702946  45.6231785  94.0671444 109.6958447
   8.4645724   3.7911778 103.7714005   7.8616393   3.0482941 103.8001347
   8.2156575   4.2712670 102.9815960 101.4226217 128.2645035 103.2289410
 100.6928462 128.7306690 103.6367989 101.3241453 127.3595619 103.5249233
  20.4126501 137.5871754 102.8874016  19.7897351 137.4734879 102.1695614
  20.1441741 138.4026909 103.3105946  25.2319884 144.9496555  99.9849224
  24.4371271 145.3176975  99.5989609  25.8171105 144.8096657  99.2404366
   2.1271792 121.4198875  10.4352800   2.1635924 121.4120197  11.3917486
   2.9768029 121.0751915  10.1604024  14.7244465 124.3433475 104.7613621
  15.4941058 124.3725109 105.3296947  14.0070915 124.6544933 105.3134632
  28.8683033 118.8531876  62.1166277  28.2321095 118.7491035  62.8241968
  28.3433294 118.8265514  61.3166761  27.9436588 142.7240562 103.4548378
  27.7268720 141.8764019 103.8430691  27.9960132 143.3224583 104.2000961
  20.2680779 128.9828110   5.5548421  19.9775124 128.1122494   5.2829496
  21.0225987 128.8177395   6.1202470   3.9259547  16.9107037   7.8084413
   3.5510176  17.3835736   7.0654432   4.7557998  17.3553830   7.9812471
  10.0302398 135.5888557  95.6188297   9.4506061 134.9460983  96.0276222
  10.4458547 136.0386276  96.3544941 100.8089013  12.9127198  19.5232240
 100.8558578  12.0104103  19.2071954 100.8864087  13.4475499  18.7331716
   6.4245266  10.5089455  85.3884697   5.6368315  10.1642304  84.9678326
   6.1734951  11.3829689  85.6873226   7.9867983 133.0254078  96.3767910
   7.1960700 133.1890965  95.8627987   7.6969457 133.0833626  97.2872066
  24.9585581  91.8192577  97.5542641  24.0623498  92.0808411  97.3430347
  24.8578906  91.1155510  98.1952763  25.3096008 102.1247005 101.1451054
  24.6473908 101.4409447 101.2460995  25.9566474 101.9336224 101.8241215
  14.5371211 102.3511124  86.8435097  14.5131922 103.3046627  86.7635250
  13.6192477 102.0836926  86.7963219  31.6209102  84.6994114   3.6407605
  30.8738232  85.1912689   3.9815942  31.8463421  85.1425266   2.8227941
  97.9978103 109.3235683  16.6040460  98.8565344 109.4030380  16.1887018
  98.0665559 109.8519135  17.3992482  42.7791548  96.9629765 103.1841183
  42.6280689  96.0678959 103.4877968  41.9376183  97.4025154 103.3060074
  12.1144104 117.4781895  91.5051079  12.1334767 118.3764935  91.1750793
  12.8536022 117.0489979  91.0742760 123.3351443  64.1440868   0.8550016
 122.4747182  64.1099596   1.2730161 123.1633491  63.9382219  -0.0638827
  14.1718853  86.9085217   2.8855935  13.7606466  86.7061996   3.7259427
  14.5220578  87.7923870   2.9969350   2.1523768 124.1284084   7.7070466
   1.8287627 124.3124771   8.5888807   1.6538417 123.3618355   7.4241201
 119.6245850  99.3488503  93.4608459 118.6782569  99.2796421  93.5869598
 119.8477424 100.2178669  93.7943840  18.7983310 129.1010761 105.2663231
  19.3421030 129.6465588 104.6980000  18.9798796 129.4206429 106.1501503
  26.2428379 141.6481495   5.0848619  25.3350019 141.6446686   5.3882638
  26.2211514 142.1500397   4.2700807   3.1633016 110.7178497  86.1101341
   3.2305533 110.4900837  85.1828575   2.2225851 110.7909584  86.2711906
   0.2609654 101.6201019 101.1462879  -0.3863826 101.1467838 100.6236553
   0.2969820 102.4912930 100.7513618  49.2232180 117.1999359 104.0834808
  49.1612005 117.3268890 105.0302029  48.3473349 116.9158459 103.8220406
  13.0200911   4.8627549  13.5875932  12.4035001   4.7030335  14.3021146
  13.5139585   5.6342202  13.8653699  32.3648858  99.9529552  58.2926083
  32.9030108 100.6196690  58.7193918  31.4884043 100.3364182  58.2615232
 121.5711934   3.2576542  11.4668504 121.5070841   3.3170967  10.5136434
 122.2634321   2.6147251  11.6207162  94.3992609 133.8951302  91.1120796
  94.6068735 133.0352783  91.4778423  93.4839410 134.0421391  91.3504314
  12.5552797   1.5707951   0.8744088  13.2168281   1.4129238   0.2008668
  11.8594980   2.0458489   0.4200403  14.8691595 137.9554749  98.7739468
  14.9801743 137.3417187  99.5000362  15.5690944 137.7304745  98.1610012
 110.5736954 126.0968018 108.2216072 109.7853310 126.3165283 107.7251816
 110.5170662 126.6346169 109.0114021   4.8124909 140.7055283  88.8735485
   4.3803415 140.3697586  89.6588707   4.1641387 140.5958843  88.1779575
 110.8164794  84.6635723  84.9761677 110.1393229  84.3428612  85.5718517
 110.4869563  84.4519234  84.1027546   5.9819323 135.4309273 105.9534931
   5.8392590 135.7846737 105.0755787   5.5778217 136.0717583 106.5385246
 122.4097369  97.1896553  72.9103327 122.5166582  97.0412254  71.9707775
 121.7554713  97.8857994  72.9699135 109.0620632 145.4631615  10.3984586
 109.8986680 145.5496597   9.9414579 108.6008710 144.7709179   9.9248163
  45.0862312   5.6885891   9.1006318  45.8277178   5.9892159   9.6260492
  44.5300913   6.4619618   9.0066472  16.4593136 108.7702656 101.8849659
  15.7945466 108.5804653 101.2229252  17.2155344 108.2454681 101.6223717
  14.1440928 112.3535728  90.1861954  13.2299030 112.3477173  89.9025536
  14.5588613 113.0244255  89.6438408  49.0965700 114.4905567 108.7559700
  49.7635889 114.9690533 108.2636738  48.3631229 114.4069386 108.1466293
 116.6967917 113.2109833  99.9095058 115.9821696 112.6814556  99.5557499
 116.6644151 113.0568695 100.8536625 112.0634121 105.9080124 102.9669666
 112.4566800 105.4796028 103.7272549 111.2831623 105.3875542 102.7757454
   9.2111158  98.2172966 108.7446213   9.9846852  98.1160927 109.2992210
   9.2806864  97.5086689 108.1049061 117.3767317   0.9896927  74.0210819
 117.3774917   0.0328617  74.0473986 118.2940192   1.2334423  74.1451931
  14.9531460 109.8931789   4.7083322  14.5948386 110.2911091   5.5017415
  14.2461586 109.3387508   4.3781701  10.4935420 115.2524948  76.3417959
  10.8384323 114.9512386  77.1823502  11.1826324 115.0431442  75.7112741
 113.5263283 145.5245590  77.7029943 113.8250834 144.6324539  77.8794432
 113.6672515 145.9916210  78.5265350   3.4653234 107.9254246  16.6499177
   3.0382118 107.6994324  15.8236448   4.3022528 107.4617672  16.6215745
  29.8454404 117.9190636 105.6458950  30.5797672 118.5089302 105.4754353
  29.0732145 118.4111881 105.3671265  11.0560882 128.5790062 102.1008682
  10.4215550 128.6574841 101.3885212  11.6614842 127.8977013 101.8083858
  12.3040998  99.2811775  88.4658051  11.3819289  99.0735912  88.3150101
  12.4771500  98.9711189  89.3547058   3.5426056  83.6993694  78.7905836
   3.4192246  84.4392014  79.3852711   4.4874805  83.6674213  78.6408424
  46.5443659 112.5342464  21.4689103  46.4666891 111.5857601  21.3660947
  46.2783051 112.8896713  20.6209031 115.2527029 135.6772232  82.6464176
 116.0548741 135.1631641  82.7385426 115.1804507 135.8419800  81.7062759
   5.0620776  28.4201222 105.0943565   5.0574595  27.4643498 105.1464558
   5.1977324  28.7085324 105.9969330   8.8582999   6.0776406  92.1770287
   9.3689054   6.8571263  91.9581413   9.0492916   5.4601555  91.4710045
  40.4741287 113.3908558  94.3053818  40.9557962 113.2383347  95.1183891
  39.9575734 112.5947952  94.1800880 114.5889062 137.7078056  90.9370995
 114.6384031 136.8143272  91.2769222 113.8236458 137.7033234  90.3621292
  23.3159924 115.4799843 105.2497673  22.4348450 115.7929039 105.0450897
  23.6984277 116.1747742 105.7857132  21.3576770 110.7864285  85.2155113
  20.5552220 110.4625416  84.8063755  21.5851140 111.5676594  84.7113419
  22.8160119 105.7348442 101.3838673  23.5589886 105.8418083 100.7899189
  22.2093892 105.1669407 100.9087563  12.4630713  96.1488342  63.2977676
  11.7982972  96.0180473  63.9739323  12.9403651  96.9294453  63.5789490
   2.3002681 113.6495781  97.4036407   3.1579378 113.9574718  97.6966190
   2.4902523 112.8645611  96.8899345  95.8131284 141.6110134  84.7397137
  95.9069032 142.0541382  85.5829811  96.6960186 141.3067818  84.5295334
   4.6818104 109.4073296  36.9272304   4.1959000 109.5068073  36.1085558
   5.4442841 109.9767017  36.8238997  20.6099868 123.5391140  78.8088989
  20.9223056 123.5515022  79.7136259  19.7228169 123.1843948  78.8666105
  20.9777021  80.3482151  86.9981098  20.7316351  80.5572701  87.8992081
  20.1590824  80.0762272  86.5832424  14.6158087 109.3676949 107.2920132
  14.4718063 108.6479950 106.6775703  14.6081626 108.9517784 108.1540966
 106.1523432 105.7641983  97.9776859 106.9321782 106.2496853  97.7086258
 105.4695398 106.4307404  98.0534363   4.8295638 124.9439240  94.3064976
   5.4791284 125.6460667  94.3423557   4.2584020 125.1830769  93.5765553
  14.2018700   5.0569039  20.9429399  14.2342246   5.7470494  20.2804509
  14.9673092   4.5123463  20.7591001  11.7736340  83.6338806   0.2102319
  12.6779413  83.4372711  -0.0343093  11.7404222  84.5893764   0.2566854
  12.6222467   4.5847683   0.8376638  13.4323955   4.0827828   0.7487813
  11.9620097   3.9338188   1.0755197  16.6665161 112.8493881   0.8774034
  17.0565975 112.8312302   1.7513219  17.0738983 112.1150875   0.4179708
 116.6131592 108.0351353   2.5673715 116.4528096 108.2521439   3.4857599
 116.4941615 108.8627529   2.1013967  15.1384974 127.6824951  72.0378828
  15.1619864 126.9669819  71.4024925  15.0679433 127.2464848  72.8870869
   6.5657359  84.3652725  85.4777050   6.8112618  83.5059166  85.1349831
   7.2662640  84.5876312  86.0909367  10.7748508  25.5470257  93.4292221
  10.8950305  25.0109082  94.2130375  10.2319765  25.0096302  92.8524017
   6.9000340   8.5547905  19.3726579   6.8813860   8.5839825  18.4160844
   7.7115428   8.0925160  19.5823995  16.5934145  20.9250050  97.8716469
  16.9077563  21.1573773  96.9979000  15.8917987  20.2933483  97.7136326
   5.8719546 105.7937908   2.1577779   6.1924469 106.3081646   2.8986780
   6.4297831 106.0555744   1.4252988  91.4378113 113.9595318 101.2119484
  90.9467501 113.1410503 101.2839699  91.9815463 113.9826965 101.9993782
 111.4896197 125.6730461  96.3400555 111.1453814 124.8043060  96.5474606
 112.1193082 125.5192852  95.6357288  29.8584437 135.7916355  23.5874597
  30.0544667 136.5215588  23.0000726  29.6519470 136.2068653  24.4248239
   4.7650474 103.3866501  76.1375237   5.1282203 103.3655834  75.2521467
   5.5299711 103.4578609  76.7085361  29.0409493 114.4604969  96.3574028
  28.7760043 114.8771763  95.5374050  29.6356320 115.0902367  96.7648506
 103.1813187 124.4677067  86.5070724 102.5791759 123.7384892  86.6550541
 102.6339859 125.1581287  86.1329556  26.9366169 138.1633568   8.6352960
  26.3362265 138.8715076   8.4023229  27.8085303 138.5335064   8.4975187
 123.1456130 124.0568924   0.3509942 124.0310256 123.7042713   0.2619211
 122.9812714 124.5041275  -0.4791888 109.7489304   4.9404698  78.7325478
 109.4267709   5.4499131  77.9889679 109.9270887   5.5924397  79.4103622
   8.2490599 132.2655773 105.6809616   8.5187805 131.9881821 106.5564823
   8.4819710 133.1931591 105.6412315   9.9962991 113.1719589  59.0839243
   9.3539274 112.9811192  59.7674227   9.4727588 113.3059120  58.2938671
  18.9182091 119.1897774  15.1532785  19.7665966 119.6001816  14.9858323
  18.5299706 119.0796089  14.2853109  13.6655962 122.0424271  88.6502838
  13.3553588 121.9909859  87.7462196  13.8945293 122.9637241  88.7728977
  30.2172470 122.4023342  89.2044258  30.3767419 123.2975388  88.9054489
  30.8370471 121.8694496  88.7063122   7.0659196 118.3354473  74.3072939
   6.8038541 118.6577129  75.1696682   7.2280222 117.4014187  74.4397497
 122.8780410 132.0740986  68.4385252 122.4257206 132.0559120  67.5951385
 123.7920944 132.2511959  68.2163239  30.0585651 111.2404728   0.3157369
  30.6272793 111.8164730  -0.1951655  29.8910952 111.7248631   1.1241666
  22.5035667 146.3116074  81.9532967  23.1772089 146.7050648  82.5079441
  22.0602608 145.6837177  82.5237846   0.4288085 113.1804943 104.1270733
   1.2369213 112.9252338 104.5720768   0.3374228 114.1148472 104.3137932
  31.5686250  91.1480618 104.1904831  31.1716509  91.3328838 103.3393192
  31.9101000  90.2577209 104.1072464  58.9893103 117.3768806  29.3903390
  59.2530107 118.2018280  29.7979490  58.0826664 117.5223541  29.1200200
  50.8874130 130.6590080  98.7506294  51.7921162 130.7359886  98.4476089
  50.9588909 130.5875969  99.7024822  49.5424223 137.1198463 102.6475239
  48.8279390 136.4881516 102.7294254  50.3369665 136.5995884 102.7669430
  98.8052744 104.6279716 107.8066158  98.8575477 105.5720997 107.6578903
  97.9283828 104.3866825 107.5081730  14.2294550 123.4103107  11.1353246
  14.8294258 123.1739616  11.8427125  13.3598566 123.2110310  11.4821950
  38.7887025 138.3791924  11.7099420  39.6820307 138.0520439  11.8156282
  38.7235618 139.1032505  12.3326150  18.9213145  99.7101879  74.1663122
  18.8865364  99.1372395  73.4003210  18.0145323  99.7612572  74.4685888
  33.9231658 141.1766720  80.7687378  34.3752718 141.8950939  81.2111282
  34.3944311 140.3907394  81.0452175  13.1740332   8.7293511 108.5019970
  13.4452832   9.0378075 107.6374149  13.2224953   9.5059758 109.0594387
   4.4470501  97.7597332  69.4040871   5.0497639  97.0180225  69.4573641
   4.8534620  98.4378529  69.9437332  22.0385742  99.3438053  92.6937675
  21.8077660 100.2664089  92.5853252  21.4517117  99.0293217  93.3814621
  22.9921603   3.1048470  94.8141766  22.9059434   2.1766453  94.5968437
  23.3267260   3.5083084  94.0132236 122.6340302 113.5835361 102.2295570
 122.3305910 112.7169228 101.9591045 123.4570128 113.4165478 102.6889515
   5.8239573   2.7123909  30.2073709   5.4613763   1.9012337  29.8512975
   6.0984588   2.4826222  31.0951177 119.3570704 123.3277798 108.2116985
 119.7068775 122.7659035 108.9031887 119.7905571 124.1706085 108.3457184
  40.6959200 122.6227856  72.7817249  40.6320715 122.9778004  73.6683607
  41.3646412 123.1595612  72.3563766  31.9250226 104.4074917  12.3166505
  31.5976071 103.6450768  11.8394128  32.1035790 104.0797806  13.1980935
  33.4497881 131.7475510  15.6997243  32.9227829 131.5675640  14.9212018
  34.0904188 131.0367775  15.7248727 106.5498108 141.2552166  97.2444534
 105.9651143 140.5068016  97.1251297 106.0793025 141.8333912  97.8449345
  23.4850454 103.2237530 108.8055038  23.5569644 103.8672352 108.1005287
  24.3797421 103.1237507 109.1306973  38.9031696  95.3535366  17.9566900
  39.3396497  96.2054062  17.9615156  38.0529070  95.5177498  18.3645192
  14.6463060 132.3584366  78.1083441  14.0728152 132.5075722  78.8600731
  14.1564012 132.7023697  77.3613882  11.3629055 111.4220810 104.1498375
  11.3629878 112.3337173 103.8580227  11.2054992 110.9155655 103.3530331
 103.2567949  97.5153255   6.9389001 102.3224468  97.3379517   6.8304578
 103.6878771  96.7073536   6.6603700  12.7900589  90.3768826  91.5500927
  12.9872489  91.1743450  92.0414162  12.9298067  89.6680069  92.1779442
  85.9670157  96.9153118  79.3012381  86.0120601  97.1780586  80.2205658
  85.5422539  96.0576725  79.3177843  19.6617115  86.5283394  99.0569210
  19.1080558  86.0170937  98.4667301  19.5428586  86.1171246  99.9130726
  10.8668530 115.5210876  22.5331346  11.6775942 115.8682156  22.1610681
  10.4863584 114.9952412  21.8296090 123.2096720 135.9322834  62.8923082
 122.7925638 136.5476894  62.2893763 122.6504428 135.1558495  62.8669214
  95.7623810 106.5847588  70.9558487  95.2045412 106.8798256  70.2361393
  96.3955588 107.2928429  71.0739231  28.2882071  11.0198288   3.6001149
  28.8555646  10.7711392   4.3298379  27.4197960  10.7080822   3.8548795
 123.9749814 104.3758106   1.1839525 123.6037917 103.9849472   1.9749585
 124.8391721 103.9727688   1.1004964   5.1956290 118.9935493  70.1611614
   6.0669500 118.5995960  70.1183462   4.8933697 119.0056705  69.2530203
  37.4885106 129.7268391   3.4109346  37.9436731 130.5257130   3.1447355
  36.6735101 129.7369766   2.9090349  93.4403510  11.8127613  66.8024731
  94.1359634  12.3198586  66.3838959  93.3602328  11.0257321  66.2635851
  17.0028234   5.0937062  66.9626141  16.8531108   4.5636254  67.7454519
  17.9548502   5.1134854  66.8652153 118.6019517 121.8543720  57.6873302
 118.9211381 122.0335484  56.8028831 118.6599571 122.6967621  58.1381416
  48.8601398 131.1935711  96.8730736  49.2386150 132.0369816  96.6247940
  49.5029163 130.8086872  97.4688530   8.8273400  80.0026894   6.0101739
   9.3260229  79.2853451   5.6190721   9.1275448  80.7840919   5.5459253
  41.4240599 101.7176151  80.6674290  42.3445845 101.9795513  80.6834507
  41.4156580 100.9025383  80.1656246 124.5322838  13.5212307  63.1825972
 125.3628185  13.2217865  62.8127623 124.0742775  13.9261799  62.4460745
 115.7515908 138.5525990   7.0664827 115.1924515 138.0723858   6.4557592
 115.6970907 138.0554867   7.8826562  21.1115694  84.0490627 105.1037598
  21.5603566  84.5261669 104.4057751  21.8178487  83.6834431 105.6364250
  12.8882158 111.4172173  31.6928458  12.8755450 110.4601955  31.7066121
  13.2633746 111.6639709  32.5381851 120.2562556 110.9257030  82.8921700
 119.8726437 110.6895447  82.0475960 120.1901720 110.1277733  83.4167480
  25.6217217 137.2570705   5.2630559  25.6149673 136.3967133   4.8435727
  26.4884543 137.3211575   5.6641809 116.5954245   3.6285954  91.5966129
 117.1236230   3.5744648  90.8001804 117.2337586   3.7491780  92.2996235
  96.3595337 135.5484009  90.2697563  96.9930715 134.8410511  90.3902817
  95.5363483 135.1921654  90.6039619  59.3357611 113.9027119  77.6466942
  59.9200821 114.6247482  77.8779268  58.6785316 114.3000412  77.0753717
  43.5949135 136.2013149  73.8627958  43.8802242 135.8806705  73.0072117
  42.6461077 136.2959766  73.7788773  99.9538059 124.5080090 104.8761749
 100.3090782 124.6536255 105.7529926  99.2717571 125.1727772 104.7806644
  73.8014078  92.2217751  64.0219975  73.7237406  93.0879021  64.4220161
  73.9736414  92.3995686  63.0973577  10.9253848 109.6589851 101.7794800
  10.0818694 109.6902275 101.3281155  11.5729737 109.6300220 101.0752010
 121.9951606 123.4231091  98.5612774 121.4774138 123.7078571  99.3143272
 122.8661124 123.7881184  98.7176228  10.3934574 118.0374622  75.6891203
  10.7579112 117.9814243  76.5724468  10.1048791 117.1463203  75.4921055
   6.3209444 133.6652088  79.1561079   6.8612278 134.4523335  79.0872002
   6.9480020 132.9558849  79.2971516   7.7976519 122.7247620  93.6852074
   6.8877900 122.7391434  93.9821625   8.2933903 123.0979633  94.4140434
 112.8804404 100.1001644  19.8005430 113.4038157 100.8468437  19.5093576
 113.5004372  99.3716717  19.8342077  30.7444954 145.0080872  67.9911089
  31.2319350 145.1907158  67.1878147  30.7921195 144.0571213  68.0892038
  22.8831220 131.1809444  92.3590469  22.3302388 130.5755711  91.8650055
  23.5163760 131.5042877  91.7182159  23.5919166  18.8731366  87.7325821
  23.3325624  19.3435078  86.9402981  23.0644441  18.0744725  87.7204704
  12.0973182  94.6658707   2.7893869  12.3992634  95.4491997   3.2492391
  12.5038636  94.7240543   1.9247667 110.9562523 115.0908184  72.7411652
 111.6634054 114.8003578  73.3171844 110.3513367 115.5549812  73.3198404
   3.2719061 115.8052635  92.4397659   3.4758994 115.4196835  93.2917881
   2.3186681 115.8922577  92.4382782 118.3334584 123.9954090  64.5520544
 118.2679427 123.7192154  65.4661989 117.9405374 123.2771587  64.0561008
  33.4967542 117.2770119  65.0711346  33.6912560 116.3462925  64.9608469
  32.9244113 117.3129082  65.8375359   3.7855971 139.9860668 100.2955151
   3.2575700 139.2285633 100.0432968   3.7749368 139.9774647 101.2526226
  21.2217522 109.2873096  75.7548046  20.2745271 109.4135857  75.8100271
  21.5578365 110.1282883  75.4449224  36.8275738 109.3329430  78.7628651
  35.8715940 109.3259907  78.7150621  37.0204854 109.5967960  79.6625328
  78.2021064 113.0224705  57.9229259  77.3107404 112.7789497  58.1727219
  78.6071939 112.1997452  57.6485825   8.6780900 106.3796043  78.6169720
   9.3667990 106.7870998  79.1422033   8.0341470 106.0788727  79.2581654
 121.0236321 134.8403645  85.8410263 120.1233876 134.5477390  85.6990433
 121.4570863 134.6986866  84.9994373  31.9606757 144.1963196 102.7948570
  31.7207098 143.3143902 103.0791855  31.9281459 144.1569614 101.8390179
 123.2434574 101.0125065  58.8330460 123.8835923 100.5998135  59.4128323
 122.5002134 100.4093456  58.8289070  28.2883692  18.6374646  47.0361233
  28.5526562  18.7762623  46.1266661  28.4026194  19.4920903  47.4518394
 107.0736260 139.8405075  61.0115719 107.8831226 139.7263145  60.5136681
 107.3650832 140.0007343  61.9091320  40.0116920   5.2284127  98.2398319
  40.2207518   4.2943173  98.2387066  40.2980947   5.5369072  99.0995026
  12.9477751 123.6168194  95.9282398  13.2763052 124.1249371  95.1865292
  13.1133235 124.1714478  96.6906166  14.6096575 114.8630333 104.5625687
  14.8845935 115.5222797 105.1997662  14.8898876 114.0306187 104.9430847
  29.6166158 114.5946407  79.2915058  30.1183009 113.8471127  78.9663219
  28.7047529 114.3060970  79.2530251  17.8068578 107.1764755  90.8707333
  17.7137589 106.4715862  90.2298832  18.5118949 107.7234650  90.5243969
   2.5177002   7.7472096  76.7622471   1.9265448   7.0944577  77.1373177
   1.9373924   8.3866673  76.3492489  38.0914783 142.6249886  77.0733929
  37.1780062 142.3949432  76.9034481  38.0433249 143.3732414  77.6683950
 124.8811067 128.8946915 109.6290398 123.9612529 129.1586971 109.6089363
 125.0884328 128.6794281 108.7196922  16.4685798 127.4727058  10.9912721
  16.7833304 126.6880226  10.5424539  17.2558475 127.8642941  11.3695566
  32.8610420 137.7560902 105.1109600  32.4920416 138.4240913 105.6887531
  32.3338246 136.9752979 105.2801704 123.5284990 114.3534756  75.2042580
 122.6281913 114.0284443  75.1989889 123.5295162 115.0663567  74.5654774
  13.0881083 121.8013096  59.8493099  12.6722741 122.5197315  59.3726635
  12.3982179 121.1442566  59.9418354   8.3091140 105.6648445   9.8695604
   8.7515825 106.4040470  10.2867357   8.4040260 105.8275414   8.9310685
  85.1405377 102.1394253  71.1418486  85.1982660 101.4000416  71.7470074
  85.6083364 102.8478813  71.5839720  94.3287129 125.4876995  58.8933516
  95.2295012 125.6051159  58.5916424  94.2341418 126.1111546  59.6134853
  13.1299329   1.5288906  78.8744640  12.2304165   1.7868500  78.6730766
  13.2636440   0.7203179  78.3799362  28.0002141 114.7541523  53.5871887
  28.4530187 114.5713234  54.4104576  27.1412110 114.3446064  53.6902189
  41.0978031 113.4717083  53.8264656  40.2850628 112.9722214  53.7477160
  41.3330889 113.6900330  52.9246855  85.7398958 116.5995502 103.8427258
  84.8596424 116.5733814 103.4676266  86.3087887 116.2830925 103.1409836
  20.5274582 108.1460094  90.9501457  21.0054016 108.2212543  90.1242256
  21.0549831 107.5469494  91.4784145 112.8559822 129.1882420  94.8446465
 112.0591266 129.0525913  94.3319511 112.5457365 129.3088722  95.7421017
  26.5993142 132.0654774  84.7842503  26.9720149 131.1999226  84.6165180
  25.9152961 131.9096279  85.4354477 111.5900154 100.3740788  73.6253405
 112.3325128 100.6754112  73.1017637 111.7844552  99.4552422  73.8101482
 123.6543072 132.2226620  34.7154260 124.0986743 132.7553082  34.0558386
 123.3990460 131.4270115  34.2485142  10.3993917 106.3996410   1.9172612
  10.1871157 105.6023979   1.4319078  10.7272279 106.0866547   2.7603475
  16.0252392 120.8144951  75.8268452  16.4728355 121.4659691  75.2869606
  16.7304146 120.2771950  76.1877728  21.4465690   2.6079445  83.1450939
  22.3189521   2.2572213  83.3244514  21.5225315   3.0074482  82.2785759
  14.2124331 114.6358490  38.0894828  13.5155618 115.1192093  38.5332847
  13.9674294 114.6576595  37.1644282  28.4898973 134.4726849  42.6232910
  28.8411617 134.5312214  41.7348003  28.4617281 135.3790092  42.9298973
   5.6100810 122.7572346  95.4824924   4.7712970 122.2972298  95.4497814
   5.4208076 123.6259651  95.1279449  11.0233402 139.4801617  82.4534416
  10.7290328 139.9258900  83.2477665  10.5374885 139.9048805  81.7464828
  13.6567092 117.6882267  73.8406897  13.5538363 116.7839432  74.1372204
  13.2062173 118.2106113  74.5043182 109.5454962 132.8693867 102.3490620
 109.4032008 132.7367496 101.4118385 108.6815292 133.0968380 102.6926613
  37.4751687 105.5158329  41.9539309  37.2811532 106.4382839  41.7875719
  36.8209577 105.0377941  41.4443016   4.1558772 135.5728149  28.6958289
   3.2329148 135.8181095  28.7606502   4.6249890 136.2911034  29.1203666
 117.1849597 108.8897896 104.7913074 117.4857253 109.2928982 103.9768887
 117.8362197 109.1507149 105.4424667   0.3914640  94.1661644  60.2432013
   0.3678853  94.9500561  59.6943951  -0.3359420  93.6303806  59.9269009
   6.1256754 103.9355946  35.1104474   5.5790246 103.2994080  35.5716133
   5.5576682 104.6965408  34.9897432 120.6461198 102.5222111  71.3097954
 119.6939785 102.5190449  71.4080191 120.8264474 101.8061829  70.7006884
 105.5681593  70.4233885  73.3080721 106.4630658  70.7512522  73.3968449
 105.0380475  71.0316324  73.8230991  25.8856201 118.7026501  37.9363155
  25.5223298 117.8342533  38.1099105  25.2973795 119.3040276  38.3929849
 107.0952875 122.6004601 104.6124077 107.6981825 123.1638527 105.0975227
 106.2388510 123.0127621 104.7253609  15.1199591 113.4522438 101.8727016
  15.4898977 112.8152752 102.4839687  15.1649368 114.2865372 102.3397923
  46.4260483  85.9697437  81.8679523  45.8105326  85.2388668  81.8115139
  46.7333698  86.0939598  80.9699821 120.9740499 137.1271420  67.8217363
 121.1974598 136.6470623  68.6191320 120.7649238 138.0107021  68.1247663
 114.4195575   4.6890812  90.1751804 115.0588144   4.6370678  90.8857250
 114.8540652   5.2098637  89.4997311  23.5723948 102.4993134  65.2200699
  22.6282406 102.3552895  65.2838182  23.9599681 101.7520714  65.6757593
  11.1305094 127.1865559 106.0449982  10.9166336 128.0176735 105.6210423
  10.7684422 127.2676373 106.9273567 120.2794165  88.6079979  96.7149734
 121.0189272  88.0139256  96.8431568 120.3324682  89.2185974  97.4502182
   3.6333004  12.2235661  97.9539871   3.0853543  11.4640980  98.1519699
   3.1038293  12.9761677  98.2175922 118.6793221 103.6039066  83.0679607
 117.9472274 104.1996288  83.2272911 118.7475229 103.5579491  82.1142960
   8.8840240 142.3372269  78.1724167   8.6757326 143.1437302  77.7008152
   9.2538780 141.7585754  77.5056314   6.7203385  96.1869144  84.9096489
   6.7907840  96.0205936  83.9696407   6.4087409  95.3595638  85.2765751
   7.4684554 108.3231735 103.3857536   7.9138684 108.8896179 102.7556896
   6.5663236 108.2758045 103.0692863  18.2400823 135.6865978  70.4034185
  17.6197231 136.3889217  70.5986929  17.8629470 135.2373600  69.6469879
 107.8916366 118.3160782  94.9665165 107.1676237 117.7710819  95.2747536
 108.6290771 118.0738831  95.5266476  24.6802115 138.2505035  93.3933735
  24.1456485 137.9792881  92.6471043  25.4785013 138.6034775  93.0004692
  38.2305408  13.2011681  64.3550873  38.4360147  12.2662812  64.3520117
  37.2817373  13.2374649  64.4762802 116.1997092  73.8666439 106.1164474
 117.0188386  74.3086433 106.3398170 116.3798243  73.4366369 105.2804565
  14.9334252  10.9534149  98.5314941  15.5869257  11.6509514  98.5826111
  14.1572225  11.3209706  98.9541626 118.1149811   9.9794274  74.2361784
 118.3409250  10.0484352  75.1637650 117.5255198  10.7167607  74.0777493
  18.3489490 100.8047485  84.7204685  17.6363802 100.9834480  84.1068363
  17.9087245 100.5934048  85.5437374  38.0745578 127.4756718  82.4187565
  38.9149284 127.6605511  82.8380775  37.7750421 126.6647720  82.8298092
  19.7594285 133.9874458  92.7852440  20.0145864 133.4963417  92.0042515
  19.0442491 133.4775829  93.1657505  33.7528491 114.0262699  43.8563633
  33.8665199 114.8118973  43.3214808  34.5717072 113.9493656  44.3460464
 117.8571267 138.7819004  94.7202015 117.2682769 139.1854763  94.0825367
 117.5271458 137.8888512  94.8192406   0.9682947 132.1328259  66.9904661
   0.4050243 132.8283978  66.6511393   0.5915352 131.3263798  66.6384172
  99.1746563 130.4789543 106.8114853  99.0900034 131.4256763 106.6984081
 100.0572056 130.2784824 106.4997959 120.4604638 145.8398056  90.8787918
 121.1226661 145.9040642  90.1906204 120.2593563 144.9054337  90.9311676
 117.9821528 109.9443722  81.5359306 117.4990053 110.6096268  81.0457993
 118.5915417 109.5725250  80.8982754   4.4915241 103.2382393 106.4953041
   4.0674564 103.7814045 107.1596622   5.4040474 103.1818771 106.7787743
 104.8263485  91.4776325  80.2208233 104.4158096  90.6325054  80.0379181
 105.2179772  91.7390251  79.3874359 114.1402001 119.1088581  78.9468336
 114.4035644 118.5820675  78.1922770 114.9454511 119.2239571  79.4513702
  25.0863338 121.0783195  76.2284422  25.1130819 121.5168095  77.0788813
  25.9811020 120.7672501  76.0911083  23.2265806  94.6025753  73.3702230
  23.3949447  94.6053410  74.3124914  22.8000450  93.7616253  73.2055950
  10.6485307 123.7890053  63.0864763   9.9753255 123.3225060  62.5910854
  11.3764012 123.8826561  62.4719334 120.2470524  95.0252056  71.4822054
 119.4161535  95.3645802  71.8148661 119.9992780  94.2815590  70.9328127
   8.3429468 124.9904823  71.5277815   8.5783976 124.4995689  72.3150539
   7.4743676 124.6640301  71.2927723 118.5663087 138.1290722  56.4319515
 117.9682577 138.8716412  56.5166330 118.1307597 137.5397778  55.8161163
 110.3450305  82.4850082  70.4121017 111.1863608  82.7870083  70.0697708
 110.5761690  81.8974781  71.1315632   8.7517416  12.1277695  97.0486355
   9.0823376  12.1503334  96.1506176   9.0391678  11.2803345  97.3884487
 104.5720214 114.0792561  88.0696011 104.1224069 113.2786655  88.3400440
 105.3953976 114.0680599  88.5576153  43.8840485 124.7270012  53.2184982
  44.7466564 125.1068878  53.0517006  43.7665462 124.0834904  52.5196934
 117.2265500 124.0661621  93.7405205 117.3171670 124.7387123  94.4155693
 116.5036238 124.3723202  93.1929111   7.4665070  97.8446865  90.5500984
   7.3397613  97.2227669  89.8335838   6.8137050  98.5269642  90.3933334
  26.0374832  13.0803280  83.5768890  26.0345864  13.7148266  84.2935658
  26.7311668  13.3836918  82.9912186  37.2916698  98.6477089  70.3713703
  37.5023246  97.7155018  70.3180265  37.7624393  98.9557076  71.1458015
   3.2154062 104.8610973  96.7523956   2.5255084 104.2524338  97.0166016
   3.9983487 104.5464993  97.2043514   1.4460492  98.4462166  88.7792683
   2.1982518  98.7313843  89.2980194   0.7767415  98.2279491  89.4278145
 103.4680290 119.9332047  17.1530095 103.2489652 119.3925476  17.9119150
 103.5836095 119.3071175  16.4382497  10.2278161 120.9409237  52.9786539
  10.8604157 120.5216599  52.3953295  10.4099143 121.8770313  52.8963375
  49.2240429 128.0746365  86.0416794  49.0998936 127.7423477  85.1526356
  50.1309872 127.8551006  86.2549591  12.3442113   3.0315476  95.6961060
  12.0235515   2.1410065  95.8387375  12.2046852   3.4733754  96.5336990
  46.5296125 128.8237858  82.4931240  46.3651943 128.6713219  83.4236908
  47.3403025 128.3481407  82.3120689   5.6733370 133.3140564   4.2997686
   5.2696162 133.9284992   3.6868326   6.1268997 133.8705254   4.9329034
  39.0334749 130.1651478  32.7429795  38.3162999 129.9165630  33.3261585
  38.6216545 130.2608776  31.8842196   6.7846370 115.9383297  67.0876503
   6.3500124 116.7273998  66.7640781   7.5011015 116.2654781  67.6316071
 120.4625199 129.2500401   8.4682027 121.2904215 128.7792778   8.3722917
 120.5018327 129.6271133   9.3471185  48.8107395 104.7210503  85.8436489
  48.7461758 104.6955109  86.7983246  49.1342831 105.6006145  85.6489182
 116.3004977 115.4434681  13.5656968 115.5404550 115.9549236  13.2882444
 116.5826482 114.9851131  12.7741567 104.6922321 127.5054073  92.6355553
 104.0573592 128.0644321  92.1875954 105.4972667 128.0229759  92.6522827
  41.9817638 118.2160378 103.2627773  42.4179029 118.5772324 102.4910545
  42.2791338 118.7678528 103.9861774 115.3658051   1.9915276 105.8404732
 115.8020312   2.5004177 105.1571178 114.6361608   1.5641480 105.3919220
   0.3247122 121.7963314  74.2174053  -0.4808379 122.2754383  74.0230465
   1.0079881 122.4666786  74.2174959  36.8692327 134.7965527 102.3684978
  36.8748569 134.1733742 103.0950356  37.7922916 134.9068260 102.1403885
 115.0490392 112.7372837  46.1281204 114.7947020 112.5270557  47.0266438
 114.5199079 113.5022640  45.9021711  24.6485758 113.4018707  90.9810448
  24.2166233 114.1705990  91.3534737  23.9994931 112.7024078  91.0564041
  14.3407881 119.8569870  81.7820168  13.5107803 120.3335857  81.7952156
  14.9368489 120.3997231  82.2981453  41.7442751   1.4696293 104.3845463
  41.9097996   0.5370312 104.5227051  42.4314690   1.9113427 104.8834324
  14.3107927 139.7514725  95.1823330  13.8898993 140.0664425  95.9822559
  14.1389000 138.8098526  95.1760578  17.7953279   0.8579140  84.9874973
  17.4194372   1.7157631  84.7899246  18.1003070   0.9325581  85.8917427
 110.2954072 111.9499683 108.6693192 109.5009834 111.4677620 108.8986397
 110.9782452 111.5600395 109.2151356 110.0271351 131.0857773  98.3424854
 109.6800393 130.4588699  98.9771080 109.4907612 131.8695068  98.4620667
  25.2837467 110.9352303  99.8700714  26.1153936 110.5115032  99.6578217
  25.2780366 110.9863091 100.8258820 105.3074366 105.0261497  94.4607544
 104.9819846 104.6821785  93.6288929 104.5219511 105.1439285  94.9949646
 118.7235821 118.4652424  97.3382473 117.9138202 118.5366917  96.8328667
 119.3327368 118.0159473  96.7523289  46.5478277 124.9332237  88.1604958
  46.0841990 125.1590538  87.3540974  45.8532763 124.7347355  88.7885380
  13.0599713 122.7309990   4.2082444  12.8447926 122.0246029   3.5991994
  12.3830616 123.3909702   4.0583745 120.6865082   8.3015042 108.1853390
 120.3229091   8.5681801 107.3409939 120.0430900   8.5998516 108.8281727
   0.6626990 126.0890484  13.2364694   0.1727310 125.2859879  13.4132901
   1.2794527 125.8461761  12.5459138   4.2532274  95.0806141  58.2472610
   3.5819703  95.6873894  58.5594654   4.7901231  95.6032276  57.6515722
  28.9166594 135.9693146  74.3043852  28.1130624 136.4371395  74.5315456
  29.5504999 136.2468719  74.9657822 121.3730768 133.5248756 101.1347580
 121.2616385 132.6851082 101.5804100 120.5147207 133.9441013 101.1956406
  23.7678099  86.8645954  88.2410240  24.6901274  86.6174889  88.3080864
  23.6542273  87.1199894  87.3255444 115.2203167  99.1109276  73.3444786
 115.9405113  98.8333893  72.7783298 115.6478531  99.4075394  74.1478872
  41.0835934 144.7988701  62.0635653  41.2254095 145.7414436  62.1512079
  40.2758980 144.7244167  61.5553188 106.7970473  79.8699999  82.9949856
 107.4488754  79.1882181  83.1578636 106.2990505  79.5504045  82.2426033
  26.9211078  71.8713331  76.1801577  27.7630925  71.4475441  76.3465786
  26.3068438  71.4189243  76.7582893 106.7919654  93.9877796  28.1740419
 106.2125177  93.7723732  28.9048520 107.3136229  93.1963730  28.0406896
  14.4005871  19.7242527  96.8357849  13.6675632  19.2274266  97.1992016
  14.0991223  19.9964886  95.9690475  23.2233500 135.0699902  99.6838093
  23.9390993 135.5744457 100.0704098  22.9107881 134.5127583 100.3965664
  24.4443011 145.4950523 108.2072353  25.0863886 145.0758553 108.7801552
  23.8053584 144.8073578 108.0199814 124.2175846 116.1488056  68.9719534
 125.0837484 115.8022118  69.1861105 123.7922325 116.2716675  69.8206091
  11.1865830 103.5270500  67.7048492  11.2694788 102.8668690  67.0167160
  11.5809953 104.3145561  67.3300076   3.3052084   3.8311081  71.8036985
   3.8554153   3.1378060  72.1681690   3.4487334   3.7789326  70.8587599
 122.7298092 106.3295555  73.9987755 122.7070696 105.4114246  73.7290430
 122.5481247 106.3077354  74.9383211  21.5311670 121.8713951  64.4654036
  21.2887478 121.5223503  65.3230953  20.7510185 121.7437744  63.9256668
   1.4668755  91.1578178 105.2100945   1.8476480  91.8570900 104.6788120
   1.1609131  90.5124092 104.5728588  30.4934096  22.1002369  96.5095997
  30.8222198  21.4490681  95.8898449  29.7281027  21.6862088  96.9085026
  12.7735424 101.3818645  72.2178698  13.0564213 100.6892586  72.8149509
  13.3932543 102.0956993  72.3683310   8.3346337  98.0509090  78.9131117
   7.7799147  98.0279160  78.1333780   8.6096531  97.1426582  79.0382719
 116.6256262 121.5070534  92.9126930 116.7635352 122.4178982  93.1726360
 116.4785553 121.5473175  91.9677162  16.3115001 117.1045303  89.1366959
  16.0375822 117.9876137  88.8889790  17.1739769 117.2239780  89.5343113
   2.8023845 115.3349495  25.0402737   2.2223750 114.9815750  25.7147694
   2.8660914 114.6362686  24.3891072 113.7791533  92.1321011  61.8015003
 113.7615783  91.1762142  61.8484116 113.4588916  92.4197865  62.6564264
  14.2050278 118.5554028 107.4488258  14.2587233 119.1418934 108.2034016
  13.6766303 119.0343380 106.8103504 117.1674026 123.9769840  84.8415947
 118.0259604 124.3637943  84.6698761 116.6200144 124.7164917  85.1056576
  94.6731538 137.2601223 101.9373798  94.0259213 137.4840927 102.6060772
  94.1532154 136.9605255 101.1916351 119.1941214 132.8710556  62.3069954
 119.9941806 132.4647427  61.9737577 119.2266328 133.7692833  61.9778156
  13.1801939  92.2435570  63.1702614  12.2791934  92.4442768  62.9170036
  13.4117711  91.4777851  62.6447153 124.0116587 104.4121838 100.7400513
 124.2993736 104.8678017  99.9489307 123.3326513 104.9774075 101.1084270
 122.1926034   4.6245461  34.7667360 123.0967111   4.3148022  34.7130585
 121.6779119   3.8341313  34.9297285  88.1434054 106.5898991  65.1624107
  87.8497667 107.4994946  65.2138090  88.3453626 106.4553642  64.2364836
   7.6726764 116.3995171  91.8903065   8.4698778 116.0450268  92.2840595
   7.4461204 117.1487427  92.4412727 124.1337792 142.3612499  85.5979252
 124.3211134 141.4986801  85.9681988 123.9462089 142.1901226  84.6750164
 122.1716592 125.9271049  83.5685921 121.9911045 126.8652630  83.6275768
 121.3279844 125.5344582  83.3443642  10.4827726  83.2933998  66.4216232
   9.7429651  82.7607632  66.1297035  10.8244026  82.8301525  67.1864271
 123.8421141 119.2191410  73.5067368 123.0059545 119.3805122  73.9438057
 124.3813763 119.9765587  73.7342167  15.2892983  98.9178085  82.7801609
  15.5055296  99.8462486  82.6936150  14.3324757  98.8928032  82.7703190
  30.8512259 110.5955315  51.1150360  31.4936185 110.8146667  51.7899752
  30.2072358 111.3023567  51.1588097 124.7695939 103.0831909  63.3632374
 123.8717592 103.3577442  63.1768370 125.2153180 103.1315708  62.5175285
  27.4770713 120.8788490  77.8897142  27.4647999 120.1528645  77.2659969
  27.9851270 121.5619755  77.4521542   5.7999742  98.9294147  62.5978231
   6.4639926  98.8074017  63.2763720   5.4375595  98.0546856  62.4573231
  35.1764297 146.2472630  81.6312504  35.3261423 147.1926785  81.6279316
  35.8348513 145.9026241  82.2345257   5.2621627 124.0704060  54.5971012
   5.3285104 123.1323147  54.7754908   5.5770361 124.1661358  53.6982536
  41.0766983 134.1392040  71.2660742  41.5100622 133.4376335  71.7521095
  40.6944275 133.7025166  70.5048895   4.7719204 100.0262928  74.5085096
   4.1567093 100.7593441  74.4890881   5.1485711 100.0063419  73.6287546
 110.1770896 106.6140938  67.3371458 110.1851911 105.9942055  68.0664635
 109.3004877 106.5308857  66.9618082  25.8779931 117.1317101  73.9200544
  26.4912057 117.4286938  73.2477427  25.0895572 117.6540947  73.7726879
 123.1816228 145.6394768  81.2473106 122.8503816 145.1395798  80.5012417
 123.0247617 146.5538406  81.0115814   7.0117885 120.8649158  97.1439552
   6.9522554 120.3495026  96.3395691   6.6511780 121.7196178  96.9079971
   9.5104164 112.7059937  78.1932306  10.1202548 112.0512104  78.5332155
   8.6844015 112.5182533  78.6389732  25.8823299 128.6150837  92.6776314
  26.7033100 128.3145142  92.2879124  25.2067685 128.0917549  92.2463799
  38.3448768 124.5533848  95.0404358  38.5552979 124.3455791  94.1300583
  37.9015303 123.7709999  95.3683758  17.2377527 133.5611439 104.5328426
  18.1078243 133.3823013 104.8895264  16.7263842 132.7805996 104.7461224
  27.8404021 125.2906418  24.1131631  28.1800604 125.7168293  24.9000779
  28.6196923 124.9702740  23.6589662  28.8003516 113.9329052  81.7457867
  29.2503238 114.2798805  80.9754848  28.1483984 113.3288097  81.3904572
  87.7624125  10.4760437  85.4837036  88.0947585  10.0845795  86.2914944
  87.2755975   9.7702484  85.0581455   2.6259395 135.2783108  95.0975323
   2.6779521 134.8251629  95.9390640   3.0311713 136.1303616  95.2588654
   3.4034631  12.6842957  54.2472696   3.6810374  13.4838372  53.8001585
   3.9398581  11.9936543  53.8579941 113.6918599 110.0041199  40.6258821
 114.1767365 109.4402218  41.2284946 113.3459634 109.4056702  39.9637365
  21.7162681 114.9833012  57.5717878  22.4480844 115.2119064  58.1448650
  21.5647745 114.0526199  57.7364445 124.9916196 102.9849339  71.7951393
 124.5532924 102.6255417  71.0238171 124.4769827 102.6625538  72.5350428
 124.1911527 106.0600662  44.2245102 125.1339513 106.1454487  44.0828371
 123.9354799 106.8845177  44.6382093  26.7933297 114.4089317  60.7020473
  27.4627471 113.7287712  60.7761908  27.1647453 115.1616955  61.1620808
  14.0546262   9.0746956  70.5163813  13.6149383   9.5087319  71.2474918
  14.2568493   8.1985455  70.8445501 121.6618750 119.2534161  97.1013069
 121.4135647 118.6868477  96.3708496 122.0229448 120.0362110  96.6852665
 103.9166874  54.6172285  51.4592171 103.4201474  55.4343462  51.5039444
 103.2758111  53.9360571  51.6629744 114.2638559  72.9410458  45.4556084
 113.5749823  72.2889900  45.3271437 114.1381926  73.5660648  44.7416115
  13.5157228  11.3059597  57.9062414  13.5942352  11.8234330  58.7076712
  14.2596412  11.5804367  57.3700714 121.2601799 117.9555035  59.9099874
 121.3597203 117.5483322  59.0494490 121.9240443 118.6448669  59.9270153
  12.2516036  78.5007954  60.7412481  11.8851149  77.8430462  60.1502466
  11.4978290  78.8286257  61.2317419  16.1448979 122.8595829  68.6624527
  15.5608153 122.1519566  68.9351273  17.0102155 122.5868988  68.9675808
   7.0840853 108.2528400  76.4859390   7.5975269 107.8645039  77.1943235
   6.7821801 109.0894413  76.8397522  12.4565434 114.9327564  85.9894180
  12.3535967 114.1659927  85.4257774  13.2933724 115.3143501  85.7242107
 117.1766627 112.3224926  60.5455732 117.7194292 112.9249573  60.0369692
 117.7639592 111.9829273  61.2208557 104.4970531 102.4527359  67.6301432
 105.0228221 101.6580391  67.5392389 105.1253111 103.1681538  67.5316286
  88.1535739  98.6530685  52.0076656  87.8000135  98.8830853  52.8669214
  88.9052076  99.2348289  51.8943977  17.2390723 124.5394802  72.6687336
  16.7446744 125.0379848  73.3193445  16.9561207 124.8972607  71.8272114
 124.5408378  90.1651764  32.2702909 125.4414434  90.2857780  32.5712824
 124.0015811  90.4465961  33.0093694  13.9456439 106.0191536   7.3943845
  13.0920792 105.8182335   7.7781717  13.7931418 106.0033035   6.4495508
   7.2194397 117.2632313  70.1398563   8.1725407 117.3369694  70.0909281
   7.0491070 116.3226318  70.0900269 108.4817273 124.7799587  82.0204926
 108.5277612 123.8392639  82.1913815 107.5449950 124.9767494  82.0145321
  16.0071993 123.3242989  64.4869518  15.6505942 123.0976868  63.6280537
  15.9902215 122.5026608  64.9777126   0.9535028 138.7073708  71.5083742
   1.1579853 139.5819283  71.1773396   0.5260425 138.8638973  72.3504019
  11.4204955 104.5479202  49.6163034  11.9750917 105.1920891  50.0564146
  11.3547003 103.8235378  50.2385378  29.3189645 141.0171509  79.4214344
  29.2041039 141.8115902  78.8999844  28.4283423 140.7057762  79.5828867
  21.4351630 103.9937019  44.1627741  21.6503811 103.1458092  44.5513487
  22.2447824 104.2739868  43.7359381 116.8759889 115.2921295  82.6541996
 116.4843375 115.4941368  81.8044758 116.8854142 116.1290646  83.1186295
  21.6171670  85.7571888  84.2655277  20.8856153  86.1637497  83.8010120
  22.3956513  86.0599709  83.7980652  15.4661572 126.1500740  79.2087746
  15.2365422 126.9079113  79.7465372  14.6241498 125.7671070  78.9626217
  52.9271364 116.2565517  58.6367226  53.4846449 115.9081078  59.3324232
  53.2026529 117.1684456  58.5431194   9.8496372 131.7502499  73.3146620
   9.5348144 132.0045280  74.1821051   9.0845150 131.8396282  72.7464771
   0.8313614 138.1586838  51.3408661   0.7710174 138.9866447  51.8173885
   1.6334715 138.2374477  50.8244848  22.1998167 130.9894085  86.8279171
  21.7015791 131.6921234  87.2452641  22.4698973 130.4246140  87.5519943
  21.5884280 131.6034603  76.7984676  21.2397528 130.8092690  76.3936138
  21.5257144 132.2689342  76.1133051 118.4879918  85.9609985  78.3520603
 117.9342110  85.7958412  79.1151333 119.3111057  85.5154324  78.5525322
 109.4321877 121.4202309  40.2947378 108.4967060 121.2328911  40.2172136
 109.6235938 121.9949055  39.5535588 117.4271268 124.0051365  69.7642088
 116.9228501 124.8007107  69.9345255 118.2020379 124.3093014  69.2917347
   9.1251993 113.4213448  84.9911404  10.0815940 113.3949566  85.0201988
   8.8676733 113.7316132  85.8592701  22.8198481 144.6642303  67.3497629
  22.9415441 144.1201305  66.5717030  22.4414992 144.0718460  67.9995012
  26.6905189 126.7910957  76.9738245  27.5622654 126.8748474  76.5874577
  26.3165188 126.0157394  76.5552950  23.8273382 115.4618549 109.5851326
  23.4613323 114.7107124 109.1181564  23.9258027 115.1581001 110.4874992
  17.3785293  99.3890190  59.7170877  16.9865656  99.6847534  58.8954210
  17.0170450  99.9771023  60.3802061   9.0255433 138.4379768 100.5955219
   8.0723482 138.5106277 100.5468178   9.2355704 138.6479092 101.5054893
   0.6673006 134.9101448  44.4637442   1.4431411 134.4027138  44.2253828
  -0.0428840 134.5128727  43.9597178   0.4647420 123.2744598  80.4751778
   1.2388506 122.7726841  80.7305336   0.8155134 124.0875053  80.1116562
  38.6116219 123.6289024  57.4808359  39.1288567 123.1156731  58.1015635
  38.8697767 124.5356941  57.6461220  20.7584262 113.9132690  82.4303246
  20.4612565 113.9894390  81.5236187  20.1360607 114.4403362  82.9314327
 107.4490160 130.3538513  69.8966837 106.7185718 130.8688164  70.2394676
 107.5123948 130.6108665  68.9768171  23.4414029  78.6586809  43.3295059
  23.5544348  78.2882786  42.4541426  23.5590887  79.6008110  43.2079506
  12.0256567 106.9627762  76.5946293  11.4106524 106.6378021  75.9370661
  11.5473390 107.6573944  77.0473576   3.2286853  12.1261673  65.5364561
   2.4492455  11.5976506  65.3650618   2.8894615  12.9379540  65.9134960
   9.7704124 129.1816139  68.8560724   9.0644646 129.3111420  69.4893932
   9.9837041 128.2508278  68.9221859   2.4011873 140.6091309  83.0758572
   1.4678851 140.4870701  82.9018497   2.4669608 141.5021229  83.4142017
  24.6694469 104.6456051  93.1886864  25.0908303 103.8116360  93.3964252
  23.8840389 104.4016743  92.6989269 119.1990710 122.3059559  38.7885213
 118.4683234 122.3951530  38.1767368 119.7482125 121.6207886  38.4074378
   3.1707564   7.4321347  43.7878704   3.5850725   7.4342614  42.9249859
   2.6442000   8.2313519  43.8027048 118.4783239 108.3161831  29.3927860
 117.9856080 107.5847816  29.7649622 118.0852587 109.0949345  29.7868299
  32.1797252 114.0866470  77.7392769  32.7268314 114.4107723  78.4547091
  31.9358063 113.2005501  78.0068064 108.4522206 126.0280132  79.2528200
 108.6404676 125.7945919  80.1618385 109.1433603 126.6465759  79.0163183
   4.3591914 135.0465202  72.2740269   5.2739066 134.8928070  72.5104618
   4.3330702 135.9638119  72.0017672   1.6907978 118.3020782  64.9383640
   0.7516267 118.1395245  65.0264931   1.7597240 118.9193821  64.2100668
  20.2457452 102.5319195  25.9259272  20.7508397 103.0257511  26.5718746
  20.6076980 101.6466427  25.9647775  26.0882878 123.7741089  75.5107880
  25.8877826 123.6666489  76.4405632  26.7796612 123.1346893  75.3394079
   9.6342254 125.1887035  11.5508759  10.3226674 125.8150005  11.3271987
  10.0948763 124.3576813  11.6667902  19.7647083  92.4800396  56.6566944
  20.7036209  92.2941971  56.6686201  19.7072542  93.4091282  56.4337015
  13.3811462 113.8028717  82.1389294  13.8828003 114.6168900  82.1830559
  13.9906859 113.1657982  81.7663383 115.8919228 134.6148586  98.3003330
 115.4631502 134.2203522  97.5408936 115.3717465 134.3213940  99.0483475
 124.3164373 126.8823528  74.3569422 124.8885836 126.5307522  75.0390387
 124.6899744 127.7387619  74.1489601 118.8592482 121.4425659  68.9848375
 118.5937590 122.3282146  69.2325640 118.1301833 121.1119366  68.4600687
  23.4629631   2.5001316  57.3119116  22.8273892   3.0027371  57.8214884
  24.2893267   2.9683190  57.4309254  24.4960451 119.5376301  73.9318228
  24.4745135 120.1454449  74.6709585  24.1799307 120.0522709  73.1892300
  29.5116353  88.9534569  62.5552940  30.2870107  89.4870949  62.3813772
  29.8496485  88.1795979  63.0059958  29.8964715 133.0603790  82.0394230
  29.3323684 133.6027718  82.5906277  29.4753289 132.2008038  82.0383263
  32.4899888 116.9848156  52.2438335  31.5413189 116.8573475  52.2468567
  32.8038812 116.4648342  52.9836464 103.9219708 104.5997334 109.3229103
 103.7695379 104.9430275 108.4424877 103.4292669 103.7794876 109.3487835
 108.9042658 102.5094795 104.2028332 109.1427142 101.7124462 103.7294197
 108.4314556 102.1973991 104.9743843  24.0680027 129.4689369   9.0345994
  23.8842463 129.3651676   9.9682466  24.8747182 128.9736271   8.8927690
  96.8958134 116.0887814  79.6963263  96.5891332 116.9034481  80.0944424
  97.8126854 116.2582874  79.4798946  17.8780496  78.0765486  45.8486366
  16.9972765  78.3647060  46.0882950  18.2310796  77.6925135  46.6512060
  18.9069605 132.7035427  50.8711624  18.4809017 132.1543407  50.2130699
  19.7457123 132.2727776  51.0359955  23.0314159 126.3752937  80.6124020
  23.5650969 127.0476437  81.0359192  22.8395605 125.7476807  81.3092041
  11.0666394 106.0565090  84.6907616  10.9875345 105.1109314  84.8167038
  10.4077685 106.2659073  84.0287399   3.7324867 114.5975494  15.7540512
   4.6175116 114.3725109  15.4671335   3.1610492 114.2253399  15.0823712
 115.5952031 125.7424545  92.0616436 114.7174258 125.4048443  91.8834305
 116.0304845 125.7398129  91.2091446 121.7314977 133.6979103  63.4378529
 120.8132107 133.4290791  63.4111643 122.2175259 132.9167271  63.1737232
  11.9978297   6.1231690  70.9828997  11.9965017   5.9525471  71.9247675
  12.5117338   5.4066639  70.6104088 117.8003419 129.9189472  54.9045467
 117.3668767 130.1792717  55.7173014 118.6063159 129.4887257  55.1901150
 118.2954080 114.6926212  60.3262758 119.2362893 114.6217442  60.1651859
 118.1955392 115.5161762  60.8037853  12.9285789  99.3636322  26.1929393
  13.2018006  99.7434711  25.3578925  13.4811544  99.7951984  26.8445897
 113.5219509 115.7214355  76.4346695 112.6332504 116.0502243  76.5700960
 114.0618486 116.5093422  76.3718414  33.9128232  92.6427746  41.6986513
  32.9719234  92.4675083  41.6838694  34.0037012  93.4983635  41.2791967
  20.5497861  98.3212852  48.6337423  20.8500242  99.1851139  48.9164019
  20.6592607  98.3289814  47.6828575   2.9232728 143.0381870  84.2703724
   2.5573611 143.6486340  84.9104404   3.8572791 143.0055618  84.4772530
  21.0352087 113.4642792  89.3309212  20.9896660 113.7182808  90.2526760
  20.2558684 113.8552666  88.9359570  30.4899669 124.8320007  30.6932282
  30.9690118 124.0134048  30.8222675  29.5761466 124.5626640  30.6003857
  24.1820788 113.7046719  20.7797933  23.6545110 114.5029831  20.8043981
  25.0797105 114.0144157  20.6591678   9.3231660 114.0983868  20.9052110
   9.0860528 115.0203991  21.0046673   8.7328809 113.7711430  20.2264547
 106.6897888 103.3923340  51.7090464 106.0697169 104.0213394  52.0779514
 106.1463339 102.7902126  51.2007809  19.1073048 101.0931206  77.7235985
  19.0306461 100.4734707  78.4491301  18.2514131 101.5196228  77.6814365
  13.8267648  98.3844852  55.8928823  14.3827152  97.7008438  55.5190134
  13.2719016  97.9242420  56.5225887  34.2699957 118.0210114  68.7048817
  35.2166700 118.1543255  68.7524414  33.8962364 118.8651276  68.9578629
 113.2933540  99.8915100  59.8024750 112.3656637  99.8599148  59.5687580
 113.2991464 100.1400852  60.7268143  25.4565072   9.6148472  71.5798378
  25.1491857  10.3267079  71.0185528  25.2064085   9.8821717  72.4642706
  32.3997188 120.5667591  69.3391848  33.0108786 121.0520172  69.8934746
  31.5742803 121.0451412  69.4168997  53.5325670 133.5854149  30.0066519
  52.7863646 134.1828251  30.0567818  53.6635208 133.4438992  29.0690732
  26.4350295  84.0434074  29.2509508  26.4997745  84.8559570  29.7527552
  27.2420526  84.0143299  28.7370443 116.3589150 121.5769482  70.9366655
 116.6549689 122.4706841  70.7639694 117.0361537 121.2053013  71.5018749
  25.2024698 119.8194504  95.0830078  24.7914386 120.6814766  95.1478577
  25.8273983 119.7969532  95.8077049 107.6936025 134.7251129  90.1158047
 106.7895646 134.9300385  90.3544521 107.6787812 134.6523285  89.1614914
  13.2762146  94.8304844 110.0319004  13.1169057  93.9388752 109.7222519
  13.8800538  95.2028942 109.3893147  10.3489757 136.4365864  77.8993654
  10.5475640 136.4760017  76.9638205  11.0832214 136.8847847  78.3191633
  58.2248068 124.5701885  60.1150179  58.0495644 124.9580574  59.2576456
  57.6475811 125.0432491  60.7144022  18.8270998 102.2238064 109.2867279
  19.1733849 102.8960228 109.8736191  19.5870578 101.6865063 109.0631008
  30.9528518 139.0908432  78.2845545  30.1999068 139.6463680  78.4862757
  31.1201072 138.6104107  79.0953875   2.1471259 107.1640015  95.8817577
   1.4796212 106.7498112  95.3348446   2.6530167 106.4331722  96.2369919
   7.3448706  85.3940296  68.7187529   6.4700162  85.7822227  68.7315273
   7.6290774  85.4138756  69.6325731  21.7014837   5.4380493  68.3384800
  21.6966867   6.3798504  68.5093927  21.8916941   5.0413208  69.1885757
  42.4089336 120.7280636  72.0040989  41.7075348 121.3091087  72.2984791
  42.0604992 119.8462772  72.1355581 112.0419151 126.6019249  59.3909931
 112.5457282 126.0672665  58.7773609 112.0279676 127.4729156  58.9942551
 122.3683316 141.6145611  63.7363529 121.9490740 141.7238426  64.5898819
 121.6670100 141.3056469  63.1628084   6.9674772 111.6386318  42.5180149
   6.0614711 111.5345669  42.8087997   7.4832559 111.6020775  43.3235407
  17.3808694 120.1875401  63.3658791  17.9887474 120.9265804  63.3892107
  17.1107936 120.1284027  62.4494791  14.9840236  99.0612888  95.7687950
  14.5330560  99.8770142  95.9866333  14.8686051  98.9689827  94.8230743
  24.3085742  93.0723476  59.4911909  24.8437071  93.8648701  59.5332336
  24.8810339  92.4177456  59.0911674 114.8587943  64.2066479  73.9753103
 114.9540473  64.9249172  73.3498096 115.3425378  63.4805155  73.5816669
  12.4186933   5.5385285  81.5716743  13.0772817   5.9720211  81.0289192
  12.8036857   5.5218010  82.4478817 116.8170906 108.6054230  75.2516603
 116.1450697 108.1692410  74.7278643 117.6166076 108.5235596  74.7317505
 115.9043068 109.7938156  78.4454966 116.1505598 110.3925228  79.1505766
 115.8793480 110.3435135  77.6622772  30.2092838 129.4931889  95.2988720
  31.0542822 129.3451977  94.8742390  29.8943782 130.3162861  94.9252605
   4.0809318 125.0474739  84.8642159   3.8948449 125.2449799  83.9462852
   4.9182418 124.5840645  84.8445225  24.9985600 145.4554844  63.4501886
  25.5042505 145.5061913  64.2613220  24.2403412 146.0188293  63.6050320
   4.7092435  88.8918209  95.6703377   4.9237579  89.3145943  94.8387909
   5.3958762  89.1821098  96.2707520  23.1799102 130.0972939  84.4630146
  23.5145092 130.9175491  84.1004276  22.7933741 130.3465462  85.3024769
  44.7049189 137.5598049  78.3264685  44.6367121 137.9877567  77.4729872
  45.1250076 136.7200661  78.1404543   0.4416481  49.5734959  31.0944963
   0.6416512  50.4065113  30.6675196  -0.0355340  49.8191052  31.8870902
 114.0640504 141.4508438  37.2118974 113.4911746 141.5984344  36.4593935
 113.6597819 141.9492626  37.9220891 120.8870987 115.7874298  50.2077866
 121.7168302 116.1301327  50.5399561 120.3556246 116.5660477  50.0418806
 104.1703720 124.6306038  57.9387474 103.9658493 125.5120277  57.6265240
 103.4420795 124.0919495  57.6294374 122.2345190 109.4966125  64.8374844
 122.2253353 109.1014290  63.9657211 122.8134427 110.2539825  64.7510433
   2.0462842 121.3349628  87.1287918   1.5976158 121.2481403  86.2877274
   2.3059857 122.2554302  87.1678257   4.8717910  16.7648106  53.5532665
   5.1582873  15.8699589  53.3704567   5.6573671  17.2976666  53.4301662
  12.4260199 100.5473709  29.5418906  12.9869425 100.3485012  28.7921906
  11.7431533 101.1159134  29.1859579   4.8201495 135.5331898  19.2603111
   5.2348870 135.9145832  20.0341082   5.5031312 134.9914455  18.8649881
 121.8116919 112.1934319  86.6638947 121.7757357 112.2006702  87.6203918
 122.6444586 112.6152897  86.4523220   4.4970116 128.6803722  67.1955347
   4.0500236 129.5166397  67.0647764   4.6061534 128.6128807  68.1440926
 101.4957375   2.6205139  40.9398079 100.6214423   2.5960331  41.3287020
 101.9519348   3.3119564  41.4194155  20.8532858 137.3602772   2.1771184
  21.0676575 136.6398716   2.7698198  20.0089622 137.1156120   1.7983142
   1.1532789 140.3845310  52.8242016   0.2116092 140.5557156  52.8105640
   1.3002148 139.9191666  53.6476564 106.6091723  78.2665443  38.4323120
 106.8467826  79.1852093  38.5581279 105.8980054  78.2886219  37.7920103
   9.8354292  95.4858875  42.8350544   9.4094372  95.1430702  43.6207008
  10.1341903  96.3597965  43.0865622  56.8915701 123.8481426  69.6405363
  56.0659838 124.2739964  69.4096994  57.3001814 124.4428825  70.2694798
  16.0423553 137.1325970  74.6788549  16.3887882 137.9577160  75.0185633
  15.1623058 137.0713139  75.0503206  27.9265499  68.5793304  68.4792519
  27.9628897  69.3976259  67.9839754  28.6443686  68.0536318  68.1262541
  21.9102311 116.6462421  43.9192104  22.2944880 115.7701492  43.8869667
  22.0912051 116.9546127  44.8071194 114.5619518 104.4361210  52.7643919
 115.1422823 103.6936474  52.9322815 113.7943108 104.0496063  52.3430014
  28.8125420 134.3618679  51.0753393  28.2843733 133.8712215  50.4456329
  29.6849656 133.9734268  51.0103273  15.4959941  13.9395504  18.4154201
  15.6778729  13.0096894  18.5514653  15.0537515  14.2169934  19.2177200
  11.1257696 134.2975521  30.3290153  11.0336208 133.7653637  31.1192799
  10.8443737 133.7215424  29.6181989  27.1172810 107.8600979  44.8789501
  27.2172046 107.9074478  45.8297396  26.1888885 108.0364990  44.7266102
  18.1342590 113.1499004 105.4902472  18.3237314 114.0477753 105.7625594
  17.4288523 113.2378292 104.8492315  30.8540535 110.8642960  27.2304893
  30.9811568 111.8089294  27.3184681  31.6739535 110.5465031  26.8523359
  22.3212552 139.7620296  98.6808872  22.2898960 138.9853001  98.1223679
  21.4838600 140.2001572  98.5290813  35.2229857 117.4356270  57.2338200
  35.7173705 117.5459290  58.0460072  35.3212976 118.2716560  56.7781639
  23.9159632  86.4099503  29.2012763  24.2021346  86.5714550  30.1003075
  23.0360007  86.0443497  29.2920470  23.4240174 129.3274117  48.5343170
  22.9796576 129.7012901  47.7733994  23.8023496 128.5091209  48.2126045
  37.1977210  93.4925461  25.9119558  36.9853711  93.8159752  25.0364375
  37.3079133  94.2837048  26.4393544   2.6441792 119.8007965  52.0592356
   3.2237464 119.0467262  52.1674252   2.4875025 120.1123047  52.9506636
 118.0948824 125.7086468 103.0214977 117.4382461 125.0160408 102.9483128
 118.9106662 125.2962494 102.7374935 120.9817410 131.8294430  74.9932909
 121.2411243 131.3090324  74.2329502 120.4815496 131.2229061  75.5393219
 110.1560623 110.5862045  75.6186819 109.7770316 110.9157944  74.8038578
 110.9719939 110.1640987  75.3497553  34.9028659 144.6660042  16.5014899
  34.1952753 144.8995304  17.1023357  34.9976802 143.7186050  16.5997922
   4.5956278 128.5205650  43.4577179   5.3413069 128.4476471  42.8620052
   4.8786813 129.1513920  44.1196632 102.2338838 129.9622631  32.4009085
 102.3874468 130.9070492  32.4063611 101.3322443 129.8643875  32.7070141
 112.3386783 145.7047176  30.5216861 112.9886217 145.0117970  30.6385803
 111.8949682 145.4813671  29.7034788 104.0975208 129.3217278  44.5445776
 103.6806578 130.1678276  44.7075987 104.0925855 128.8842964  45.3959656
  13.7918198  60.0690269  41.8472910  13.6267531  60.4666615  40.9923840
  14.2691875  59.2634964  41.6486263  19.2405534   1.5039330  47.9969311
  18.3380377   1.4442616  47.6836586  19.2232358   2.2087078  48.6444092
   5.2446902  29.2495900  79.2344570   5.4992294  29.3588429  80.1506996
   4.5884851  29.9303227  79.0853643  38.7267637  91.0999680  67.9837179
  38.4055018  90.4706860  68.6294889  38.3108449  91.9268799  68.2275820
  25.7151890  81.5641594  40.2634859  26.5049481  81.7453861  39.7539091
  26.0357022  81.1389542  41.0589170 101.2373490 127.2242165  29.9148250
 101.8686265 127.2269440  30.6343484 101.7759890 127.2113705  29.1236663
  22.2598886 108.0820847  31.2054849  21.4252925 108.4128284  30.8733797
  22.0150447 107.4145794  31.8463516 102.3447556  59.1090393  59.9549294
 102.8847141  59.8467398  59.6712494 101.7235417  59.4913149  60.5747604
 124.3478897 119.6244526  51.7230654 124.9502975 120.3353024  51.9422340
 124.5537248 119.4078732  50.8136940   2.2602215 137.0591164  38.3102751
   1.7789274 136.2562275  38.1103921   2.0903917 137.2151947  39.2392683
  12.7100337  77.1566296  54.1468382  12.4427712  77.7653360  54.8355150
  12.6466453  77.6661396  53.3389902   8.0440789 108.2107544  72.1323442
   7.3250765 108.2578468  71.5022230   8.8327390 108.3423901  71.6061115
   1.0642751 109.2403221  46.3209772   1.9814062 109.3067360  46.5868568
   0.7600190 108.4216595  46.7127085  17.5158989   3.0503636  31.8212008
  17.6864100   2.3510056  31.1902881  16.5711081   3.0133229  31.9703007
  14.3734789 140.3394127  35.2159047  14.0584624 140.5854511  34.3461561
  15.2896380 140.6165123  35.2260566   4.2091468 128.2915211  29.5250511
   3.5184953 128.4844875  28.8910174   4.8427206 127.7659893  29.0365481
   0.7223272  94.5280552  25.9071565   0.8122041  95.1030064  26.6671443
   1.2258146  94.9614811  25.2180481 107.1662826 135.8757877  23.5123730
 108.0018956 136.3130951  23.3488417 106.5141291 136.5734482  23.4475946
 121.0126308 101.0207367  68.8314152 120.6303204 100.8287525  67.9751396
 121.5369428 100.2471542  69.0385151  11.5027809 144.2910004   4.6634677
  11.6285133 145.0244713   4.0614337  12.0933747 144.4764519   5.3935623
  21.8440270  13.6045056  32.6455665  21.2921667  14.3686467  32.4789166
  21.5844488  12.9711037  31.9764996   5.0807375   8.5093575  55.3394175
   4.3424734   8.3830433  54.7433949   5.0778174   7.7285939  55.8931541
 116.9856102 101.8053913  44.8317480 117.5327272 102.5533867  44.5921469
 116.1018259 102.1668434  44.8989010 121.8415547  84.2734623  35.3588796
 122.0689688  83.8926125  36.2070918 122.6735396  84.5915031  35.0083303
  22.3041701 129.0087795  66.0386992  22.1189451 128.2563496  65.4767513
  22.2039342 128.6729145  66.9294167  14.2501473 115.2290916  23.4675479
  13.5104716 115.2709103  24.0736508  14.7568035 114.4714165  23.7598872
 113.9164431 119.2434216  59.0873718 114.2443461 120.1420975  59.0544128
 113.8477666 118.9797115  58.1697750 121.6703597 134.4489765  54.8874235
 121.2206925 133.8391590  54.3024826 120.9651197 134.9348068  55.3150177
  10.8392131   2.1008663  64.0922642  10.9132874   3.0353146  63.8984680
  11.7410600   1.8136673  64.2351580 121.8688352  76.1523104  64.8692322
 122.1200005  76.6556454  65.6436968 122.2575130  75.2887201  65.0084162
  19.6573794 125.2138138  36.7339253  19.9768817 125.8980370  36.1457205
  20.3185439 124.5237446  36.6801000  26.8521667 118.7683582  28.8192797
  27.7349806 119.1272926  28.7296271  26.9886351 117.8359699  28.9873528
  31.8442631  99.4532490  63.6257029  31.5124655 100.3285313  63.4256506
  32.0645261  99.4875813  64.5565844  20.8363509  95.9534264  20.0161219
  20.7617307  96.8827152  19.7991204  21.1101079  95.5377674  19.1984916
   0.5732549 116.7456245  60.8873129   0.5193661 115.9226513  60.4014683
   0.9272165 116.4969349  61.7411852 121.0313765 144.2321968  33.3389640
 121.7089266 144.2377949  32.6628518 120.3761873 144.8562241  33.0266333
  19.7723007 142.8310585  23.2645845  19.1934609 142.5275803  22.5652432
  19.1879523 143.2590961  23.8903236  24.9209523 126.1284542  56.8653297
  25.1127958 125.4035091  57.4602032  25.6004000 126.0731125  56.1933756
   4.6655351 116.0771751  12.7346039   4.9256042 115.7487392  13.5952568
   5.4724830 116.0654068  12.2198927  18.0935383 131.5892792  45.6234884
  18.5077775 131.2610531  46.4215469  17.2194338 131.1992359  45.6295061
 120.1646481   2.0667916  30.0116587 121.0356045   1.7358952  29.7921729
 119.5886350   1.6814785  29.3513751  29.9522448 116.7714691  49.1382980
  29.3280935 116.0559559  49.2595816  29.4416475 117.5647449  49.3002844
   5.9958667 120.9574509  63.2770348   6.7044973 120.5882549  62.7499962
   5.2269381 120.9139729  62.7086258 118.5324765 104.9001217  12.7760589
 118.2299662 103.9956188  12.8573060 118.0153800 105.2618885  12.0563567
  23.5146189   0.8666592  34.4645166  23.8379693   1.7498856  34.2867661
  24.2322063   0.4383068  34.9312139 103.3482165 114.1962433  34.8115849
 103.1418867 114.8256874  35.5025649 104.2937679 114.2783165  34.6873736
 109.9591000  89.3735409  32.5172567 109.1806585  88.8290405  32.6346779
 110.4552085  88.9361095  31.8253279   8.9638686 106.6990566  32.5536013
   9.0063840 107.5690746  32.9504418   9.0011126 106.0953426  33.2954693
 103.4988803 116.5786648  78.1808567 103.5600562 116.0381699  77.3932266
 102.9891009 116.0502338  78.7949562 116.7990900 102.8807449  56.8647528
 116.3505340 103.6503410  57.2151089 117.2229112 103.1936932  56.0655832
 120.8195672  73.1619692  58.2003498 121.5551031  72.6029444  57.9499292
 120.0424880  72.6559591  57.9629946  24.9109507 114.4211769  73.8570070
  25.3596854 115.2361774  73.6319447  24.9367881 114.3897438  74.8133421
  19.0395391 112.4197769  18.7076271  19.9683118 112.4548912  18.9364958
  18.9336109 113.0904102  18.0328918  20.9937429   4.6748047  46.7539501
  21.3990021   3.8155823  46.8711615  21.5555644   5.1200943  46.1196709
  28.7203145 131.9038677  43.3311558  29.5152259 131.6890430  42.8431034
  28.6118937 132.8470516  43.2091475  15.4697454  96.5281677  32.0116305
  15.8484769  95.6933689  32.2871161  14.7528076  96.6806889  32.6272345
  15.4081666 133.3229160  40.8939409  16.0575783 132.7388859  40.5022764
  15.9255767 133.9635849  41.3818645 121.6725004 129.9858665  72.9095745
 122.3909166 129.5431328  73.3613396 121.7572034 129.7098923  71.9969416
   8.5938871  98.8928890  27.4975371   8.5801530  98.7758827  28.4474587
   7.6720709  98.8732243  27.2404408 101.2121696 116.8367386  56.6189623
 101.7926139 116.2875366  56.0920000 100.4034800 116.3298130  56.6915894
  99.9629158 138.5056210  21.0384941  99.9402089 138.7712383  21.9578218
  99.1157002 138.7812805  20.6885433   7.4310398 123.8244915  64.0887022
   8.2943296 123.8142967  64.5020533   7.2430921 122.9042912  63.9039135
 104.6501178 145.4473305  45.3127909 104.0878553 144.7529125  45.6561232
 104.9278254 145.9357643  46.0877371 108.5573453   4.4197350  35.0843453
 108.9288122   4.8888760  34.3372488 107.6154048   4.5783215  35.0224519
  40.4099178 121.4768314  84.4000053  40.3172922 121.9721794  83.5861874
  39.6729350 120.8660507  84.3938255   7.0331383 127.4892044  48.0475426
   6.2552309 127.2694016  47.5349236   7.3959202 128.2612133  47.6132298
  50.7823133 126.6840172  94.1888332  50.9458017 125.9350491  94.7620201
  51.1702251 127.4277210  94.6499920  38.2488060 100.8837700  65.2143002
  37.6399159 101.3033104  64.6064615  37.8326440 100.0499344  65.4328346
 119.4391519  99.0357685 105.8852481 118.7970842  99.6998024 106.1363237
 119.8656235  98.7922287 106.7068558 101.0238475 135.3591061  48.3130264
 101.3609046 134.4743252  48.1723595 100.1918740 135.3764820  47.8400040
   8.0665171 104.0893555  39.3994641   8.9621514 103.7882805  39.2464066
   7.8325385 104.5611382  38.6001492   2.1646062 144.4289112  39.3166280
   2.4696505 144.1260624  40.1718855   1.2629434 144.7111893  39.4701195
 105.8970148 113.6628056  50.4072809 105.2556629 113.1055164  49.9664450
 106.7449779 113.3369637  50.1055861 113.8320858 108.0549812  21.6037130
 113.0310757 107.5564575  21.7652297 113.6570675 108.9177895  21.9794178
 117.8968692 130.1559258  57.6136112 117.5488914 130.3099918  58.4919119
 118.4465933 129.3778896  57.7068615   1.2388139 130.3754330  42.1479797
   0.8366294 131.2075043  41.8987179   1.6450733 130.5505562  42.9968119
  51.9770288 119.4926929  19.4500864  52.3370647 120.0348186  20.1520133
  51.0362577 119.6680927  19.4705522  41.9504738  89.5135975  87.5806046
  41.3031769  89.2381859  88.2297516  42.1127081  90.4355526  87.7803707
  22.3617101 142.1261597  78.2145023  22.5748134 141.2315750  78.4800816
  21.5280008 142.3120689  78.6464691   4.6616238 108.1149292  50.1438379
   4.0457642 107.4144745  49.9286270   5.2992785 108.1008816  49.4300938
   8.0940771  89.3819904  48.5681725   7.7884758  90.2279854  48.8954639
   7.9712886  89.4333553  47.6202679  25.7815385 106.7281818  64.4129419
  25.3583789 107.2667217  63.7442541  26.0755038 105.9485149  63.9418459
  16.0473895 113.0384254  30.1153159  16.5819168 112.7350998  29.3814874
  15.1813948 113.1869507  29.7355437  18.7804317 140.9983253  46.6709328
  18.1093347 141.1388779  46.0030222  18.4078836 141.3755417  47.4678946
 107.8536553 120.2472591  21.4376354 108.1319029 119.3388462  21.5542722
 107.5831539 120.5289841  22.3115301 100.0974292 142.9438782  66.8245077
 100.3653211 143.4405994  67.5976372  99.1675229 142.7654839  66.9647980
  23.3376408 106.3245773  65.7091522  24.1053843 106.3484287  65.1379824
  23.1340289 107.2449875  65.8752918  46.4911366  74.2268991  77.1531105
  45.7521248  74.6539116  76.7198133  46.1462736  73.3798552  77.4356413
 108.7255175 132.0298386  48.2865047 109.4132680 132.4099922  48.8330555
 109.1592295 131.3174725  47.8167677  82.2766084 120.1937389  41.8515491
  82.8017253 120.9838295  41.9789791  81.5883369 120.2541733  42.5140142
 111.3071281   3.6323433  52.5708294 112.2053761   3.9087086  52.7525043
 111.2228889   3.7017231  51.6198730 104.9098415 116.0619545  37.1069074
 105.7714052 116.1625481  36.7021585 104.4592256 116.8852234  36.9187427
  20.7742238 137.0866108  55.6475592  20.5939555 136.5358162  56.4093781
  21.1640787 137.8807545  56.0130358 117.0563061 121.4999199   8.6886519
 117.9076559 121.8994331   8.8670379 116.4529521 121.9466400   9.2824793
  10.0137711  16.1939030  12.5660527  10.2703226  16.9762593  12.0778584
   9.7394228  15.5709057  11.8931139  49.4450617 136.6362286  41.0695410
  50.1049376 136.0724545  40.6658602  49.5465040 136.4883518  42.0097971
  39.6378613 119.4996166  13.1665850  40.5784798 119.6606064  13.2410836
  39.3884540 119.1390228  14.0174651 118.9067758  14.5683079  55.0819063
 119.0304363  13.8116246  55.6549311 119.3253583  15.2923184  55.5475569
 123.7842422 110.9104443  11.9387078 123.4128316 110.5371380  12.7380395
 124.4426215 110.2737713  11.6604722   0.4784742 132.2256374  49.0843487
  -0.0733297 131.6410923  48.5646868   0.8651827 132.8224182  48.4436035
 120.9705854 102.9145432  18.6641836 120.9544579 103.1430435  19.5935714
 121.0217125 101.9587708  18.6533749  18.4270024 114.3118572  16.7620146
  17.6863194 114.6178913  17.2854280  18.5625744 115.0017452  16.1124742
  43.3861589 133.6360168  47.5944519  43.3649635 134.0389633  46.7264557
  43.0853415 132.7389526  47.4494791   4.2232668 103.4785461  70.7289314
   3.6817268 103.0876255  70.0432587   5.1229453 103.3168793  70.4448986
 119.7927243 114.9424267  71.8988276 119.4158501 114.9431133  71.0189438
 120.4685409 114.2651939  71.8693876  11.8326628 123.4009361  48.8667059
  11.2581491 124.0455151  49.2798519  12.6612449 123.8636971  48.7420321
  21.2192941  97.2234535  33.5291195  20.3049254  96.9460201  33.4726620
  21.3492990  97.4331379  34.4539785  36.2453437  64.0208340  52.4704885
  36.7831707  63.7328625  53.2080841  35.3441763  63.8950872  52.7676725
  17.9907894 134.4231129  46.6120100  18.1989264 134.5690536  47.5348425
  18.2407176 133.5132408  46.4510965  46.5745926 126.7320919  27.5452209
  47.4623108 126.4077950  27.3935008  46.5636778 126.9761848  28.4707117
  37.6173782 112.9244423  13.0086505  37.5367975 111.9736004  13.0837035
  38.5564137 113.0777168  12.9039943  26.2736177 115.9548855   9.2149913
  25.9534621 115.0561810   9.1371471  26.0303426 116.3683987   8.3867043
   6.1965114  22.0513325  71.6123962   6.1073768  21.5514927  70.8009434
   5.4841685  22.6898747  71.5798426 103.6471648 137.3233700  89.3491840
 103.2105059 136.5837669  89.7717381 103.5545821 138.0440331  89.9723244
 123.0251717 114.4470406  56.9149828 122.9833396 114.2987823  55.9702587
 122.3889723 113.8333035  57.2821474 106.2898333  78.9688206  50.8834600
 105.8773965  79.8069334  51.0924816 106.7999608  79.1435432  50.0925922
  14.9833155 114.9510002  63.7838936  15.7637012 115.4396725  63.5223007
  15.1801467 114.0434074  63.5520411  13.2736003 138.5126781  23.5648370
  12.9457641 139.0573406  22.8492260  13.9701641 139.0344906  23.9632583
 122.1050144  97.7972412 106.9152641 122.7436793  97.2272015 107.3435116
 121.6151137  98.1923485 107.6364517  97.5694341 132.3523998  86.6668701
  98.1972498 132.1948242  87.3720264  96.7416138 132.5217438  87.1166134
  37.2851992 126.9356823  47.7259350  36.6353607 126.2936974  47.4399185
  36.9841266 127.7639675  47.3524094 124.6346418  88.0952835  35.3422570
 124.1139316  88.4367466  36.0692358 125.3929290  88.6776352  35.2964997
  26.6735530  16.1878758  42.4369907  25.9787560  16.7181950  42.8271770
  26.2670588  15.3346615  42.2852373  14.2014158 124.6232510  93.7549496
  14.7306395 125.4178143  93.8244057  13.7372279 124.7166061  92.9230595
   9.0266919 102.8459835  63.0099964   9.1693032 102.1028996  62.4237251
   8.0873412 103.0204201  62.9514599 116.5788049 107.7899361  82.5757790
 116.1463971 108.2492828  83.2956791 117.0758290 108.4703732  82.1216869
  29.9257565 131.8326187  70.3941393  29.8450136 132.1837711  71.2809372
  30.8650398 131.8571091  70.2114391  18.2900286 116.6123772  56.3816071
  17.5928235 116.6934299  57.0324278  18.8258803 117.3957443  56.5058231
  15.6075597 124.2599297  43.4505939  15.9017730 125.1634502  43.5660219
  14.7188091 124.2501926  43.8059282 117.2869546 125.3176403  48.6718130
 116.4365489 125.6732941  48.4138346 117.3481745 125.4996109  49.6095610
  47.6489782  78.6888456  45.0880480  47.1479130  79.3786383  45.5232000
  48.5529280  78.8383198  45.3651237   3.8516015  90.1933098  33.0463696
   4.5541558  89.9054337  33.6292744   4.1106907  89.8727322  32.1824646
  99.4711346 120.8884621  47.6987600  99.5571012 121.8140507  47.9270411
  99.0112109 120.8905220  46.8592978 123.7187095 140.1831722 108.8747402
 123.3034477 139.7014809 109.5901146 124.4427361 140.6517315 109.2900441
 121.9591660 122.9936504  63.1421947 122.1036843 122.0479774  63.1745291
 121.3274328 123.1153107  62.4334335   5.3266919   2.5381070  75.4934359
   5.7944626   3.1168347  76.0955095   5.9636128   2.3419648  74.8063469
  24.3212342   0.2170353  60.3395224  24.6361399   0.7165222  61.0929012
  23.3698702   0.2005940  60.4437780   9.6636248 143.3233643  17.1436739
  10.5667281 143.2000351  17.4359488   9.2428315 143.7987041  17.8600669
  94.5240540  73.3224487  88.9086628  94.1442770  73.4708261  88.0426407
  93.8289279  72.8892517  89.4040108  23.9278126 142.5565147  64.9783516
  24.2795324 142.8143406  64.1262674  24.5523572 141.9113922  65.3100014
  11.0348046 124.5493603   4.4514579  11.0654223 125.3407001   4.9891213
  10.1020980 124.4026756   4.2940649 114.9233503 112.7392578  93.4110078
 114.4753153 111.9477367  93.7093290 115.8429659 112.5915527  93.6317416
 113.5683162 110.1018047  71.4445591 113.6247713 110.9786606  71.0648680
 112.9118902 109.6521854  70.9124136  11.3126516 105.5779076  38.6769843
  11.4021599 104.6421146  38.8573289  11.7311549 105.6986618  37.8246331
  13.2851505 112.5811005  52.7633190  12.9486477 113.3997250  52.3988152
  12.5669086 112.2443199  53.2989836 122.0293588 112.2185230  58.4017754
 122.4871122 111.5410995  58.8995600 121.1339328 111.8906498  58.3184385
   9.4663960 141.9168758  36.9080305   9.3142140 141.1420441  37.4490523
  10.2090013 141.6792202  36.3527942 113.4121699  99.2536259  95.3184291
 112.4598641  99.3368816  95.3675505 113.6982638 100.0432587  94.8592313
  17.1433771 138.2733250 108.4127399  17.4931908 138.7693787 109.1528759
  17.7300930 138.4820366 107.6858037 116.8982304 137.3460484  15.5603850
 117.7411736 137.0744228  15.9235644 116.2638611 136.7462921  15.9529388
 122.3117555 107.0172977  41.8644381 123.0969754 107.5170422  42.0878553
 121.5978262 107.4880409  42.2944832  15.4631102 123.4418297  26.0479116
  15.5214489 124.3969727  26.0247970  14.5469058 123.2528591  25.8452058
  29.4880438  80.2266788  34.0693593  29.7011423  79.3118429  34.2534709
  28.9955592  80.5170631  34.8370600  14.3035281 103.7242508  25.4621124
  14.5241213 103.2412338  24.6657038  13.3466518 103.7475872  25.4707885
   5.6698906 142.5586891  18.0106759   5.5468303 142.0496559  18.8119054
   5.8923203 141.9077015  17.3451161 111.2481446 103.7590313  18.3441758
 111.5580220 104.1924286  17.5489557 110.7981867 104.4482613  18.8327706
 123.6906922 130.9752655 104.0760460 122.9092375 130.4262829 104.0114012
 123.5634993 131.6522026 103.4113564  33.8946104 122.3814106  15.2068746
  33.6976409 121.6377831  15.7764721  33.7779903 123.1492138  15.7664454
  32.7941918 112.6298809  36.5077019  32.4007797 111.8255615  36.8461204
  33.5419583 112.7912426  37.0830631  34.0779233 140.8855438  28.1675315
  34.3476224 141.6763210  28.6346269  33.8995004 140.2480793  28.8589287
 104.4130177 114.2499256  13.7109530 103.6223359 113.9844227  13.2413101
 104.0977401 114.8372936  14.3978524  22.3861647 115.6106281  99.5969614
  22.8329992 115.9498024  98.8213726  22.8319883 114.7855568  99.7885951
 115.6266684 137.1354485  37.0888019 115.6691325 138.0643272  37.3159862
 116.5407944 136.8524742  37.0657969   2.6682618 100.6209373  17.4608362
   3.0874962 100.9402847  18.2598937   3.1310481  99.8085213  17.2558022
  94.2075033 109.6500587  29.7427487  93.5178251 108.9874077  29.7044706
  94.8447627 109.3707561  29.0853882 119.4267518 111.4756489  16.2936652
 119.5894921 111.7368793  15.3872955 119.0102226 112.2398567  16.6920745
 110.9792525 112.1536064  47.3956299 110.4703552 112.9528713  47.5313807
 111.6272933 112.1597290  48.1000710  14.7727215 105.1516533  32.2358871
  14.8192549 105.2841091  33.1827354  14.4506788 104.2559242  32.1348882
  30.6355596  89.4839096  25.7147455  29.8468328  89.4737911  25.1724911
  30.9418631  88.5770607  25.7089353 111.0059649 117.8861523  27.4263501
 111.2222678 118.1392479  28.3237839 110.1164193 117.5373650  27.4836564
 110.1568705 119.1091251  32.9793572 110.7763655 118.6855412  33.5735226
 110.1247317 120.0187874  33.2755232  25.6843328 111.0158920  10.7339716
  26.5197372 110.6542873  11.0299087  25.4738045 111.6912556  11.3787925
  18.3771193  11.3129216   6.0448444  17.4710965  11.0063629   6.0819131
  18.8681483  10.5677109   5.6987518  18.8313091 134.9663258  16.9482648
  19.5969248 135.1892376  17.4777699  18.3183038 134.3796539  17.5040269
 119.2622114 111.6797733  11.1740458 120.1852930 111.9282150  11.2233341
 119.1479600 111.0417366  11.8783855  95.0628704 113.8964272  25.4391170
  95.2260274 113.2384396  24.7633433  94.1529579 113.7523365  25.6989813
 110.5506105 108.0822849 109.1503184 109.8512608 107.4646568 108.9366001
 111.3231356 107.5328636 109.2828906  21.5588140   3.3783989  35.5147195
  22.3492527   2.8487854  35.4100728  21.1212063   3.3260517  34.6650171
  27.4970675  71.9411182  34.2493510  28.4453058  71.8265009  34.3121004
  27.3085594  71.8695307  33.3136320 124.8022677 106.8712807  16.9403982
 124.1606570 106.3045216  17.3686039 125.0301460 107.5205517  17.6057911
  27.6214290 104.0204430  70.8788967  26.8385506 104.3004513  71.3531637
  28.2618880 104.7123337  71.0442209 121.9259620 145.4851246  55.7554483
 121.5510804 144.6460819  56.0232306 122.3205728 145.8367538  56.5534925
  52.6573086 108.4964752  28.1274009  53.4290218 107.9310417  28.1587481
  51.9289446 107.8985310  27.9594922 112.5280804  73.7801933  69.6017703
 111.6084153  73.8098240  69.8655280 113.0004663  73.5593700  70.4044636
  18.8147783 108.1540775  43.7278175  18.5146177 108.6673641  44.4779348
  18.1086767 107.5278568  43.5681438 118.2401401  87.3259544  99.8950752
 118.0994338  86.5110493  99.4130286 118.2479764  88.0049896  99.2204758
  31.5034938 114.7095966  15.4733813  32.0680714 115.2765083  15.9988260
  31.7989445 113.8222027  15.6770360 115.4822040 103.9935398 101.8459263
 114.8639233 104.4228554 102.4372359 116.3329691 104.0979195 102.2719958
   2.4629021 108.0562401   2.7981555   2.6217929 107.1881580   3.1688666
   1.9244786 108.5012627   3.4525904 101.2815303 103.0553818  28.3682728
 101.8802924 102.3206615  28.2344723 100.4550809 102.7640438  27.9831314
  19.7627842   6.1533814  44.0584850  20.0217652   5.9067231  44.9463606
  20.5893898   6.2449246  43.5845947  33.2557058 142.8796196  34.6967125
  33.9659977 143.3482742  35.1349831  32.4749017 143.0980015  35.2055216
 118.6089975 100.6541348  24.1077924 118.9926220 101.5229225  24.2272687
 118.5617805 100.2895546  24.9915814   4.7699699 120.9692192   9.5228368
   5.2699989 121.4980698  10.1445508   4.9752894 121.3469696   8.6676276
 118.5516823 103.5517979   5.8629221 119.1372318 104.3080139   5.9018129
 119.1371513 102.7946377   5.8755612  20.7899690 100.8913708  19.6120501
  21.2629437 100.9895611  20.4384184  20.0799298 101.5311146  19.6649933
   4.0555114 103.6812496  51.8515778   4.5894861 104.3590450  52.2659397
   4.6906856 103.0559349  51.5026236 119.1491402 108.3814812  38.6636043
 120.0675071 108.6211681  38.7876368 118.7310851 109.1858387  38.3562231
 113.3424110 108.4557343  18.8661456 113.4536142 108.5236073  19.8144388
 113.3935840 109.3590641  18.5537267  17.2230625 131.6865253   3.5628849
  16.6542423 132.1688938   4.1628811  17.3131740 132.2621536   2.8034332
  34.6514225 113.8918781  16.8243504  34.9052262 114.4664764  17.5466025
  34.9516582 114.3482494  16.0383415  13.7033284  87.8287888  10.6282020
  14.5391560  87.8740692  10.1639009  13.8235962  88.3912277  11.3933361
  99.4418091 114.3422318 102.2521105  99.7408814 114.1170979 103.1330761
 100.0133914 113.8416672 101.6699072  33.4684539 113.9995575   6.9727492
  32.7953839 113.7780380   6.3292128  33.0532384 114.6496582   7.5394922
  96.2428970  83.2076645  22.9196262  95.6609744  82.5724030  22.5024533
  96.6170735  83.7038803  22.1916151   7.7123815 137.7259541  72.6717138
   7.6268518 136.9263268  73.1908607   8.1642526 137.4472332  71.8752480
 103.8008112 101.0637474  17.0052791 104.2683596 100.9721565  16.1750734
 103.0534667 100.4709435  16.9259405 115.2708275 128.7021542 103.1953629
 115.5796844 128.2790565 102.3942205 115.9687365 128.5479164 103.8320454
 116.0977013  84.6678638  17.5198829 116.6384012  83.8809681  17.4515593
 116.5283508  85.1968193  18.1914377  24.3422556  84.3791485  62.5152779
  24.2423582  84.5247555  63.4560490  25.1710320  84.8038101  62.2938585
 112.5609524 100.5193138 109.6364838 112.0107359  99.9284077 110.1506093
 111.9689042 101.2194252 109.3616196  19.6451557 128.0098438  23.4644985
  19.1220164 127.2249031  23.6270428  19.0362895 128.7358379  23.6003280
 122.8302067  95.3729630  86.3372135 122.3474093  95.8661842  85.6739807
 123.6956494  95.7814503  86.3566685  50.2594042  81.8481827  19.7071433
  51.1547995  81.9890022  19.3994737  49.9059963  82.7296066  19.8272407
   2.6282862 121.6188431  16.7068362   2.8437784 120.8591747  16.1658168
   3.4087247 121.7604160  17.2426569   1.2686300 109.2407894  58.8745499
   1.1124152 109.7983932  58.1123781   1.9940427 108.6741161  58.6120844
 115.1635659   0.9962159  69.2541409 115.0848413   1.8444710  69.6905994
 116.1063183   0.8664208  69.1511726   3.3768207 103.1900215  98.9194390
   4.0568781 102.8122711  99.4771620   2.9798853 103.8755894  99.4567212
  22.9811716 133.8777924  71.1141443  22.7988815 133.0304909  71.5204477
  22.1195650 134.2184067  70.8736324   3.9473936  10.9472256  27.7053356
   4.4616878  10.5301838  27.0140982   3.1129837  11.1604290  27.2875595
  10.6130564  10.6429272  77.5011444  10.5812204  10.4340630  78.4347343
   9.7316289  10.9541874  77.2951508  61.1241341 138.3747768   1.9979101
  61.3872099 139.2945957   2.0288461  60.7746315 138.2551956   1.1148583
  17.1830809   7.3103218  20.3169513  17.3893023   8.2021695  20.5967736
  16.3950622   7.4034386  19.7816110 119.9729303  30.2110272  28.2646084
 119.4511867  29.6106320  28.7971044 119.8005650  31.0748654  28.6391640
 106.2071878   3.9983826  41.2010956 106.4275975   3.0890160  41.4028215
 106.6722614   4.5100479  41.8630171  19.7475696  87.3750973  24.7401142
  19.8701274  86.8576431  25.5360126  19.1558671  86.8496609  24.2015648
 122.7703928 137.3750591   9.5408559 123.1978408 137.6852703   8.7425524
 121.9814787 137.9121399   9.6143216  25.6477451 131.2264252  37.8301740
  26.4972281 131.1092186  37.4048805  25.8611393 131.4078808  38.7454700
 107.0449311 122.6097965  23.2848358 107.1163244 122.9764557  22.4035335
 107.1239502 123.3662033  23.8660741  37.9243016 138.0266094  35.6525326
  38.3642364 137.6619244  36.4204454  38.2488656 138.9252567  35.5948114
 113.2105488 127.4907494 109.4169539 113.7279314 127.2100639 110.1717809
 113.1433052 126.7090416 108.8686397 116.7299069  93.3348274  19.8153818
 117.0569391  93.1107998  18.9441216 116.8732197  94.2783070  19.8897183
  46.0582066  87.0042324  60.9766912  45.9279537  86.0621357  61.0849047
  46.0936213  87.1338367  60.0289679  22.1343923  85.1573372  24.5105267
  21.8055439  84.6694469  25.2655506  22.6105404  85.8953285  24.8911476
  85.4466028 145.2816200  10.9661329  85.1308364 145.3970051  10.0699139
  85.6199808 146.1707592  11.2753284  24.2297935 106.1827946  57.9639292
  23.3383727 106.5153694  58.0688190  24.1153359 105.2839947  57.6552343
 115.2745993 134.1459465  49.9676895 114.4372219 134.1245842  49.5044661
 115.7202870 133.3442974  49.6938992 117.1184409 121.3674164  14.5510781
 118.0751283 121.3509655  14.5777261 116.8683363 120.4618931  14.3674946
  93.0761547  73.5784054  39.5633125  92.3933572  74.2489815  39.5819211
  93.4881706  73.6321163  40.4256296   3.9341071 117.3708916  99.2348131
   3.0082312 117.4540901  99.0066405   4.1317993 118.1672192  99.7277757
 114.0862173  77.2451925   6.9972605 114.7015852  77.6942539   7.5768286
 113.6619932  76.5943384   7.5564122   1.4664793 140.5040359  67.5229454
   0.6964654 139.9422932  67.6110077   1.5669136 140.6264973  66.5789366
  28.5558653 112.1952629  18.3343685  28.5825253 113.0902863  18.6726665
  28.1917405 111.6783333  19.0529990  37.8015876 107.5119591 101.4742693
  38.1955934 108.1616974 100.8921757  37.3579121 108.0298901 102.1459314
  38.8109040  98.6983109  23.2944036  39.0773416  97.8754330  22.8843832
  38.9283299  98.5475922  24.2323399   2.8908968 141.4167404  26.9741488
   2.3855251 140.8480072  26.3933063   2.2345486 141.8307686  27.5345182
   5.5497772  87.6393223  49.8228073   5.6393367  87.5375652  50.7703590
   6.2084574  87.0499897  49.4553089  15.0273800  14.7973805  37.4054599
  15.2534628  15.6092434  36.9515824  14.4246173  15.0696736  38.0973887
 108.8677377   2.0032959  52.1327591 109.4264740   2.7337437  52.3982573
 108.1481749   2.4140530  51.6534519 119.3057103   2.8361111  20.8866405
 119.7104306   3.0706578  20.0515223 118.8230831   3.6204701  21.1475611
 110.3278822 118.4758472   6.8197477 110.6710607 117.5856018   6.8966544
 109.6529872 118.5316563   7.4962348  91.5081782  20.1993161  49.2400026
  91.3804359  21.1479550  49.2432070  91.3788790  19.9371510  50.1514769
  11.8961978  24.3757229   0.0513155  11.4935780  24.9914723  -0.5610327
  11.8100381  24.7973233   0.9063282   4.1978091 128.4397221  18.9123690
   3.3006901 128.6117554  19.1983998   4.7429314 128.7419128  19.6388352
  19.5014822  91.6419125  40.2102900  19.5391881  90.8641338  40.7669401
  20.2659750  92.1575165  40.4670715  56.8382549  68.0909300  32.5826740
  57.2999716  68.6476135  31.9556546  56.1228037  67.7040625  32.0779991
  11.2162137 136.7331886  24.2657709  12.0634472 137.1780014  24.2896366
  10.7032788 137.2290039  23.6275721  36.6861486 140.9666252  20.3650308
  36.8008828 140.0480366  20.1216125  37.3384309 141.1163330  21.0493898
  12.6370466 117.3016644  42.8497553  13.3620024 117.5916672  42.2960711
  12.7322900 116.3500690  42.8901100 112.3682947 114.5431232  37.5720978
 111.7190487 114.9133682  38.1701159 113.1967217 114.9386024  37.8432703
 107.1010060 135.8269596  43.1284475 107.9440421 136.2017345  42.8733730
 106.4903099 136.5630531  43.0903959 123.7021628  84.7850895  22.7556777
 124.3010500  84.1737747  22.3268890 122.9857517  84.8966217  22.1307397
 111.5438432 115.7625771  47.9294825 111.1015803 115.8032322  48.7774134
 111.5912229 116.6737652  47.6401281 108.0748052   4.9962025  73.6451674
 107.7864844   4.0845566  73.6003923 108.9135963   4.9598294  74.1048813
  17.7601528 132.7639103  33.5911870  17.6412094 132.1412086  34.3083477
  18.3721352 132.3302746  32.9964852   7.7129889  12.6215248  33.2986665
   7.8295505  12.2683316  34.1806507   6.8506539  13.0364971  33.3188725
  10.8566940 109.9092102  82.6870346  11.0539973 109.5082951  83.5335350
   9.9793071 109.5933056  82.4710941  11.5388310 128.3652020  65.4537487
  11.0749388 129.1886330  65.6054115  10.9464860 127.8547668  64.9016571
  10.1073050 140.0522709  38.7837315  11.0411549 140.1464939  38.9715505
   9.6729130 140.5637932  39.4662881 100.5890555 123.1180859   5.3652376
 100.5971784 124.0318298   5.6502563 100.9873194 122.6373100   6.0908252
   3.7549314   3.7117844  79.8453506   3.7977168   4.2273693  80.6506904
   3.7691575   4.3623810  79.1433939 123.2565481 131.9712925  21.3858843
 122.8848075 132.4627590  20.6534243 123.7850334 132.6125717  21.8609571
   1.8729286  63.7232637  32.7345514   1.6777046  62.8050804  32.9217720
   2.5484061  63.9589977  33.3704686 108.2196838  87.3637295   3.6292985
 108.6223978  87.4539566   2.7656367 108.7631280  86.7178535   4.0806732
  28.8686681 106.7414093  13.7488842  28.7579203 107.5791168  14.1985762
  29.6219444 106.8760204  13.1738317   1.4990109 130.1730537  17.6729405
   0.7945382 130.5751324  17.1647310   2.2647385 130.2210426  17.1005857
  55.7622337  97.6496029  56.3594961  55.1388264  98.1135654  56.9183731
  56.4896345  97.4311066  56.9420576  72.8205156 139.0147114  95.6093439
  72.6949739 139.3448353  94.7196850  73.3253813 139.6985149  96.0495242
  11.3585961 101.1219692  19.8610759  11.9113922 100.3882599  19.5921504
  11.9637322 101.8585014  19.9479985  10.1018536 111.9973087  32.4467349
  10.7958126 111.8433952  31.8056679  10.4996479 112.5777912  33.0956078
  51.6284943  40.6705838  33.4744120  51.3334131  39.7687893  33.6005235
  51.8451309  40.7237606  32.5435662   8.4377033  57.5105476  16.8838954
   8.9067316  57.1726561  17.6468325   8.5426468  58.4603500  16.9395339
  98.3705277  81.7591953 102.5783845  97.6011533  82.1773815 102.9649194
  98.0552430  80.9057045 102.2811004  19.0450943 138.6378479  13.4804916
  18.6947691 138.0633354  14.1612494  19.9891317 138.6482906  13.6383390
 121.1038250  68.1315804  25.7848144 121.6909767  68.6432838  25.2283573
 120.2815420  68.6215401  25.7797265  46.4604664 127.7692890  45.5245399
  45.8517027 127.5345135  44.8241663  46.3918686 127.0501709  46.1525583
  14.9690413  95.2888775  48.6138248  14.5863700  95.9426403  49.1989565
  15.8990991  95.5126858  48.5801935  14.9591303  20.6802731  34.7014642
  14.0282297  20.8608036  34.8320842  15.3221631  20.6420880  35.5863285
  27.3135257  85.5610466  19.7056198  27.5681686  85.9819984  20.5267096
  26.6954255  86.1721897  19.3047714  28.8710189 133.1329441  25.6349611
  28.1783032 133.1148911  24.9746203  29.1413403 134.0503693  25.6735015
 124.7960085 120.2884960  43.3485985 125.2998913 120.1336384  44.1475677
 123.9211415 120.5222988  43.6587191  17.7421951 125.1663494  52.9635906
  17.0856905 124.7420692  53.5160542  18.5770714 124.8094177  53.2665968
  11.0761726  73.3716011  11.2174594  11.0820913  72.4200392  11.1139202
  11.3907361  73.7058830  10.3774965 121.2530491 108.2626057  28.8157034
 120.3779129 108.3120728  29.2003107 121.6668145 109.0920925  29.0544176
 108.2359929 143.7640953  26.1628318 108.2839353 143.1212330  26.8704033
 107.7466649 144.4965363  26.5374303  14.3589568  14.4653683  21.0292029
  14.3500793  15.1222973  21.7253304  13.5118794  14.5652752  20.5947924
  99.6362776 119.8751831  33.4665227  99.1441578 119.0558147  33.5183406
  98.9645404 120.5554104  33.4186649  11.4185953  95.3423405  39.5848989
  10.7806742  95.5574989  38.9044595  12.0136070  94.7197247  39.1671276
 117.5858164 136.1542606  54.7777748 117.5329418 136.2002850  53.8231421
 116.9857330 135.4479790  55.0171232  21.9867897 101.7974091  45.4609251
  22.3716259 100.9436035  45.2630758  22.4607110 102.1000385  46.2355518
   6.5148330 114.2169285  38.5272932   6.9260591 113.4065819  38.8280725
   6.2168854 114.6463013  39.3292260   0.1480819   0.3320771   0.7216352
   1.0986889   0.2873211   0.8244681  -0.1344306   0.9668045   1.3800712
  16.9198740  79.7098732   5.7125312  16.2432456  79.6448374   6.3864565
  17.4314547  80.4800224   5.9602970   9.0375686  11.6330319  49.4640303
   9.0666586  11.2662487  48.5803699   9.8916394  12.0497685  49.5786190
  33.4743500   6.2512474  21.7205954  34.3133307   6.6226559  21.4478397
  33.4107757   6.4617329  22.6521993  21.8586946 131.6584206  34.4426560
  22.4799109 131.8865681  33.7510872  22.3354983 131.0428333  34.9993825
  27.9992843 144.2636013   1.6523610  28.9127445 144.0754128   1.4369424
  28.0288625 145.1058292   2.1062526   6.7858583  90.1400757  23.5299802
   6.0538560  90.5765724  23.0942369   6.6722745  89.2134285  23.3186650
  17.1652687 124.0945148  55.6876850  16.8897426 123.1864834  55.8133125
  16.8216145 124.5570183  56.4520359   7.5801826 113.7879753  28.1388211
   8.1555295 114.4919872  28.4381175   7.0035285 114.2055798  27.4990487
  18.6880767 114.1690159  51.8138838  17.7319050 114.1425037  51.8494463
  18.9527547 113.2492828  51.7978525  23.1812549 109.0010357  16.8560565
  23.4876323 109.8682308  17.1212614  23.3072114 108.9822960  15.9073651
  97.9430503  84.4371700  39.8627210  97.3796291  84.1276550  39.1535068
  98.8030214  84.5439720  39.4561839   0.3073058 131.9694328  24.2844343
  -0.5361071 131.7504120  24.6805620   0.3173756 132.9261589  24.2560959
 115.3395880 131.3754559  51.5682125 115.1954008 130.7334042  50.8730698
 114.6281225 132.0069790  51.4622974   8.8660866 139.5242786   5.5969703
   8.5475165 140.2582455   5.0715774   9.6380746 139.8685265   6.0461468
 110.3595406 118.0095577  84.9848461 111.1556465 117.5899029  84.6587467
 110.5150706 118.1222248  85.9225845 120.1745597 114.6866417  81.2751135
 120.4943476 115.5321407  81.5899118 119.4633932 114.4611835  81.8748149
  11.6506648  76.9326115  99.9607494  11.2303424  76.2052441  99.5019432
  12.5765657  76.6920614  99.9935492 115.3642965 106.7175293  60.3856277
 114.5056588 106.4042664  60.1013088 115.2267427 107.6429844  60.5877256
  31.4773488 124.3441486  45.5470800  32.3262739 124.0148449  45.2519274
  31.6170812 124.5781422  46.4646626  26.1221957 117.2311497  43.3961010
  26.7358398 116.5841007  43.7439632  25.9091711 117.7865887  44.1459846
  10.5565786 139.2385769  96.5016755  11.1433411 139.8306847  96.9721492
  10.6930768 138.3866882  96.9162747   3.4499142 141.0571671  73.9028248
   3.5511342 141.6821766  73.1849440   3.3135787 141.6024017  74.6776565
   9.0143573 130.9591961  11.0550916   8.3528477 130.5745888  11.6301680
   9.7631860 131.1240673  11.6280723  14.2332506 126.1588955   8.1203908
  14.9127483 126.8315125   8.0745673  13.4318233 126.6095352   7.8541768
 103.8084406 117.0864773  97.8202470 103.1239910 117.1366692  98.4875115
 104.5923633 117.4214077  98.2555863   9.2274982 124.3721962  16.0043275
   8.4987670 124.5861912  16.5868962   9.3497932 125.1598930  15.4744160
  24.3430853  82.8018761  97.5790068  23.8933182  82.8012657  96.7340573
  24.8775697  83.5958385  97.5652548 101.5398759  97.9027176   0.6481899
 101.3747305  96.9598770   0.6511684 101.4743132  98.1544495  -0.2729854
  16.9531918 113.8780594   8.9664358  16.5691173 113.1794739   9.4962406
  17.8979599 113.7442112   9.0421188 114.2930347 142.9357433  17.6533508
 115.1390893 142.4974728  17.5620115 113.7200660 142.2725582  18.0382144
 123.5767156 124.2027950  46.5298128 123.0617993 124.9576569  46.8148947
 124.4550179 124.5537567  46.3827038  97.0216865 133.9838982  26.1808944
  97.5120825 134.2254543  26.9666386  96.7019791 134.8162651  25.8327699
   7.6812589 116.9009209  12.9933524   7.2555715 117.0798111  13.8318157
   7.1067166 117.3037148  12.3422873  32.5528073  94.2160320 102.2026762
  32.3381138  95.0682354 101.8233349  33.0805993  94.4232559 102.9738607
  33.9713597  97.4940205 104.6367046  33.7896705  96.5973568 104.3552312
  34.8654652  97.4617195 104.9769434   8.1370693 146.1776352  11.2240338
   8.2631224 145.3442860  11.6777730   8.6926758 146.7955017  11.6991925
  29.6611762   3.4297257  12.3318923  29.1690254   3.9246922  12.9868889
  29.3507338   2.5294762  12.4289155 105.1636559  89.4795990 107.4536801
 104.6218652  89.2639637 108.2127556 104.5469660  89.8304367 106.8111526
  29.1965985  88.5599804 110.0091725  28.7685895  88.5922623 109.1536038
  29.5333910  87.6664066 110.0749384 113.7227005  92.7584171  91.1503097
 114.4348354  92.1602917  90.9237143 112.9252619  92.2652912  90.9575602
  13.5937691  95.6496525   9.5510763  12.9465222  94.9571800   9.4177157
  14.1164982  95.3489780  10.2944338  90.4940767 135.0459957 104.9560421
  90.1798076 135.8633995 105.3424596  91.2631387 135.3019238 104.4468489
 123.8337485 125.5448532  94.5498868 124.0903419 124.8910999  95.2002677
 122.9289997 125.3222370  94.3305620   6.2428296 118.8587856  92.9019257
   6.4022493 118.6999989  93.8323053   7.0269102 119.3169212  92.5993451
   5.5486512 124.1855717   2.3813573   4.7764841 124.5438004   1.9435591
   5.5398333 123.2546425   2.1588530  10.9512949  15.3157025  17.2673512
  10.6559789  15.9930401  16.6588914  11.8902469  15.4741459  17.3648012
 114.0391130   9.6724301  18.8525450 113.8195927   9.0011101  18.2065034
 114.5919985   9.2200451  19.4896424  17.6699090  96.9783497  97.4377617
  18.3200181  96.6345692  98.0504664  17.8729415  97.9114342  97.3716899
   1.8400747 137.1319866 106.4003980   2.4072324 137.6902103 106.9323295
   1.0151935 137.0977974 106.8847882  11.3719237 104.0702724  10.6556070
  11.4221025 103.1145668  10.6741023  12.0583951 104.3343544  10.0430274
   7.6465601 146.6946125 107.4232917   7.6412147 145.7381821 107.4611553
   7.2616303 146.9694138 108.2554854  14.3543112 124.1808414  21.4994860
  13.4981072 123.9326191  21.1508727  14.9055958 124.2909336  20.7247615
  88.6273379 126.6905594  11.6177070  87.8483052 126.9386959  12.1154702
  88.7484855 127.4039459  10.9911013  33.9214182 111.3185406   9.9476761
  34.6841049 111.2074947  10.5153096  33.5657096 110.4353905   9.8489577
  13.9491689 104.8716354 101.5393957  13.1500375 105.0112534 102.0474573
  14.4110429 105.7088089 101.5845635  38.8961029 128.7520409  97.7222415
  39.5556569 128.2517242  98.2027634  39.1951132 129.6595287  97.7795955
  10.9478629 130.2193165  16.8453228  10.5108500 130.5036354  16.0425699
  11.6758823 129.6766853  16.5423942 106.8934626 109.6822548  93.3755418
 107.0497364 108.8269424  92.9752430 106.9054861 110.2961636  92.6412316
 109.8324973 103.0074310  91.0639545 109.8037595 102.4439240  90.2907380
 109.0154011 103.5047436  91.0283931  53.8839293 123.6549091 101.4196601
  53.0318928 123.3973122 101.7716690  54.5171261 123.1565857 101.9363471
   7.2982597 128.3836269  42.2162104   8.1153637 128.7867641  42.5095654
   6.9103050 129.0302753  41.6266584  19.4613826 138.5957813 100.2636453
  18.5099220 138.5558510 100.3604057  19.6479416 139.5221329 100.1110020
   5.9226799 123.1675148 108.3697865   6.2169403 122.9553413 107.4839955
   5.1772225 123.7538719 108.2405164  13.5893905  15.9185772  17.5295019
  13.8812792  16.8078404  17.3288476  14.3960488  15.4378682  17.7151227
 119.5996535 133.5570049  19.9910653 118.9046264 134.1102886  20.3475046
 120.1253567 134.1493511  19.4534826   5.5046016   3.2914524   8.4574324
   5.7888019   2.7490597   7.7217162   4.9725786   2.7053337   8.9956284
 105.7418460 123.7515354  82.0192703 104.7873253 123.6899471  82.0557460
 106.0498554 122.9443550  82.4313720   8.3620209 109.2918777  81.6368993
   7.7387685 108.5693932  81.7131385   7.8542811 110.0710964  81.8632802
  42.2497368 136.0004520   0.4024642  42.8584242 135.7024384  -0.2734954
  42.6844025 136.7546844   0.8005013 106.3797397 112.4848747  59.9165535
 107.1873016 112.3478127  59.4212866 105.8102865 111.7628670  59.6507454
  96.0825891  80.4901314  77.1543702  95.5549473  79.7221994  77.3737105
  95.6114001  81.2247276  77.5475391  99.6421880 115.0779629   5.0786215
  99.8256559 114.5984173   5.8864641 100.2895231 115.7829762   5.0663114
  33.9865565  89.8195934  13.8278043  33.7689877  89.3533039  14.6349454
  33.9808726  90.7439709  14.0762413  15.1843631 121.6467094  92.6504108
  15.4774928 122.5275421  92.4170657  14.4046867 121.7881489  93.1873759
   4.7753128 143.8250828 106.4473241   5.6733894 143.6020756 106.2024587
   4.8150429 144.7512341 106.6858333  18.0183256  80.8981228  90.0112268
  17.1226823  80.5882359  90.1454791  17.9445446  81.5486717  89.3129595
  17.1201742  87.2990227 107.3691645  17.7880764  87.7698135 106.8706717
  16.8505752  86.5840721 106.7926311  44.7340775 129.3499279  18.5064876
  44.0306282 128.7222767  18.3407938  44.4772148 130.1320267  18.0180454
 103.8838405 111.7102242   2.2453456 103.0798001 111.7179394   1.7260289
 104.0818281 110.7815838   2.3664761   2.4448894 123.9272213  12.9156220
   3.2989073 124.2552757  13.1971598   2.5055659 122.9780388  13.0232751
   6.2453145 131.3659191  93.0789121   6.8841666 131.6539001  92.4268635
   5.4565799 131.8707275  92.8806945  14.9474525 132.5691223   1.9943160
  14.6320367 133.0480576   1.2279218  15.6654024 132.0306206   1.6614556
 109.6367390 126.2393284  23.5287571 108.7859756 126.4618969  23.9067745
 110.2450842 126.8640232  23.9236116  30.5929804  99.9133492  97.5038453
  30.8946919  99.8857403  98.4118327  29.6699858  99.6640682  97.5504693
  26.4563966 135.9038830  94.8889252  26.5916538 136.7117882  95.3841194
  26.0073400 136.1841202  94.0913995   5.9452665  81.9516945   3.4138742
   5.6444639  82.5802517   2.7576250   6.8628371  81.7939663   3.1915706
  96.7798681 119.1029930 104.0682491  96.0218543 119.6650791 103.9079037
  96.4211625 118.2156754 104.0833160   5.1224750  10.1860218 105.5967721
   4.9994680  10.6553631 106.4218887   4.9965718   9.2647915 105.8241668
 110.8675665  89.1892910  80.7897576 111.4108903  88.4420586  81.0401043
 110.5126280  89.5151329  81.6168483  92.5472493 133.2622623  28.9342403
  92.0344538 132.7771759  28.2877421  93.1854386 133.7518215  28.4153175
 118.9012445 112.2276688   6.3101554 118.9750881 113.0950832   5.9122014
 119.3628055 111.6466618   5.7054859 115.0608272 125.8734226  86.1728510
 114.2614264 125.8271408  85.6484016 115.6114609 126.5083218  85.7146534
  10.3254449 121.1744213  29.1327143  10.3624928 120.9703445  30.0671721
  10.8265185 120.4741859  28.7145853  99.0612692  90.6018162  29.3482280
  99.2597312  91.1637783  30.0972581  98.1962985  90.8891106  29.0557909
   2.9163396 128.7779045 101.1362644   2.2729665 128.1098652 101.3729795
   3.7221029 128.2874489 100.9736654  14.2154777 105.9291744 108.1054834
  15.0995314 106.1897278 108.3639263  13.9377522 105.3163052 108.7862875
  13.8630462 110.7280254  15.7808089  14.5885849 110.1626396  15.5159068
  13.1277514 110.1290989  15.9106529 114.6626598 116.4474773  16.3727951
 114.7145016 115.9548759  17.1918690 113.8723773 116.1180782  15.9448028
  28.9149475  94.5621300  25.2350879  29.4968534  94.8551750  25.9363317
  28.5852122  93.7152767  25.5356669 123.8613170   9.6411400 101.4994475
 124.5435385   9.1906624 101.9973215 124.3310161  10.0724202 100.7855805
  50.6378984  99.0242958   1.9201477  51.1271238  98.6470032   2.6512709
  50.8177710  99.9630833   1.9706751 100.5621809 132.7044010  15.6444454
  99.8153514 132.5347900  15.0702441 100.2867240 133.4463596  16.1828256
 122.1960298 105.1258469  14.6639717 121.9246889 104.2144585  14.7733533
 122.6613358 105.3360367  15.4736280  94.4401259 102.7717590  21.9936514
  95.3079385 102.4310684  21.7767000  94.4185395 103.6424923  21.5966868
  17.5339639 144.7615528  20.2240324  16.8309331 144.1784954  20.5104327
  17.0852029 145.5617142  19.9509501  29.2283297 103.9405155  13.8177347
  29.7611833 103.7570953  14.5914650  29.1660237 104.8953056  13.7906778
 122.1162567   0.2067356  39.0622878 122.7599595   0.5860119  38.4639335
 122.5864655   0.1108437  39.8905039  16.4063919  85.0414944 105.5075788
  16.9381928  84.4092941 105.0240996  15.5863023  84.5800877 105.6830453
  17.3686600 126.9141960 100.3171911  18.1372058 127.3892784 100.6332126
  16.7099214 127.0433807 100.9995445  20.8245564  90.4408646 100.4241081
  19.9090040  90.4935837 100.1498493  21.0148501  89.5029926 100.4444888
  94.2233080 131.6128922  12.6808059  94.4529409 130.7081509  12.4688041
  93.4349007 131.5401363  13.2187176  12.8896475 105.1781559   4.1468489
  12.3403919 104.5839310   4.6581602  13.5899961 104.6224213   3.8049346
 119.4977505 111.5885830 104.8560002 120.3221533 112.0500374 105.0097986
 119.4335092 110.9653473 105.5796530 109.4790584 129.5979786 106.5094399
 109.4461877 128.7075901 106.1596393 110.1698167 129.5698643 107.1714782
  24.4535685 126.5917969  15.8328319  25.0795364 126.6488266  16.5547359
  24.8145199 125.9191036  15.2554071  30.8981609 138.8770962 103.1499966
  30.0091958 138.9702034 103.4924951  31.4569783 138.8919830 103.9269992
  36.0564923 121.0452080  14.0188766  35.1940870 121.4447689  14.1321826
  36.6521907 121.7870235  13.9135826  96.2635202  70.0175142 104.9188101
  95.9515423  70.5322933 104.1745617  95.7236332  69.2271948 104.9065190
  33.8140774 118.0765820  27.8853607  33.2570529 118.4904099  27.2260451
  34.2277265 118.8084888  28.3430099 105.4503734  27.7887898  95.3035792
 105.0286824  27.0496731  95.7418915 105.2832050  27.6422291  94.3725547
 116.0939289 129.9058342  74.9947199 116.5906549 130.6156540  74.5877203
 115.2541012 130.3028870  75.2255210 120.8530149 140.4348755 100.8299574
 120.3029177 140.6478786 101.5837845 120.9188611 141.2556934 100.3419479
 123.0691510 127.5079346  96.8137976 122.1745998 127.2459507  96.5961465
 123.5853392 127.2568703  96.0478040  10.0604713  10.8540039  87.5367745
  10.3484511  10.2431660  86.8584021  10.8621037  11.0873394  88.0049332
  37.9524803 109.4569302  15.0934672  37.1990895 110.0055122  14.8750865
  38.6598611 109.7908878  14.5418215 121.7775289  99.2548275  91.3393470
 121.7184699 100.0530529  90.8143994 120.8726422  99.0621281  91.5848657
  13.1312025  29.3313198  45.2365732  12.9831660  28.5503750  44.7032404
  14.0837622  29.4013577  45.2994871  21.6841912 108.6164284  43.8972092
  20.8155060 108.2160854  43.9338446  21.8390679 108.7677097  42.9648161
   8.2263499 118.9715290  22.8282142   7.3203832 119.2059708  23.0294418
   8.4917009 119.5974255  22.1543646   5.1528722 102.0996189  43.7962580
   5.1862282 103.0055141  43.4889078   5.8613211 102.0378399  44.4369745
  12.4717557 121.0429764  21.1769938  12.1817851 121.1002827  22.0874143
  12.3082495 121.9151878  20.8181930   9.3052715 118.8090897   2.1845374
   9.3185693 118.7534332   3.1400254  10.2186251 118.6883354   1.9248512
 113.5017628 127.0082474  19.5786738 113.3760137 126.1664677  19.1406965
 114.4513292 127.1266174  19.6020019 108.9693744 110.8393002   8.3730394
 109.7235078 110.3301525   8.0759156 108.2252151 110.4603767   7.9051989
   3.1717288 138.1311703   1.7386425   3.7043193 138.0920887   2.5330302
   2.3741522 138.5872173   2.0072056  93.5493392  91.8640518  15.6377745
  92.6905174  91.9838619  15.2324331  93.5108203  92.3859406  16.4392579
  41.4454126  94.5607471  21.5974212  42.2929668  94.3240643  21.9740677
  41.6107178  94.6244049  20.6567550  37.4425101 113.3746815  28.7118602
  36.7591453 112.9563046  28.1882143  37.1801043 113.2162952  29.6186638
  94.6025557 110.9932709  56.8214703  95.1898260 111.2699032  56.1180353
  94.5306081 110.0448132  56.7143297 110.8218069  95.6527042  65.9705313
 110.4917628  94.8657990  65.5368479 110.3856117  96.3755703  65.5194958
  24.3369222  96.1549473 107.1004772  24.5348883  95.3049469 107.4935836
  25.1520634  96.6506100 107.1785411  22.0573092 116.7827892   5.0075299
  22.1151543 116.5200138   4.0889263  21.1183572 116.8016052   5.1925963
 122.0108015 141.1273289  96.3099214 121.2244258 140.6166077  96.1175367
 122.6571465 140.4772568  96.5853807  11.2097144 105.9592724  23.9368343
  11.4609659 106.6013527  24.6007848  11.8423593 106.0858250  23.2297444
   5.8501059 140.7045650  24.0471625   5.6651574 140.9781361  24.9455953
   5.7729501 141.5073872  23.5316396 106.3857157 111.3358402  30.5247545
 105.8678586 110.8295059  31.1505985 107.1310670 110.7717037  30.3187633
  43.1067181   7.3528271  71.4531358  43.8882160   7.0856743  71.9369944
  42.5037670   6.6152172  71.5459140  30.3566384 127.0872498 106.8783911
  31.1892891 127.1935177 107.3384260  29.9095917 127.9254913 106.9955515
   5.8033109 128.4993172   2.5172657   5.2483070 129.1648388   2.1107188
   6.4952815 128.9975643   2.9521826  18.9221883 122.7626038  52.2154474
  19.0386856 122.4166965  51.3305712  18.6991453 121.9967556  52.7445555
   6.9751459 103.6081505   5.8629394   6.5633887 102.7501774   5.9657300
   6.2902099 104.2326927   6.1017811  26.3013983 107.4726868   5.1468027
  26.2709332 107.6205349   4.2015806  27.1308899 107.8620529   5.4235178
  38.4888029 109.0460873  34.4212437  38.4134412 109.9989796  34.4716167
  38.0225492 108.8110256  33.6190057  29.1521978 103.5830975  30.7985115
  28.8892937 104.2109394  30.1255131  28.3296585 103.3064461  31.2023997
  13.1743872  90.2077007  80.1636585  13.6879230  90.9355259  79.8132499
  13.1242204  89.5807171  79.4421252  98.8475460  57.7856874 106.8109795
  99.5769495  57.4632740 106.2815913  98.7815709  58.7141371 106.5876880
   7.2998422 120.6308556   0.9781617   7.2844034 120.5116177   0.0285422
   7.9657197 120.0159645   1.2859654  11.6565585  67.3485470  17.6423240
  12.2071624  66.5750790  17.7640224  12.2210181  68.0841637  17.8799891
  21.2696624 115.3257465  52.2043085  21.6169930 115.7392502  52.9946280
  20.3230834 115.2993584  52.3440313 111.4840145 107.9324722  38.4894943
 110.8346111 108.3576870  37.9294109 112.3030264 107.9971409  37.9983020
  97.3714537 140.4826736 107.7995975  96.4431304 140.2796841 107.6845073
  97.4026460 141.0210991 108.5903893  17.8253961  13.8055973  35.8217883
  17.5030863  13.6289196  36.7056060  18.3464074  14.6035176  35.9118986
 101.1289973  92.3744297  28.8198042 100.7100315  91.5241623  28.9530182
 101.7732639  92.2184086  28.1292868  17.5499630 121.8055820 100.3476807
  17.3228443 122.6422501  99.9419274  16.7879546 121.2481976 100.1899012
 122.9689518 126.9174099  19.1024387 123.2942659 127.7015209  19.5446742
 123.5716338 126.7879963  18.3701420 107.7899546  98.2210064  86.3080414
 106.9302267  97.8763771  86.0665258 107.6699562  98.5653877  87.1930441
   2.3197260  83.6305618  99.5395716   2.3339002  82.9575825  98.8590368
   2.1805291  83.1456852 100.3530517 105.5111212 121.3443279  85.7008036
 105.3241736 122.2804070  85.6298836 104.8288090 121.0071182  86.2813004
  17.8923190 136.5784073  10.1508331  18.5497260 136.0162067  10.5606818
  17.7733850 137.2985554  10.7700849 109.4094986   5.5431347 109.6674240
 110.1616926   6.1189537 109.5300597 108.7678451   6.0910111 110.1194637
  22.2228050 138.6643887  16.7288339  22.9824090 138.9948750  16.2492383
  22.1128201 137.7670479  16.4143205 114.7623432 132.7552223  22.3659587
 113.9483470 132.3120499  22.1267033 115.3549052 132.5786304  21.6352606
  13.4624875 107.5239849  11.8307352  14.0729201 106.8930054  12.2121358
  12.6687682 107.0166969  11.6607356  95.3180260 113.2371330   0.9190072
  96.2625999 113.2945728   0.7750937  94.9911112 114.1136169   0.7161865
 123.9333980  84.1847610  93.0397066 123.4465203  84.0150547  93.8461693
 124.1083150  85.1256466  93.0590233  24.3950200 114.4886208  28.4369922
  23.7805414 115.1610661  28.7310386  25.0672913 114.4642448  29.1179419
  83.5072154  86.8996429 101.3368120  83.9908285  86.1735153 100.9430023
  83.8990039  87.0061970 102.2036328   1.2754065  78.7876368   3.5017002
   1.5611918  79.4617891   4.1182071   0.5085243  78.3929825   3.9168766
  31.1838245 116.6176319  24.0411592  31.8618298 117.0148563  23.4945750
  30.4517365 116.4671516  23.4431314  53.4605312 107.5463867  21.6922450
  53.8764954 108.2229042  21.1578965  53.6259413 106.7314053  21.2182355
 119.3061269   1.1676483  39.0335107 119.5955945   2.0766430  38.9549708
 120.0303293   0.6539135  38.6759567  36.6474414 118.2860470  12.2381496
  36.3967061 119.1973591  12.3894262  36.8433881 117.9436207  13.1102610
 120.7487369 123.4281540 104.1313734 121.4285017 123.9729309 104.5280828
 120.0535530 123.3961773 104.7885861   1.8891068   0.3508168  11.4353883
   1.5599544   0.6274109  10.5801785   1.8640049   1.1445217  11.9698322
  36.3873601 120.6236744   7.5433034  36.0854244 121.2648392   6.8998915
  36.3883996 119.7916603   7.0700336  12.5114930  79.6947575  18.0080104
  12.7116454  79.7849894  17.0763290  13.1062818  79.0107727  18.3156168
  21.0787964 124.2209816  33.5287094  20.2836442 123.8061428  33.1942368
  21.1648083 123.8884258  34.4221497  13.4374917  96.9049835 106.4157772
  13.6187708  95.9832764 106.2318707  14.3001378  97.2954273 106.5558815
  52.2979975 139.0716743 102.5711536  51.5923500 139.2977047 101.9651794
  52.2588634 139.7480392 103.2473373   6.2787122 102.9414654  24.5304529
   7.0343310 102.8587627  23.9487020   6.3119173 103.8469791  24.8389474
  66.8567944 116.7315006  34.5924321  66.3919640 115.9125900  34.4205419
  67.2731829 116.9501019  33.7587301  19.2293000  66.2871122   1.0306875
  20.0421286  66.7237997   1.2853376  18.5653031  66.6597986   1.6107217
  17.3358583  89.2397594   1.0851709  16.7326248  89.0830708   0.3586713
  18.0579150  88.6301613   0.9326593  29.4207287 140.3847122  63.9271021
  29.2626286 139.5569992  64.3811274  30.3646088 140.3942776  63.7682629
  27.9474115  88.5078239 107.2511482  27.8179383  87.6118946 106.9400692
  28.5538721  88.8952160 106.6199875 121.1136482 106.4416027 105.5438137
 120.7366536 105.6440067 105.1723862 120.8912579 106.4010143 106.4739323
 122.8996759  91.8414879  93.6714935 122.1528763  91.3534546  94.0184021
 122.5153502  92.4524975  93.0428505  18.7206292  81.5684414   9.7384301
  18.4980774  82.4847412   9.9030057  18.0129504  81.0724258  10.1500074
 113.4645409 120.6126308   2.7717153 112.6010711 120.9824657   2.5876657
 113.2850081 119.8406982   3.3084813 108.0543358 104.8445511  87.7992916
 107.2641963 104.3274117  87.6428127 107.7408869 105.6324196  88.2434082
   0.6869047 105.9516430   8.6120454   0.6451799 106.1226940   7.6711694
  -0.2280945 105.8738422   8.8821451   0.6795636 105.3189754  85.1417446
   0.4049606 106.1112690  85.6033707   0.1060529 104.6324253  85.4822826
 110.5145914  92.5764179  23.0831758 109.9573249  93.2281971  23.5084573
 110.8585638  93.0233860  22.3097841  88.7164444 106.0575771  89.2199707
  88.8815994 105.6660652  88.3622551  88.9975638 106.9677258  89.1259480
 120.2419016 100.5720425   8.2639352 120.1409123 101.4355087   8.6644975
 120.0870476 100.7211208   7.3311845 122.5310973  58.3859921   9.3740979
 123.4847306  58.4367371   9.3089811 122.2530193  59.2891836   9.5262567
  28.4630179  49.5522213  80.7618904  29.2560530  49.6366405  80.2325535
  28.5893321  48.7415552  81.2549400  15.2117240  66.9591236 104.2858791
  15.6185615  67.5557232 103.6575603  15.1790345  66.1177254 103.8306618
 114.4579024 113.9758110  89.2564869 115.1397187 113.9037991  88.5885334
 114.9105704 114.3252468  90.0240993  23.3621287 120.9438705   2.9337350
  24.0745401 121.5505886   2.7322236  23.7567520 120.2968025   3.5183660
  33.2534242  92.7963924  13.6210481  32.4991941  92.2351456  13.8009778
  32.9939413  93.3079147  12.8547326  91.9452304  92.8316689  24.8745862
  92.4847454  92.0979023  24.5800630  92.1339626  93.5331059  24.2511979
 115.0256354 120.3675270  11.6836301 115.4362804 119.9194431  12.4230996
 115.2769882 119.8486137  10.9195749  25.2584815 102.1485615  70.9572363
  24.6125627 101.6239548  71.4303160  25.0284195 103.0545807  71.1632109
  23.7353969  66.3264465   7.9246751  23.0792809  65.7243156   7.5737039
  23.5152364  66.4061069   8.8528005 106.4734871  91.2148285 103.6683846
 107.2643477  91.5701008 103.2627392 106.7080874  91.0985088 104.5890713
  19.2275500  96.3045883  99.5174408  18.3919942  96.1439991  99.9559498
  19.7350121  96.8149757 100.1484776  18.2278895 108.1520939 106.8758678
  18.2881844 109.0086174 106.4528465  19.0181696 108.0939865 107.4128151
 122.9767612 114.2833519  92.4831963 123.7380097 114.5839405  92.9795551
 123.1292549 114.6029472  91.5939045  51.8036556  97.7196598  82.5335598
  50.9006166  97.9923248  82.6960468  52.0764589  98.2347965  81.7743206
 110.6601614 120.8174419   4.8777715 110.4144127 120.3201008   4.0977136
 110.5665643 120.1944065   5.5983964 120.8668811 113.5620308  93.8687038
 120.9379060 112.6242161  94.0467358 121.6684208 113.7766075  93.3915043
  25.4682040  87.3654461  19.2600004  24.6072197  87.4525928  18.8509218
  25.7225347  88.2625389  19.4762651  26.8576932 101.2201977  26.7043725
  26.8934274 101.2457561  25.7481805  27.7691674 101.1103535  26.9752637
  94.6248979 114.7567844 101.8004513  94.6248240 113.8705254 101.4388275
  95.5258793 114.8964596 102.0919228  22.8944874  93.8563919  92.2315121
  23.3023357  93.8478184  91.3655853  22.5908971  94.7571278  92.3443604
  28.7526584 103.9547920  68.2965708  28.5885906 103.7206268  69.2100668
  29.3986225 104.6596813  68.3423090  34.9064445 116.2098026  18.7122194
  34.2988992 115.9006786  19.3841974  35.6168628 116.6226292  19.2032567
 112.7882034  88.4055805  84.0149879 112.9627032  88.6885643  83.1173801
 113.6504788  88.3792973  84.4297504  15.5231214 129.6831036  30.9045068
  14.7295868 130.2182865  30.8939401  15.7935953 129.6376610  29.9874440
 119.9001197  90.0252533 104.8495197 120.1570279  89.4575691 104.1229153
 119.7286592  89.4239140 105.5742455  19.7407484  91.1221886  96.4633656
  19.8312879  90.5795193  97.2466564  18.9201510  91.5971851  96.5946102
  12.0922935 111.7011261  35.7076875  11.2112260 111.9554043  35.9820978
  12.6016521 112.5099754  35.7581655  32.0037508  58.8757658  36.3806382
  31.6189957  58.0614471  36.7047921  32.3215008  59.3200684  37.1666757
  19.5402813 116.6107178  94.0430450  19.2822504 116.2319565  94.8834038
  19.5084643 117.5565338  94.1867447 118.7827558  97.6734352  10.2775422
 118.2764793  97.9034615   9.4984380 118.9093602  96.7270470  10.2101175
  23.4911823 118.2133102 107.1761131  23.8714409 118.5019588 108.0057621
  24.2152572 118.2596779 106.5517712   4.8269773  87.8571701 106.2073612
   3.9332724  88.0680943 105.9371090   4.8780930  86.9035530 106.1423683
 114.2720384 133.8454437  89.1220188 113.6413521 133.2962799  88.6563015
 114.7801811 133.2305908  89.6511555 121.0547862  68.2434845 105.9053135
 120.7352576  67.9301357 105.0591755 120.4510171  68.9469337 106.1437607
 108.6872501 100.7086563  26.3682023 109.1002304 101.1168957  27.1291391
 107.7551574 100.6861973  26.5848390  17.1740615  82.9950333   4.1152707
  16.9859397  83.7798691   3.6006204  16.3135862  82.6718426   4.3824045
  19.8736894 119.2741585  98.7360191  20.2881026 118.4605217  98.4488201
  19.3391967 119.5469284  97.9902649  53.5923386  74.2793751  28.5959665
  53.8100243  74.1250944  29.5152227  53.2203960  73.4501553  28.2954732
  54.4848537  66.2816525  76.9976664  54.9037457  65.9167480  76.2181759
  54.5373678  67.2296619  76.8762064   2.0230229  76.8011093  95.3590012
   2.4043047  77.4965525  95.8949280   1.1412068  76.6828394  95.7120514
  16.9567215 137.5552940 101.2656212  16.4009666 136.8067455 101.0487270
  17.1435547 137.4524784 102.1987629 114.3504805 111.1880779  91.2544632
 114.1944427 111.9746685  91.7771053 114.6506602 111.5187073  90.4078197
   6.9847369 104.6472073 104.6224594   7.1429098 104.1957092 105.4515362
   6.3904035 105.3625584 104.8488903  91.4351792 119.7672939  78.7000132
  92.0094532 120.0988102  79.3903351  91.9285292 119.0501213  78.3019018
   1.9933525 103.3092213  80.3079510   1.5525693 103.7891960  81.0090637
   1.4686655 102.5168514  80.1935387  38.4096670 104.2197990  99.5052528
  38.4302306 103.2698250  99.3896770  39.2864251 104.4419956  99.8185444
  12.4101293 109.5322514 109.9202824  12.8509355 108.6837196 109.9639988
  12.1705902 109.6305180 108.9987659  19.8455083 105.8113861   4.4690553
  20.1775002 105.6851387   3.5801927  19.9659920 106.7455959   4.6392957
  14.6420395 121.1411285  13.6138860  14.2365885 121.5356731  14.3860093
  15.4452145 121.6447067  13.4814016 123.6577117  93.7829590  75.8124876
 123.3722491  93.8360405  74.9003839 123.6203582  94.6858597  76.1280775
  37.6568007 104.2964363  85.6680870  37.9439187 103.7836456  86.4236259
  37.1871996 103.6697006  85.1177216 120.7999236 121.0809994 102.7388477
 120.7742745 121.8806839 103.2642746 121.7012263 120.7693005 102.8209019
 118.6634750 108.4206200  86.7211151 118.2592059 109.2676067  86.9093132
 118.2368208 108.1250095  85.9168720  37.1962595 125.5878925  12.6468221
  36.2789512 125.7083035  12.4013082  37.5795150 125.1073837  11.9130269
  99.9623389 107.7035141   4.4277040  99.9853415 108.3633614   5.1207486
 100.3189582 106.9146824   4.8361150  19.3040013  53.7305260 104.5173359
  19.9524486  54.4242287 104.3968105  19.8179936  52.9233217 104.5388985
 121.6790236  93.6324501  91.9135284 120.7819808  93.7152481  92.2370911
 121.5911908  93.6367035  90.9603786   5.1473391  58.9048433   1.5826932
   5.9364772  59.1767502   2.0512620   4.5375589  59.6337032   1.6974202
  32.7761960 114.1548061  92.0674992  32.0380425 113.6058617  91.8028831
  32.6517963 114.2866707  93.0073738  15.7711005 116.5617466 106.6809464
  15.0700736 117.1576023 106.9450378  15.7827616 115.8889771 107.3617363
 118.3001745 113.9059162  89.5177746 118.2415599 114.5337963  88.7976646
 118.2174272 114.4395161  90.3081322  37.9226494  99.1842365  10.7282964
  38.3601785  99.2809963  11.5741292  37.3685718  98.4106731  10.8323518
 116.7860717 100.6978893  16.4738218 117.0797277 101.5951824  16.3161413
 115.8408720 100.7256222  16.3252965  20.4157829  66.1227369  72.2636604
  19.6406853  66.6052341  71.9761705  21.1001968  66.3786173  71.6453266
 109.5919365  63.1675673  90.4112244 109.5408208  62.4863195  89.7407532
 108.7970836  63.0514431  90.9317589   4.5486894 107.6455021 102.9535294
   4.6438408 107.3329639 103.8532543   4.9080768 106.9400024 102.4156284
   5.0930792 120.3431225  25.3318826   5.8210325 119.9560356  25.8181707
   5.3266221 120.2189255  24.4119588  10.5171049  65.2783585  65.8796215
  10.4035103  65.6679106  66.7465591   9.9165988  64.5330000  65.8714104
  25.9852719 106.9380474  21.7984334  26.7483521 106.6109848  22.2748510
  25.3559589 107.1670055  22.4823800  20.4520154  76.6485071  76.7504215
  19.8513198  76.8830252  76.0430336  20.2577209  77.2752810  77.4472952
 114.7499580 100.8825874  87.4090195 114.7752125 101.8391323  87.4337196
 114.0562219 100.6774139  86.7822361  14.7982430 127.5755215  84.5610714
  14.8339844 128.1153011  85.3507519  15.5396867 127.8730392  84.0338326
  93.3646268  86.9227505  68.7130451  92.4130554  86.9517040  68.6135149
  93.7017221  87.3155689  67.9078770 109.3720538   0.6912976  96.5150833
 109.2939562   1.1221581  95.6639194 109.6675057  -0.1954193  96.3084793
  30.9310341 110.3019619  15.5143110  31.3494921 111.1617947  15.4717866
  30.2919388 110.3111267  14.8017732   2.0301780 129.8750496  27.9628698
   2.2915365 130.6844044  27.5236837   1.5348883 129.3925571  27.3009626
  37.7243543 120.6794548  91.0033131  37.2248816 120.7279110  90.1881981
  38.4850025 120.1403713  90.7864380  25.8701634 109.9737835  89.1492462
  26.4366770 109.6873665  89.8656654  24.9850845 109.9281979  89.5108891
   9.2816466  80.2884579  78.2671404   8.8979048  79.5665550  77.7693176
   9.8536134  79.8619652  78.9052534  13.1363678  82.9353523  98.6220074
  13.3640599  82.0909882  98.2328510  12.1799862  82.9308510  98.6613274
   7.4317032  93.2242489  10.9519998   6.9519281  92.5512028  10.4692403
   6.9709003  94.0384769  10.7496969  13.3328080  85.6620312  12.3315183
  14.2755568  85.6254005  12.4931184  13.2386422  86.2729740  11.6006891
 108.7683899 103.0893898   3.6869565 109.3754692 103.2075119   4.4175283
 107.9318399 102.8796577   4.1022054  11.3248551  95.2877331  73.2598495
  11.3873851  95.9993744  72.6227617  12.2151458  94.9413586  73.3201838
  22.0631170 111.7908192  18.4293214  22.9404402 111.8026924  18.0467073
  21.8918180 110.8659840  18.6070291  12.6824522  77.7886629  90.6061172
  13.0611086  77.3310423  91.3567448  13.4374344  78.0479431  90.0779057
  37.1640778  13.0607014  74.2699337  36.8018985  12.6180249  75.0374603
  37.4217939  13.9247685  74.5911932 121.3841522  99.5016479  86.3491344
 121.0217283  98.7079811  85.9554672 121.7938620  99.2010689  87.1603107
  19.1659212 114.4050312  55.1066828  18.8401711 115.1677322  55.5845928
  18.8136280 114.5079231  54.2226362  12.2264099 119.8079872   5.2219430
  11.7524648 120.2767467   5.9088651  12.1556723 120.3739071   4.4532052
 105.4136986 102.9119492  90.9432220 104.6229667 103.3618355  91.2408447
 105.4062993 102.0782471  91.4134502 124.4604338  87.4776649  22.7456895
 123.5664455  87.7927780  22.6125661 124.3563152  86.5582371  22.9907075
   3.7462452 108.9598465   0.5742589   3.1065780 109.5905685   0.2437345
   3.3131385 108.5493088   1.3226644 107.3073966 105.1270771 103.5658073
 107.8912551 104.4192982 103.2930470 107.0304412 105.5381012 102.7469158
   4.9287164 114.2467594   5.7272378   5.6284428 114.7938442   5.3704301
   4.1641602 114.4554901   5.1904813   5.1302147  77.9040909  81.3106823
   5.3658974  77.5197029  82.1550274   4.2550528  77.5622129  81.1277962
  20.3858995  91.3128185  90.8523846  20.1402831  91.9371128  91.5351391
  21.0936761  90.7988739  91.2411499 124.0529136  77.7497196   5.0234739
 123.7082172  77.0894766   5.6247178 123.6401441  78.5668993   5.3028909
  17.0530581 119.1174889  23.8462201  17.2615373 119.9948120  24.1672746
  17.5246882 118.5285473  24.4352475 105.0946564 104.0340042 105.0137234
 104.8657185 104.7347355 105.6242943 105.8529026 104.3706036 104.5362377
   9.8249942 101.0633278   0.6657449   8.8941145 100.8822727   0.5356923
  10.2735531 100.4005337   0.1406423  63.3669233 111.6025162  79.2716742
  63.3903742 111.8024731  80.2074623  63.6594009 110.6929398  79.2137146
  37.6893520 122.0305443  95.5679417  37.3933411 121.3644886  94.9474812
  37.3299861 121.7503262  96.4097023   2.0231342  89.6281624   2.8894655
   1.2808275  89.1072655   3.1958715   2.7255937  88.9909935   2.7598516
  36.5043783 112.0551205 101.7041969  35.6126714 112.3405170 101.9032860
  37.0644140 112.6929951 102.1465874 108.6140937 126.7837524  95.4236317
 109.3577451 126.2651348  95.1166344 108.8235802 126.9865036  96.3353539
  21.8640327   9.9613171  67.2842455  22.4297953  10.2689438  66.5760708
  20.9779978  10.1786595  66.9945383 124.5452792 107.6101875  98.2561111
 123.6983546 108.0439472  98.3600616 125.0861364 108.2489681  97.7917194
  23.5383129  96.9333553   4.1219179  23.4250188  96.1136150   4.6029798
  22.8731728  96.9014454   3.4343187   9.1738331  93.6067200  83.1513500
  10.0657594  93.2699585  83.0659485   8.8454282  93.2127571  83.9595413
   0.2319096  83.4667778 108.1554508   0.0891197  84.3862152 108.3801270
  -0.3168004  82.9816246 108.7717152  17.1301699 100.5253029  25.7162896
  17.9447126 101.0180950  25.6167547  17.0385969 100.0451946  24.8932878
  31.7541075 111.4122677  12.5088922  31.9833207 111.7870426  11.6584626
  30.9049511 111.8000698  12.7205030  56.9477940  77.8789759  77.8513908
  57.6027536  77.3752546  78.3346367  56.6160917  78.5128736  78.4873009
   7.9481041 116.0018730  96.7689610   8.6945593 115.7393360  96.2303448
   7.2209001 115.4696751  96.4462090  42.7858162 102.2235203  21.5077058
  43.6921310 102.0139408  21.7333070  42.3918200 102.5031185  22.3340455
  15.4862893 100.4416752 102.1405506  14.7399533 100.1031017 101.6459942
  15.8376253 101.1439228 101.5931511  30.6846094  89.4244957  80.6340981
  31.6293144  89.4560146  80.7850170  30.3794312  90.3078747  80.8408642
  10.6190848 100.4144573  74.0248871  10.3816879 101.2003994  74.5170021
  10.6693590  99.7240162  74.6859407  11.7790306  60.8301687  98.2262325
  12.7027237  61.0349321  98.0809975  11.7601061  59.8806381  98.3456898
  29.5629168  91.1917019  19.8120061  29.8738337  90.4847813  20.3775445
  28.6797643  90.9241199  19.5576898  29.1249323 105.1400566  93.6025906
  28.6104369 105.8512688  93.2208729  28.5368967 104.7341824  94.2395496
   9.4134867  98.7513924  88.4139061   8.9678299  99.5591545  88.6691380
   8.9357352  98.0594635  88.8713074  12.7139008 103.8529015  96.0502434
  12.4817383 104.5235062  96.6926098  12.6567328 104.3000793  95.2058506
  25.2199340  78.9016771  57.1529531  25.5985165  79.3628168  57.9014540
  24.4120193  78.5166740  57.4924850   0.5163406 132.9412556  57.6937246
  -0.3487162 132.8891945  57.2872782   0.9639708 132.1452236  57.4070215
   1.5317766  87.5384808   5.7714692   2.3139551  86.9867992   5.7798425
   1.1768952  87.4643517   6.6573564  10.0999177 133.7436867  17.2925130
  10.4243302 134.0567970  16.4481489  10.6880796 134.1383457  17.9363576
 113.1009430  82.3146439   0.1060811 112.4247641  81.8352890  -0.3727015
 113.5665554  81.6410351   0.6017534  10.8232093  59.1069651   0.5001584
  10.1216412  58.7997198   1.0742990  10.6341910  58.7025261  -0.3465613
  19.6269691  77.6731491  97.9803371  20.3335571  77.0459175  97.8268814
  18.8250005  77.1637297  97.8638458  12.1985292 121.3206768 109.4325638
  13.0889702 120.9946537 109.3019676  11.9847572 121.7680168 108.6137772
   7.4983978  90.5260944 102.5597000   6.7390954  90.2362919 102.0540237
   7.3830712  90.1201916 103.4188652   1.4462785 112.9532909  92.6652145
   0.6607240 112.4084187  92.7127361   1.8549046 112.7124023  91.8338108
   7.2090024  93.7553215  13.5621969   7.4043947  93.6358070  12.6328126
   7.8919512  94.3479347  13.8762513  17.3890769 105.6981182  28.1287233
  17.7605569 106.2279034  27.4233381  17.1144068 104.8874569  27.7002279
   2.2213100 116.1480236   0.5215112   2.2048458 115.3445148   0.0015870
   3.0716580 116.5419674   0.3267137  21.5102482  98.3210087  80.4901981
  22.0420241  98.7827682  79.8419523  21.0816669  99.0171337  80.9881496
 122.2548675   1.5681153   5.0289861 121.6939477   1.4471894   5.7951299
 122.6222619   2.4453526   5.1371900 106.7760415 107.4598217  91.9597721
 107.2380418 106.6230202  91.9092941 106.3582940 107.5547981  91.1037922
  28.2943368 108.1841183  15.9320108  28.1336379 108.3988190  16.8508760
  28.7659073 107.3515987  15.9594957  25.9326100 116.6351223  93.5570908
  25.2640486 116.4713383  92.8919411  25.6233382 117.4131489  94.0210438
  43.6128283  88.3718586  96.5302849  43.1783390  89.0413284  97.0587444
  43.6039734  87.5889778  97.0809555   9.6558523  82.5180149 101.1497021
  10.2964783  81.8663597 101.4346313   9.9626648  82.7937889 100.2859688
  12.7176595  77.0823431   3.8078920  13.2148540  76.8430471   4.5900480
  12.8188980  78.0318117   3.7409059 116.3917584  87.6778412  91.8377590
 115.8468217  88.3567333  92.2357368 116.0997552  87.6396561  90.9269905
 118.1513000  89.8954582  69.4743013 119.0688629  89.9469090  69.7420025
 117.8844810  90.8072281  69.3572092 123.1901208 120.1489544  93.3489418
 122.2861210 120.4591084  93.2958126 123.1662000 119.4524479  94.0050888
  19.8646677  10.4527455  17.3582975  19.5662940  11.1102753  16.7299119
  20.1293135   9.7080689  16.8182603 120.1558108 105.6242561  87.0369434
 119.5724816 106.0633278  86.4179230 120.2760992 104.7475338  86.6720867
 120.7174552 124.6337509  90.5440998 120.7827831 125.5520535  90.8061600
 119.9475656 124.3061733  91.0090637  89.0111465  92.4020386  86.8896484
  89.4815893  93.1352901  86.4931011  89.3604321  91.6271782  86.4493942
  45.4351187 109.4605923  99.1819477  46.0193491 109.6495724  99.9162483
  45.9934950 109.0259552  98.5373306 109.5248634  92.5539207  84.5711136
 109.8258919  93.3498955  84.1328907 109.6823830  92.7181816  85.5008602
  10.4118025 118.2175922  87.2469902  11.1826968 118.6587524  86.8901634
  10.7290781 117.3521137  87.5049019  90.0660796 111.4789581  98.5242462
  89.4286937 111.3274765  99.2221165  90.9167571 111.3634014  98.9475918
 111.6363878 108.6569691  79.0255356 112.3083217 108.4536266  78.3748531
 112.0514340 109.2935467  79.6075439  92.0162267  69.2785931  84.2333794
  91.8528671  69.5956373  83.3450985  91.1872692  68.8829660  84.5027161
  24.6049118  73.4271193   2.4160043  23.7572026  72.9935074   2.5140134
  24.4113255  74.2219830   1.9190732  35.9376097 100.6913757  48.7201929
  35.8789062  99.7441864  48.8451862  36.8373370 100.9097290  48.9631844
 108.9548773 115.6924152  97.9793072 109.5495576 114.9423599  97.9802799
 109.4710488 116.4068317  97.6059341  15.9879565  63.8414764  73.4987068
  15.7463503  62.9233456  73.3766937  16.5575457  64.0400648  72.7554941
  58.5854292  82.7937317  83.5530376  58.0186272  83.3940411  83.0686760
  59.0188360  83.3460331  84.2037010  30.3465128 137.7322292  88.1882191
  31.2762475 137.5144863  88.2546520  30.1544762 137.6794910  87.2519588
  21.6544509 124.2863655   2.0056669  20.9332609 124.7608280   1.5921346
  21.5872049 123.3973408   1.6573182  49.1589022 129.6617603 103.7531948
  50.0259304 130.0633812 103.6966801  48.6718178 130.0393867 103.0208206
  24.4245648 110.7516670  64.1892099  24.4175243 110.6563950  63.2367897
  23.5704875 110.4224110  64.4691706   3.1248143 100.3479004 100.4926968
   2.3940308 100.7003403 101.0006046   2.7100408  99.8990726  99.7559834
   8.9608061 135.3546619  99.7264767   9.6897024 135.0876045 100.2864933
   8.9058322 136.3033867  99.8410702  11.0459530 119.7416592  73.7178564
  10.8042109 119.1450787  74.4262981  11.5659416 120.4224205  74.1449547
  27.8464413 109.4482517 102.2443581  28.1075001 108.6004257 101.8847942
  28.3448195 109.5271492 103.0577564 124.4528084 130.7341862  12.2863714
 125.1685278 130.4395390  11.7232076 124.2274383 129.9649334  12.8095285
  16.8049955 125.6421661  29.2111532  16.4217365 125.6358433  28.3340494
  16.0944164 125.3559875  29.7850934 105.5081672  93.6738205  81.7893028
 106.4174480  93.3819580  81.7240524 104.9939258  92.9243088  81.4892673
  21.9145584 127.9606819  68.9132977  21.4032650 128.7314987  69.1595650
  22.6320314 127.9368782  69.5464659  15.0387084  94.8302746  52.4248505
  14.4363344  94.6326256  53.1420088  15.7127678  95.3809643  52.8231192
  31.7072630 101.1880016  69.3173838  30.7614350 101.2388325  69.4554329
  31.8160057 101.2734604  68.3702278  56.2196398 122.1370411 102.1227837
  56.4556885 121.9687271 101.2105465  56.2078667 121.2712383 102.5308037
 110.6031162  80.8955860  65.1512241 109.8577291  81.4960098  65.1404476
 110.7508320  80.7137966  66.0793257   6.2260544 108.5367966  70.1313686
   5.4779083 109.0950108  70.3432655   5.8631945 107.8539085  69.5672464
  27.0744205 127.3518467 101.8256283  27.7024078 127.8051186 102.3881340
  26.3837051 127.9960155 101.6700935   5.5923456  85.7223511  90.5388165
   5.7666254  84.7865391  90.4382420   5.6785482  85.8823967  91.4785957
  10.4655516 142.9276848   9.0021650  10.6374872 143.0655384   9.9336473
   9.5243800 142.7598572   8.9546052 113.7181885  89.9499798 102.6177692
 113.4098787  90.0517082 101.7173100 113.0013210  89.5024395 103.0672646
  19.6844947  94.5744419 104.8176003  19.8623490  93.9318848 105.5044174
  20.4384184  95.1637840 104.8399353  18.8636577  78.4120750 101.5990639
  19.5123982  78.4785414 100.8983803  19.3768227  78.4582043 102.4057579
  18.4751379  74.2934990  64.1521072  18.9305258  74.5076323  63.3378601
  19.0253162  73.6288595  64.5665836 120.7636691 111.0088253  73.5767031
 119.8513777 111.2967396  73.5440779 121.1445237 111.3265705  72.7580309
 107.5869138 124.9416733   3.9173261 107.1681470 124.0844631   3.9950887
 107.1862943 125.3344917   3.1418077 115.2902681 128.8153934   2.1500341
 114.9859644 128.0469513   2.6328794 115.9235293 129.2307758   2.7354089
 105.0746066 100.1939392  92.1609211 105.1167328 100.5286694  93.0566978
 105.4449696  99.3130589  92.2167301   1.0613739 134.4498158  79.8592520
   1.5477598 133.7238503  80.2499294   1.3975289 135.2290726  80.3019524
   3.3866307  88.5084534  45.3661100   3.2503176  88.5825253  44.4215623
   4.0068448  89.2072392  45.5741159  42.8283310  74.4643116  95.9386730
  42.4411917  75.3265047  95.7870674  42.0898819  73.8575649  95.8859730
 102.9496116 128.1734562  59.8769331 103.5197515 128.0346680  59.1206884
 103.1198282 127.4229622  60.4461575   4.4092953  82.9309750  91.6449356
   3.9532197  82.5403690  92.3903656   4.5628098  82.1988773  91.0476875
 112.3270649  76.9254160  75.7776022 111.4488716  77.1829224  76.0581350
 112.6063854  77.6276541  75.1901722   9.2786044 118.7816143  65.9923935
  10.0997806 119.2307377  65.7919168   8.7367618 119.4494629  66.4126587
   4.7088277 100.7382584  95.9671021   4.2019886 100.0298405  95.5702496
   4.0561336 101.2812138  96.4091778  17.6929843 112.7626610  57.4519205
  18.3089519 112.1688080  57.0227861  17.6528680 113.5246944  56.8740559
  44.4340229 131.4209080 108.2844353  44.6220875 130.5779457 107.8717995
  45.2030516 131.9579124 108.0935001 120.8902512 104.9542427   7.4956552
 120.3417385 104.7253513   8.2459680 120.6429077 105.8543587   7.2838823
 119.1016740  95.2987671  11.9094507 119.1352851  96.0450649  12.5078908
 119.1696913  94.5321465  12.4785749 112.3370130 104.7338295  16.2609807
 113.0451900 105.3560638  16.4269391 111.8903489 105.0798321  15.4883138
 107.4161035  94.4057846  40.6225348 107.8756506  95.2042580  40.8823156
 107.3752744  93.8818645  41.4225817  41.1817884 114.7534657   9.3745557
  40.4594803 114.1738510   9.1325895  41.9605923 114.3284321   9.0153447
 104.1717834 102.6806068  99.7042561 104.2586393 102.4788952  98.7725830
 103.6146469 103.4585381  99.7299671   4.5181069  77.3470020  61.3838196
   4.9178478  77.1525955  60.5360937   4.8825729  78.1968117  61.6312408
 112.5937874 131.4816761  97.3808193 113.1317646 131.0377884  98.0363941
 111.7023177 131.4259338  97.7249241  28.1588864 109.0640068  73.4715223
  28.3319044 108.1961060  73.8362646  29.0233827 109.4672871  73.3924961
  19.7640419  70.6835842  58.5139322  20.6118464  70.3693104  58.1997824
  19.8028362  71.6330194  58.3985996  11.0430598  82.7230263  79.4451046
  10.7916939  81.8586731  79.1196203  10.3134871  82.9898453  80.0043583
 124.4081080  94.6152878  80.8934784 125.2797523  94.8008156  80.5441189
 123.9113165  94.2954731  80.1403809  91.7980999 121.4740372  84.3143272
  92.2131152 122.3148155  84.1217327  90.8995695 121.5727615  83.9994717
  13.8381171  79.4157362  84.2563438  13.9260149  79.1064215  85.1579094
  12.9069173  79.6160221  84.1615486  18.6331236 119.5746040  91.1279392
  18.8239253 118.8439465  90.5397511  17.7237344 119.4373131  91.3932610
  13.6855578 101.5590954  47.0014429  13.5482359 102.4808311  47.2200346
  14.2342162 101.2239361  47.7105808   8.8621998 100.4424000  90.3991604
   8.1054765 100.1786327  90.9226322   9.6095240 100.0330639  90.8352566
   5.1986140 126.9620228  72.9970694   4.9274129 126.5793419  73.8314772
   6.1440772 127.0828342  73.0850172 116.0927475 125.6544495  65.7730675
 115.5624784 124.8578262  65.7941532 116.9877631 125.3429127  65.6384468
 108.5017867  81.0081100  41.0083675 109.3390424  81.4527512  41.1407661
 108.7050468  80.2872372  40.4123306  12.5465965  97.9956627  84.1409874
  12.5717258  98.1511402  83.1968307  11.8627965  97.3359680  84.2569733
   8.8217920  90.5740929  82.2692013   8.1463802  90.3229809  82.8992748
   8.5003728  91.3902569  81.8860626 111.9083030  97.3102283  68.1041718
 111.7068965  96.5654278  67.5376511 112.7969319  97.5659084  67.8567886
 124.1781281 137.3069382  91.0370827 123.3239756 137.2012234  91.4559937
 124.7985519 136.9265366  91.6588593   7.0027411 103.4437084  77.5864697
   7.8260088 102.9755974  77.4474192   7.1952730 104.0629292  78.2905531
   7.3758924  83.8394451 104.3122292   7.9221696  84.0017796 105.0813007
   7.6362091  84.5154285 103.6865330 120.2848688 110.1800537 100.0707245
 119.5172942 110.0768375  99.5082283 121.0304335 110.0962162  99.4763088
   6.7637885 124.1263771  98.3384228   6.4553779 124.1341114  97.4322987
   6.4007688 123.3215332  98.7081146  20.5604839 128.1902122  76.7668581
  20.8799028 128.0847740  77.6630116  20.1629567 127.3460388  76.5533924
  35.3329253 105.3379822  80.1614857  36.1369157 105.3345394  79.6420383
  35.1386976 104.4122696  80.3083324   1.9351634 137.4111080  76.5493250
   1.1415990 136.9336033  76.7911386   2.3265103 136.8869591  75.8505058
  25.6806302 100.2148438  84.3946934  24.9227118  99.6829033  84.1521549
  25.9419274 100.6448078  83.5803890  38.4026098  92.6101303  70.8599424
  39.2358708  92.6735020  71.3267279  38.3799529  93.3886814  70.3035402
  97.5572366  94.3739510 100.6861877  98.1005020  93.6895943 100.2953434
  97.4369163  95.0140476  99.9847412   9.9539739 113.7849712  98.5247803
  10.5593729 114.0854645  97.8469658   9.9630052 112.8308964  98.4481144
 121.2259022 120.6055069  74.5671749 120.6925727 121.0132408  73.8848686
 121.7027775 121.3336086  74.9655294  16.9812930 131.1130428 105.6800652
  16.2300074 131.2372780 106.2600422  16.9435430 130.1888275 105.4338360
  38.7354946 101.6204739 107.7138615  38.2743740 101.3537312 106.9185925
  38.0388498 101.8427467 108.3315182   2.1709982   7.2798519  71.8833256
   1.7874494   8.0808907  71.5263033   2.2844754   6.7092114  71.1232424
 109.3114073 115.1762295  81.8554115 110.0444920 114.8993587  82.4050999
 109.0296108 116.0091400  82.2336674 116.0859752 105.1340580  83.3797264
 115.9686834 105.9975910  82.9837513 115.2311266 104.9251366  83.7563133
 122.8564117  70.5517149  66.4450455 122.4359474  71.0573339  67.1405983
 123.6254763  70.1636791  66.8624163   9.3279475 137.1952438  70.2475166
   9.7322690 136.5675926  69.6485090   9.0215123 137.9035282  69.6812582
 123.6034035 126.7468452  80.5266380 122.8957725 126.3105297  80.0521755
 123.5391462 126.4062595  81.4188766 107.3244399  92.1593666  12.3079435
 107.5315959  93.0623055  12.5488130 106.5687723  92.2342777  11.7252008
  28.5712481 107.0860863  79.7628927  28.9892697 106.2554932  79.9900293
  27.6613307 106.9800758  80.0404644  85.6871933 109.6550274  57.5154448
  85.1430101 110.3850174  57.8107738  85.6123490 109.0032101  58.2124090
  13.8364470 139.7401142  50.2291727  14.3425512 140.2456474  50.8651924
  12.9761994 139.6361542  50.6358624  23.3192968  94.7674465  81.9537449
  23.3881021  93.9290714  81.4970016  23.9418769  95.3377151  81.5027237
 119.4760407 119.1661930   8.0685083 119.6785862 120.0991249   8.1381551
 119.3719406 119.0131664   7.1293775 120.8026580  62.8651333  43.6999655
 120.9106425  63.7554264  44.0345478 121.1794663  62.8924370  42.8204775
 111.3057691 133.1317711 105.5075359 110.6619019 133.8263416 105.3688240
 110.8002180 132.4062157 105.8738804  34.0664721  95.4961300  73.8193512
  34.1668797  96.4384365  73.9543056  34.4689584  95.3320885  72.9665184
 121.0938350 115.6961918  74.0131187 120.5818991 115.6792355  73.2044983
 120.7081065 115.0080585  74.5552683 117.9487307 121.7960644  83.4120369
 117.9354913 122.6618290  83.8200760 118.7852306 121.4169216  83.6817741
  20.1221228 118.0257416  83.2139778  20.3973866 118.1574535  82.3067284
  20.7818127 117.4375057  83.5814285  17.3519230  92.0998478  90.1806450
  18.2156277  91.7180252  90.0242615  16.8240643  91.8111515  89.4361591
  48.7438631  80.4697704 100.0278282  49.6921873  80.5986691 100.0105095
  48.5393858  80.3195477 100.9507847 114.0716452  89.5795536  81.5978146
 114.7104115  90.2823544  81.7173290 113.7967617  89.6585274  80.6843376
  15.0784945 143.4386158  88.6284351  15.3322029 143.2297039  89.5274448
  14.1370189 143.6042595  88.6776066  96.0751361 116.7165947  54.9199390
  95.4469962 116.5800667  55.6291866  96.5082879 117.5415611  55.1391077
 124.1702019  97.2897530  35.7430291 123.6118094  96.7382336  35.1950765
 125.0221763  97.2761345  35.3069258  36.9499254  85.4117870  77.6309061
  36.9799757  85.9036064  78.4515429  36.1460304  84.8955917  77.6903343
   7.9861420 115.7649708 106.7795372   7.2051334 115.7205963 106.2279129
   8.4386551 116.5574646 106.4907169 110.6435747 125.9560204  75.3715420
 110.9833068 126.4491749  76.1182737 109.8093349 125.6010056  75.6785250
   1.8599166 118.5303974 107.4037075   1.3915026 118.9334106 106.6726780
   2.7304083 118.9276981 107.3785686   9.3408394  95.4770851  68.4098291
   9.5550770  96.0603523  69.1379356   9.4787091  94.5967960  68.7595606
  25.1007795 125.5574036  64.0025806  24.1936612 125.2950954  64.1593170
  25.6226277 124.9102116  64.4769716   2.7966440  84.5250702  89.6981430
   3.1959283  84.2056942  88.8889408   3.1255376  83.9352798  90.3765297
  10.3164101  66.6984797  81.7918682  10.1142490  65.8145380  82.0984840
  10.2300930  66.6473818  80.8399391 111.7129833  81.2379551  74.7546434
 112.1449441  82.0789814  74.9040222 111.8849511  80.7355785  75.5510569
  21.6327047  63.0680323  69.1077232  21.3549089  62.4757576  69.8064899
  22.5739217  62.9151583  69.0242338  25.2907538 110.0865555  66.8167305
  25.4948616 110.9236145  67.2337389  25.1045966 110.3121185  65.9052992
 112.0908052  76.5795565  68.9972544 112.0295102  75.6369257  69.1519213
 112.9904992  76.8033361  69.2353821 105.0032074  80.3077888  77.7983618
 104.6004385  79.9686003  76.9990110 104.6894903  81.2099934  77.8604078
  26.7199230 112.2951889  64.3982649  26.6270399 112.3326588  65.3502083
  26.2559366 111.4976501  64.1435480   6.5349925  94.1474438  82.9006958
   7.4803954  94.0083885  82.9564476   6.4212930  94.7185326  82.1409798
  95.5213899 109.4040394  98.2213306  94.5843858 109.2095280  98.2418156
  95.8674664 108.8424969  97.5276947  34.7283816  92.0421886  85.2299404
  35.6275654  92.2006702  84.9425697  34.3532658  91.4859390  84.5472145
  43.8177919  73.8382339  77.8392172  43.8145351  74.7772598  77.6536083
  43.0483484  73.5007715  77.3806238 124.1540586  86.9034767  93.9543819
 123.5720686  87.3407841  93.3328724 123.9119226  87.2672939  94.8059940
   3.5284948 107.4520683  81.1484814   2.6277751 107.5701904  81.4501190
   3.6234090 106.5054989  81.0425282  22.0073318 136.9208431  81.3627052
  21.3949609 137.0641136  82.0843029  21.8007112 136.0421848  81.0441113
   1.5802033 101.8878365  65.1345396   0.9667281 102.1849442  64.4625187
   1.1335681 102.0660114  65.9621859   1.6588086  87.9943466  67.2601461
   1.7166498  88.9484310  67.2090292   1.2289570  87.7364254  66.4447117
   5.5702460 110.3712845   1.6429273   6.0484356 110.7820034   0.9225885
   4.9877369 109.7429180   1.2162248  18.7158155 103.6894131 105.4891586
  18.8846707 104.6008492 105.2503967  19.3726265 103.4910393 106.1566067
  25.5121493 139.5872974  40.3214216  26.3707900 139.4004917  40.7009935
  25.3838778 138.8989258  39.6688008  47.5853634 106.3685417  80.4853916
  48.0822229 106.1562443  79.6952677  46.9273138 105.6762123  80.5477619
  11.2308633  91.3684750  89.0075111  10.6172192  90.6359100  88.9525414
  11.7139947  91.2157822  89.8196125   3.6876073 125.7398796 102.9209232
   3.8422444 126.5751743 103.3620644   3.8028225 125.9352207 101.9909763
  32.7772522 129.7883892  53.6248064  33.5145211 130.2626133  53.2403898
  32.4104381 130.3959084  54.2671394   3.4319979 109.4890499  79.4251060
   3.5453779 109.0486717  78.5828209   3.4643137 108.7831116  80.0707340
   0.0473773  83.2184505  76.5069866   0.1763335  82.7271461  77.3182964
   0.1604063  82.5688744  75.8130789   8.4844559  81.9504452  61.9473886
   7.6948845  82.3914528  62.2609377   9.1599739  82.6284122  61.9636965
  31.3963604  12.3952084  80.7240200  32.2281122  11.9494038  80.5638027
  31.2064624  12.2236710  81.6463852 121.5988917  75.2919149  77.9634571
 121.7452533  75.9339046  78.6581898 122.4775822  75.0585079  77.6640320
  41.1918259 105.0781345  65.6943226  41.7531395 105.8533287  65.7096672
  41.1516905 104.8297310  64.7707891  10.5742800  95.2506161 105.1474380
  10.8570552  96.0061264 105.6626797   9.6181518  95.2908230 105.1682758
  23.6277533  98.0512524  82.7651882  24.5635128  98.0909348  82.5676727
  23.2586908  97.5085926  82.0683670  96.3176698 115.2296543  97.1584892
  97.0501298 115.2558804  96.5428162  96.3122959 114.3303013  97.4861622
  31.2798047 137.3547840 101.0655117  30.8082032 136.5766716 101.3627720
  31.4002752 137.8789043 101.8573570  60.3007984 108.4697437  59.6142387
  60.7208633 109.0260315  60.2702284  60.6684494 108.7630939  58.7805653
   2.5490615 129.7469997   3.3191243   2.6012921 128.7961006   3.2226697
   1.6450509 129.9617672   3.0891839   7.7347773 143.5731792  87.8405666
   7.4669385 143.7632656  86.9414806   8.6788136 143.7312126  87.8477478
   2.0190869  85.7403851  96.7429161   2.0384420  86.1034393  97.6283741
   1.1582410  85.3279018  96.6719341 105.3680939  79.3536520  17.2056905
 105.3367526  80.3083420  17.1439782 106.1208481  79.1746473  17.7691976
   9.1163969 144.3751621  58.3128738   9.4583285 144.0509319  57.4796963
   9.0979457 145.3266525  58.2101917  14.9430943  81.3928032  16.6127626
  14.8164403  80.5793667  16.1243860  15.4227674  81.1286068  17.3978368
 108.0420715  93.5561275  74.8931789 107.9493875  93.8220501  73.9783430
 107.2130961  93.8070393  75.3007030   9.2226100  98.0157566  99.5955849
   8.8455981  97.5778484 100.3586960   8.7307692  98.8335705  99.5214653
  10.6532073 109.4084072  60.3987312  10.9350479 110.3191376  60.4846430
   9.7089201 109.4343281  60.5532646 120.2007205 107.6174927  52.6074123
 119.6616537 107.9383183  53.3303976 120.9747136 107.2471905  53.0317307
 108.4958667 109.4448757 105.7766056 107.6084752 109.5765686 105.4428005
 108.6997444 108.5345268 105.5622673  39.1726613 125.0241280 108.7052822
  38.3600569 125.5231857 108.7880421  39.7816992 125.6271172 108.2789993
 105.3963644 116.3113308   2.9773847 105.6231660 115.5582619   3.5229913
 106.2399513 116.6738319   2.7068654  24.8936152  95.1674175  90.2965450
  25.2381587  95.7955360  89.6617317  25.3226733  95.3994274  91.1201382
  15.1074553  72.0086002   5.3701822  14.2330265  72.3427773   5.5700151
  15.6977856  72.5605106   5.8831540   0.6077517 102.4506855  38.4906530
   0.8742201 102.3510551  37.5767040   0.9414910 101.6653824  38.9244151
  17.3295939 109.1798306  93.7034893  16.6119218 108.5844898  93.4872723
  17.3663819 109.7885323  92.9656792  31.5325665  77.9642248  79.1172457
  31.4145827  77.0176601  79.1968346  32.1112728  78.0708122  78.3622837
  24.3613386  76.7311382  75.9979105  24.4622469  77.0707512  75.1086903
  24.6566677  75.8223438  75.9421539 104.8862810  84.7227192  62.0022774
 105.8235664  84.5287609  61.9919205 104.6727175  84.9213600  61.0905933
   7.8410298 118.4319210  98.4334469   7.3165011 117.8180599  97.9193687
   7.5998706 119.2944241  98.0955505   8.0745119 110.1976776 101.1651421
   7.1221322 110.2878189 101.1322975   8.3671570 110.9392452 101.6949177
  21.0950303 119.2812061 106.4581776  21.8609667 118.7309647 106.6219139
  20.6089091 118.8181496 105.7758999   8.3235204 134.0922451   2.7727166
   8.5804784 133.3157349   2.2754899   8.2252800 133.7791920   3.6719266
  11.8765223 119.9264336  65.2893305  12.1262968 120.5150700  66.0016203
  12.4902415 119.1949749  65.3567410  18.6327505  76.1280203  84.3599224
  18.0499959  76.8773794  84.2370892  18.5395300  75.9012508  85.2851868
  49.5252085 102.4129868  84.5640850  50.3090048 102.8765011  84.2690659
  48.9353752 103.1054497  84.8621082   8.9608276 101.9510555  57.8181791
   9.9174327 101.9592476  57.8508997   8.7256986 102.8112030  57.4702024
 117.1020377  79.0100861  39.6498108 116.8174112  78.6913013  40.5063105
 117.4285609  79.8937225  39.8195338  49.0749550  86.4611435  91.4511013
  48.1918621  86.7062950  91.7272949  49.1198540  86.7235661  90.5316734
  21.8820119  95.5663872  43.1547070  21.1852002  95.9793282  43.6647749
  22.0643115  96.1886024  42.4505472 121.9612763 120.0614357  47.9694271
 122.1578941 119.8443604  47.0581341 122.6809559 120.6313419  48.2405233
  38.0207157 138.1220341  50.1415682  37.5563240 138.7666416  49.6076584
  38.8709164 138.5249138  50.3178692   5.0635487  79.5352888  54.9617481
   5.0199699  80.1272583  54.2108154   5.9052640  79.7317123  55.3730440
  34.6751189 118.9541721  41.6155243  35.4242349 119.0953827  42.1944141
  34.0540671 119.6419048  41.8554068  15.5874372  97.2565937  25.5632710
  16.4895058  97.3274040  25.8755088  15.5119681  96.3547230  25.2515721
  17.0217621  82.7691650  80.4421711  17.2697866  83.3714962  81.1435413
  17.1115804  81.8990326  80.8308125  10.4099619  84.0051937  43.7471437
  10.5102181  84.9244022  43.4996796   9.6992898  83.6839008  43.1922197
  19.6714020  83.1906796  79.5875788  19.2630029  82.6389408  80.2546787
  18.9528966  83.4304428  79.0023470  76.7301435 114.4148159  98.2634163
  77.3425455 113.7952805  98.6600971  76.2788791 114.8147869  99.0067959
  18.8493288 108.1705666  95.8056545  18.5070431 108.4672546  94.9624157
  19.1483295 108.9706898  96.2376690   5.9990573 121.3261223  54.9113703
   6.5384352 120.7360268  54.3849754   6.1827129 121.0750008  55.8166027
  24.2732692 107.6636314  44.5187569  23.4966612 107.9739952  44.0531588
  24.1588616 106.7146397  44.5693874  13.9956594   5.9815770  67.3816347
  13.5054553   5.2984600  67.8391123  14.2153263   5.5926209  66.5350628
 124.2867922 141.1017418  49.6870041 124.4647708 140.3237343  49.1585541
 125.1096885 141.5906143  49.6782446  14.8681974  86.1581898  82.4681568
  14.6897364  85.8759212  81.5711021  14.3849432  86.9791508  82.5615406
 118.1995369 104.3325806 102.2526264 118.5118449 105.0071144 101.6495514
 118.8282884 104.3467331 102.9742241 119.8891307  80.2863407  49.8126268
 119.4275064  79.6492386  49.2674303 119.7278187  81.1279869  49.3862009
   1.0431498 104.5451832  77.9229307   1.2466234 105.3767014  77.4946690
   1.8340579 104.3307114  78.4176016 106.2048215  89.6717739  85.5152225
 106.2168927  90.1957798  84.7142792 106.4797146  88.7989140  85.2345467
  28.9456749 126.7909145  65.0835943  28.1623626 127.0403385  65.5739403
  29.5508933 126.4639187  65.7491922  92.3008341 107.2031212  65.7195997
  91.5269346 107.7421474  65.5560160  92.0182843 106.3110161  65.5182314
   0.7065769 107.7714634  86.3941479   0.4427563 108.6581993  86.1485386
   1.5955734 107.8716946  86.7345428  29.4600964  99.8020744  56.3311672
  29.6284461 100.5674171  56.8808508  29.6609735 100.0964069  55.4427719
   7.6023638  84.7731304  99.0984821   7.5617760  84.5463753 100.0275517
   6.6914523  84.7471142  98.8055801  20.1917076  91.7906094  81.5544510
  19.4364858  92.2748756  81.2207603  20.8585048  91.8887043  80.8747482
  29.0347743  77.7153015  70.9268904  28.1890535  77.7144003  71.3752127
  29.3207335  76.8021870  70.9531212 116.5262283   5.9986477  88.9015198
 116.7344946   5.0693684  88.8050652 116.2902404   6.2840824  88.0188751
 116.4074231  78.2132959  49.0500498 117.3566342  78.1651402  48.9364195
 116.2887628  78.4944916  49.9572849   7.1462935 132.3615265  90.7520580
   6.9836271 131.5928841  90.2052879   7.6045054 132.9729557  90.1755047
 107.6118893 140.3723240  72.2890520 107.9916686 141.2410736  72.4205017
 108.3672017 139.7954750  72.1751404   0.3378551  78.5477495  50.7980108
   0.6269640  77.8550577  51.3920021   1.1435016  78.8651514  50.3900623
   0.9867529 102.5276947  86.7221069   1.5263501 103.3005333  86.5554428
   1.5851098 101.9009972  87.1288681  15.7868803 106.2768459  55.5485535
  15.9463668 105.3618240  55.7799435  15.5790460 106.2549496  54.6144438
  15.2621150 146.1005211  87.0235729  15.7088661 145.3510380  87.4171638
  14.3779933 146.0714436  87.3892403   8.3769995  91.0285759  27.1995091
   7.4732268  91.1000633  26.8923998   8.4557003  91.7052555  27.8719306
  32.9713941  91.2504673  81.0194683  32.4576330  91.9006252  81.4986038
  32.8747296  91.4989567  80.1001549  61.6828156 117.6965141  88.5593319
  60.9978914 117.9739094  87.9509163  62.2532272 117.1326447  88.0369186
  22.2024250  99.1785908  30.1311628  21.8265152  99.9009228  29.6280233
  21.4456272  98.7304211  30.5088369   5.7632834 124.6209145  71.0916328
   5.4761124 125.2574539  71.7462969   4.9524784 124.3054867  70.6924677
  17.2575963 127.7639389  67.9745054  16.8444908 126.9268131  67.7628374
  16.5491021 128.2957745  68.3370209  28.8308215  90.8376217  39.7736788
  27.9173779  91.1237144  39.7719288  29.2998457  91.5309429  39.3094039
  38.2074523  69.2695570  18.3156586  37.4871564  69.0873814  18.9191628
  38.1977391  68.5347080  17.7023578  15.7644093 120.7402134  95.1779747
  15.9946752 121.6141891  95.4932213  15.7658362 120.8215332  94.2242336
  22.1215916  87.3976994  48.4897518  22.5677490  88.0250740  47.9209185
  21.6653514  87.9400539  49.1331244  57.5026321 115.4905224  79.5344973
  56.6801262 115.2495193  79.1083145  57.8070450 116.2583447  79.0507555
 120.4201690  84.2469215  38.4903049 120.8725247  83.5015202  38.0953622
 119.4912857  84.0688038  38.3430624 123.0039061  78.8110209  96.4444065
 123.5459648  79.2120409  97.1238041 122.4394030  79.5208740  96.1383438
  33.8289666  87.3872566  65.7764053  32.9883194  87.5887108  65.3653574
  34.0668178  86.5285015  65.4268503 107.5745029  79.3287849  48.4257603
 107.3890573  80.1248837  47.9276896 108.4834475  79.4294119  48.7084723
  17.4204636 114.2059898  70.3229713  17.5629842 113.4253597  69.7876740
  18.2803023 114.6238708  70.3707886 109.9675126  79.7666597  62.6907444
 109.0759427  79.5115376  62.4535799 109.8996562  80.0568104  63.6003828
 119.8593328 121.9862461  78.5192776 119.3457616 122.0244789  79.3261337
 119.2403353 121.6820335  77.8555536 118.1636364 125.5956745 106.5896988
 118.0681766 124.6434593 106.5697384 118.2917631 125.8041954 107.5150776
  14.0243053  96.7780685  50.7910538  14.0252113  97.3473358  51.5605783
  14.2037582  95.9046173  51.1390591  19.6557975 122.8364372  60.8156347
  20.5276799 123.2294846  60.7760525  19.8133707 121.8956280  60.7363701
  41.6418314 106.3432407  81.1690044  40.9708309 105.9475231  81.7252445
  41.4261198 107.2757721  81.1600494 119.8369942 105.7047844  68.6716080
 119.6937532 106.5891647  68.3346033 120.4029087 105.2892780  68.0209732
   4.6865806  77.9044199  22.9783583   5.0790703  78.7115908  23.3110118
   4.2530528  77.5176764  23.7390900  36.8400049 118.6978722  68.8412857
  37.2756100 117.8468418  68.7940216  37.4888682 119.3178749  68.5084152
   4.6100777 114.8060799  99.3315983   4.4412297 115.7344818  99.4922066
   4.0213141 114.3482685  99.9316025  13.4552062 133.6932945  53.2564640
  13.2827926 134.5944595  52.9836845  14.4053578 133.5998821  53.1877804
 113.7192315 108.4320354  30.8779645 113.8209350 109.2684937  30.4238582
 114.4838113 108.3761501  31.4511371  15.2346349 101.2608719  44.8805237
  15.5627918 100.3820419  45.0707912  14.6747172 101.4742756  45.6269693
  24.2939210 117.9601192  89.0765572  23.7667871 117.3449516  89.5863819
  25.1652503 117.9121494  89.4699001   8.9655215 105.5497551  82.6233292
   8.3520782 104.9442101  83.0395412   8.4503913 105.9819794  81.9421101
 122.2554768 139.2105007  82.2432995 122.4032976 138.2804108  82.0720863
 121.6420308 139.4849777  81.5616989  11.0835016  67.2269392  52.5726032
  11.7119133  67.6429081  53.1627703  10.2933812  67.1184587  53.1019163
   8.9810580  96.7508698  71.2190628   8.5379428  96.8017101  72.0659924
   9.6191823  97.4640369  71.2394238   3.8283235 102.5643921  32.4673963
   3.4270528 103.2180882  31.8947721   4.7690076 102.7240086  32.3907852
 103.5775227  97.8658867  76.8092489 103.5351366  98.3971596  76.0141468
 103.1413836  98.3968735  77.4756336  29.0825558  92.2702217  56.2137318
  28.9837170  92.6876354  57.0694351  29.8842573  91.7529392  56.2907410
  44.4032383  92.1690750  21.6371965  44.2330694  92.5841236  22.4827814
  43.5922670  91.7042732  21.4310098  41.4840078  97.7468777  53.9830017
  42.0351887  97.6709366  54.7618914  40.6937981  98.1905746  54.2911148
  37.4189663 110.1302814  81.3227367  37.7894402 110.9447670  81.6627312
  36.6308618 109.9883747  81.8471241 118.6478818 108.4891987  77.2237110
 118.6663092 107.5503540  77.0380497 117.9091097 108.8199329  76.7127705
   7.3008871 137.8409481  60.7206964   8.1605405 138.1082726  60.3954792
   6.7896175 137.6662064  59.9305677 117.3162848  89.0825844  84.6554089
 117.6040370  89.6720123  83.9582729 116.7501736  88.4488583  84.2147923
  16.1293757 116.1713982  34.0832233  16.6353035 115.9550667  34.8664665
  16.7885888 116.3127518  33.4037471 104.0353341  87.2495747  85.5459213
 104.7047157  87.2710896  84.8620415 103.3464069  87.8315735  85.2251530
 108.0359775 113.6106968  47.3295736 108.0402226 112.7994156  46.8215990
 108.0301339 114.3054962  46.6711998  14.4834912  82.5322723  48.2695389
  14.2723477  83.2421398  48.8759613  14.7339368  82.9760361  47.4592352
 116.1285067 145.5831242  40.4739332 116.2754644 146.1781979  39.7387385
 116.7627627 145.8588219  41.1357069 121.3039658 111.8581772  34.9996519
 120.7483131 112.3367882  35.6148076 122.1955789 112.0141315  35.3110003
 112.3891527 103.6029530  77.6077557 112.2562463 102.8212643  77.0715284
 113.1366474 103.3867455  78.1651974  33.6717772  94.0404224  60.3598595
  32.9154301  93.6270428  60.7761335  34.1685033  94.4174480  61.0860491
  20.2745199  87.6197910  93.0432224  19.9277151  88.4731579  93.3034515
  20.7651806  87.7953815  92.2403145  29.9060607  86.0123920  66.6852379
  29.7540307  85.1263142  67.0138550  29.0348101  86.3353634  66.4553642
  44.9738312  87.9537868  63.8089705  45.7698774  88.0476189  64.3321705
  44.8578215  87.0081234  63.7168741 104.5135731 104.6709156  31.9082832
 103.7229604 104.6185398  31.3712382 104.8870725 103.7903786  31.8712091
  22.6332664 124.4099331  44.3660355  22.8405881 123.7929058  45.0678349
  23.2888031 125.1018620  44.4540548   6.0837251 113.4437656  48.7763977
   5.8813518 113.2557964  49.6928835   7.0291764 113.5928917  48.7656021
  40.0214052  -0.0375290  77.2519684  40.6571770  -0.4540558  76.6701317
  40.4348373   0.7871323  77.5073862 111.4455575  89.9211597  76.2635851
 111.0430402  89.0857887  76.5010262 111.3045759  90.4806232  77.0273638
  81.5995473  91.4978981  68.7597418  81.7976922  90.5962181  69.0126038
  80.6590194  91.5884209  68.9128685   9.1007286 106.0309410  48.4723186
   9.9004430 105.5836105  48.7490511   8.4915167 105.9043026  49.1996813
  12.2628665  75.8707333  69.0913582  11.9355118  76.5036201  69.7305202
  12.4474275  76.3926077  68.3104515 121.6682843  71.9131279  68.3351660
 122.2502356  71.6704416  69.0553522 121.4177794  72.8174639  68.5239935
 107.1039707  84.6888542  45.9367514 107.1782774  85.0116730  45.0387001
 108.0021722  84.4755650  46.1896849 112.3944075  99.4300556  40.1351118
 112.7348036  98.6500454  40.5732393 112.2634918 100.0632763  40.8408880
 122.6782241  91.9811440  46.7500591 121.9798777  92.2489166  46.1526966
 122.8872719  91.0846806  46.4876032   3.6128977 136.6932964  50.4142809
   4.2248747 135.9629822  50.5057001   4.1530275 137.4746418  50.5325985
   4.5577160 111.7438221  89.5538902   4.5937303 111.7302513  88.5974693
   5.3819448 112.1520805  89.8188496  14.1025031 121.0160255  28.5992789
  15.0560951 121.0226917  28.6820436  13.9422977 121.1461639  27.6645970
  41.6702032 137.2923183  82.2148132  41.3298845 136.4321327  81.9688225
  42.3862553 137.4514103  81.5998363 106.3222474 120.5458736  57.4484873
 106.2128574 120.9100914  58.3268976 107.2041983 120.8108997  57.1874285
  18.2838249 125.1456261  65.3520584  18.2558668 125.5219841  66.2317133
  17.6398897 124.4377327  65.3738356  24.3119574 112.8073788  61.8922710
  24.3543625 111.8932724  61.6114616  24.8523593 113.2781601  61.2577963
 116.1269802 126.3651752  89.3063927 116.9027556 125.8423805  89.5091057
 115.9961922 126.2449169  88.3658314  15.1377988 102.7020931  64.5613098
  14.7057652 101.8518257  64.6427298  15.7278156 102.7439976  65.3138781
  33.0330563  77.3845100  84.6034336  33.2050872  76.8650007  85.3887653
  33.7279296  78.0427694  84.5947361  11.1513329 128.8128090  32.7771640
  10.7758403 127.9622746  33.0048227  11.6050220 128.6601925  31.9482446
 114.8404343  97.1813774  53.5184288 114.2961628  96.6240215  54.0746260
 115.7015414  97.1687603  53.9362431   0.2524954  89.8709774  53.5654783
  -0.2297191  89.4735146  52.8404140   1.1083409  89.4426918  53.5472584
  10.6424296  90.8357239  25.5526209   9.7271085  90.7910728  25.8290672
  11.1284363  91.0046577  26.3597703   5.5876464 106.3374138  97.3197556
   6.2634766 107.0152664  97.3209190   4.7747296 106.8093777  97.5004387
  16.1068892 110.4292393  88.9172649  15.5827379 109.6427345  89.0686131
  15.5327654 111.1520767  89.1704941  38.3396506  50.3712177  67.0094919
  38.1358433  50.6820774  66.1274147  37.4913955  50.1257992  67.3789072
   8.0008578 127.2851944  72.8971529   8.8605964 127.6143742  73.1592989
   8.1830144 126.4398861  72.4866676  38.2424355  98.0845833  49.3410683
  38.5542774  97.2990322  48.8917398  38.5655570  98.8102150  48.8069534
   9.4446468 130.0928020  66.1022377   8.5181499 130.3045368  66.2162638
   9.7861302 130.0241280  66.9938087 110.5086250  84.8639202  58.9699793
 109.8083968  85.1222897  58.3706856 110.4048271  83.9171886  59.0656471
 122.9238259 120.1666832  63.4694481 123.0086215 120.5184841  64.3556070
 122.2235883 119.5174217  63.5354948 108.8554067 113.1278419  49.8907232
 108.5065860 113.3815289  49.0362072 109.6837193 113.6022758  49.9617386
  59.0321636  80.9531021  95.0657082  58.1257296  80.9567451  94.7581482
  58.9611864  80.9333992  96.0200691 113.7166745  69.7059774  39.9088192
 112.8200633  69.3718767  39.9352312 113.6678357  70.5575848  40.3431129
  99.0948123  85.2283096  46.1531067  98.7441773  85.8823109  45.5484724
  99.8149366  85.6751919  46.5980291  24.0401793 106.1063099  87.8077030
  23.5343218 105.2964401  87.8744221  24.9350929 105.8159065  87.6315594
  10.4487062  82.7640915   9.4709722   9.7872853  82.1568203   9.1393415
  10.2008462  83.6123753   9.1032640  39.0311122  55.1304579  70.5366516
  38.8489580  54.2324781  70.2597284  38.1749320  55.4859257  70.7750416
  34.0957451  85.2340126  64.1345978  34.8494077  84.8014927  63.7331629
  33.3456373  84.9329281  63.6218452  99.0696163 113.8622284  67.1461582
  99.5849580 114.1688728  66.4000845  98.2184739 114.2871475  67.0401764
   7.4797457 110.1708412  74.0771151   7.8315109 109.4639015  73.5360765
   8.2524359 110.5882072  74.4578886  37.0549893  95.4960442  72.8532982
  37.8044701  95.7691288  73.3823872  37.3029637  95.7158279  71.9552803
 110.8247334  90.1874733  42.5199366 111.5819425  89.7062683  42.1863031
 110.9312446  90.1720524  43.4710646 121.9018987 136.0208130  47.2975922
 122.0732657 135.0849056  47.4021435 121.8344245 136.3534069  48.1926107
   0.5562412  93.0623150  21.5139484   0.3789587  92.1709347  21.8143559
  -0.1276017  93.5931587  21.9223571 116.5731311  85.3413773  68.5401154
 116.6168059  85.9068584  67.7690411 116.1246098  85.8702755  69.1999102
  51.5428972 118.0504227  79.8139429  52.2210026 118.5685444  79.3804026
  51.0065365 118.6955357  80.2747917  29.4965386 108.2980347  38.4602904
  30.0775146 108.8028908  37.8912425  28.6277890 108.4079456  38.0737329
  37.8706694  74.2165565  60.1760483  37.8089356  74.4769144  59.2570114
  36.9686937  74.2478085  60.4949474  47.4489546  78.0889225  65.9103394
  46.7125130  78.7002802  65.8990335  47.6677322  77.9946041  66.8374157
 116.6047264  84.4364357  77.0093107 116.9100470  85.0913048  77.6371193
 116.5741963  84.9018860  76.1734581  15.7691550 106.5674210  93.8443661
  15.2182472 106.0922718  94.4664383  16.6263735 106.1472321  93.9140415
  16.3489652 138.3827686  45.5438757  15.6635809 138.4742355  46.2057781
  16.5075803 139.2759228  45.2383327 119.0252847 110.8724880  95.8770943
 118.7627531 110.0718880  96.3313484 118.7622810 111.5794468  96.4663792
  49.3801594 104.1879559  52.7146339  48.6019707 104.3385506  53.2512617
  50.0859785 104.0567780  53.3477592   4.7627801 110.1173687  74.4574785
   4.2418709 109.6879387  73.7788963   5.6671351 110.0304413  74.1561174
 122.9237120  77.2733212  67.3887491 122.5833354  77.2798967  68.2833624
 123.6667018  76.6706228  67.4195957 117.6275945 114.3337822  85.1640129
 118.4764475 113.9203548  85.0066566 117.3415083 114.6298218  84.2998600
  28.4359694 122.4983883  75.6251287  28.9650798 122.1292019  74.9180412
  29.0648937 122.6865005  76.3217640  13.8204539 101.0622120  55.1984262
  13.7685859 100.1070690  55.1633120  13.4534979 101.3528633  54.3634987
 123.8921156 101.4300060  75.9665585 124.0265952 102.3530674  75.7518148
 124.5616891 100.9669590  75.4630852 109.1259343  83.3251953 107.2060394
 109.6762187  83.8416767 107.7948284 109.2606706  83.7199211 106.3444901
   5.1443589 109.9326420  57.9133606   5.2676886 109.1031170  57.4519491
   5.1972771 109.7011185  58.8406277 119.3617958  78.9252758  56.7341328
 119.8751999  78.9579153  55.9269238 119.8427249  78.3209705  57.2995996
  88.6722416  98.9348698  60.8560467  88.4105796  98.9828777  61.7755318
  89.1822309  98.1272221  60.7940054  12.5362670   7.9860764  58.1229115
  11.9192362   8.5208779  58.6224079  13.3759665   8.1140118  58.5642385
  20.4887128 120.6163597  66.7797327  19.9945128 120.1987839  66.0743093
  20.4585314 119.9857235  67.4991846  18.0636132  63.4938192  32.7381396
  18.5983682  63.9236879  33.4055877  18.4065783  63.8235140  31.9075322
 102.9439849 111.7069149  70.9915829 103.1503171 111.2812424  70.1594400
 103.7438435 112.1784496  71.2242079 115.2631516 114.3859386  62.7046824
 115.0571329 113.8531017  61.9366455 115.7530672 113.7980270  63.2796383
  99.7010703  89.3969822  83.8271809  99.2453260  88.7649632  83.2712364
  99.0234203  89.7317410  84.4145107 106.5088016 107.5988388  45.3728247
 107.1407766 108.1212711  44.8789549 106.8619234 107.5735474  46.2621450
 124.8658316  96.7073536  59.4466209 124.5058340  96.7660332  60.3316021
 124.1520292  96.9962120  58.8780451  24.1292143 134.8464584  79.0059996
  24.7773385 135.4556274  78.6523199  23.5868144 134.6102905  78.2534981
  17.3488271  95.8028793  60.5582094  17.6827860  96.3324928  59.8341846
  16.8984938  95.0729465  60.1331997  13.5143530 122.3310661  67.2365189
  13.3840156 121.7112350  67.9541922  13.0261731 123.1105709  67.5016403
 111.4062936  60.0103569  75.7945871 110.6851000  60.0500727  76.4227057
 111.8591136  59.1927433  76.0012150  39.4493604  88.3685589  88.6224461
  39.0877485  88.3830261  87.7363014  38.6975789  88.5363674  89.1906834
  11.1165380  98.3768749  42.6967716  10.9882236  98.3875084  43.6452723
  10.2819896  98.6795235  42.3387718  13.7394321 118.1555843  67.8883696
  14.6789420 118.1219959  68.0684376  13.4457517 118.9687538  68.2991457
 118.6866332 136.9112682  79.5038700 119.1720510 136.3768768  78.8753653
 117.7664656 136.7473030  79.2973804 117.9829896 140.4430008  66.3079882
 117.7396990 140.0780964  67.1588039 117.3902482 140.0192070  65.6872702
  20.1073885  48.8743114  45.5732775  20.2715397  47.9323959  45.5276346
  19.1892433  48.9699697  45.3201151  95.4965920  98.5207367  21.6748929
  95.1775522  98.9450645  22.4713802  94.7326488  98.0618858  21.3255024
 117.5049675  97.7062798 100.6278038 117.4063886  97.6307964 101.5769196
 118.2726974  97.1723366 100.4235363  20.2489877   3.6425286  95.7740021
  19.5526552   4.2918568  95.8726406  20.8290720   4.0126210  95.1085854
  59.0889978 111.8008900  20.6383657  59.0410709 112.6629257  20.2250576
  58.2006264 111.4515877  20.5675268  12.5434148 117.8064823  48.0160856
  12.3559439 118.7449455  48.0350876  13.4903693 117.7487755  48.1432867
  91.8601269 115.1992226  45.3186178  91.4081473 115.9796524  44.9978542
  92.0535845 114.6931648  44.5295000   6.0568309 132.9693031  28.2923770
   6.4819485 133.4277916  29.0171552   5.1666200 132.8038883  28.6028504
  23.1524849 120.7209110  68.3532524  22.7708030 121.0600853  69.1628885
  23.0614924 121.4386559  67.7265120 107.0091612 124.9929428  54.5409727
 107.8237373 125.4821301  54.6566725 107.1067924 124.5626163  53.6915493
  92.7915019 113.9121819  30.4583669  93.5876364 114.2868805  30.8352017
  92.4645538 113.3167553  31.1327648 123.8713681  98.9082432  64.0467787
 123.8181955  98.4832859  64.9028301 122.9869545  98.8355541  63.6879444
  31.1878562  86.6794872  26.2047195  32.0325804  86.2731552  26.3985348
  30.9047055  86.2660503  25.3891635  31.8205571  77.4730492  20.5267191
  32.3702860  77.9763412  21.1273265  30.9602189  77.4569082  20.9459877
 107.9923696 127.0661068  19.0466022 107.3188610 126.6058159  18.5458565
 108.7431902 127.1097183  18.4544885  14.1956127  96.1026669  57.9686642
  13.5344803  95.6206322  58.4654284  14.4716632  96.8056774  58.5567141
 109.1273028  87.7260399  24.1871214 109.4364697  88.3081436  24.8812366
 109.9248964  87.3391056  23.8260651  12.3698103 132.9575253  55.6686068
  11.8322515 133.7236786  55.4679394  13.0210257 132.9315853  54.9675512
   4.2947546 105.0894260  86.6511917   4.9315590 104.6441555  87.2101593
   3.6961311 105.5169964  87.2636127  29.5500422  98.4154224  65.4101801
  28.6472368  98.7293530  65.4614544  30.0016427  99.0707302  64.8783302
 116.3004161 112.9820824  36.7847538 115.5008722 112.4562359  36.7634273
 116.6206688 112.8947067  37.6825476   0.9586478 102.3639202  35.6439519
   1.5035731 101.8412876  35.0556111   0.4980590 102.9725742  35.0663447
  12.0751572  98.4375954  77.8523207  12.8055942  98.9320850  77.4805975
  11.3408971  98.6171246  77.2650671  26.4804339  78.7408209  35.7806325
  26.7410779  79.6614695  35.7541895  25.8320570  78.6552858  35.0816870
 108.7501485 129.5344353  30.8208466 109.1332752 129.3780231  31.6839695
 108.6060733 130.4802418  30.7905793  24.7614574 106.1403847  42.0954800
  24.6101570 105.7499218  42.9562235  24.4508147 105.4807663  41.4752960
  16.8849730  90.9256077  35.9538960  16.4733028  91.7438602  35.6760192
  17.6472700  91.2017345  36.4627099  14.6181059 119.9029446  56.0071659
  14.2389369 119.1646385  55.5303431  14.2891181 119.8053265  56.9007397
   9.8467803 125.8173561  35.9617805   9.2626667 126.5251827  36.2338448
  10.7271302 126.1678410  36.0973287 112.2724385  93.7748051  27.0152521
 111.6001338  93.0944252  27.0515919 113.0495555  93.3260822  26.6821337
  62.0572758 109.6545887  14.8687994  61.9955349 110.5989361  15.0124264
  61.1761808 109.3951988  14.5993185  23.1614065 111.3313580  31.6717601
  24.0795112 111.1529636  31.4680529  23.1938100 111.9722080  32.3820305
 120.3018907  89.8933601  40.3880692 120.6276850  88.9984512  40.2920580
 121.0759900  90.4439735  40.2704620  26.0459447 118.2524395  46.0566092
  26.9671774 118.4797287  45.9305143  26.0663795 117.4516106  46.5805340
  49.1107416 117.0753002  52.8698254  49.6332502 117.8684235  52.9889011
  49.7515678 116.3952160  52.6623011   3.8319635 126.4913940  39.6627903
   4.6634838 126.2632942  40.0784540   3.8394374 126.0129833  38.8337541
 115.8916379 101.0005474  35.8210301 115.3932459 100.8232689  36.6187811
 116.6950566 100.4901314  35.9221506  24.1916418  83.5198784  88.8583565
  23.5399032  83.8601398  88.2454205  24.9459553  84.0994930  88.7520790
   7.5237632 123.5321140  57.2954369   7.0341152 124.3321800  57.4861622
   7.7046049 123.5800266  56.3566971  45.8121634 121.1772156  34.5668292
  45.3681087 120.5830574  33.9618349  45.4814911 120.9306812  35.4306054
 121.0047898 117.9292870  53.5614777 121.7870129 117.5334167  53.1772327
 120.7294882 117.3091030  54.2366219  15.5257595 113.9293766  92.4813747
  16.1371779 113.1957054  92.5455475  16.0314727 114.6886539  92.7711868
  20.7039309  68.6480713  39.2170811  20.6961131  69.5251989  39.6002388
  21.5434456  68.2760859  39.4874096 124.4483692 118.9552402  47.3756695
 123.7899698 118.2749653  47.2343683 124.7911401 118.7785339  48.2517481
   3.8992941 112.4475288  46.8714428   3.6007494 112.9705334  46.1274242
   4.5590705 112.9937077  47.2987747  50.9199619  90.2904797  39.6805620
  51.3041878  90.9507942  39.1038609  51.6529322  89.7210026  39.9144101
   9.5181108 117.7963638  50.8931065   8.8228679 117.3113918  51.3377094
   9.0551060 118.4077930  50.3203773   6.2504220  70.6514025  36.9256997
   6.0497731  70.8899927  36.0206890   5.3955573  70.5861568  37.3513532
  99.4743556  89.8600101  55.1226854 100.2763743  89.7373581  55.6305790
  99.2984170  88.9998436  54.7413826  19.9722409 135.7858276  23.9885664
  20.5890512 135.4849625  24.6558404  20.1153994 136.7309570  23.9388084
  17.6767349  96.6047955  47.8434038  18.0512142  97.4546814  48.0751133
  17.5300705  96.6571617  46.8989563  18.1165600  68.8355637  36.1380553
  19.0343511  69.0012121  36.3535833  18.1394649  68.4811926  35.2491641
 111.7660076  80.7228756  36.8838358 112.0206983  81.5373421  37.3174334
 110.8109397  80.7071114  36.9456983  26.7005348 123.8458633  72.6556921
  26.5397406 124.7096157  72.2758245  26.3601065 123.9095116  73.5480452
   9.0792197  66.7023849  49.4599009   8.2687515  66.1932421  49.4477606
   9.7503966  66.0777187  49.7347593  14.5766282  79.9758387  40.7269430
  15.2335632  79.7889519  41.3975716  14.4395769  80.9215260  40.7828760
 121.3363389  95.2820587  40.6014442 122.0876635  94.7403049  40.3600883
 121.6110323  95.7296753  41.4016962 123.6776956  80.6185341  51.8569660
 124.1367641  81.3016987  51.3683271 123.9958501  79.7987366  51.4788914
  28.2047272  88.2187557  55.7980585  27.8368807  88.4759426  56.6435051
  27.4411941  88.0547619  55.2445698 117.9761631  76.3063717  58.7282419
 118.6349995  75.8217382  59.2255306 117.4418325  75.6284761  58.3144951
 123.1394692  82.3272133  40.3693581 124.0219767  81.9860554  40.2243567
 122.6216329  81.5583134  40.6078386 118.5374731  69.0777683  52.2728634
 118.6582524  69.7331858  52.9599380 118.7622673  68.2471180  52.6920509
  13.6043584  85.6574631  41.9014168  14.2323971  86.2716293  41.5211535
  14.1324329  85.0949192  42.4679089  33.0703568 122.2936535  28.5430431
  33.2354593 121.3699341  28.3540893  32.6830053 122.6372910  27.7379918
  81.1997051 111.0350800  60.9899044  81.8414754 111.7160320  61.1915541
  81.5263147 110.6282330  60.1873875  48.7975502 137.1470642  66.4222908
  48.1399298 137.8095531  66.6341257  48.5024643 136.3610744  66.8820524
  44.6286535 116.1102772  19.4187188  44.2773104 115.7219124  20.2199411
  44.3027258 117.0102501  19.4258952  19.2789197  65.7254791  44.9445486
  18.9945769  65.8072805  44.0342283  18.5139740  65.9840822  45.4585695
   1.8942511 126.6398907  36.7824030   1.3348921 126.3534355  36.0603952
   1.3535093 127.2585487  37.2734141  31.0922432 105.5073261  67.9903269
  31.8388700 106.1030769  67.9281712  30.9173012 105.4396820  68.9289713
  37.7015638  96.3556004  33.3127618  38.1932282  95.5371380  33.2447433
  37.6553464  96.6826153  32.4143410   1.8138644  87.7441311  86.8727970
   1.4202577  88.2740879  87.5659466   2.1680871  88.3832645  86.2545300
  95.4284377 101.9437981 108.9594356  94.6349949 101.4621162 108.7256382
  96.0575623 101.2649441 109.2035664 122.1848897 126.3147163  54.3493080
 122.6859360 126.3328743  53.5339212 122.4576153 127.1048927  54.8156548
   7.5699306 114.5841980  41.3656282   7.0882368 113.7612438  41.4490652
   6.9197190 115.2112675  41.0490274  34.9373412  89.8037243  56.2025642
  34.7157645  90.0313950  57.1055031  34.9306202  88.8466549  56.1883259
  28.6356473  41.8702459  38.0623221  28.3636451  41.3344812  38.8074446
  28.5539770  42.7718878  38.3731318  14.8059034  94.1618156  64.7964764
  14.4168901  93.5419655  64.1794777  14.0891492  94.7534180  65.0256252
  10.9372973  89.1897106  13.6724448  10.5701149  89.1318321  12.7903676
  11.8839586  89.2271328  13.5358322   8.3391631 135.1105785  60.4634237
   7.8626239 134.4983006  61.0240126   7.9019749 135.9509659  60.6006908
  19.1133428  95.9855556  70.0151396  19.0067089  96.7000198  69.3871212
  19.6382463  96.3633251  70.7208300 117.0777161  92.4636650  14.3967748
 117.8938825  92.9637337  14.3903923 117.0758963  91.9975090  13.5607600
  17.6979816 115.4416752  12.9035234  18.0672359 115.3003502  12.0317936
  16.7541301 115.3366566  12.7837384   5.9105533  91.1409187  30.6126976
   6.4198178  90.3421116  30.4755902   6.1865556  91.4561653  31.4733219
   3.3122557 118.4433460  92.1919537   3.2865831 117.4868202  92.1669483
   4.2342919 118.6544418  92.3386478  10.1226473 109.1122055  70.5480385
  10.6886029 108.3468056  70.4476023  10.3836393 109.6979618  69.8374081
  19.7295153 117.4575615  80.6168461  20.2498841 116.6569233  80.6833267
  19.6914423 117.6412296  79.6782064  48.1590033 123.5067558  55.2657318
  48.8997269 123.0494976  55.6638288  48.1573772 124.3684196  55.6825829
  12.9374564  95.3847790  26.9330406  12.7218652  96.2716770  26.6446638
  13.2451034  94.9436092  26.1412358  13.7741339 127.4526787  51.5862656
  13.2614374 127.3520279  50.7842445  13.4813356 126.7360401  52.1492290
 118.7326366 116.6580296  39.9274659 118.4798772 117.5714016  39.7929239
 119.2079360 116.4212418  39.1310644   3.4258160 118.1474400  60.2906227
   3.0851403 117.4991131  60.9069300   4.3518448 118.2307434  60.5181408
  13.3025658 115.0798416  70.2618504  13.9399314 115.0811291  69.5477104
  12.7323973 114.3346214  70.0726652  10.7462120  99.1622925  45.2556229
   9.8838681  99.1445255  45.6706858  10.9802365 100.0900650  45.2291870
 123.0656973 121.0637188  26.9988751 123.3332372 120.8779049  26.0988069
 123.8855576 121.2370014  27.4615145 117.8502256  79.9289417  74.9724627
 117.9358107  80.6607151  74.3613863 117.7053917  79.1656590  74.4133091
   2.8402251  84.8936749  59.7661161   2.3871025  84.0546131  59.8491240
   2.6313564  85.3597927  60.5756474  88.1546373 139.1460609  37.8028703
  88.7312788 138.4744644  38.1671095  87.2711224 138.8077068  37.9483175
  35.2891469  89.5437527  65.0461483  36.1623192  89.5458221  65.4383230
  34.8545480  88.7837887  65.4332066 122.6722612 122.0538998  50.6440830
 123.5666699 121.7351532  50.5229902 122.1286712 121.2677765  50.5916119
 112.1760876 111.1703205  29.8135018 111.6218752 111.6947842  29.2355537
 111.8568558 111.3664913  30.6943202  46.3023615  79.3561363  26.2543893
  46.6695547  79.7277355  27.0564580  47.0660830  79.0936899  25.7405043
  28.5262537  65.0492048  79.4133186  28.9578223  64.2090559  79.2579842
  29.0502644  65.4646349  80.0981998  20.4771495  80.8577824  42.9845953
  20.3475094  80.9560966  42.0413256  21.2929106  81.3252068  43.1642485
  23.0974936 115.2243042  92.3089027  23.1758928 116.1288643  92.6119900
  22.1581626 115.0425339  92.3379803  12.2194970 117.5767517  51.4124775
  11.2787414 117.6079178  51.2385845  12.4392593 118.4626579  51.7007542
   2.7769333  75.9933615  48.3055592   2.2296590  75.9690189  49.0904951
   3.6426997  75.7198143  48.6086273  40.2656269 122.4511337  53.8124847
  40.6484842 121.8418121  54.4436646  40.2395391 123.2892323  54.2741585
   9.4831872 104.5335484  34.9728203   8.7978125 104.7643757  35.5998874
   9.5145488 103.5770893  34.9935699 116.4254636 135.6119728  44.8542929
 116.3219393 134.7776413  44.3966818 116.9664086 136.1411381  44.2681265
 122.9124740  75.0171614   6.5671366 123.5195438  75.5195475   7.1105582
 123.4492505  74.3201017   6.1900282  40.8746672 130.2930069  74.5724249
  40.0818682 130.1304913  75.0835896  41.4812374 130.6968498  75.1930857
   4.0398809 114.1700745  75.4412699   3.7087765 113.2864952  75.6021595
   3.2570028 114.7206974  75.4291248   3.2586157  86.0462475  57.0741224
   4.1605502  86.2200546  56.8047953   3.2900247  86.0466480  58.0308056
  28.9945817 106.5708447  74.3298960  28.8972378 106.5900707  75.2819395
  28.3970857 105.8806992  74.0419292 124.9911788  95.2149200  42.3475981
 124.6460001  94.8396683  43.1577015 124.3760128  95.9141064  42.1263552
  19.2255878  84.6272755  49.8250055  20.1534796  84.5277023  49.6120930
  18.8462758  83.7657070  49.6516705  22.9722381 139.0289783  54.3867826
  23.8325500 139.3273640  54.6818399  22.5785851 139.7998142  53.9780283
   2.8726617  79.4347477  49.6743250   3.2080260  79.3623114  48.7807274
   3.3252355  80.1952457  50.0390863 111.5395767 120.8405876  61.4017439
 112.2461588 121.4743996  61.2781906 111.4342613 120.7813835  62.3512888
 112.1842915  98.4152126  36.0156155 112.6194579  98.1028080  36.8088770
 112.9008455  98.6469841  35.4247952   1.3011232  84.8229694  28.1030846
   1.1422404  83.9037037  27.8887558   2.2510539  84.9227524  28.0405831
 120.7521639 118.4426880  77.4177170 121.3775600 117.7416992  77.2340536
 121.1573890 118.9462948  78.1236935  36.7582679  95.6099892  48.7513876
  36.2525916  95.9206581  48.0003786  36.1604023  95.6943798  49.4941282
 118.0204952 106.3225555  71.4440107 117.5095922 106.7355156  70.7478237
 118.9275849 106.5549660  71.2455034 107.8422839  85.6974792   7.6267916
 107.1067197  86.1672020   8.0199093 108.5431404  85.7641506   8.2753187
 113.8778884 107.2996616  37.1727085 114.7100026 107.3135090  37.6455998
 113.7633390 106.3845921  36.9162726  17.6240456   2.7582341  76.7164660
  17.3012495   3.0360966  77.5736904  16.9070494   2.2436886  76.3458109
  24.7126126  89.9839687  54.3407774  24.0518093  89.2930603  54.2936802
  24.3996525  90.5680275  55.0315428  33.6896873  51.0625887  34.1931510
  34.2736149  50.3593874  33.9089513  32.9313827  50.6097841  34.5621729
 115.2054018  79.2644358  79.9677801 116.0875363  79.6186686  80.0799847
 115.3172547  78.5298204  79.3644047  15.6046391 104.5067310  45.9845781
  16.5443194 104.4692516  46.1629820  15.5447423 104.5932865  45.0331831
  31.3145947  74.4480133  87.5046444  31.6231680  75.3105497  87.7822113
  31.8827081  74.2152929  86.7702579  11.4506543  81.4133835  41.8883753
  11.5101075  81.5182877  40.9388018  10.5891550  81.7639256  42.1145964
 118.5163505  66.6972637  26.5244985 117.6712573  66.6633701  26.0762787
 119.1558451  66.4780521  25.8468342   6.8164635 142.0739937  62.9028225
   6.9638383 142.9910469  63.1342125   6.0050792 141.8405914  63.3538294
   1.3426720  79.3709230  15.6434107   0.9456702  80.2414989  15.6166482
   2.2650710  79.5218658  15.4369438 121.3417784 125.9810448  33.3626986
 121.2291185 126.2799549  34.2650270 120.5775527 126.3241100  32.8995609
 102.6373715  79.7413826  28.6851692 102.0532412  79.9591160  27.9587984
 103.0734200  78.9354229  28.4085417 106.4061660  94.0021038  37.1052098
 106.6724939  93.3778954  36.4301825 106.5966613  93.5574532  37.9311800
  26.4858270  89.5663071  45.8476782  26.9914436  90.3511429  46.0589075
  27.1459627  88.9034939  45.6448746  26.9388437 112.2660542  15.7845402
  26.8669915 113.0463696  15.2348340  27.5123453 112.5315189  16.5034664
  23.0526567 125.5019283  28.0894995  22.9416943 124.7796440  28.7077451
  23.4004879 126.2193203  28.6192155  52.9096746  95.2633953  18.0499876
  52.5666904  96.1315918  17.8382647  52.8795767  95.2205181  19.0057528
  43.8047266 119.9324226  38.4134173  44.3343830 119.5506477  37.7134609
  44.2120266 120.7812405  38.5861874  12.9396939 116.7815399   4.9473438
  12.8055799 117.5356674   5.5213952  12.1035242 116.3159561   4.9642491
  28.7121534 121.7355251  45.5989265  29.3750262 122.3579693  45.8979130
  28.7258101 121.8109608  44.6447992  25.6171584 130.9126282  30.6551743
  25.8652878 130.4597950  29.8491907  25.7037973 130.2487564  31.3392806
  35.9320545  92.9411793  63.5239315  35.6259847  93.8088226  63.2598495
  36.4953232  92.6565838  62.8042316  52.0348358  65.9435701  76.0072803
  51.4020538  66.2901306  76.6363382  52.8631020  65.9241629  76.4866829
  10.2620208 102.4459934  70.3396606  10.9834731 101.8542957  70.5532789
  10.5366719 102.8759384  69.5297623 115.8263016 115.5690289  47.6469707
 116.3310064 116.2898827  47.2703028 114.9274094 115.7306099  47.3604155
  42.2484303  99.6348381  87.3152733  42.2268772 100.2828407  86.6110992
  42.2581148  98.7908173  86.8638611 121.4842585  72.5969410  53.9482784
 122.3567941  72.9667139  53.8134480 121.6391013  71.6628933  54.0890360
  95.4939265  71.0164976  65.6826925  94.5972747  70.8209181  65.4106712
  95.5323548  70.7393694  66.5980911  17.5667095  79.0168667  64.2702389
  16.9358587  78.9908934  63.5508013  18.1818998  79.7078037  64.0245152
  34.4433618  83.7692165  45.0233459  34.1459227  83.5126495  45.8962345
  35.3955221  83.8274765  45.1022768 104.8008878  71.4719534  59.4721651
 104.2993063  70.9088373  60.0616980 104.1451687  72.0406055  59.0685558
  14.1950214 116.2401009  90.9170437  14.9909341 116.2349319  90.3853226
  14.3923295 115.6559849  91.6492271   8.9279813  93.9246750  71.8326426
   9.3183947  93.5543823  71.0410023   9.3149489  94.7971725  71.9049740
 104.7419447  48.9738894  46.3427734 104.6213407  48.3260250  45.6485415
 105.1243729  48.4796333  47.0678186  16.7566752  93.1557751  50.3933334
  16.4626658  93.6365128  51.1670732  15.9614801  92.7518845  50.0458193
  10.9936047 113.6339855  80.9013462  11.2490642 113.7821579  79.9908447
  11.7589319 113.8997555  81.4111233  16.7436755 108.3455276  20.3633404
  16.9875491 109.0474129  19.7599125  17.1725035 107.5661182  20.0100017
  31.3806534  81.9200230  69.9602127  32.1717691  82.4443722  70.0844097
  30.8758307  82.0544720  70.7622814  22.0030475  94.7503567  66.8631840
  21.2961030  94.2165279  67.2257996  22.7548480  94.1590405  66.8261242
  23.7303686 113.3411694 100.7867813  24.1856837 112.4992943 100.7995319
  23.2377481 113.3594894 101.6072845 122.2036741 128.4725189  39.4020891
 121.4023844 127.9732609  39.5598912 122.3401300 128.4138393  38.4564853
 105.2928395 136.5474033 102.5113114 105.2385468 137.4557114 102.8083744
 106.0235006 136.5408897 101.8929883  10.3907394 116.2258339  13.2547200
   9.5824742 116.6456795  12.9603302  10.1511455 115.7931614  14.0742457
  19.0933192 110.6771564  42.8055716  19.0463305 109.8751926  43.3260393
  18.8232863 111.3700104  43.4082842 118.1347794 103.7317562  54.7965956
 117.7302832 103.2853413  54.0527296 118.8566602 103.1591415  55.0558901
  62.4917793  91.4474297  29.8132372  63.4483910  91.4396095  29.7806358
  62.2555065  90.5728531  30.1223016  24.1712427 108.3315182  23.9816093
  24.7040653 109.0985870  24.1912317  24.2238092 107.7823639  24.7638440
   3.1892926  90.5678749  52.0431232   3.1630227  89.7352219  52.5145340
   2.8016534  90.3724575  51.1900234 112.0924253  79.9398232  42.7252960
 112.3747212  79.9436045  41.8106794 111.2589306  79.4692421  42.7167559
   6.3803285 102.1746063  87.6482582   7.1288776 102.5113392  88.1407166
   5.6547803 102.1939945  88.2723045 100.7567806  83.9586926  31.4458442
 100.4837293  84.5151329  32.1752620 101.1886281  83.2127857  31.8622136
 118.9102841 106.1340714  99.7604752 119.0833760 106.7714405 100.4533195
 119.7725034 105.9396172  99.3930531  41.9139004  81.6959572  12.5386477
  42.7812576  81.3058949  12.4301243  42.0087004  82.5876617  12.2038317
  35.4836941 108.1768036  38.5796070  35.7574725 107.6758480  37.8112864
  35.0290608 107.5401211  39.1311288   0.2868718  69.5858812   1.9494039
  -0.5315582  69.7763014   1.4909899   0.9361276  69.4937801   1.2521122
 122.5278201  99.7958946  50.3918791 121.7062852 100.1172829  50.7633924
 122.9850417 100.5855560  50.1027250 114.1867191 103.6112881  29.1528726
 113.7367434 102.8348351  29.4858432 113.5329873 104.0529728  28.6108541
  27.7430534 128.3285046  57.4385929  27.9098368 127.4265766  57.1648407
  28.5376501 128.5880947  57.9049253  18.0106926  88.9223576  21.5010118
  18.9319515  88.8472652  21.2522650  17.7099168  88.0172539  21.5819502
  96.7411513 102.0689297  24.0244985  97.3257107 101.7739105  23.3262944
  95.9146757 102.2589874  23.5805964 101.7140288 102.7880192  24.0330219
 101.8273181 102.3375320  24.8699546 101.6050572 102.0832825  23.3945084
 119.8583556  75.8500099  49.8952150 120.5485580  75.5256128  49.3167543
 120.3264267  76.2051392  50.6508780 108.8775534  90.6908989  20.4056001
 109.1504008  91.5706348  20.1451135 108.4699447  90.3243732  19.6209073
  11.9882143 114.7622395  51.5908718  12.4648464 115.4872131  51.9951773
  11.1484337 114.7421837  52.0497799 115.9697217 122.0695305  42.8352976
 115.9574056 121.4972496  43.6024857 115.1329309 122.5330925  42.8688192
 117.2420544 113.9390278  52.5618362 116.7754877 113.4739494  51.8673992
 117.8392411 113.2865620  52.9277277  10.2912748 117.5434971  24.0825939
  10.3392494 116.8207932  23.4567952   9.5626128 118.0810738  23.7722683
 118.9130939  85.5321980 104.5365294 118.2504768  85.6600857 103.8576963
 119.5828844  84.9910164 104.1185107   7.3746026  92.6776409  24.1416025
   7.0582515  92.8784275  25.0224185   7.1842796  91.7468071  24.0251517
  18.6410058 139.2180824  21.1888194  19.2960906 138.8506222  20.5954599
  18.8618660 140.1478577  21.2432432   5.9891117  94.8751545  61.2701893
   5.2673155  95.3625298  61.6673088   6.2258506  94.2202568  61.9269228
 124.6467315  84.9399185  13.2980430 124.4227109  85.6222248  12.6651967
 123.8231442  84.7503757  13.7475002  16.9412827 111.5771008  38.3798409
  16.3639784 112.2273159  38.7800455  17.7685797 111.6680241  38.8526440
  18.3992767 110.0181389  26.9347477  17.9663157 109.8875141  26.0911155
  17.8888464 110.7060242  27.3619533  36.6003585 108.2721424  24.0186405
  37.3787832 107.8323841  24.3605423  36.6064453 108.0758762  23.0817986
   0.2864423 106.1002350  89.7420216  -0.1175860 106.8963718  89.3968296
  -0.0455759 105.4001045  89.1800404   8.2313657 111.9320011  24.0482593
   7.8244656 111.2074471  24.5233297   9.1679943 111.8352032  24.2202711
  31.0783935  99.4019794 105.7884821  31.5153503  98.8632774 106.4481028
  30.3824306  99.8508167 106.2685021   1.3332963  95.1436424  28.5364056
   0.4528873  95.3969955  28.8137627   1.9147143  95.7323837  29.0176272
  56.8204641  96.1424828  11.7695081  56.6053009  95.4346371  12.3768663
  57.3124313  96.7705917  12.2983539  34.8614597  98.2674026  25.4543114
  33.9516211  98.5436535  25.5643892  35.3536415  98.8146877  26.0662508
 118.5550231  82.1507454  37.6170397 117.8063334  81.5761280  37.4573350
 118.8190145  82.4477863  36.7462301  39.0124297  75.3601360  22.9783821
  38.1676579  75.8039236  23.0535150  38.7940979  74.4796324  22.6729727
   5.3181642  66.9347334  20.4265857   5.9527123  66.8936157  21.1420512
   4.6739823  66.2592411  20.6386566  19.6024013 108.7407112  34.7706366
  20.2944279 109.1540813  34.2544389  19.4636536 109.3371201  35.5063534
 114.1844696 123.2145023  34.7074580 114.5582849 123.5721779  33.9021206
 114.4270975 123.8455772  35.3850317   4.2926115  81.6236591  41.1823416
   3.3903843  81.4182663  40.9373379   4.5952561  82.2236061  40.5006456
 122.3271724 129.4486618  64.3374586 121.9605882 129.8138332  63.5321665
 121.8692104 128.6161232  64.4530964 106.0556991 123.9357567  25.5516648
 105.4706854 123.7687397  24.8126841 105.5165297 124.4157696  26.1802459
 119.6794576 122.5197315  55.4395914 119.6500570 123.4083366  55.0849628
 120.4731852 122.1382904  55.0644588   0.3927167 101.8107605   5.2157027
   0.9534773 101.2972069   5.7971203  -0.4863929 101.7107677   5.5809408
 120.3339482  86.5556526   8.5257387 120.5196423  85.6389809   8.7293434
 119.6703303  86.5183258   7.8369349  22.0555282 122.6898479  23.5300922
  22.2526336 123.4090805  24.1301656  21.1058283 122.5843620  23.5864234
  26.0125852 102.3252392  29.4838953  26.1057734 103.1990623  29.1044593
  25.8431745 101.7552376  28.7338066 121.6775436 118.7660313  41.7727041
 120.8048750 119.0467834  41.4972734 122.1229038 119.5764160  42.0200300
 116.7740679 126.1702347  22.1284103 117.5534040 126.0704041  22.6751304
 116.0736138 125.7552433  22.6317811   2.4393214  96.2994385  37.2666764
   3.1915635  96.8908024  37.2411609   2.4552409  95.9295940  38.1493950
  29.8744631  68.1295538  46.8774033  29.4144082  67.9875469  46.0501099
  30.3573298  68.9455128  46.7459440 120.2646265 130.1078320  10.8951986
 120.6573678 130.9564972  11.0995030 120.5805565 129.5252228  11.5858448
  15.5102968 102.4526978  29.2888021  15.4604006 101.5450573  28.9889312
  15.8514225 102.9353046  28.5358334  13.5126066  89.7103691  54.2676783
  13.6503315  89.7650337  55.2133417  12.9780722  90.4764462  54.0588093
   6.0474098 119.7754765  29.3023396   6.1742955 120.4801369  29.9376154
   6.4596063 119.0117931  29.7062206  43.9446926  78.8646126 101.7626187
  44.4512320  79.3582058 102.4076101  44.5803690  78.6322880 101.0857352
 114.8434431 124.9799156 105.4466676 114.1669530 125.6533241 105.3751495
 115.3163374 125.1997757 106.2493297  17.8656709  90.7297707  23.3944726
  18.0624020  90.0870419  22.7129793  17.2922909  90.2648544  24.0038323
  42.4372673 112.3450851  21.6278338  42.9204226 111.5282536  21.5030026
  42.2417450 112.3669434  22.5645971   9.0914404 102.9163265  30.9175849
   9.3422270 102.5764751  30.0586128   8.8439715 103.8260937  30.7522869
  21.5048552  84.2364502  42.2450304  21.6039062  84.5993137  43.1252337
  22.3294425  84.4448376  41.8058681 111.1649544 132.1615982  34.7646713
 110.5543274 131.4245319  34.7544456 111.2093932 132.4484825  33.8525581
  30.9547448 120.2078819  42.5760269  31.1132431 119.4355202  43.1187725
  31.2253952 119.9425793  41.6970491 112.4122364  77.2173071  15.9962916
 113.1326503  76.8896055  16.5346670 112.7603001  78.0094147  15.5868411
   4.7468793  97.1208954  22.3175764   4.7699437  96.4319801  21.6534352
   4.7107416  96.6499043  23.1500936   4.8890013  83.5286808  21.1827445
   5.7107311  83.5292912  20.6918359   4.6781823  82.6018429  21.2957168
   8.4451067  58.3564901  22.3090696   8.7685066  58.5136652  23.1961679
   9.2362130  58.2833242  21.7751884 109.1970152 128.2339191  43.8109684
 109.8533852 128.9291859  43.8558197 108.4020788 128.6317348  44.1660070
   3.4634054 111.5971565  21.3782072   4.3648171 111.8408489  21.5886903
   3.0767810 111.3587475  22.2207713 113.2438344  95.3212643  36.8526006
 114.0052206  94.7632122  36.6941810 113.5799951  96.0379696  37.3907137
  87.9632468 136.3696384  41.8826342  88.0520243 136.0608768  40.9809589
  87.7720780 137.3037434  41.7982054 108.0447680  61.6320181   2.6148963
 108.5846300  61.3229418   1.8873985 107.4073703  60.9316969   2.7545625
  37.8299665 117.2807884  63.7163258  38.3060718 117.2044754  62.8894424
  37.1721792 116.5864182  63.6789274   8.5182804 122.0913601  18.2887888
   8.8197505 122.5474072  17.5030613   8.7114835 122.6957226  19.0054810
 108.8715941  80.7127380 106.9483536 108.5023529  81.5586090 107.2021192
 109.8183233  80.8538818 106.9519778  28.0950165 118.9218330  84.5256623
  27.2448277 118.5041809  84.6634086  28.5049438 118.4070396  83.8305505
  40.7622814  82.1218395  62.9808998  40.5397272  81.4965153  63.6705875
  41.3818741  82.7233696  63.3938122  19.8360598 109.2894650  70.0115728
  20.1238942 108.4940624  70.4595804  19.4399714 108.9763355  69.1983747
   8.2855117  98.6561966  13.2878888   7.9048854  99.0763855  12.5166583
   7.6832646  98.8719368  13.9999211   0.0875011  91.9181633 100.7662352
   0.8150172  91.4511013 100.3553750  -0.4715218  92.1813488 100.0351717
  10.5712628 101.7323780  41.6572762  10.1989532 100.8510494  41.6867638
  11.2763298 101.7163181  42.3044682  37.0926738  85.3941345  29.9454808
  36.4426446  85.7153034  30.5704165  37.2481036  86.1349392  29.3595815
  21.6834354 111.9444084  35.5034590  21.3722205 111.7869091  34.6120715
  21.0936499 111.4325809  36.0570025 123.1857351  88.7486839  12.8897798
 123.8580449  88.6743164  13.5670531 123.4206351  88.0815315  12.2448325
  81.8343753  99.8633099  20.5458474  81.3466758 100.5965519  20.1707101
  81.9140071 100.0789928  21.4750266   1.5689914   7.5972634  28.5579872
   1.1655034   7.2806816  29.3661976   1.1500758   8.4426098  28.3963156
   0.0753948 101.9558430  78.6627579   0.3762330 102.7811146  78.2824183
  -0.2141968 101.4375782  77.9119110 102.8411002  99.8563766  90.4070982
 102.5930209 100.4520988  89.7001346 103.6017079 100.2712154  90.8140548
  20.6019759 102.8125572  16.5874040  20.6377602 102.5745487  15.6609571
  20.4042006 101.9916058  17.0381331  33.1883907  75.4313040  44.5764494
  32.2922468  75.4714012  44.9104404  33.6965752  75.9621048  45.1898289
 111.6315944 111.8434525  52.3512316 110.7528574 111.4867401  52.2215939
 111.6173608 112.1981621  53.2401705   8.6076844  91.2755108  40.7872772
   9.5464677  91.2469864  40.9719563   8.3888894  90.3827572  40.5201674
  25.0539613  79.1172552  46.0239935  24.2463923  78.6980629  46.3212109
  24.8841643  80.0549793  46.1138391 119.5856304  92.2034454  12.1784449
 120.4575414  92.0187187  11.8293297 119.7405548  92.4551773  13.0888605
   7.3382801  88.8259888  19.9820423   7.1323019  87.8912926  19.9942255
   6.5467936  89.2500114  20.3136873   5.8921617  61.3938904  40.5405998
   6.0374045  60.7570410  39.8409200   6.5185577  62.0948505  40.3602791
 113.9162917 113.1172276  34.4779420 114.8279679 112.8259373  34.4930458
 113.9705736 114.0716934  34.4302440  41.0726738  95.8514977  13.8863266
  40.8980942  96.4226437  13.1383002  41.5306997  95.0991917  13.5115075
  15.7400429 110.8852577  61.8617439  16.1164975 111.5438271  62.4455261
  15.6015825 111.3485622  61.0356617 114.2665810 111.3454533   7.6926637
 113.7267322 111.7419720   7.0088714 114.0301616 111.8198776   8.4896982
   7.4399424  75.7243109  22.8193355   6.5166914  75.9087610  22.6466584
   7.7765077  76.5310860  23.2092977  19.0494132  91.5162086  10.4595625
  19.2474687  91.5378761  11.3957977  18.2062232  91.9627094  10.3827262
 104.9004716  84.7424316  58.8381386 105.4200537  85.3890991  58.3605528
 104.2050404  84.4962311  58.2282257   7.3311234 105.7212448  50.5740547
   7.7401066 105.5538654  51.4231443   6.3983035 105.8079052  50.7704449
 113.1025595 112.9389477  13.5405302 112.6654632 112.1660519  13.8980329
 112.5572903 113.2007980  12.7986753   4.6825823 119.0973854  57.8246021
   4.2455116 118.5289192  58.4586716   4.9403688 118.5100174  57.1141291
 106.3573772 125.9238815  41.8242788 107.1166021 126.4110851  41.5042257
 106.1827821 125.2765942  41.1410761  97.2099871 105.4344559  99.3090566
  97.8123683 106.1742401  99.2309817  97.5215048 104.9516964 100.0746449
  99.6683139 132.1979809  26.9960451 100.4784889 132.6858902  27.1436834
  99.4309992 132.3962688  26.0901785  23.5917115  79.5178318  15.8996475
  23.7945509  79.9528074  16.7278278  23.8892031  78.6164856  16.0233641
  49.5852423  93.6389160  23.0938363  50.0400066  93.2051754  23.8158393
  48.6596298  93.4465790  23.2437658  20.3438139  66.2249756  11.5642250
  19.4411838  66.4971495  11.3986504  20.3094530  65.2683973  11.5637517
  23.9013767 112.5696278   6.3840246  23.1835461 112.4513149   5.7619697
  24.6465015 112.1278667   5.9767461  14.9429965 117.5714016  17.0614016
  14.2489946 118.0857372  16.6490269  15.4740953 118.2165718  17.5282300
  19.1856194  93.7243366  33.8024259  19.6836388  93.0817318  33.2971764
  19.7397017  93.9155197  34.5591784 110.7311994 129.8907852  16.4801669
 111.3513143 129.7641850  17.1982634 110.7920141 129.0854359  15.9664094
  28.9979887 131.9839668  29.2300892  28.8844967 131.4678288  30.0281835
  29.5656300 132.7087307  29.4922638 109.5401270 109.8557758  12.9169631
 109.4632084 110.5346584  12.2465646 108.6358637 109.6478558  13.1521404
  18.4450495 119.6834183  43.4804201  18.5933101 118.7396526  43.4207678
  19.2501986 120.0284386  43.8663387  13.7240839 116.2080097  60.5735540
  14.2200148 115.3985691  60.4507208  14.1959500 116.6757870  61.2625837
  91.1135024  86.9843197  34.2135549  91.9340009  86.5668201  34.4756770
  90.4313583  86.3953114  34.5360160   9.0431827  39.9677467  15.2017772
   8.8183510  39.2349887  15.7751441   8.5418630  40.7057667  15.5485296
  41.3229609 141.6916370  85.1420116  40.9597397 141.3636780  85.9646606
  41.6237736 140.9071541  84.6833992 111.1272306 110.6142998  22.0475078
 110.2131087 110.3675842  21.9069862 111.3928718 110.1182461  22.8218484
   6.5957153  70.7920074  56.8981743   6.1487079  70.3246450  56.1924934
   6.6379946  71.6991138  56.5955019  29.8953700 109.7377682  32.3656368
  30.5230403 109.0948582  32.6956820  30.0414777 109.7514248  31.4197516
  11.3496506  71.6532183  15.5375135  11.2180376  71.5224075  16.4765549
  10.4661536  71.7562723  15.1838970  10.9365022  93.5762024  13.4132934
  10.0490391  93.7391376  13.7328148  10.8443904  92.8306007  12.8201449
 121.8891967  75.9296322  82.4392971 122.8361828  75.7960129  82.3993572
 121.7683939  76.5834332  83.1279048   3.8860676 132.3225784  14.1759765
   4.7672984 132.3151970  14.5496202   3.8455114 133.1366539  13.6741221
   6.0000110 121.3976669  34.6334028   5.5827093 120.5364609  34.6539545
   6.6429758 121.3692284  35.3419352 122.1362028 132.3865986  11.9690692
 122.8062756 131.7047310  12.0168900 122.4836741 133.0202675  11.3414013
 122.5462031  71.4788055  22.5120831 122.0258547  70.9064198  21.9483066
 122.7178863  70.9534883  23.2936168  13.2154155 134.1265297  37.9008651
  12.8451085 134.9139214  37.5019598  14.0815067 134.0408230  37.5024056
 114.1384441 108.0067539  25.8271265 114.8942000 108.1138325  25.2495456
 114.5172805 107.7986717  26.6811872 107.4170691 129.7894764  17.0034242
 107.2148795 128.8824940  16.7737961 108.3723742 129.8155499  17.0576918
 122.4940868 110.9643078 101.2935957 121.6209463 110.8213329 100.9283324
 122.9006893 110.0977707 101.2884655  30.7729840 130.2439308  11.2224674
  30.1032233 130.3921604  10.5548763  30.3100872 129.7967815  11.9309974
  18.2452464 103.6651230  55.3762197  17.9873836 102.9838562  55.9972000
  17.5923276 103.6125660  54.6782494  13.4056771  92.6093769  70.2352762
  12.6945806  92.1199322  69.8217297  14.1680479  92.0358086  70.1575899
 103.5961909  78.8488913  47.7177334 103.1592650  78.2087231  47.1560287
 103.8979358  78.3405209  48.4705544 114.6398718  88.6637688  16.0309982
 114.4092924  88.0549812  16.7327368 115.3502036  89.1916656  16.3956714
 123.1585502 116.7173290  -0.1230071 122.9869614 116.3615608   0.7488964
 123.8637561 117.3505020   0.0111925  20.6582355 119.3882084  32.0011115
  20.3874278 119.3836498  31.0830283  19.9969459 118.8602257  32.4485087
 122.2947424  81.8108940  48.9710188 122.0925055  82.0956326  48.0798101
 121.5610871  81.2462997  49.2143631   1.8597639 107.2579575 102.1108266
   1.3778739 108.0696011 102.2696837   2.7745944 107.4864006 102.2755274
 105.3679354 103.7002468  22.2370458 106.2610132 103.6167336  21.9028807
 105.0803370 102.7985191  22.3798561  15.0465572 100.0011921  27.7056670
  15.3054035  99.1560650  28.0730796  15.8063006 100.2838612  27.1966290
  25.8884525  90.3596210  30.2846479  26.7477393  90.3655910  30.7063389
  25.2961636  90.7233906  30.9427524  19.2517209 100.8871078  90.8375072
  19.5814312 100.4006577  90.0819302  20.0373840 101.2323666  91.2614918
   6.3886029 103.1727409  68.5201359   5.9326524 103.6712742  67.8420448
   7.1870399 102.8622818  68.0931139 111.8952579 130.8970737  55.1073790
 111.1006827 131.3425446  54.8133802 111.9644267 131.1186600  56.0360050
  12.5549805 136.5689850   4.4353685  12.9600012 135.7042027   4.3694520
  11.6656709 136.4428043   4.1045544  31.6629362 108.0131817  35.6700134
  31.0867500 107.6475430  34.9987841  32.2929144 107.3155594  35.8508039
 108.6421949 105.3837299  11.0091615 109.2570705 104.6860886  11.2359881
 108.6805100 105.9873390  11.7510676  15.0783432  51.5381193  70.4185772
  15.2061391  51.4580584  71.3638210  14.8957896  52.4673891  70.2794218
  15.2446389  87.0842075  44.4392014  14.3658125  86.9541931  44.7955656
  15.5639124  87.8759766  44.8720884 111.5321905  78.9990139 100.6325974
 112.1078581  78.3142281 100.9730490 110.8894522  78.5292578 100.1011356
 115.1119733  77.8620720  33.7480378 114.7034497  77.0700073  33.3987951
 114.4153578  78.5183287  33.7309957  22.0174551  80.1390839  25.8057880
  22.1021080  80.4209995  26.7166066  22.8419185  80.4013729  25.3962731
  19.8987234 119.4447422  29.3721294  19.9092412 118.6751270  28.8030863
  20.0064516 120.1853466  28.7753582  27.5106716  90.1666451  28.1159401
  28.0698848  90.0858116  28.8885832  26.6186118  90.1360416  28.4616590
  11.0496283  93.8320637  99.8779687  11.6841936  94.3408012  99.3732544
  11.1077976  94.1883564 100.7644805  28.0858612  79.6152449  15.1956046
  28.9820910  79.3453979  15.3960681  27.6027918  78.7937689  15.1058590
  92.0626611 115.8841515  62.4518442  92.8070349 116.4267349  62.1915627
  91.5009112 115.8606720  61.6771698 107.7518720 138.4482002   5.3992540
 108.0604226 137.6301765   5.7889599 106.9238884 138.2158947   4.9788880
 100.6743855  85.3995800  33.8947153 101.2087078  86.1319351  33.5874915
  99.8557753  85.8042049  34.1817498  18.8843131  82.0041847  47.2288322
  19.2367315  81.8054676  48.0963278  19.2329264  81.3138485  46.6647959
  34.2201281  78.6865425  43.6770391  33.2702875  78.5781908  43.6291456
  34.4526243  79.1259003  42.8590298  47.4769020  88.9578819  21.6778302
  48.0892563  89.6372128  21.9602656  46.8061876  88.9411449  22.3605371
 123.9123605  83.3244610  43.6705875 124.5537374  84.0337753  43.7123394
 123.6316363  83.2017040  44.5774269 102.7645821 110.3831768  46.1562443
 103.4963173 110.9145546  45.8424950 101.9855112 110.8919239  45.9316015
 114.3228931 117.8014946  19.3307340 114.9991686 118.4578228  19.4983900
 114.3102998 117.7084923  18.3781457  15.4403460  77.8870964  29.2149115
  16.2983227  77.5486422  28.9588666  15.1372504  77.2832060  29.8929119
  27.9336953 124.9935818 104.6178844  27.3800993 124.9261570 103.8399281
  28.8028908 125.2028561 104.2759212  91.0018486  97.6718044  10.5499375
  90.6460971  97.8011227  11.4291143  91.0742540  96.7217731  10.4582047
 105.4938096  90.1064301 101.2533917 104.6181840  90.3635406 100.9645894
 105.9633858  90.9336948 101.3599952 114.9785776  99.9082088  97.7849635
 115.8384473 100.2126122  98.0751177 114.7580237 100.4793739  97.0491990
   2.4042591  90.4622364   5.7597524   2.3460415  89.5429325   5.4995281
   1.5630370  90.8382607   5.5005574  32.2012901  92.3793316   7.8760308
  31.7842650  92.3239613   7.0162314  31.8537474  91.6298676   8.3595097
 124.4701191  92.4299240  87.2719582 123.8078031  92.8627968  87.8106483
 124.1894879  92.5918007  86.3712510  39.1201830  77.7136374 101.2708434
  39.4928598  76.9181490 101.6510322  39.8597884  78.3179283 101.2072214
  35.2175856  98.6868858  20.4736233  35.4059887  98.4463882  21.3807607
  34.3026686  98.4368515  20.3446269  26.4482498 115.7047176  47.4569654
  26.5556216 115.7175636  48.4080362  27.3003101 115.4235840  47.1235132
  16.8400478 122.2962856  31.7257905  17.2075725 121.5352058  31.2764359
  15.9030390 122.1099567  31.7851996   4.8560986  99.2524624  32.0551157
   4.8924327  99.9851799  31.4402699   5.7594413  99.1444588  32.3526740
  18.6438560  65.5987358  42.4069643  18.8683105  66.1221123  41.6375923
  19.4171357  65.0561428  42.5614357  17.9915357 134.1658592   7.9515392
  17.6582265 135.0611401   8.0115217  17.8527272 133.7995911   8.8249296
 118.9830411 110.8933449  62.2137594 118.8472659 109.9909210  61.9249344
 118.8881225 110.8570480  63.1655502   2.6749927 105.1956558  18.3008587
   1.7933244 105.0646496  18.6497545   2.5927109 105.9518433  17.7197802
 124.2472951  61.8472242  48.9496326 125.0173409  62.4065781  49.0515232
 124.2933984  61.2394476  49.6876764  11.5208066  79.2880297  45.0061178
  12.2756708  79.2680454  44.4178915  11.7788529  79.8870993  45.7066584
 116.2479520  95.6347942  11.6894174 115.8408851  95.6917286  10.8249605
 117.1314711  95.3092957  11.5171421   2.1235690  90.6048584  90.3252979
   1.9708250  90.1728058  91.1656758   1.3013189  90.4965782  89.8473736
 106.3851005  88.2690811  99.6008643 106.0010285  88.7107468 100.3582593
 106.3988311  87.3435879  99.8448255 118.0783272  91.2729740  82.9164728
 118.8720853  91.6736889  83.2708820 118.2212318  91.2547112  81.9701751
  22.5172377  80.2375793   8.3821827  22.6939750  81.1371231   8.1068355
  22.0757031  79.8397827   7.6318252 115.6780357  87.5426292  35.5288529
 114.7338224  87.6803303  35.4531503 115.7832277  86.5913296  35.5148506
 116.0269333   9.0902691  15.0184000 115.1824827   9.4524460  15.2866697
 116.3937843   9.7492295  14.4289684   8.1731224  92.1697235  91.3208672
   8.2688767  92.0275116  92.2625872   8.1867778  91.2902737  90.9432169
 107.0971269  93.2396126  93.7241002 107.6915867  92.8308392  93.0950137
 106.2272806  92.9371643  93.4631010  30.7919550  86.0662746  11.6893303
  31.1503386  86.1688709  10.8077037  30.3338122  86.8894291  11.8589318
 110.5116469 109.2459774  99.7204157 110.8788068 108.9636517 100.5581030
 111.2743647 109.3820858  99.1583046  13.7539840 135.1430702  12.6190710
  13.9117920 135.6281662  13.4290123  12.8411257 135.3312874  12.4011409
  13.5195649  80.5015659  31.2147856  13.3378148  81.4339066  31.0967493
  12.7354527  80.1569176  31.6421247  36.0005665 115.7553482 104.0339311
  35.9251595 116.1941719 104.8812645  36.5712881 115.0056076 104.2024418
   2.0923834 114.0847492  21.1753559   2.0462790 113.8891029  20.2394986
   2.7716130 113.4988117  21.5093589  36.1530304 122.2489548   0.0582694
  36.0255361 123.1739998   0.2686460  36.3959718 121.8451214   0.8914164
  11.7456019  68.5402584 104.6787151  11.1253691  67.8682327 104.9614253
  12.1570480  68.8423204 105.4884695  31.5192175  99.5424843  80.8278569
  31.6962147 100.4123688  81.1859235  32.3559856  99.0821552  80.8922681
  23.4428906 119.0811348   5.8615977  23.3103228 118.1466770   5.7020807
  22.8706074 119.2812157   6.6023344  14.3269777  98.0482101  98.2743319
  13.5039294  98.4912300  98.0680343  14.8133004  98.0502987  97.4498817
 117.2551746  78.3226919  60.3131676 117.2244108  79.0696955  59.7154522
 117.2666372  77.5568724  59.7390461  54.6088314 119.7654247 107.1428334
  54.2687273 119.0397167 107.6661905  55.5535126 119.7492599 107.2962635
 114.6656293 109.7702217   0.2576564 115.5699403 110.0810146   0.2145336
 114.2010970 110.2935696  -0.3954451  36.8859696 131.9294739  11.2353611
  36.1542940 132.5182915  11.4202476  37.0716429 131.5074444  12.0741975
   0.3538835  75.8010149  12.6354599   0.9579644  76.5202141  12.4508858
  -0.3611592  76.2083101  13.1243932 106.5335519  89.0113735  95.2240785
 105.8952028  89.2418957  95.8990618 107.2458429  89.6395493  95.3435227
  19.1514933  48.1544781  35.4389477  18.4562206  48.3118200  36.0777521
  18.6966038  47.8130674  34.6690488 119.5181978  86.6391468  24.8886108
 119.4634075  86.6258335  23.9330745 119.1551167  85.7964420  25.1611042
  16.1722827 120.5684948  44.2114067  16.9234443 120.1324081  43.8091421
  16.4733088 120.8029556  45.0892687 120.6545523  90.2016926  99.1836687
 120.8911193  91.1276913  99.1308483 119.8465521  90.1898003  99.6967241
  41.8970537 106.0592175 105.2778598  41.3019609 105.5395412 105.8182591
  41.3200998 106.5838051 104.7227331 103.0308813 136.2672710 104.6930876
 103.0404157 137.1182251 104.2548945 102.3825426 136.3642788 105.3905671
  10.0622356 110.9183311  20.6993246  10.4938269 111.7147827  21.0085392
  10.5973673 110.2052402  21.0477114 112.4438066 102.4998093   6.9702846
 113.4009678 102.4997139   6.9788563 112.2092456 101.7618752   6.4075571
  21.8747258 146.1955261  73.0956634  21.6345000 147.1042824  73.2764491
  21.5911460 145.7137203  73.8726267  15.9849238  75.3201532  78.5065373
  15.5179906  75.1185513  79.3174394  15.4385412  74.9449873  77.8159245
  10.3932440  89.8316193  29.8969650  10.1971674  90.7504177  29.7136402
  10.6978762  89.4801807  29.0603518  29.3917108  89.4439220 104.9371185
  29.4504285  88.8461208 104.1918536  30.2364969  89.3593121 105.3791695
   6.8561578  51.9690514   1.1611708   7.0224833  51.1886978   1.6899587
   6.1737418  52.4408865   1.6385691  14.0823209 124.8289776  48.6237907
  14.5359921 125.2963543  47.9223871  14.7757173 124.5862484  49.2373991
  26.6463780 100.4689026  36.7166448  27.3549771 101.0736847  36.4967227
  26.9792914  99.9713612  37.4635386  17.4723446 117.1602440   6.5873355
  16.8891704 117.6851654   6.0390723  16.9094288 116.8289280   7.2870404
 105.4121513 118.2534885  22.8078103 105.9855587 117.6533413  23.2845259
 104.7871775 118.5601997  23.4647512 105.2363498  87.3577118  88.2137259
 105.0245006  87.4038792  87.2814044 104.6867198  88.0291939  88.6177715
   6.4225668  58.5988951 108.7335191   7.0843810  59.2869282 108.6639197
   6.1219382  58.6466551 109.6410284  16.1544538  85.0503349   2.6020986
  15.3225195  85.5160046   2.5168353  16.3131678  84.6823883   1.7328121
 117.7668149  95.4149914  31.9600534 118.5650474  95.7745075  31.5730071
 117.3879624  96.1452389  32.4493694  22.8178453 100.5945301  16.1362875
  22.7822304 100.8037376  17.0696676  23.2246065 101.3620472  15.7341599
  16.7441297 124.9076939  10.0203407  15.8465898 124.7473335  10.3117859
  16.9945943 124.1048241   9.5632857  14.4431555  73.7631178  11.1177504
  15.0290930  74.0297747  11.8261313  13.8024807  74.4717216  11.0573053
 121.0535089  63.0491018  15.2759540 120.5173594  63.5777998  15.8669305
 121.9086078  63.0043936  15.7037842  11.2910306  84.5344543  91.5877052
  11.5327334  85.3322220  92.0582100  11.6807127  83.8264751  92.1006807
  92.8720207 113.9220810   3.5958159  92.8835077 114.8791504   3.5850075
  93.7282199 113.6762142   3.9461040  11.0557103 109.3833256   2.4717516
  10.1362181 109.2760372   2.2283314  11.5252745 109.3883133   1.6376555
  54.9809694 123.9612579  14.9169075  55.4767418 123.8302898  15.7251704
  54.3029881 124.5948219  15.1517785  92.4918146 113.8241863   9.7072136
  91.6454882 114.2396545   9.8726088  92.7600712 113.4797192  10.5590403
  39.3844533  79.8191690   6.2259805  39.3130875  80.7713795   6.2925595
  39.7139430  79.5432901   7.0812941  34.3277621  82.6384544  47.9745626
  34.7878599  81.8008804  47.9195786  34.7870612  83.1192780  48.6630964
  42.6108742 120.2734184  34.6267009  42.9068756 119.4269466  34.9615049
  42.3513842 120.7623959  35.4076004  48.7952757 102.4607849 105.7857528
  49.5073414 103.0451965 105.5256342  49.0190029 102.1925640 106.6769519
   3.2318357 100.6489086  87.1617612   2.9884094  99.7292423  87.0559725
   3.9599770 100.7754421  86.5534576   2.4529447 105.9569359   6.1824048
   2.6470360 105.6312084   5.3035069   3.3065397 106.0092449   6.6123712
 123.1660487 102.1448708  27.1898699 122.7940804 101.3933277  26.7282939
 122.4653795 102.4393463  27.7717471 123.2698130  85.7422447 109.6826353
 123.0825177  86.2848282 108.9166378 122.5932249  85.0653076 109.6678652
  19.1498995  81.6584969   2.7602577  18.6398816  82.2290421   3.3352235
  18.4996998  81.0867405   2.3521282 118.4852464 119.6849823  88.3169588
 118.1365765 120.4628277  87.8815135 119.2949010 119.4891930  87.8454097
  91.7296500 116.0069370 108.4763283  92.0627016 116.0472679 109.3728118
  90.8227271 115.7156849 108.5706269  14.4947100  50.7784891   2.1290684
  13.6534572  51.0374355   2.5051945  15.0761795  51.5165091   2.3119617
  28.5522676  91.4619350  23.0629802  28.9941859  90.9198856  22.4094343
  28.3333850  90.8544731  23.7695980  20.3993630 111.6110420  25.7599473
  21.0756826 111.7221737  26.4281321  19.7162855 111.0993576  26.1933279
   3.5556677  89.1825962  29.4754863   4.2180601  88.5112000  29.3120885
   2.9363897  89.0892601  28.7515974  29.2267323  90.2135372   7.4372911
  29.0877247  90.6750584   6.6103041  28.3445907  90.0340080   7.7626032
  51.4199209  92.5808811  58.5160542  51.8162203  92.2485065  59.3214798
  51.6739941  93.5032940  58.4870481 109.8616547 124.7100639  50.6752300
 110.7461137 124.9710369  50.4185963 109.2879159 125.3198814  50.2113581
  26.4671874  74.8696375 109.9132763  26.0662723  74.8818684 109.0441684
  26.6336203  73.9432096 110.0872505  30.7956243  86.4095402 109.5527133
  30.8645844  86.0447884 108.6704267  30.1402164  85.8636189 109.9870333
 116.2940139  84.7659779  21.0578728 116.0657353  85.4876137  21.6438484
 115.4905493  84.5923615  20.5674291  28.4170842 130.2074718   1.4050765
  28.3808088 130.8317089   2.1298186  27.9557371 129.4347858   1.7311795
  41.4411545 106.5137291   3.4027264  40.5678463 106.8790817   3.2610404
  41.5807819 105.9306240   2.6565856  16.4014196  58.5179520  15.9989727
  16.7846894  58.3328867  15.1416004  16.9342494  58.0132866  16.6134965
   4.9736613 100.7504368   3.6910307   4.8145217 101.5337181   3.1643674
   5.9022158 100.7991886   3.9182764 121.1315180  80.1666069 105.6600612
 120.6216467  79.9304819 106.4349856 120.5282301  80.0380802 104.9281075
 109.6629829 138.4564495  26.0065508 108.9941365 137.8338623  26.2916017
 109.1825647 139.2696381  25.8511329 118.6902148  88.4247971 106.9252091
 117.7895517  88.1093693 106.9996493 118.9197350  88.7053299 107.8111293
  16.5789640  79.5079803 106.1217844  16.4883447  79.2320395 105.2097117
  17.0060396  80.3631783 106.0719820  36.9324541 112.0927906 107.1318915
  37.1845531 112.0028782 106.2128743  36.9901156 113.0323982 107.3052400
  29.9700809  94.3372726  92.3928734  29.4834065  94.8854828  91.7773660
  29.4062805  93.5766602  92.5336953 120.2180657  77.5959015   2.6790449
 119.7661496  77.1513605   1.9618374 120.9513069  77.0193815   2.8940225
   8.2392758 103.7290573   3.5324675   7.9508030 104.6406746   3.5769692
   8.0635834 103.3793354   4.4059971  98.2708711  66.5087652  10.9865546
  99.2231411  66.5875435  11.0432267  98.1043095  65.5681372  11.0474157
  40.0197744  74.8239899   1.2336195  40.0401831  74.4302082   2.1058309
  40.5994415  75.5828285   1.2998040  15.3769851  95.5907345 108.4885269
  15.1785278  95.2094173 107.6332834  15.6313598  96.4930534 108.2952579
  13.7441313  87.2107220  19.9444580  13.9207196  87.2669888  19.0053713
  13.0078816  87.8058624  20.0857997  31.4892673 130.6116295   5.2029562
  31.2105250 130.3221798   6.0717219  32.4196577 130.3901100   5.1637733
   0.4483766  92.8960609  12.7307510   0.6370392  92.5161362  13.5888278
   1.2606196  93.3359337  12.4797451  12.7787364  99.2994213   8.9904040
  12.6361001 100.0415134   9.5779276  13.6481869  99.4509792   8.6198390
  22.4909544 108.7716198 106.1482900  23.2961941 109.2194557 105.8889430
  21.9367957 108.8045216 105.3685095  43.2737589  79.1432142   3.3212662
  44.1976547  78.9568806   3.1541538  43.0665064  79.8713207   2.7354848
  23.6486721 123.0006981  67.1499594  23.0119371 123.3723736  66.5395030
  23.8084221 123.6994743  67.7843341  57.2749567  92.3460960  34.3991160
  57.6502085  92.1039295  33.5524940  57.2740221  91.5318871  34.9023986
  12.7635646 124.5431423   2.0494908  12.1166921 124.5853710   1.3452148
  12.3307920 124.9552536   2.7972248  11.7366791  85.3825665  34.7686791
  12.0794332  85.0185490  35.5849171  11.3397884  86.2148476  35.0256371
  12.1482921 118.8468552  19.3953919  12.0863163 119.6053314  19.9759924
  12.2309828 119.2223549  18.5188103  32.2599888 108.9920712   0.3103668
  32.3956394 109.9112606   0.0803348  31.5198040 108.7165546  -0.2304183
  16.1521351 106.3920879  37.7318525  16.1465597 107.3394966  37.8682780
  15.8675063 106.2790108  36.8249702   6.1442828  65.3686666  89.6771654
   5.9291780  66.2954807  89.7819289   5.4314792  65.0160885  89.1444048
  10.5441213  88.8898087  18.2138860  10.6195188  88.6573219  19.1393578
  11.4199686  89.1892338  17.9700267   8.4284282 100.5958748 107.0931818
   9.2708862 100.3376865 106.7192378   8.3377248 100.0533199 107.8765329
  98.6617631 101.3051987   3.8590688  98.0670399 100.5578995   3.7952536
  98.6627407 101.6861916   2.9809597 107.9516584  97.5580311  12.3760319
 108.8160307  97.8976250  12.6079214 107.3640329  98.3061314  12.4822080
 120.7671250  55.0119305 102.7032109 121.5050594  55.0958824 103.3070626
 120.2107686  54.3398237 103.0968805  28.1556106  87.4669266  36.4025021
  27.9168344  87.6251316  37.3158407  28.7768149  88.1644058  36.1930776
   9.8315191 103.3036900   6.5335912  10.1402664 102.4798775   6.1564404
   9.0459317 103.5179234   6.0304117  13.5765278 124.2524624  18.2514226
  13.2167292 125.1168442  18.0523860  14.5070755 124.4110870  18.4100139
 116.1259145 104.1639233  89.3629917 115.3055925 104.5214272  89.0231403
 116.8087328 104.6544170  88.9053758  12.4538207 100.3905392   2.2301318
  11.9747531 100.7310009   1.4746109  13.3749139 100.4512691   1.9768880
 108.7274582  67.5419283  89.8481330 108.7347443  68.4889746  89.7092947
 108.6356182  67.4394226  90.7953867   3.3592176 130.8332348  90.9296592
   3.2158715 129.9385643  90.6210407   3.0878270 130.8163834  91.8474253
   9.8051560 103.0966854  18.7578118  10.0654423 103.3037186  17.8602493
  10.1871026 102.2351170  18.9252687   1.4297839 106.2888432   0.3539670
   0.4977620 106.2203693   0.5610368   1.8570180 106.3928890   1.2041892
  18.8897049  99.5502853  80.0980624  19.1346657  99.4449711  81.0173734
  18.0017638  99.1967964  80.0447878 112.8052325 129.9866486   1.5035190
 113.7341315 129.8213673   1.6649517 112.4188132 129.1154194   1.4148423
   3.5668811 115.3424263   9.9951088   4.1477713 114.7232437   9.5530522
   3.9540339 115.4562092  10.8630931 103.4196228  68.8638973  12.0556402
 103.4408159  69.2851257  12.9149139 102.5623221  69.0937853  11.6972828
  19.6834588 103.4464455  68.2325848  19.4366455 104.3580723  68.0768689
  20.2392435 103.2181549  67.4874505 122.8241879 107.9955387 103.8452491
 123.5949963 107.7892208 104.3739428 122.1082730 107.5243664 104.2715051
  99.2641253   0.7859021  22.0334268  98.9437003   0.0811081  21.4705539
  99.9011702   0.3621846  22.6086378 119.3688709 111.4890671  58.0838013
 118.4330315 111.2938213  58.0356646 119.7521356 110.7215500  58.5083723
 104.4630618 120.2411175 106.4643674 103.7465567 119.6899033 106.7790368
 104.0987605 121.1262512 106.4567819 122.6491996 114.4956017  99.6174868
 123.3602843 113.8964844  99.3902167 122.7041950 114.5825386 100.5691423
  16.1423719  60.3742027  27.7589273  16.0365891  59.4250345  27.8231335
  15.2943659  60.7283592  28.0266762  38.0951738  73.2512426  40.9416437
  38.4568405  74.0038824  40.4737091  37.8395987  72.6399469  40.2508211
  44.2404032 114.5059872   7.7394092  44.7299910 113.7823009   8.1303245
  44.6847010 115.2932930   8.0540067  35.0880527  53.4223366  33.9177752
  34.7561216  52.5460148  34.1130018  36.0384274  53.3152199  33.8784790
  51.5724754 133.6969662   0.7315989  51.8844366 134.5990181   0.6593654
  51.0163021 133.6975384   1.5106368 105.9485585 126.5984917 105.2716991
 105.7012684 125.7622337 104.8770466 105.2348883 127.1929073 105.0402450
 124.0185310 104.9222469  37.1533561 124.8302704 104.7522831  36.6754198
 124.2780532 104.9197960  38.0746984  25.4668212 111.1004829  76.6087159
  26.1628008 111.7225266  76.3968166  25.8764625 110.4783916  77.2098955
  86.3832564  86.6329861  19.7117496  86.4582128  86.1758804  20.5494070
  87.2105998  87.1059608  19.6221220  10.2423728  93.3907413  24.2309022
  10.4018092  92.6793575  24.8511696   9.3839842  93.1937218  23.8559604
  33.5244298 108.4724140 105.5244400  34.0975785 108.6247826 106.2757813
  32.6472855 108.6805248 105.8462130  34.4913650  98.2810783 101.0205080
  34.6164703  98.3528900 100.0742396  35.3345728  97.9709530 101.3507339
 106.8327004 113.6419010  96.6658577 107.0783216 113.5294342  97.5841459
 107.5134177 113.1789875  96.1774274  27.0270109  97.0157528  34.3450332
  27.2285295  96.8515968  33.4237981  26.7658639  96.1615086  34.6889877
  22.8327847 105.9064579  14.1599965  22.8449488 105.1913166  13.5238671
  22.2281909 106.5482140  13.7873721  21.8590832  93.9916611   6.9339806
  21.7903399  94.0416908   5.9805632  22.5394034  93.3368969   7.0910376
 118.3164949  59.9588823  33.3883953 117.9288471  59.2799568  32.8361130
 117.8531707  59.8825884  34.2225075  16.3115096  88.4126949  13.9668930
  17.1568465  88.8276005  13.7951756  16.3923621  88.0625820  14.8540914
 113.5693330 100.4703236 101.0418477 113.8792116 101.0380173 100.3362050
 113.0509169  99.7986698 100.5987325  26.6412711 104.7605133  36.1150646
  25.7278466 104.8242092  35.8360815  26.6633010 105.2001190  36.9650650
   9.4035637  83.7178135 106.2679746   9.7044826  84.6180916 106.1447831
  10.0849223  83.1801796 105.8643236  37.8285670 106.8922615  88.2606229
  37.9407191 107.2729206  87.3895606  37.0927238 107.3732758  88.6392888
  14.2887175  90.3932667  61.7138251  14.5073557  89.7894478  62.4236354
  13.8236320  89.8533249  61.0747727  98.9066333  94.8617935  14.9299252
  99.0212149  95.8112335  14.8892963  97.9750652  94.7406006  15.1135755
  23.4364223  85.9312916  21.8580317  22.9714179  85.7046509  22.6634121
  24.3353391  86.1005878  22.1400189 117.8870184  81.5005875  40.4186058
 118.3979220  81.6690350  39.6268773 117.8391016  82.3496819  40.8579016
  99.4209117 102.4527931 109.6340570  98.8158721 102.5690174 110.3666203
  99.5214838 103.3302212 109.2649511  25.5556464  85.8172512  44.4040012
  25.1842737  84.9533367  44.5828056  25.5716300  85.8780766  43.4488726
  32.2348952  61.6303921   2.6086408  32.7518153  61.1013460   3.2162076
  31.5344930  61.9982243   3.1474981 111.4199573  60.8166790   8.9683962
 110.9386939  61.6105890   9.2014718 112.3305113  61.0159492   9.1861451
 105.2970499 114.4911385  22.6226926 105.2174229 113.7559605  23.2304740
 104.5679492 115.0687218  22.8486133 119.1794575  87.2270298  68.1845721
 119.1066558  87.9456329  68.8127001 118.4698374  86.6296387  68.4207781
  16.9907641 113.2975769  95.8682831  17.4754488 113.0166721  95.0921353
  16.4116347 112.5621319  96.0681876  22.1968293 114.8294735  18.3627152
  22.6920533 114.0575218  18.6367118  21.9099331 115.2331543  19.1818404
  26.3995075  71.7886543  18.4527385  25.9602928  71.1448431  17.8970134
  27.3073530  71.7872953  18.1493485  98.3244652  98.2742691  21.7814779
  98.7323732  98.7557793  21.0617614  97.4089999  98.5535049  21.7679858
 120.8393917  48.5819101  49.7198057 120.8286244  48.8214588  50.6464863
 121.5958477  49.0460443  49.3612146  12.7883756 117.2231865  21.4562917
  13.4657156 117.6535034  21.9780898  12.5020063 117.8934956  20.8358741
   8.4630156 109.2244148   4.6693078   7.5435787 109.4895554   4.6931783
   8.9498317 110.0485420   4.6620981  10.8848763 108.9080811   6.1526719
  11.6788936 109.3050289   5.7946340  10.2750313 108.8852406   5.4152433
  28.1029963  61.4391899  11.6569082  28.1511593  61.0607147  10.7790319
  27.7014780  60.7540989  12.1913949  21.4119220 106.2834644 105.9899902
  21.7575049 107.1759510 106.0062218  21.2776208 106.0954857 105.0610828
  28.2388163  79.0285015  74.4877291  28.2568002  78.4930086  75.2809238
  27.8785253  78.4495401  73.8159990  26.8735504  97.3406696  79.2505217
  27.1955848  96.6196442  78.7095451  27.6564646  97.6871490  79.6785784
  98.4265680  53.2139730  13.3624021  98.1356496  54.1249323  13.3206598
  97.9363961  52.7739382  12.6678983  13.6176646  60.5894804  48.4221784
  14.1996145  60.9185076  47.7371160  14.1224539  60.6821537  49.2301503
  62.2734547 104.7335625  94.1309166  62.6908302 103.8796234  94.2440891
  63.0004787 105.3561115  94.1213417  12.7746379  81.7126179  26.9926492
  13.1041932  81.1670303  26.2785283  13.0605829  81.2639999  27.7883951
 114.9016077  90.9527683   1.6976396 114.6032853  90.0907326   1.9876901
 114.1315741  91.5145969   1.7849866  23.3788538 109.0389919  21.6198102
  23.8231206 108.7893486  22.4300805  22.5865912 109.4907475  21.9104425
   4.8458797 104.1747189  16.2456743   5.0077629 105.0855160  15.9997503
   4.7727117 104.1936588  17.1998826 106.1160523  67.9057312  46.9260359
 105.6465692  68.2527161  47.6846027 105.6465716  68.2603645  46.1710215
 123.6077166 106.6028786   6.5648595 122.7105746 106.9338131   6.5218679
 123.7961037 106.3052177   5.6748334  19.0822220  94.7990704  82.9554272
  19.6425664  94.2554951  83.5093021  19.5949090  94.9379539  82.1591282
  23.8113856  77.2102642  88.0507469  23.9231777  76.3240719  87.7066612
  23.0127263  77.1641397  88.5763359  33.8522267  64.1948271  99.8981380
  33.4956026  63.3218622  99.7338676  34.4838858  64.0662527 100.6057453
 117.7581907  93.0249977 104.6636581 117.0807577  92.3864746 104.8863983
 118.5411549  92.4978542 104.5045376  13.9588666 108.9512062  75.7888889
  13.9380527 109.0295124  74.8351240  13.4378660 108.1704521  75.9765387
 111.9302685  96.5475082 103.1101990 111.6535217  96.0516453 103.8807583
 112.8715856  96.3858700 103.0467319 101.1971468  94.8336220  91.6695309
 101.9513673  94.2606068  91.5315533 100.8393926  94.5594883  92.5139809
 117.8211404  84.3853378   8.7142698 117.3013288  83.5856152   8.6337892
 117.1903295  85.0555801   8.9770929  29.6267080 105.7870579  16.6442720
  30.2716398 105.9435654  17.3340551  28.7815690 105.9359264  17.0683137
 112.9279191  94.7372150   9.2274896 112.6298601  93.8333035   9.3291417
 113.5941321  94.6940327   8.5415403  29.4442344  65.2357769  89.4682217
  28.6934733  65.7758617  89.2214489  30.2068043  65.7714367  89.2496204
 113.8603420  81.5068626  92.7358150 114.0302581  80.5885887  92.9458618
 114.3035263  81.6471386  91.8990612  23.6409068  92.5620937   0.3047983
  22.7320385  92.7900791   0.5002919  23.7372375  92.7423477  -0.6303271
  22.0547986  66.0838652 106.8096352  21.7498779  65.2069616 106.5766239
  21.3041043  66.6521645 106.6372204 110.3086168 102.4743176 108.8227654
 110.4374368 102.7731705 107.9225826 109.6745510 101.7609596 108.7498760
  18.4634984  83.9334202  84.4060135  19.0744257  83.9499092  85.1427174
  17.6407790  83.6228180  84.7840214  25.4206634  70.0061131  31.4650861
  25.5889392  69.3650007  30.7745210  26.0347939  70.7180882  31.2857381
  29.0796590  60.4159927  34.9744169  29.7426462  59.9127579  34.5017282
  28.2815242  60.3054047  34.4577066 111.9583005  68.6559248  94.8003960
 111.1703832  68.1797266  95.0624084 112.6696069  68.0268860  94.9211597
  26.3230348  93.3556175  79.2007256  25.6289029  93.2040882  78.5592794
  26.7214513  92.4949741  79.3303013 116.8463725  86.5260029  10.3457013
 116.1025024  86.5350342   9.7433702 116.5165568  86.0820961  11.1269800
  32.6661277  50.5395746  84.4753265  33.5613298  50.8409214  84.6303558
  32.2621989  51.2413406  83.9648342  71.7259378 114.3010426 108.6979580
  70.9263534 114.1431618 108.1959915  71.5287704 115.0751972 109.2252541
   1.6386704  77.0261192  84.6684265   2.0814440  77.7636147  84.2485523
   0.8758689  77.4162245  85.0952530 111.8552131  56.5592384   2.4333612
 112.4070782  57.2256708   2.0240442 110.9972662  56.9757795   2.5149289
  15.4382300  80.5868149  91.1249161  14.6766877  80.6238174  90.5461979
  15.0880468  80.7811546  91.9943047  25.2451777 128.7871075  19.8441163
  24.8602200 128.1751728  20.4714719  25.0775290 128.3906937  18.9891378
   4.0998372 109.7621250  83.4957123   4.0697727 108.8462734  83.2190704
   4.1199735 110.2588654  82.6777363  44.6113634 101.9146442   2.7111760
  44.8111296 101.2375736   2.0647184  45.0947523 101.6489601   3.4934655
   8.0623454  82.7611065  15.8714906   8.3413780  82.7571201  16.7871133
   8.8789475  82.7510357  15.3722040  26.2226367  82.5975800 109.6883011
  26.0905290  83.3580971 109.1222763  26.5385342  82.9652977 110.5136681
  29.1550016  52.4882889 107.6113987  28.8586807  51.6383600 107.2857571
  28.3581758  53.0161858 107.6626778  14.2346036  89.0716553  82.4333763
  13.9766288  89.2651463  83.3346272  13.4644973  89.2949963  81.9106102
   1.5797032  73.7009001   1.0659067   2.5333089  73.7827301   1.0790387
   1.3792859  73.3756065   0.1882688  45.7885504  82.6989174   8.0628721
  46.6195536  83.1583881   8.1834737  45.1655149  83.3876133   7.8310243
  33.3975744 118.3345509  88.9858913  33.7939215 117.7711010  89.6504688
  33.0298519 119.0666389  89.4809246  25.6751966  79.0426445  12.2299615
  25.6454158  78.8869858  11.2859670  24.7845197  79.3099451  12.4568406
  20.5522060  51.2899065 107.4766541  20.4164481  50.4109573 107.1227551
  19.7450686  51.7598152 107.2670174  10.8699286  76.4197874  78.4834194
  10.8195543  75.4920101  78.7134647  10.3071439  76.8560553  79.1230869
  29.5559955  98.7551308  71.8432951  29.8037696  98.0325699  71.2664509
  29.0030980  99.3166256  71.2999153   3.7507749  71.3486910  82.1627426
   3.4456238  70.8235455  82.9025650   3.5434654  70.8200932  81.3921356
   5.1102656  99.8716354 102.7909088   5.2442223 100.1816463 101.8952656
   4.6050340  99.0646744 102.6920033  17.7242136  86.4147472   5.1615945
  17.4917567  86.2654209   4.2451326  16.8954265  86.3385487   5.6343881
  33.4434533  83.5577869   5.4774610  33.3001924  84.4993401   5.5732862
  33.0460429  83.3396339   4.6344224 112.2988254  76.7499876  11.3522378
 112.8570349  76.1658192  11.8654481 112.4543363  76.4926720  10.4434816
  20.7300806 105.4892063 103.2393169  19.8229742 105.7053757 103.0233097
  21.2086916 105.6188774 102.4205685  31.7366600  80.5025387  93.3617687
  32.1808004  79.7904730  92.9014111  30.8076096  80.2777290  93.3111763
 112.6520557 105.2091980 100.1200581 111.8786830 104.7679234  99.7687626
 112.4909312 105.2611160 101.0621738  22.1448469  56.5872526  41.6933099
  22.8578973  57.1713734  41.9513646  22.4847865  56.1157703  40.9328023
  35.9790325 110.5388927  12.1464387  35.7267094 111.1809444  12.8100244
  35.8302522 109.6909332  12.5648252 122.1201853  65.8055496   5.4897729
 122.8889666  65.7831240   4.9199430 122.1700079  66.6561890   5.9258500
  32.3165369 111.1545277 108.1291866  32.7959204 111.6429710 108.7983990
  32.4438310 111.6600800 107.3264217  49.0940523 109.4938946   2.6573793
  49.5932150 110.1634789   3.1250516  48.2924843 109.3908024   3.1703130
   8.4778792  17.7624512  86.0655212   8.3884674  17.8834176  87.0108318
   9.4155771  17.8590584  85.8993244  29.7345972  79.7847652   0.8654538
  29.4934297  79.1806650   0.1632158  29.3153191  79.4236994   1.6465226
   5.8602095  69.7273016  72.7673864   6.5056121  70.1192236  73.3556795
   5.0413972  69.7471666  73.2627487  22.9985499 100.6995106  83.5724354
  22.7103353  99.7961712  83.4414959  22.4803042 101.0110950  84.3144417
  15.8989155  97.8510761 107.2415829  16.5482903  97.9955769 106.5533543
  15.7284629  98.7233353 107.5970078  98.1829829  97.8042221  89.4126415
  98.8372464  97.4456501  90.0123119  97.6723880  98.4101009  89.9497032
  22.1260500  33.4246564  88.4145927  22.2145200  33.6591411  89.3383980
  22.9088831  32.9084229  88.2224846  21.4676833  73.9592123  68.3578682
  21.6532516  73.6461544  67.4725485  22.0538497  74.7067690  68.4753466
 109.7185165  97.3211098  88.5366344 109.6031649  96.6749859  87.8398895
 108.9300055  97.8621387  88.4945107   5.4284918 130.6315231  72.1208906
   4.8620415 131.3903618  71.9811487   4.8847571 130.0134754  72.6093578
  13.9097548  94.3657398 106.5040302  14.3356478  94.0147972 105.7219315
  13.3329344  93.6612034 106.7992115  20.7394314 100.8232117  95.0152206
  20.5130625  99.8931694  95.0118923  19.9397874 101.2653732  94.7301006
   1.7689064  71.5780449  63.9542198   2.6341629  71.9685841  63.8315821
   1.5515605  71.2043619  63.1001997 122.6147302 100.3546906  18.8732091
 121.8451352  99.8960209  19.2102281 122.6606513 100.1002884  17.9515783
  20.9391975  75.7185602  71.1567926  20.2577424  75.0844097  71.3797426
  21.7524862  75.3106642  71.4541340  33.1076097  63.3209372  19.1732637
  33.6760807  62.9984760  19.8726217  32.2230339  63.0932999  19.4595186
  24.3573976  62.9699039  73.3932972  24.9425387  63.2699871  72.6977444
  23.5101056  62.8586006  72.9620934  12.3496687 106.5589333  51.7433683
  12.0779657 107.2277737  52.3718969  12.2045517 105.7294750  52.1985189
  36.3764715  83.0898666   5.2517644  36.5987325  83.9958858   5.0373784
  35.5430794  83.1517220   5.7185212 115.8059401  96.9395256  33.8678590
 115.3301567  97.7700520  33.8774244 115.2151567  96.3301373  33.4252969
 122.4316188  76.5671253  98.3769417 121.5947989  76.1069393  98.4417057
 122.3260278  77.1516991  97.6263714   0.6427006  58.3961248   9.6866456
   1.0859938  58.2173967   8.8573209   1.2084854  58.0018663  10.3504793
  95.4704947  79.1278648  60.4901409  95.8922858  78.3660603  60.8876085
  94.5844144  79.1271210  60.8522081  10.1344585  67.4034357  91.2694263
   9.8342109  66.6488314  91.7760372   9.4064707  67.6013899  90.6802940
 124.1434123  65.3773403  84.7183895 124.6186381  65.1158857  85.5070877
 124.4307385  66.2751484  84.5522022  44.2223310  63.6356258  77.6831484
  44.3995428  62.7171659  77.8862619  44.7989368  63.8332796  76.9451189
   3.3655068  88.3433533  89.2626572   2.5516692  87.8667355  89.4261837
   3.2408211  89.1866493  89.6980095  19.7997200 120.8007050 108.6281395
  19.1800523 121.4088154 108.2250881  19.8793828 120.0860977 107.9963112
  15.7625747  66.4289522  18.7001840  15.0056076  66.6079473  19.2580262
  15.7562006  65.4786682  18.5854760  17.7853465  67.0569944  24.6087114
  17.0754433  66.4187670  24.6789781  17.8334606  67.2598362  23.6744825
   2.2778685  95.1294708  94.0559769   1.8927069  94.2551136  94.1141415
   1.7038697  95.6799603  94.5886326  27.8393126 106.1246395 106.0896015
  28.1451869 105.6473255 106.8608570  27.9434109 105.5049419 105.3675365
  24.9178290  86.0387039   3.3922712  24.0056658  85.8311462   3.5950223
  25.3860641  85.8875561   4.2133275  25.5124998 115.4570198 103.6515903
  25.1632571 115.4430294 104.5426941  24.8466039 115.9170914 103.1405640
 115.0159980  86.7536354  70.3378057 114.9571056  87.4847126  70.9528542
 114.1126961  86.6004276  70.0606680 118.3626795  76.8334341   0.3820459
 118.6613823  76.5497303  -0.4819735 117.8647715  77.6331997   0.2126447
  39.3432331  71.7589617  45.0059748  39.1710782  71.0276604  44.4128513
  39.2880082  72.5362778  44.4501305 119.7422979  82.7473736  88.8667774
 119.2657316  83.5748386  88.9332104 119.7478584  82.4018478  89.7594166
 111.9488222 101.2606716  42.0448247 111.0811169 101.4438820  42.4050371
 112.5569982 101.6227436  42.6892225  19.7665107  83.4653854   4.8939267
  18.8455606  83.2989407   5.0948659  19.7682261  83.7190056   3.9709321
  46.6337872 112.0298004  79.7939444  47.4044418 111.4841652  79.9508429
  46.3818645 111.8346024  78.8913536 110.0791974  52.2680378  74.8964596
 109.8709697  51.7525816  75.6756783 109.2289538  52.5619745  74.5694733
  18.1729209  77.1828794   6.6984598  19.0409303  76.9510698   6.3682214
  17.8258252  77.7956867   6.0502187   7.6281995  46.4511871  66.8627644
   8.1380200  46.5432692  67.6676464   8.1455857  46.9060087  66.1981726
   6.3486952  47.4504995   8.2250921   5.8161658  47.1303606   8.9532129
   7.2386515  47.4841547   8.5759202  27.5837541 108.8214207  98.5694790
  27.5880933 107.8660488  98.5105801  28.5094023 109.0644646  98.5878754
 119.5890380  48.4294128 105.1885509 119.7253156  48.4064436 104.2413807
 118.6503393  48.5857058 105.2917480 118.3994359  73.3860016  97.6231289
 119.2071528  72.8984594  97.4614906 117.7912760  73.0702829  96.9547749
  96.9535989  88.8031101   1.3960115  97.3277563  88.7425709   2.2749749
  97.1324295  87.9500866   1.0002939  31.0749888  82.0219231  25.2669755
  31.4558196  81.9723320  24.3901960  30.1507235  82.2197056  25.1158086
 121.3066397 108.4502983  21.6948835 120.4862875 108.9226818  21.5530721
 121.0350633 107.5583172  21.9113389 106.2526733 104.6826363  67.6302147
 105.5150885 105.2904701  67.5778818 106.9333977 105.0850582  67.0908594
  87.1237654 101.3345432  95.1059914  87.7438659 101.1956215  94.3901634
  86.8170304 102.2333050  94.9861240  11.5129352  67.9672480  97.2241116
  11.7790389  67.1722364  96.7621803  11.5477037  68.6540937  96.5583324
  33.4329748  64.6137714   7.4357930  33.4372735  64.1908598   8.2944909
  34.3581223  64.6936369   7.2035066   1.6244386  64.5297623 107.3929405
   2.4248682  64.0054321 107.3680019   1.5338154  64.7850037 108.3110142
 110.8640427  82.2820377  62.0513010 110.4189677  82.5045586  61.2336063
 110.6104834  81.3751221  62.2228861   0.0648663  72.8729391   6.0474149
  -0.1663858  72.5685120   5.1698724   0.9001134  73.3258629   5.9314290
  13.1962490  64.7986317  13.6682836  13.3706594  63.8952446  13.9323083
  12.2479939  64.8324871  13.5421983 114.9907756  59.8627567  62.5421143
 115.4045123  60.1178646  61.7175102 115.2104068  60.5696249  63.1490231
 106.9557757  99.5137024   7.5317899 107.6362318  99.1646385   6.9561426
 106.2957508  99.8672485   6.9354669 120.7958931  73.9106369 107.5273609
 121.4034835  74.2758846 108.1705189 120.9953920  74.3787336 106.7166042
  39.3685770  90.5705070  12.5947992  38.9813185  90.5594540  11.7195073
  40.2961349  90.3847027  12.4486867 102.5730342  77.1539164   5.8936445
 101.8713636  76.6277552   6.2771074 102.9528422  76.5913010   5.2187768
   5.9884268  82.0013809  63.8672352   5.5586064  82.3762131  64.6359968
   5.2735460  81.8234444  63.2560778  31.6185260  86.2395191 106.5121365
  30.8624125  85.6948471 106.7308903  32.1112680  85.7209587 105.8761024
  27.8222370  66.7312717  16.5034715  27.9038143  66.4997530  15.5782834
  27.8542304  65.8927155  16.9639341  15.9163141  85.9772778  12.6328794
  16.6176260  86.2790871  12.0555536  15.6126189  86.7698479  13.0754033
 120.4467780  53.5512829   3.2082883 121.0280082  54.2982054   3.0650750
 120.5018789  53.3817863   4.1487447  11.6229188  78.1760359  36.2453309
  11.6304791  77.2203779  36.2990896  12.4300432  78.4469318  36.6828290
  20.6584334  72.5338554 100.2019405  20.9851122  73.3500004  99.8232269
  20.3760910  72.7753115 101.0840988  34.6319604  73.6795092  93.1035805
  34.8076320  73.4090042  92.2023678  34.7471738  74.6297121  93.0952263
 120.5329660  53.7430382  26.7418138 120.8646796  53.2735920  25.9764234
 119.6930391  53.3257771  26.9332544  31.3086295 107.8723240  70.9064054
  31.5741539 108.7676811  71.1162853  30.3892279 107.9487228  70.6512642
   9.4887441  58.8672781  84.4471169   8.5735947  58.7916327  84.7173309
   9.4463670  59.0826893  83.5154343  28.6497974  39.7822428  86.8343258
  28.6818004  38.8636422  87.1014977  29.1430736  39.8105669  86.0145092
  24.3682122  91.8488979  84.9398994  23.6400151  92.2611141  85.4047012
  24.0305471  90.9926987  84.6769619  36.1284280 109.1782379  73.8630629
  35.7568717 108.4609699  74.3765926  36.4685559 109.7894859  74.5164537
 117.5574768  98.5266781   3.0641500 118.1391591  98.3091354   2.3357621
 116.8046356  98.9498043   2.6513234 123.5249828 101.4117336  93.1065750
 123.4125120 100.7699108  92.4053955 122.6661945 101.4606857  93.5264778
  27.0299554  83.6593342  82.6541519  27.7054691  82.9921150  82.7755356
  26.2466979  83.1657219  82.4110699  36.3807178  74.4703770 101.5900898
  37.1527815  74.9526119 101.8860531  35.7924128  74.4734287 102.3451519
  11.9212759  91.7995548  22.3141233  12.4139047  91.2605190  22.9329912
  11.0191917  91.7659378  22.6324788  14.2251217  84.0739155   7.5897256
  14.3661833  83.5558796   6.7972795  13.2759595  84.0688133   7.7134172
 117.3261172  86.0282230   3.0933324 117.9516316  85.3063583   3.0311624
 116.7792118  85.8069897   3.8471071  47.9763269  87.3872662 101.2353325
  48.6554098  86.8297482 101.6151333  47.3955154  86.7793465 100.7778168
 112.5491113  93.6666107 100.7727242 113.1720561  93.6518002 100.0461197
 112.4079854  94.5969296 100.9482861  97.8543181  98.1192207  60.6075001
  96.9365067  98.3073711  60.4114103  98.0264921  97.2851849  60.1705027
   8.5618234  76.7834044  33.9910547   9.1797900  76.0526848  33.9711324
   7.9605216  76.5691900  34.7043458 117.1838225 100.7134533  86.1218548
 117.6109505 101.2642193  86.7779350 116.2994952 100.5776978  86.4620972
  21.1679888 102.7634144  77.5690985  21.3047242 103.0894566  76.6795874
  20.4742098 102.1098995  77.4806499  10.0549340  58.2350540  77.6520491
   9.4478536  57.5920105  78.0183506  10.8670855  58.1035280  78.1412745
 118.8924713  56.0067558  77.1457815 119.5867539  56.4240646  76.6358232
 118.5824121  55.2926588  76.5888596   3.5731554 100.0328350  65.4981709
   4.3703565 100.4814339  65.2162790   2.8640887 100.6262398  65.2505302
  23.2262921  93.8349724  86.9944382  23.3409357  94.7177696  87.3462296
  23.0751872  93.2877731  87.7651405 104.9119515  71.7873621  39.7018281
 104.4536895  72.6202345  39.5897905 104.2616386  71.2076235  40.0983468
  47.5619602 102.0165443  82.6746559  48.2419252 102.3340893  83.2688332
  46.7416286 102.1811199  83.1396294   3.7331438  91.7445946  94.1335678
   3.6078382  92.2293282  94.9493885   4.4732273  91.1640930  94.3111420
 108.1104810  79.5640230  96.1602211 107.3538286  79.2285061  96.6409969
 108.1838257  80.4775906  96.4363480  19.6185577  67.6753569  83.4825706
  18.9561081  68.0058289  82.8757858  20.3231645  67.3574781  82.9180145
 118.9773733  17.6806813  78.0524635 119.3244142  17.6728230  78.9445019
 118.4214253  16.9029408  78.0048943  31.6862464 106.6800880 107.7502441
  32.4557447 106.9515324 108.2506657  32.0373297 106.1273289 107.0520782
   1.6633353  66.0528517  65.8530903   1.2898338  66.0953808  64.9727917
   1.6390741  66.9566202  66.1674833  22.3899770  60.5582523  47.1353102
  21.7842865  59.9546909  47.5655270  22.8319240  60.0241280  46.4752865
  92.9565257  98.1252575  33.7419558  93.8836355  98.3591557  33.7865329
  92.5338239  98.6986923  34.3812680 124.6007207  58.0304289  92.4954700
 124.6705932  58.5868406  93.2711983 124.7741897  58.6198759  91.7615128
  35.0968909  83.3359909  97.0888138  34.8664260  82.7342606  97.7966595
  34.2898679  83.8199806  96.9135952 117.0397539  96.3921642  59.1237020
 117.1006501  96.9287491  59.9140120 116.2907851  95.8173943  59.2815638
 117.0797772  86.0707760 102.2210312 116.3407207  85.6475830 101.7840672
 117.5039167  86.5828037 101.5324306 119.7219730  63.8369513  75.1322746
 120.3180507  64.3851328  75.6425858 120.2614037  63.4965801  74.4185543
 120.7501540  65.2846050  79.1160631 119.9778492  65.3307724  78.5524607
 120.4554612  65.6376028  79.9555779 122.5706588  73.6390257  65.6964779
 123.1051826  72.8549147  65.8217287 122.0618129  73.7134886  66.5037966
  47.5380468  97.4213791 109.6366596  48.4138107  97.4326038 109.2504787
  46.9577694  97.6836967 108.9220238   7.0621347  80.9220123  41.2115423
   6.1551821  81.1971951  41.3454953   7.2703224  80.3983688  41.9852868
  27.3764920  83.7066174  13.0789510  27.0187688  82.8478432  13.3042852
  26.9167638  83.9546204  12.2768442  48.7619591  80.2788925  83.5360718
  49.4031858  80.8352089  83.0938435  48.0330610  80.8661175  83.7363243
  58.1193972 118.1988239  93.9024925  58.4363651 117.7689171  94.6968079
  57.2974443 118.6126709  94.1658497   1.1642061  83.0794239  72.5503778
   1.9785607  82.8053284  72.1285582   0.7204050  83.6124706  71.8907309
   7.8005373  74.3439531  80.3310680   7.5523472  74.6446323  81.2052727
   8.7458211  74.2035580  80.3854752   6.3381153  83.4793472   0.8873597
   5.6255716  82.9787159   0.4900113   5.9638804  84.3465233   1.0428563
 110.4242188  60.5737591  94.0821838 109.6072835  60.5879784  93.5835361
 110.3742594  61.3458109  94.6458054   7.5587112  96.0948181  88.1173038
   8.2365590  95.4919338  88.4227180   7.0514572  95.5848408  87.4857616
  28.9021540  85.0785351  46.4452505  29.7754717  85.3996277  46.2206554
  28.9840508  84.1251373  46.4214373  18.2771707 108.3166504  86.2495041
  18.5474610 108.2698059  85.3324509  18.7696493 107.6180267  86.6803360
  22.9545164  99.0303135  86.6099453  23.2798481  98.7209797  87.4553490
  22.5152659  98.2697010  86.2294865  21.0365701 104.6196270  88.8105011
  20.1788807 104.2036915  88.7233257  21.1661983 105.0775719  87.9800034
 112.3290796 113.0293179  17.5724355 111.8405504 113.5173416  18.2353154
 111.6770155 112.8114414  16.9064180   5.6198567 101.6825199  64.1425562
   6.1834967 101.1625195  63.5697269   6.2242651 102.1104717  64.7490120
  28.0619836  74.4980049  97.6958752  28.7237453  74.0372658  98.2116508
  28.0738115  75.3928328  98.0355453 113.6812241  95.2658749  70.5540752
 114.6169574  95.4629326  70.5115843 113.3386630  95.8709717  71.2119055
 113.9544362 100.9094524  23.9633695 113.1609661 100.8587646  23.4303895
 114.5819575 101.3798428  23.4145681  12.5155616 117.7886009  71.1438131
  12.6596916 117.7309322  72.0883417  12.9214847 116.9968605  70.7908058
  20.2053809 135.9571075  99.8929882  20.0656605 136.8523407 100.2016354
  21.1196280 135.9413052  99.6099091  19.2601430  84.8135185  90.9347153
  18.6510682  85.4849052  90.6273270  19.4419265  85.0530148  91.8434620
  17.1916330 103.3231926 102.3150349  16.3367236 103.4858036 102.7136803
  17.6339948 104.1716003 102.3425388  18.4354246  89.7330379  82.5542545
  18.6736810  89.0283394  81.9518661  18.9945829  90.4664612  82.2980118
  19.9056256  86.7161655  18.0554048  19.7454929  87.6167583  17.7734033
  19.8980165  86.7596531  19.0115873   8.1247407  74.1902447  44.0227175
   9.0712208  74.1974926  43.8800478   7.8362381  73.3472729  43.6728668
 115.6654615  47.2879124  20.9434549 115.0508154  46.8931818  21.5620271
 116.1671109  46.5487528  20.5996171  33.3474851  84.6412468  58.3892012
  33.5922265  84.8566341  59.2891741  34.1079617  84.1775703  58.0386209
  22.7840567  47.6480722  41.6624880  23.5723877  47.1435976  41.4618015
  23.0172563  48.1584454  42.4379635  25.7100368  92.7482224  89.5207024
  26.1639524  93.0314636  88.7269974  25.5085397  93.5610199  89.9843788
  39.6735764  77.0617580  89.8138237  40.5002165  76.7666197  89.4320011
  39.7375989  78.0168152  89.8146439   1.3385707  85.6803226  69.5904016
   2.0928912  85.8471680  70.1555538   1.1249498  86.5355682  69.2173719
   6.1536711  89.2718220  65.7245922   5.8160353  88.6768341  65.0551033
   5.6585568  89.0505791  66.5133572  11.3871956  77.0494652  49.4491959
  11.2031245  77.4005032  48.5779190  12.2321796  76.6094160  49.3565130
  48.8797903 128.8318348  52.9250145  48.7131310 128.3685780  52.1041298
  49.5574427 128.3136368  53.3591604  14.8734295  89.6666431  94.2166710
  15.0996506  90.5085182  94.6120262  15.5240095  89.5441628  93.5253143
  14.7730649  79.5188189  35.4328576  14.5138657  80.3399944  35.0148622
  15.7292831  79.5194054  35.3895322 113.9874036  94.7283459  78.7897921
 114.6983296  94.3268490  78.2901764 113.9412207  95.6262493  78.4613848
  16.1534452 103.5728359 106.4096451  16.2074125 103.5958576 107.3650455
  17.0546257 103.7056160 106.1155796 117.6433367  66.1707306  74.5113659
 118.5711140  65.9648323  74.6256781 117.1957917  65.6278944  75.1604176
  20.5490756  69.6140671  80.0360680  20.6122470  70.4694510  80.4609966
  20.0194120  69.7732544  79.2548227  25.0561023  75.9002161  97.7858448
  25.6521177  76.5370131  98.1801605  25.6154037  75.3657913  97.2220993
   6.0952920  56.0711002   1.3910905   5.6292796  55.2950191   1.7021600
   5.6106400  56.8072176   1.7645589   0.7065276  79.6624804   7.7733270
   0.4916514  79.7055483   6.8415490  -0.1207221  79.8457956   8.2186166
  13.0583823  32.6224995  49.7808361  13.0995178  31.9355249  49.1155481
  13.0467725  33.4390736  49.2815304  11.8619561  65.1737404  23.6713449
  12.1924233  64.9084520  24.5296232  12.0958984  66.0991812  23.6002008
  14.7479498  66.8714523  72.9900122  15.2505517  66.0574818  72.9571772
  15.2222061  67.4207687  73.6141634  13.7372553  37.8107858  13.5072366
  12.8410542  37.6962805  13.8233701  13.6664104  37.7393389  12.5553361
  10.4620838  75.1270342  60.2322721   9.5693105  74.8270464  60.4031324
  10.7086778  74.6924114  59.4158602  33.2276320  66.9595242  88.7556839
  33.8249397  67.0482349  89.4983673  33.5522437  67.5880575  88.1108475
 121.0394893  36.6311955  60.2494669 120.7074157  36.2842226  59.4214773
 120.4804776  36.2337255  60.9171152  99.7463650  27.4951243  83.7976933
  99.0590448  26.8459797  83.9474583  99.2737765  28.2978916  83.5775661
   1.5688571  51.6321325  64.6957445   0.7373283  51.9721317  64.3653011
   1.5538527  51.8310213  65.6319332   3.5521778  56.9106340  89.0514660
   3.6222592  56.0818958  89.5252895   3.1126389  57.5003481  89.6640587
   4.9491537  67.4823284 106.0484409   4.6111506  66.6275024 105.7815075
   5.7665288  67.2845650 106.5056324  10.2755463  87.0412064  73.0553675
  10.9014738  86.5342045  72.5382710  10.6569183  87.9179859  73.1007051
   0.4137439  62.8917265  89.7463131   0.6632496  63.6196280  90.3156567
   1.1719484  62.7625465  89.1765213  35.1125956  79.4218588  84.1192055
  34.8888993  79.5020294  83.1919670  35.8497214  78.8114500  84.1358471
   6.7729801 105.2161694  80.2291489   5.8887374 105.4958248  80.4660892
   6.7927277 104.2821598  80.4376221   9.0786874  68.1480122  86.8108368
  10.0354016  68.1546450  86.7810726   8.8564754  67.2934103  87.1803093
  41.3588476 126.6094685  98.1201839  42.2441864 126.6205692  97.7564812
  41.1339760 125.6806564  98.1747818   6.9779950  69.2192459  75.9523439
   6.2298012  69.7662163  76.1916399   7.3557931  68.9505196  76.7897749
  38.0632305  74.7452831  89.3528271  38.6208987  75.5172968  89.4489384
  38.5186172  74.1991472  88.7120533  10.2324843  74.7580814 107.3585796
  10.3677273  73.9933777 107.9181862  10.9217405  74.6958637 106.6973019
 113.6653978  97.2733688  77.7831745 114.1918928  97.8894806  78.2925320
 112.7738447  97.3924828  78.1105518  22.4062729  76.3459969   1.0227529
  22.7286243  76.8455124   1.7729608  22.0041156  75.5676031   1.4082471
 122.9111121  92.4628735  36.2854886 122.0443440  92.7475166  36.5751839
 123.4637705  93.2378960  36.3861465  74.5826149  42.3604202   1.4548818
  74.4732714  41.8047333   0.6832067  75.3420019  41.9941616   1.9081155
 122.5034366  92.2807598  54.3007755 122.6816321  93.0029202  54.9032402
 122.5863396  92.6693439  53.4299326  31.2754440 100.4769802   1.9301740
  30.3352284 100.5295658   1.7585412  31.6411257 100.0782299   1.1405507
  26.7704964  74.4800901  75.2000618  26.6173053  73.6677265  75.6825924
  26.0169458  74.5567751  74.6148109  89.0599293  68.4647322  57.3569202
  88.1420297  68.3678675  57.1033192  89.0536541  68.3922243  58.3113480
   2.7197763  74.6268177  72.5275326   2.4205318  74.9475479  71.6767597
   3.6302707  74.3708134  72.3802471  26.6714311 104.7414207  87.4089241
  26.5838122 103.8366508  87.1090317  26.6597533 104.6793652  88.3640385
   3.3912030 112.8366375 104.9364281   3.9887410 112.7829170 105.6822777
   3.2060111 111.9248009 104.7117233  27.0319176 117.7410603 106.6713333
  27.4718523 118.4222507 107.1799469  27.3557019 116.9195366 107.0407867
  36.9772530  88.6911583   6.0194913  37.7400565  89.1351509   6.3899461
  37.2796607  88.3612347   5.1733629 111.2998194  84.9688148  63.5780764
 110.6644375  84.2538738  63.5409737 112.1362502  84.5371151  63.7519932
 102.8803558  99.7267246  85.4636192 101.9372434  99.5633030  85.4555702
 103.0475540 100.2046967  84.6513271  13.4594333  80.4849625  89.3373775
  13.0414677  81.3208294  89.1303158  13.3399177  79.9555969  88.5488892
  79.1766710 100.0375366  74.9205399  79.7376985 100.6059551  74.3929243
  78.6169500 100.6406403  75.4096365  13.4045053  65.2883482  59.1684103
  13.1023633  66.1942720  59.1032362  12.7282453  64.7777128  58.7232637
   5.2076793 104.7021580  66.6417122   5.8320153 104.6397877  65.9188366
   4.3532133 104.5648956  66.2327147 100.8629698  63.0868959  23.1546155
 100.9952349  62.3955679  23.8033143 101.7454309  63.3081150  22.8570310
   4.6370140  67.2468615  51.5926313   5.4780591  67.6976633  51.6678238
   4.0904197  67.6450729  52.2700500 112.6782734 100.0968933  78.4615326
 112.2595364 100.1430893  79.3210411 112.2329516 100.7661247  77.9418755
   7.6820499  90.5687141 107.9269505   7.2120702  91.3920593 107.7947998
   7.0276380  89.9760628 108.2967377 114.1553432  60.9878159  59.8757315
 113.3656353  60.6650925  59.4416332 113.8522262  61.7226696  60.4089689
   3.5574079  85.6345272  87.0801258   2.8274941  86.2245560  86.8921852
   4.2746928  86.2146378  87.3354721  12.2959685  21.7605639   0.6731740
  12.4528944  22.5515842   0.1575223  11.7032862  21.2368536   0.1340238
  21.7958736  55.1881266  61.6273546  22.0142698  54.6424675  62.3828602
  22.6388574  55.3714609  61.2126303  11.1627471 103.3112717   1.4921228
  10.3326404 102.9907703   1.1393682  11.2980080 102.7989101   2.2892515
  12.0239604 106.8788910  70.2479553  11.7439175 106.4421082  69.4435740
  12.3188567 106.1675739  70.8165503  26.5264368  98.5177517  63.3061361
  27.0238900  97.7329063  63.0763769  25.6405401  98.1982327  63.4773779
  18.4599268   9.0823250  79.1765976  18.2290792  10.0089627  79.2420292
  19.0029550   9.0257149  78.3903742  14.2710876  94.9423790  69.4090748
  15.1484156  95.0267601  69.7824478  14.0179038  94.0380573  69.5943451
 118.6264569  53.3943701 104.1070938 118.0623890  53.9734697 103.5945511
 118.1990642  52.5392580 104.0585995  15.1962125  99.1837215   7.7513543
  15.0855410 100.0690174   7.4046174  15.6625366  99.3068695   8.5781614
  27.3497057  82.7081203  85.9201145  27.4649692  83.6432171  85.7511330
  28.1352401  82.3002625  85.5556774  10.7055068  82.0342445  85.6833363
  11.4821863  82.5834084  85.7901573  10.6213319  81.5734482  86.5180874
   1.2853526  70.8569431  54.0141344   1.5037525  71.5557432  54.6307468
   0.5619454  71.2112331  53.4970331   8.2469827 113.2091236  82.1841908
   9.1117501 113.2244396  81.7741013   8.4221095 113.3323288  83.1171417
 113.4202845  85.8522224  92.9308701 112.9584534  85.0361156  92.7387142
 113.8215417  86.1020565  92.0985222 113.6136979  61.5354109  87.3090553
 113.3141477  61.6906071  88.2048321 113.3053798  62.2970533  86.8180656
  11.8515182  88.4438038  86.8126488  11.9735777  87.5399113  86.5222836
  12.2350538  88.4676170  87.6893234   6.3014990  69.6091175  87.1133327
   5.7246000  68.8453007  87.1133232   6.7623496  69.5612097  86.2757492
  34.8990488  60.9923267 103.3924675  35.3629947  60.2057886 103.6794281
  34.0446663  60.6736565 103.1014156   1.5548076  84.1851139  55.7909012
   2.0249264  83.4847164  55.3385115   2.2399525  84.6875954  56.2317276
 116.0474742 115.9811687  99.2792702 116.4254553 115.2143764  99.7098446
 116.4228941 116.7275333  99.7464180 116.8883819  85.4405403  80.4273510
 116.3161791  84.9810410  81.0419083 116.4317877  86.2613487  80.2428913
 124.0492803  66.5050125  89.8230457 124.2997699  67.2147369  90.4144764
 124.1591878  65.7093430  90.3436756   1.4591180  78.4424114  74.2632723
   0.8939605  77.9691219  73.6526823   2.3440938  78.1481695  74.0476990
 102.2498507 104.2554379   2.8659288 101.3583297 104.5976257   2.9317609
 102.7314634 104.9318409   2.3897306 119.0965731  61.5765476  66.5398741
 119.3318129  61.7600918  67.4493837 118.2595653  61.1157274  66.5972853
  97.8211564  90.9846592 103.2578754  97.8902859  91.3374138 102.3707390
  97.4676151  91.7075634 103.7761974   9.4166183 107.0654106   7.7808133
  10.0060368 107.3121452   7.0681135   8.7231219 107.7247620   7.7572194
  33.1035161  81.6156769 101.8775654  32.2814512  81.8288994 101.4360046
  33.5727453  82.4486065 101.9253922  21.3907027  93.1828976  83.5552979
  21.9992995  93.6890697  83.0171204  21.1068368  92.4669456  82.9869175
  34.1880322  42.5634003  37.6118851  33.4241509  43.1273079  37.4905372
  34.3415713  42.5681353  38.5566783   7.1977586  77.5696278  78.7586117
   6.4762074  77.9400682  79.2669153   7.1316218  76.6255045  78.9017534
   5.4051453  99.1659546  99.7022152   5.9166199  99.7787189  99.1738796
   4.6736795  99.6873951 100.0327969  25.7268500  72.0485115  51.4148664
  24.8636198  71.6353464  51.4338732  26.3332796  71.3284254  51.2418079
   7.7348411 102.5847149  65.6663132   8.0334187 101.9778919  66.3437033
   8.5406202 102.9342842  65.2858543  18.6332023 139.1101456  72.4194813
  19.2321479 139.1720676  73.1635666  18.8941681 139.8272419  71.8416405
  19.3846428  79.2823172  51.4557362  20.2029848  78.9504671  51.0863876
  18.9013922  78.4966850  51.7116261  39.7370052 115.1997375  55.3438520
  40.4578352 114.7419071  54.9113846  39.5958185 114.7118187  56.1551714
  34.0643311  48.1498909  91.0751629  33.5833263  48.2474804  90.2533627
  34.9819231  48.0881977  90.8097363 116.4225042  71.6221714  65.8429003
 116.3985104  71.5864801  64.8866653 116.5699912  70.7157278  66.1127853
  11.9557905  81.3992405  76.4667463  11.0883009  81.0024643  76.5459061
  11.7836273  82.3373604  76.3860464  16.3487446 100.6012535  17.9120103
  16.5060270  99.8391056  18.4693471  16.5718532 101.3512611  18.4633199
  97.2519297  87.9262924  48.8196850  96.5011830  87.3325157  48.8135719
  97.3369402  88.2142735  47.9107952  33.0156302 100.9369373  83.7056923
  32.4380493 101.3965797  83.0962944  32.9786325 101.4564323  84.5088005
  17.8848588  89.4547176  41.9520187  17.5054944  88.6060524  41.7237949
  18.4724283  89.2654800  42.6835823  26.2390471  77.0546055  62.1322250
  26.8170714  77.2281504  62.8751945  26.3053846  77.8396988  61.5886641
 120.8051602  71.1012268  90.3690910 121.0116578  70.7765245  89.4926548
 120.3004382  70.3954315  90.7732487   3.6008695  20.5660725  89.6255493
   3.2363820  19.9918950  90.2991295   4.4244385  20.8802915  89.9986935
  33.1950784  75.0499916  13.0973855  33.4703803  74.7948933  13.9779321
  33.1729198  76.0066414  13.1210939   4.2369616  60.4570007  50.8150291
   4.7368425  60.4714060  49.9988508   4.1481319  61.3786316  51.0577869
   6.7541564  77.2438145   5.4885141   7.1834379  76.9380379   6.2875501
   7.4542761  77.2724438   4.8364106  32.3060966  73.4836674  60.6699085
  32.2165632  72.6255131  61.0843849  31.4633012  73.6315393  60.2408886
  24.9968982  93.3273411  66.7145205  25.6166267  93.0048943  67.3688889
  25.2642274  92.9003811  65.9005976  16.0609901  95.8854198  74.3759060
  16.0965407  96.4066315  73.5738468  16.9781780  95.7302094  74.6015406
  29.3844748  58.1989050  77.3323488  29.4952369  57.5602245  78.0366564
  30.0297499  57.9429865  76.6732883  29.6561122  67.5055981  66.2759686
  30.2543950  67.4395370  65.5317068  28.7965465  67.2940063  65.9118128
 110.8780319  76.8348169  89.0544128 111.3372225  76.3156271  89.7145748
 110.0010402  76.9612122  89.4165516 119.0876967  62.9937077  25.9618608
 118.4753913  63.2448578  25.2703134 119.7115535  62.4106932  25.5292741
  17.2723627  57.1142912  69.0825701  16.7078161  57.7831078  68.6950064
  18.1551623  57.4783134  69.0163708  36.8269300  74.6591091  95.4564762
  36.8794823  74.3535566  94.5508766  37.5163031  75.3194475  95.5268383
  99.6493143  61.2119055  69.1574717  99.3894929  60.5696249  68.4970188
  98.9147586  61.2353706  69.7707510 122.8305051  92.5755787  11.3330308
 122.8029556  93.4494305  10.9433404 123.6780985  92.5375652  11.7761747
 117.6154841  89.5084763  76.0814095 118.0080993  89.0929508  75.3136683
 118.1721426  90.2678680  76.2536860  31.5455818  43.0412674  46.5066624
  31.4673233  42.3705053  47.1850348  32.4743485  43.0404997  46.2750912
 106.3337881  72.2697878  84.8740482 105.4832692  72.1933842  85.3064919
 106.8202359  71.4981937  85.1642990 117.8516836  68.7684011  73.6579609
 117.9244424  67.8931093  74.0384817 117.0805067  69.1489649  74.0783072
 106.7536313 101.5546036  54.0401936 105.8519179 101.7906380  54.2579794
 106.9474763 102.0551109  53.2476377   9.0645814  32.5544238  90.2551365
   9.3273401  32.3092413  91.1423111   8.6708879  31.7602539  89.8938465
  27.9853892  61.9020891  81.1498260  28.0931687  60.9630013  81.3006020
  27.8765869  61.9815779  80.2021599   8.1453007  64.7753382  79.6358728
   7.9465717  64.1709757  80.3510571   7.9075819  64.2946053  78.8430214
  14.5062792  89.9933815  71.5083361  15.3897011  89.9043083  71.8659163
  14.6420097  90.2259350  70.5897903  40.6990814  63.4499788  60.3992510
  41.3403845  64.1605234  60.4085588  40.1570511  63.6064053  61.1725330
  40.1924849  35.4959989  86.6181660  40.7182360  36.1403799  87.0920753
  39.2864919  35.7441950  86.8020248   0.6507021  75.3861046  77.3737717
   0.1724476  76.1458588  77.0416880   0.5003747  75.4028463  78.3189440
   9.8547238  73.9423132  69.9578953   9.1406423  73.8253212  70.5845022
  10.4395020  73.2020998  70.1202297   3.6384651  78.0586863  78.3334780
   3.6421281  78.7392092  79.0066051   3.4059933  77.2579813  78.8036537
  35.6423593  81.1479759  77.5767660  35.4767299  81.3383579  78.5001040
  35.3805637  81.9456768  77.1170282 119.5632226  70.3502989  75.6512880
 120.0854052  70.0213766  74.9196005 118.8559235  70.8449793  75.2374649
  93.1585235  98.0461979  66.3280392  92.8401989  97.9877090  67.2288609
  93.0363435  97.1656418  65.9731913  10.4504657  76.7445517  81.4899635
  10.0585496  76.7506266  82.3632336  10.9807873  75.9479141  81.4709854
  18.7543571  68.2738972  72.1166754  18.8420904  69.0659618  72.6469278
  18.0984461  67.7495432  72.5760937  23.6119151  74.3944550  87.7407074
  22.9477048  74.5147848  88.4193611  23.4608221  73.5081959  87.4121475
  36.6746902  48.2512856  82.1208096  37.0566702  49.0365458  82.5128460
  36.6109180  47.6287460  82.8451061 109.4600136 109.4770908  85.5392551
 109.3232781 108.5730076  85.8224106 108.6657173 109.6985626  85.0531673
  91.1242051 108.0762577  75.6634855  90.8947939 108.2576942  76.5749073
  90.3143758 108.2311726  75.1772642  31.2663269  96.8023396  71.0884047
  31.8994975  97.5145245  71.1785650  31.1268258  96.4912224  71.9828224
  17.2514296  68.0094385  50.0052261  18.1728852  68.2645226  49.9596214
  16.8234825  68.5358334  49.3299484  21.0175705 101.1551952  85.4194164
  21.4351630 100.5946064  86.0733128  20.1169133 100.8349609  85.3694439
  15.5790448  95.1336861  40.7697248  14.7265744  94.9018288  41.1381960
  16.0648394  94.3091011  40.7525778  17.8644419  91.7866802  73.9037800
  18.0998433  92.2445297  74.7107458  16.9088876  91.7357445  73.9273214
  17.3905039  66.3438511  46.5238953  16.6844928  66.9807673  46.6339827
  17.2478771  65.7050705  47.2223568 111.9406599  50.0099611  84.8805141
 111.1643798  49.4678545  85.0210190 111.6002077  50.9016418  84.8081875
  95.9102053  72.0756292  36.0522079  95.9324116  71.2219095  35.6198883
  96.8181176  72.2381878  36.3081408   9.8618948  47.4076462  65.5748510
   9.6071833  48.2165194  65.1309204  10.5842376  47.6658869  66.1473608
 122.3046087  94.5948315  43.8786507 121.8273503  94.1182804  44.5578861
 122.1627141  94.0830040  43.0823278  30.3864455  63.4351301  63.6632156
  29.9741602  62.8685617  63.0111027  29.6579409  63.9113617  64.0616035
  96.2758798  62.3527193  84.1471291  96.7888493  61.9628191  83.4392643
  96.1694664  61.6455698  84.7834015  10.8169603  57.7995348  74.9038935
  10.4264510  58.6312342  74.6355391  10.7286263  57.7899265  75.8569622
  87.2564239  70.8946609  48.1970072  88.0388898  71.0400820  47.6651907
  87.3211760  69.9805260  48.4734058  43.8049889  89.1536045  91.0551548
  44.5631981  89.4087887  90.5295753  44.0359306  89.4086838  91.9483662
   5.0710261  90.7837009  62.6908064   4.6575686  89.9615479  62.9541492
   4.6347216  91.0197544  61.8721771  30.2608061  84.5847130  60.8306074
  30.9235573  83.9693260  60.5171013  29.4708037  84.3559170  60.3409338
 107.0649535  41.9685173  42.6720858 107.0655674  41.0482359  42.4087954
 107.8636963  42.3284817  42.2865105   3.0519485  59.2101431  25.9592319
   2.2980022  59.7814226  26.1056399   3.8058859  59.7348261  26.2285233
  12.7250743  57.4858332  71.5980339  11.7982161  57.7248669  71.6033363
  12.7962136  56.7881107  72.2494602  17.5200820  92.7749062  96.4261150
  16.9601953  93.5170364  96.6541481  17.3196590  92.5971508  95.5071735
   0.0626694  81.4266491  74.3747473   0.4041927  80.5346489  74.3120623
   0.5187840  81.9068623  73.6836720 121.7382137 110.6045914  42.1396685
 122.5487710 111.1052227  42.2323561 121.4080799 110.5156231  43.0337191
   9.9466479 110.0202274  89.8554707   9.8718578 109.3449402  90.5297279
   9.1466182 109.9311924  89.3375397 124.2241725  92.4023628  71.6198158
 125.0620704  92.5435925  72.0605087 123.6254235  92.1444130  72.3206663
 105.6079275  74.8271132  47.6452446 106.0255308  75.6843519  47.5616550
 105.9904677  74.4505978  48.4377956  13.0134594 122.8025150  77.7238226
  12.5598240 121.9749260  77.5639582  13.1092477 122.8432274  78.6753464
  12.3167109  92.6620007  86.8385696  11.9860351  92.0040989  86.2269783
  12.0381963  92.3500443  87.6995850 110.7899482  71.1491823  48.1041574
 109.9428207  71.5139198  47.8480864 111.2453825  70.9970522  47.2761059
  13.3409989  87.1936131 101.3417053  13.8262987  87.3095417 102.1585751
  13.0771053  86.2735367 101.3484001  44.3135357  94.6540451  64.1062021
  45.1776981  94.7368622  63.7029743  43.8302898  95.4200459  63.7964487
  39.0911841  84.6201611  75.9963560  38.3799791  85.0745392  76.4479828
  38.9890170  84.8688030  75.0776768 120.3296155  72.1961164  64.3967152
 119.7111005  72.7768564  63.9535284 120.8544872  72.7790165  64.9453211
 103.5514159  87.3125648   9.0715829 103.8582391  88.0400658   9.6127168
 102.6349897  87.5198936   8.8887922 103.7760634  48.9033270  70.2806568
 104.1454071  49.6716547  69.8453569 102.9013700  48.8113976  69.9029112
   4.3179154  51.4444065  67.1176291   4.2905897  50.5942774  66.6785765
   4.4450849  51.2324142  68.0423546  16.7522788  61.2349415  81.9873714
  17.1108508  62.0271301  81.5872669  15.9098208  61.5096807  82.3493385
  32.5388002 126.9160271  59.5167065  32.5200343 125.9602165  59.4686604
  32.9676437 127.1055222  60.3512239   8.6508358  81.4451313  65.3032541
   7.8667760  81.4585018  64.7543430   8.5047114  80.7210445  65.9120035
  93.2298798  76.0287237  45.3015614  93.4762306  75.1657629  44.9686289
  92.2979445  76.1070347  45.0976133  14.0638125  93.3790588   5.2389566
  14.4032836  93.7156773   4.4096891  14.2790520  92.4464798   5.2249662
 121.3979296  87.6533413  18.7924159 121.7717589  88.1023502  18.0342066
 121.1462299  88.3587837  19.3884373  26.8800855  76.6127396  55.5012465
  26.6601110  77.2710514  56.1603928  27.7994108  76.7797422  55.2934456
   3.1019577  89.6092892  57.1472645   4.0018511  89.3690777  57.3679924
   2.7783161  90.0651932  57.9242039  20.2415037 106.5038967  63.4133005
  21.0473132 106.0009670  63.2951021  20.1836300 107.0511055  62.6300716
  17.6282609  78.7359095  71.8724966  17.0287800  78.0342865  71.6183710
  17.1127403  79.2913342  72.4572802   2.1059096  89.5039940  96.7854118
   1.5311241  89.4377613  96.0228729   2.9217657  89.0877819  96.5072441
   3.7487537  83.7572956  85.0021458   4.6804070  83.7916374  84.7851753
   3.6125106  84.4993496  85.5912304 100.7800264 103.0491066  84.6436691
 100.0441164 102.7134991  84.1317749 101.5443367 102.5925446  84.2920780
 108.5265405 102.8822231  57.3609114 108.1879897 102.1501637  57.8763771
 108.9307947 102.4706173  56.5971088  11.5241623 106.7695141  61.5925884
  10.8585703 106.6625404  62.2721291  11.5639448 107.7140903  61.4428711
  17.3295414  70.4713011  90.7602119  16.7556477  71.2293577  90.6496334
  16.7729735  69.8067379  91.1661911  14.2347729  78.9623260  59.2613745
  13.8562822  79.4839334  58.5536289  13.5598433  78.9539480  59.9400711
  29.2759061  89.7837162  59.7469044  28.5334039  89.2729664  59.4243383
  29.2775488  89.6331978  60.6921959 110.7424755 107.5987911  46.2061834
 110.6630248 106.6462040  46.1562490 111.6423768 107.7786732  45.9340620
  96.3844056  57.7228928  98.2055378  96.0497589  58.5939503  98.4188747
  97.2336382  57.8864288  97.7953148  55.8931637 109.1338348  40.5731821
  54.9493742 108.9837742  40.5186844  56.1157751 108.9315128  41.4818859
 123.3964964  80.4400539  46.3377476 122.8069862  79.9092054  46.8733931
 122.9551167  81.2860584  46.2624025 124.2136754  79.9275208  39.2733240
 123.3831028  79.8109198  38.8120365 124.6937238  79.1154146  39.1112542
 118.5553963  80.2491951  67.2620726 119.2340476  79.6017313  67.4529886
 117.7322388  79.7878361  67.4226618  55.5513239  74.2091370  74.3034220
  55.9462357  75.0805759  74.3329573  56.1299658  73.7031603  73.7329960
 119.2582679  70.3101540  48.2740116 118.8662410  71.1697245  48.1201077
 119.0553493  69.8094177  47.4838734   2.8110397  59.2310381  60.2776527
   2.8753009  59.1325569  59.3277025   2.3525777  58.4431458  60.5696630
  91.3023014  97.7254200  48.4094667  91.4682550  98.5987282  48.7644577
  91.6318149  97.1275425  49.0804291 116.3436318  55.7127666  29.9354005
 116.4844508  54.7959566  29.6990490 117.2117168  56.1116076  29.8755050
  10.2494121 101.8669128  77.6946068  10.9652781 102.3317432  77.2613573
   9.6116269 101.7074680  76.9988775   9.1185677  65.8887434  75.9168434
   9.0308440  65.0533485  76.3758087   9.3123335  66.5223598  76.6076565
  11.8864989 116.0290527  67.7659273  12.4537408 116.7537594  68.0291224
  11.0056233 116.3138199  68.0092430 119.4256014  46.4783287  79.0311432
 120.0824148  46.1648321  78.4094143 118.5879821  46.2286806  78.6408854
  36.0004306  54.5157957  90.4895973  36.7764139  54.0874386  90.1282215
  36.0922337  54.4177580  91.4373302  14.4101036  80.9955120  79.2719984
  13.6195898  80.4968357  79.4784784  14.8982680  81.0221386  80.0949287
  19.5681524  87.8581810  80.8714294  19.1220427  87.2562218  80.2757359
  20.3559923  87.3869419  81.1424923 119.5050014  63.5101414  34.7615552
 119.2017478  63.6079788  33.8589501 119.3644560  64.3708563  35.1560712
   6.9587350  95.6478024  47.7983475   7.0639688  95.4739857  48.7337351
   6.1725020  95.1609707  47.5512409   9.4679660  48.8934755  48.7537622
  10.3382015  49.2873287  48.8154125   8.8934171  49.6190834  48.5095978
  11.2102270  83.8151360  47.7386713  10.5808282  83.4150982  47.1386194
  11.3627267  83.1465721  48.4064960 111.7379362  83.6957264  34.6847486
 112.1139306  84.3019104  35.3230238 111.0640795  83.2220554  35.1723766
  13.7207627 100.2263641  38.8929296  13.0293095 100.4578686  38.2728267
  13.3615434  99.4903755  39.3884206   1.6170633 116.3913536  48.4688663
   1.0936163 116.4229965  47.6680946   2.4126729 115.9227467  48.2165718
 111.9510097 101.5301991  92.0095253 111.2029666 102.0987892  91.8268681
 112.1148617 101.0768890  91.1825466   4.4506854 135.0628853  68.2591820
   4.1615969 135.3940487  67.4088955   3.6794937 135.1397705  68.8209534
  32.9288578  48.1125593  48.4533644  32.9516935  49.0267372  48.1705379
  32.4699116  47.6552486  47.7487612 103.4804077  81.9585705  93.8965607
 104.2248029  81.7185879  93.3447361 102.9282398  82.4994469  93.3319473
  33.0169320  69.2801428  83.6090946  32.8855419  68.4876680  83.0885601
  32.1410751  69.5116615  83.9181328  24.8960590  51.4769888  72.7746773
  23.9768243  51.6187668  72.5485373  25.0747323  52.1171427  73.4635258
  34.1188645  41.1673498  55.9160757  33.2498622  41.5621901  55.8441925
  33.9509201  40.2687454  56.1998701  15.1191926  78.3304024  86.9733334
  15.3383076  77.9377317  87.8183365  14.2405105  78.6894608  87.0967293
  15.5293179  91.3166904  66.2948179  15.8912551  90.4831696  65.9940290
  14.9906576  91.0848427  67.0513391 114.7439260  65.8255434  39.9482203
 114.4844431  65.5677605  40.8327818 115.6087143  65.4331112  39.8283553
 111.8273980  62.3033476  72.8889942 112.2888464  61.4739704  73.0132198
 111.0370178  62.0672846  72.4033928  11.5210855 113.0499268  70.4020548
  10.7478678 113.5935497  70.5531883  11.4196718 112.3155975  71.0076237
 117.3052610  57.3664474  79.1677666 118.0566174  56.9789791  78.7188053
 117.1943653  58.2224655  78.7540483   0.8776103  86.2424946  48.9785385
   0.5311944  86.0913372  49.8579597   0.2414075  86.8280125  48.5678768
 103.0469150  58.6689711 100.8914089 103.3644623  59.2351818 101.5948296
 102.7810234  59.2737246 100.1987267 116.8096466 125.9904003  77.6134205
 117.0006097 126.7689705  77.0903635 117.5789554 125.4319763  77.5013733
   7.6149583  78.3688307  72.1234798   7.2334820  77.4981022  72.2354364
   8.0884022  78.5296583  72.9397011 114.8674548 108.2903004  95.9201717
 114.5723338 107.5330448  95.4145050 114.8648310 107.9876804  96.8282795
  12.6976061 104.1140652  45.0732803  12.9378057 104.0776539  45.9991407
  12.3180676 104.9852657  44.9583912  16.3556898  77.0663404  58.6529493
  16.1700153  76.4464283  59.3582582  15.8366656  77.8403330  58.8715410
 119.4987918  70.5966091  62.1132040 119.5950562  70.5310011  63.0632877
 119.3375934  71.5263414  61.9524336 117.6069213 115.4859066  73.5743761
 118.1695098 115.4219151  72.8026056 117.6187266 116.4153290  73.8029766
  48.8922787  85.1742268  59.4235897  48.9333200  85.3927708  58.4925747
  48.6737299  84.2424774  59.4414902   0.3463449  90.0530148  88.5264111
   0.5266959  90.7909966  87.9440975  -0.4924194  89.7068596  88.2216454
   0.7008609  81.7996025  59.8053026   1.1446929  80.9515285  59.8009777
   0.5388540  81.9898605  58.8812971  10.0509226  52.3965788  91.7455292
   9.2929351  52.8342152  92.1330357  10.8056068  52.8004980  92.1739388
 113.0127079  49.6873713   4.3443624 112.0882184  49.5934963   4.1147176
 113.4071762  50.1104546   3.5817186  19.3405056  93.4421349  86.1927605
  19.7544765  93.0588913  86.9660473  20.0231123  93.4241867  85.5219650
  23.2300806  80.7618523  32.0417023  23.5625148  81.4044762  32.6683950
  23.9278221  80.1100731  31.9741082 123.0997156  64.9415970  27.0607233
 122.6599059  65.7124043  27.4194074 123.7306920  64.6903181  27.7352285
 110.7292838  63.2819223  49.1628599 111.5955204  63.5437012  49.4748497
 110.2660126  64.1075373  49.0215492   5.3965908  88.4985828  82.4059772
   5.0112677  89.3324852  82.6749706   5.5917788  88.6138248  81.4760017
  15.5672634  78.9299011  47.1617985  15.0819278  78.3948708  47.7898312
  15.8157802  79.7117758  47.6548958 117.0180655  85.8015633  55.9299278
 116.9274754  86.7299747  56.1446142 116.1770398  85.5626678  55.5402708
   4.8127890  63.5820150  65.3126001   5.5967569  63.7897015  64.8041773
   4.3076274  62.9986429  64.7462749 102.9250688 105.1340008  39.5719957
 103.2081193 105.8437347  40.1485252 101.9941134 105.3014183  39.4252920
  17.9014874  70.7982874  47.7047777  18.8295496  70.8204508  47.4714518
  17.4485111  70.6618023  46.8726587  26.4886498  80.7721996  75.7671213
  26.7590332  80.5222988  76.6506815  27.0230198  80.2268028  75.1898670
 124.1346123  65.4969835  62.2561264 123.5369019  65.8832073  61.6159630
 124.5362607  64.7606087  61.7949724  11.3301671  72.2961521  93.0486107
  11.2021327  71.3477659  93.0284882  10.8506000  72.6188183  92.2856331
  16.7496419  51.1290169  58.8586712  17.5506735  51.0389853  59.3748856
  16.1132598  51.5040159  59.4674635   9.6502775  54.6034813  61.0041809
   9.3890387  54.2303944  61.8460798  10.5550718  54.8858547  61.1377573
 113.8115782  94.3129921  50.0204802 114.1883618  93.5735226  49.5435619
 113.6829967  94.9875736  49.3536663   5.4703838  50.6794691  64.3187046
   5.2963132  51.3233042  65.0052929   6.1765742  50.1381063  64.6714830
 115.7659472  69.5621300  25.4655552 116.3582403  70.1111317  25.9793806
 116.0127158  69.7295856  24.5559978   8.7399727  71.0052490  51.4236355
   8.0406338  71.6523314  51.3317490   9.5328236  71.5260220  51.5517521
  96.2079210  70.0681305  46.1918497  96.7853112  69.6252632  46.8137169
  96.5559143  69.8320675  45.3319645  80.4467887  66.8319225  78.7827778
  79.5389480  67.1343279  78.8073635  80.5115957  66.3346338  77.9674625
 108.2171566  72.6727009  42.9927492 109.1629857  72.6399183  42.8493452
 108.0215759  73.6048079  43.0884171   6.9327545 111.2691784  95.6649303
   6.7807734 111.2568283  94.7199535   7.6931763 111.8394852  95.7777882
 124.5472446  72.7111626  76.2223482 124.8875268  73.5754824  76.4534235
 124.4995786  72.7202511  75.2663803   2.6415581 100.9884453  89.8531532
   2.8644836 100.6696606  88.9785576   1.9644174 101.6479588  89.7023010
  38.7784672  80.0782108  42.4925423  38.2402015  79.6512222  43.1590128
  39.3133163  80.7037544  42.9812765  18.3522165  90.2439880  48.8087988
  17.4658585  90.3037548  49.1652107  18.9098287  90.1086998  49.5749569
  17.2466040 132.3038387  77.6978874  16.3169754 132.3502445  77.9211998
  17.3054266 132.7079391  76.8321609   6.5016031 101.4106655  51.8581724
   7.2692782 100.9860039  52.2410154   5.9817189 100.6899929  51.5023994
  24.0066361  98.2643318  50.0080585  23.6133337  97.6315784  50.6090355
  23.8328218  97.9074287  49.1370583  41.3298416  57.6488400  48.5597992
  41.7011976  58.3004093  47.9650021  41.9968271  57.5348854  49.2368364
  30.0251794  79.4155073  85.0197601  30.3272367  78.8987970  84.2727566
  29.0775418  79.2815447  85.0361443 112.9615957  98.4769630  51.9191694
 112.4398572  98.6371708  52.7055264 113.8506884  98.3386707  52.2456980
  88.7573881  58.4908485  49.5157003  88.9741797  58.9797163  50.3095770
  89.5026059  58.6374521  48.9331293   6.9292927  98.9156818  49.6903658
   6.4530921  98.6011887  50.4588461   7.5327694  98.2045841  49.4749784
  30.8788466  93.4527016  71.4811230  31.6335964  94.0035725  71.6887903
  31.2295675  92.7729321  70.9056711  16.7392862  94.0357113  66.6030073
  16.6243386  93.1104183  66.8194532  15.9982836  94.2422962  66.0333824
  35.6915331 103.4917450  76.2293053  34.9430394 103.5158920  76.8254662
  35.7237935 102.5858212  75.9219313  92.8297276  92.3606014  78.6447239
  92.0060176  92.6701450  79.0214396  92.9522747  92.8982449  77.8623247
  18.4612787  94.7095966  63.6362648  18.1665182  95.0081539  64.4966221
  17.7221036  94.8876476  63.0547619  25.3692698  49.0973473  81.7010403
  26.1087132  49.4922161  81.2389469  25.7720470  48.4999275  82.3311901
 122.9352554 105.6096077  59.6906424 122.7304106 105.1405811  58.8817644
 123.8904707 105.5843353  59.7468233  13.2789493  87.1335220  74.0163612
  13.2515872  87.0477486  74.9693203  13.9181054  86.4788055  73.7351990
  44.9215889  50.3327942  77.1530581  44.4652367  49.5913935  77.5509262
  45.5376530  49.9332809  76.5389872  10.7433772  87.8490734  59.3708754
  10.1487529  88.1884384  60.0398159  10.9410167  88.6062717  58.8196850
 112.0497186  83.7301064  45.7584763 112.8628547  84.1472244  45.4737759
 112.1995932  82.7947044  45.6213379  18.2990122 107.5112247 100.1459694
  18.8761258 107.0064068  99.5729733  18.2693398 108.3818150  99.7491837
 108.2680029 100.5226707  71.3510942 108.2293505 101.2097263  70.6857443
 109.1801912 100.2326965  71.3432455 124.1331183  58.9536285  71.3111353
 123.9423069  59.5686007  70.6028748 124.1785789  59.4992161  72.0963097
  31.3021588  86.0429192  81.9439125  30.6292725  86.4722919  82.4722099
  31.0066319  86.1571884  81.0406780 122.7313007  48.2445049  57.3292112
 121.9291542  47.7552986  57.5121593 122.5593152  49.1224432  57.6696110
  11.0998201 126.4059925  44.6613836  11.6108334 125.6600189  44.9754238
  10.9057415 126.9124126  45.4501200  37.2728300  72.3058891  82.8777695
  37.8669882  72.4626827  83.6116791  37.8375697  72.3205376  82.1050549
 118.5806907  55.0445223  65.0239515 119.3344552  55.4809523  65.4209423
 118.2394338  54.4786644  65.7164717 100.7916731 100.4143238  68.9201021
 100.0983948 100.0176811  68.3925819 101.2863225  99.6704578  69.2639256
 107.8517265 118.4348774  73.1855297 108.0514450 118.0803680  72.3191214
 107.8896374 119.3843746  73.0703688  52.2126722  98.7039661 101.8443871
  51.9845295  99.5447731 102.2409248  51.9216967  98.7808800 100.9357357
   8.4418029  31.2297297  48.2723999   8.7977785  30.7931924  47.4984789
   8.7719226  32.1263480  48.2147264  94.7704763  54.9692869  38.7671566
  94.4841475  55.8416319  39.0378261  94.0214772  54.6076250  38.2934141
 118.7807078  32.4848580  47.4444008 119.6394969  32.4126244  47.0278740
 118.9027393  33.1383538  48.1330824 117.3096687  64.0773106  68.2326412
 116.9229890  63.2963371  68.6286068 118.2516623  63.9721489  68.3661366
  14.2884696  36.2448525  60.5828381  14.6434140  35.4495478  60.9800053
  14.0830731  35.9919763  59.6827841  98.9111800  64.2894030  77.5748682
  99.1084022  64.5847654  76.6859913  99.7628135  64.0556765  77.9440832
 117.5924296  88.2342052  21.1590672 116.8082441  88.7381268  20.9414577
 118.0796767  88.7972450  21.7605710 123.5553667 104.3353653  87.6303673
 124.1814466 103.6116982  87.6065540 122.7172886 103.9203930  87.8344536
  76.7275590  72.0850897  73.4358549  77.1590967  71.3516712  72.9975653
  76.0746402  71.6746759  74.0028524  18.9721286  70.2243185 102.8364468
  19.6927977  70.2341223 102.2065449  18.5653305  69.3655062 102.7216244
 103.0893940  97.9207897   2.7598993 102.6366801  97.9403305   1.9167463
 102.4016804  97.7259541   3.3965436  24.5087314  68.8561916  26.1077476
  24.5046568  68.3542395  25.2927256  25.1150584  69.5779610  25.9414911
  45.9888935 117.9806900  71.2393808  45.8702135 118.7969398  71.7250538
  45.2248096 117.9304695  70.6650257  40.3766394   0.6811791  70.7692385
  39.5864129   0.1457672  70.8407831  40.6159782   0.6324559  69.8437262
   9.3902510  60.8950424  63.7164068   9.6839482  61.6264391  63.1732368
   8.4617496  60.7975674  63.5051823   3.1753170  48.9059830  50.3836823
   2.6623958  49.5412970  49.8841619   2.5668803  48.1865597  50.5524111
 112.4084026 102.0122051  52.9575014 111.9459028 102.7030563  53.4318972
 112.3202402 101.2388134  53.5145617   9.4492960  39.5512676  73.4777784
  10.0840414  40.2234030  73.2296515   9.7855073  39.1964865  74.3007755
   6.8141794  62.3395157  53.2123756   7.4010986  62.9739857  53.6237192
   6.0449404  62.8515768  52.9627848 119.4421161 123.3213615  47.2922277
 119.7514859 123.1456566  46.4036036 118.6622501 122.7744770  47.3868465
  28.9452577 102.6233292  56.0849190  29.1960669 102.4912357  55.1706553
  29.7363663 102.9624367  56.5037107  41.6602564  41.1001396  16.0104275
  41.0494328  40.4350281  16.3278520  42.5056982  40.6525326  15.9771764
  93.1783695  77.8823137   8.0680943  94.0324540  78.3012486   7.9619402
  92.8343648  77.8107786   7.1777147  38.9236069  34.9684381  57.0367575
  38.7502885  34.1830206  56.5178061  38.2747555  35.6036425  56.7338800
  14.6385932  49.1700268  25.5012083  14.6810293  48.9014435  24.5834446
  14.9621272  50.0708914  25.5023336 121.2625144  71.8550158  17.9817712
 122.0138696  72.1227360  18.5109425 121.2512890  70.9001446  18.0475569
 122.3871744  52.6005411  80.0207806 123.0551789  53.0616617  79.5134640
 122.5235578  52.8961134  80.9209347  31.6808248  53.2331562  50.2851963
  31.0286188  53.9215136  50.1547003  32.2641540  53.5806942  50.9598637
   3.1994867  69.6685886  18.1472898   4.1374081  69.8591089  18.1318676
   3.1468281  68.7171412  18.0566800  23.2985926  77.2592258  29.6149230
  24.0009356  77.7263355  30.0674176  23.6271977  77.1371698  28.7242174
  30.5599403  62.1349907   7.8807348  31.0136890  61.5309954   7.2929144
  30.3887892  61.6191530   8.6686742   2.1553801  56.5020418  46.0664558
   2.6447773  55.7012510  46.2547684   1.2415968  56.2681961  46.2293959
  64.5910215  79.4036245  11.7885435  64.3511009  78.5157156  12.0536578
  65.5157566  79.4819498  12.0229709   9.0477413  67.2345495  61.7035818
   8.3692527  66.6841125  61.3125515   8.5703468  67.9782152  62.0713997
   1.7982511  95.5048466  45.5588961   1.2336692  95.1675701  46.2543964
   1.5823337  96.4358425  45.5054665   8.7248141  88.2535458  52.4242926
   8.9523196  87.5089741  51.8674374   7.7898002  88.1455421  52.5984049
   3.7972832  42.8675175  56.4285994   3.5554591  43.1126404  57.3217201
   3.0223054  42.4239349  56.0838127   5.2808475  79.3918848  12.9376554
   4.7376606  79.8372030  12.2873700   4.8489469  79.5701647  13.7730658
 114.8355163  56.2039661  57.4744558 114.5063204  56.4135838  56.6004276
 115.4132355  55.4528761  57.3390293 115.8403224 100.5623722  63.3873272
 116.2484193 100.2535439  62.5784302 116.5149677 101.0958385  63.8074398
   0.5124005  86.2745953   1.7935863   0.3262841  85.9476566   2.6737598
  -0.3399608  86.2891006   1.3582687  47.7036190  71.8796253  67.7943373
  47.0635366  72.3772097  67.2854757  47.7683544  71.0388899  67.3413420
  84.8871416 101.7669487  23.7096667  85.8441705 101.7850113  23.7092710
  84.6435470 102.0006084  24.6053791   9.4144917  55.5552721  30.2167916
   8.9779270  55.5989313  31.0675192   9.0531027  56.2920380  29.7240400
  10.6445301  73.9761066  33.6684322  11.0105097  74.4107437  34.4387460
  11.3696790  73.4586430  33.3182597  23.6541963  50.8418179  35.1369596
  23.0341387  50.2889729  35.6124806  24.0343571  51.4079189  35.8087015
 114.6414310  73.3276176  24.7081566 115.2645738  74.0417910  24.5744276
 114.2985982  73.4709167  25.5902934  21.2874866 111.9187069  23.1567550
  21.1291718 111.0527325  22.7809167  20.9061456 111.8726444  24.0335035
  18.6198163  66.0673571  52.9728174  18.2187355  66.6715956  53.5975266
  19.2303145  66.6095924  52.4733162   5.2601570  90.7555199  45.8495426
   4.7933343  91.5478325  45.5839252   5.2566206  90.7848167  46.8062878
 122.5982285  86.7720222  61.4966297 122.3802014  86.8184471  60.5657482
 123.0683329  85.9436321  61.5914965   6.2542433 109.7896671  54.1946650
   5.5971491 110.4425144  54.4360161   6.4513326 109.9762154  53.2767391
 118.3631260 104.1271877  64.8965597 118.9947290 104.3375874  65.5843401
 117.6801164 103.6271381  65.3434134  37.9863095  50.8780050  64.3828392
  37.8433466  50.0895452  63.8592720  38.7282395  51.3131571  63.9628220
  14.7782433  97.9756355  42.3368692  14.1084456  97.8803730  41.6597223
  14.3189228  97.7899933  43.1558895  39.3341923  67.1013689  81.6047955
  38.8589072  66.4365339  82.1031189  40.1625443  67.2050476  82.0731068
   9.7080284  75.7211208  40.0775623   9.8809540  76.6529942  39.9436355
  10.3313315  75.2768326  39.5028186 112.6727218 104.8256683  27.3779988
 112.5131959 104.4516945  26.5114379 112.3844010 105.7353306  27.3030639
   0.1951533  95.0413418  54.0317774   0.7673340  94.2760754  53.9750719
  -0.2908646  94.9171257  54.8469973  21.5877151  79.5800686  21.0953569
  20.9612036  79.9258947  20.4596543  22.0152259  80.3563976  21.4569926
  26.9298720  98.9904118   5.4962015  26.5126252  98.3344841   6.0546708
  26.2848401  99.6946144   5.4308659 115.4564918 100.5997086  42.7700281
 115.6110550  99.6906567  42.5131941 116.3241113 100.9360218  42.9944420
  40.4724836  64.5067692  34.5246220  40.9369135  63.9752722  33.8780546
  40.2821827  63.9007425  35.2406836  95.1382036  98.2443333  40.9233522
  95.3603334  98.3880520  41.8432617  94.6669025  99.0361404  40.6642294
 119.7660337  64.4001484  53.1110620 120.2720556  64.0832996  52.3628759
 119.4121653  63.6072445  53.5139370  28.6160350  83.3666706  41.7555094
  29.2244601  82.7124977  41.4118528  29.0146947  84.2069054  41.5289831
   9.3045777  57.5554609  51.4200735   9.0173799  56.6460276  51.5017700
   9.5236945  57.6551342  50.4936361   8.8257807  47.1032667   1.9321907
   9.7657061  47.2440672   2.0459814   8.4636825  47.1787262   2.8150398
   7.6969689  77.9814386  50.7025957   8.4646434  77.7754498  51.2359571
   6.9683069  77.9860067  51.3232899  24.6867204  78.8808823  22.5780630
  25.4829311  78.3535910  22.5129318  23.9885855  78.2431221  22.7267313
 117.3877341  65.1614761  28.9320827 117.3722083  66.0592985  28.6005640
 118.2373369  64.8185062  28.6549973  11.6923809  50.0748777  42.3846149
  11.1355829  50.7020903  41.9232988  11.1046290  49.3540955  42.6110029
 103.1454772  78.1072903  41.0294533 103.3704705  77.1991777  41.2317944
 103.4473771  78.6040020  41.7899609 110.1789243  54.0401316  86.8059635
 111.0069079  54.5117855  86.7153072 109.5128984  54.6705389  86.5316772
   7.6730216  62.1733332  24.0583396   7.5295860  62.1199799  23.1134510
   6.8201911  62.4195242  24.4165325 118.3146394  57.5287676  42.5135517
 119.0671796  56.9511461  42.3860025 118.5899860  58.3665752  42.1414137
  26.9202042  94.3411255  51.5851784  25.9635210  94.3725586  51.5834904
  27.1616530  94.4454575  52.5055313  23.7801003  58.3558178  45.2615166
  23.4271765  57.6831770  45.8439445  24.1070366  57.8696680  44.5045471
 109.5562548  80.4040241  50.3106022 109.2446727  80.8963299  51.0700655
 110.1507205  81.0057640  49.8625517 119.5617867 125.2438927  77.6114511
 120.0759021 124.5836639  78.0762243 119.7787458 125.1105404  76.6887522
 120.6506977  68.1384611  69.7705078 119.8448027  68.6549425  69.7740269
 121.3499523  68.7850046  69.8667431  12.0608187 105.7730198  98.2035160
  11.8085790 104.9481869  98.6185551  12.2266352 106.3681507  98.9346504
   0.3801380  46.3900566  58.1457090  -0.1425247  47.1810246  58.0137014
   1.2606081  46.7137718  58.3360052  41.7163897 134.9447632  87.7562046
  41.4325809 134.2718124  87.1374798  42.4000359 135.4258442  87.2899151
  19.3903613 106.9651031  52.3315144  19.5347440 106.1629200  51.8296194
  18.4410548 107.0872307  52.3200178  20.5386972  95.7826233  22.9986525
  20.2088881  95.8595371  22.1033645  21.3750148  96.2480927  22.9866338
  35.3333116 100.7900143  75.5100727  34.8845530 100.4650497  74.7295332
  34.8379254 100.4220486  76.2418032 111.9391055  79.4784355  34.4769716
 112.5944704  80.0237942  34.0418744 111.7965931  79.9038887  35.3224969
   2.1616028  90.0093079  49.7347164   2.2159749  89.2110443  49.2093229
   1.2688819  90.3261566  49.5972824 104.6221632 106.3442898  36.3398862
 104.7582752 106.9560623  37.0633698 105.3655404 105.7434654  36.3912058
 107.3860831  77.5439358  53.7206125 106.5741164  77.0430517  53.7984228
 107.1004707  78.4301615  53.4986591 114.0795535  57.7786589  64.1567469
 113.2665641  58.0267954  64.5968676 114.3461329  58.5670042  63.6838055
  24.4274712 104.3487740  44.0873241  25.0157070 104.4165516  44.8394012
  24.3670654 103.4092617  43.9144087  27.4123716 102.3062801  39.7287226
  27.4670720 102.7900887  40.5528402  26.9926023 101.4788723  39.9641371
  22.3934340  91.1679268  50.9152746  22.1472192  91.6693401  51.6925716
  22.0680523  91.6889286  50.1811695 112.5764925  56.9453430  47.5826454
 113.0768186  56.1387396  47.4589872 112.9123635  57.3125553  48.4003115
  43.3276844  84.7062588  67.3744345  43.7588310  85.2508926  66.7158651
  43.1979799  83.8630772  66.9403267 116.2336207  66.5997648  54.3723536
 117.1736736  66.7770290  54.4056797 115.9529585  66.9534922  53.5283518
  22.3293352  99.7817039  52.1321249  23.1249976 100.0841999  51.6943455
  22.0141387  99.0618706  51.5855694  28.0582690  94.6179199  48.9889956
  28.5637450  95.3933525  49.2327690  27.7895284  94.2349339  49.8240614
  97.6993508  68.2835817  36.0185456  97.3448605  68.4839296  36.8848181
  96.9497413  68.3634186  35.4286790   4.9163014  96.7763615  45.1919937
   4.5986572  96.3495159  45.9876871   4.9382403  96.0778522  44.5379066
  25.0061274  91.4114475  18.4708667  24.9287057  92.2726440  18.8814592
  25.2933931  90.8338928  19.1780663   3.3403438  57.3743677  43.7952757
   2.8322437  57.4587774  44.6020842   3.6506060  56.4688683  43.8012409
  21.9192719  59.3863916  72.3476744  22.0086670  58.8206863  73.1146288
  21.4393449  58.8548136  71.7125988 113.4843749  84.3160248  42.7896452
 113.8255281  84.7338104  43.5804033 113.7876827  83.4099960  42.8475618
  11.4389062  66.8572521  44.2541981  11.6928613  65.9930992  44.5782042
  10.5062079  66.9250298  44.4584322  12.8279161  55.8115292  38.2563019
  13.5142422  55.2285480  37.9317713  13.2812488  56.6330051  38.4457755
 114.2604966  38.7004113  41.5648556 113.8052673  37.8700757  41.4250660
 114.8313213  38.5371590  42.3156834 111.3394422  93.6253643  20.7325721
 110.9711916  93.4135914  19.8747993 112.2823626  93.4997177  20.6260633
   8.1242007  75.8585644  48.9102364   8.1970960  76.6276217  49.4754505
   8.9993197  75.7514381  48.5375118 116.3466538  73.8496113  62.5838089
 116.5911002  74.1538429  63.4578371 115.5570800  74.3464327  62.3693991
   6.7459726 112.2610474  72.2200584   5.9006310 112.0961285  71.8024111
   6.8364114 111.5581417  72.8634787 108.2909793  41.9736052  22.5095963
 109.0170664  41.7566586  21.9248176 107.5478465  41.4806080  22.1618295
  28.5195994  57.6129150  48.9750719  28.1540203  56.7398453  49.1176796
  28.5294271  57.7159595  48.0234861 119.3654764  67.7598095  10.4995143
 120.1431415  67.5943995  11.0325336 119.2543138  68.7101507  10.5265009
  21.8128681  68.1231403  60.0943327  20.9891295  68.5042143  60.3984213
  21.8630075  67.2762251  60.5375671 106.8402523  66.5982199  25.7940936
 106.6981060  65.6521034  25.7641912 106.3627822  66.8877029  26.5715623
  19.1719103  72.5328445  30.7796526  19.3478203  73.4688234  30.8757448
  19.0455413  72.2197008  31.6753101  74.2099447  70.8735132  33.7833238
  74.0789289  71.7888880  34.0306234  73.9232797  70.8284616  32.8711700
   8.5923332 105.5535507  30.1617861   8.6817271 106.1992073  30.8627653
   9.4453162 105.5519199  29.7274494  99.3516893 111.7599678  60.0177479
  98.6448163 111.7455196  60.6630087 100.0286145 111.1956882  60.3913736
  27.7774882  95.0506878  77.5181007  28.6348820  94.6304226  77.4511242
  27.2841334  94.4937229  78.1202841 120.5607263  84.4255543  72.2159147
 121.2236044  84.9392796  71.7544985 121.0423205  83.6802578  72.5748539
   6.3459432  35.3110003  12.2671676   6.2845129  34.5063090  12.7818799
   6.1973691  35.0297737  11.3643551  15.0637722 121.6522408  22.8088880
  14.7636616 122.4621582  22.3963356  14.8000503 120.9616852  22.2007608
 122.1473012 130.4072666  58.9555883 122.2671806 131.1957264  58.4262562
 122.7749552 129.7800446  58.5965919 106.0275072  76.6854095  40.4819155
 106.2481625  77.2162628  39.7165823 105.3543479  76.0814047  40.1684427
  49.4751501  85.2727890  62.1436882  49.3257284  85.4910660  61.2237644
  50.0218105  85.9860325  62.4733496 104.2694325  65.8852911  24.6431851
 104.6543211  65.0307226  24.4487572 105.0029714  66.4115763  24.9612713
 120.4392657 114.9621964  41.5856028 119.9828888 115.6573963  41.1116266
 120.4491833 114.2237473  40.9766483  27.1163321 142.7024746  44.4670153
  26.6687775 143.3435917  45.0191832  26.4126325 142.1590996  44.1123486
  11.4020741 109.3644333  14.4307017  10.6813216 108.8833618  14.8372948
  12.1536493 108.7761021  14.5030284  30.0415564  71.6053104  57.5975990
  29.4613361  71.8776512  56.8866825  29.7356129  72.0985603  58.3587408
   7.8112757  94.3135166  66.3070869   8.0431420  93.3911991  66.4157391
   8.1743449  94.7445107  67.0808172  12.5064921  64.4498634  41.9458914
  12.5697482  65.1914120  41.3439465  12.3358953  64.8481035  42.7994299
 124.9083937  99.9303055  33.0998230 124.1780758  99.7713566  33.6978221
 124.5792604 100.5906105  32.4899936 118.1090975 100.9393501  64.8550940
 117.5748510 101.4499474  65.4634523 118.7777138 100.5329609  65.4064941
 123.9470075  42.5661278 108.1180763 124.6131787  42.8266716 108.7541294
 123.4318755  43.3595800 107.9721355  50.2840948  81.8697453  64.4989109
  50.7142210  81.4003754  65.2136898  51.0025215  82.2671413  64.0068054
  13.2658708  97.8347111  45.0202656  13.6146069  98.0043888  45.8953810
  12.4819469  98.3811665  44.9647379  93.3053631  53.9163399  24.1960263
  94.2500038  53.7785053  24.2659521  93.0117411  53.2513809  23.5732532
   3.7800604  93.6012363  31.9875693   3.6730629  94.4633770  31.5857100
   3.0901170  93.0665684  31.5947032  31.5882778  81.0732174  59.8350286
  31.6551113  80.7855225  60.7455206  31.4169359  80.2707005  59.3422318
  88.9845437  73.1870079  43.9387894  88.8586826  73.3769798  44.8684692
  88.0973334  73.1159592  43.5865927  16.9613791  86.0836124  27.3706818
  17.6769698  86.3997650  27.9222369  16.2339234  85.9463882  27.9774833
  17.0125222  46.6615057  69.5256901  16.5807950  47.4569607  69.8372936
  16.3020325  46.0286617  69.4210720   7.8950828 109.7669697  68.4038258
   7.3172897 109.4464207  69.0963793   7.3564339 110.3846550  67.9092932
  37.4544930 105.1728725  75.1586246  36.7615914 104.5887947  75.4668093
  37.0664763 105.6329727  74.4143248 104.5803685  81.4886761  50.4850006
 104.0967411  81.8832397  51.2107086 103.9205522  81.3476658  49.8060369
   9.3074149  92.7640152  58.4058046   9.8671907  93.2195759  59.0345764
   8.4198552  92.8863907  58.7426949  41.0364723 109.8429775  44.2035103
  41.7060947 109.7069836  43.5331774  40.2385378 109.4760227  43.8228703
  17.4448323  86.8528080  76.4022255  16.5134144  86.8787861  76.6213512
  17.8494489  86.3830948  77.1315289  26.1916971  65.8341074  34.6170545
  26.9970298  66.0006714  34.1272306  26.0888076  64.8827744  34.5924425
  14.7673357 115.7512951  56.6408730  15.3317308 116.2027073  57.2685003
  14.0230441 116.3410568  56.5207148  26.1511874  85.2348709  38.5509300
  26.4185739  85.9834099  38.0176163  25.2807927  85.0068378  38.2243609
  30.3209591 106.9365978  33.6561871  29.6417570 106.2785530  33.8041568
  30.6190753 106.7759705  32.7608871 111.0073597  82.9130554  41.8238258
 111.8739123  83.2144928  42.0966816 110.6890077  83.5989189  41.2369061
   1.8790095  79.2232561 101.2235554   1.7588881  78.3084393 101.4783295
   2.8272372  79.3532562 101.2375607  20.0423384  65.5924606  48.5195112
  19.1050160  65.4425907  48.3962345  20.3556490  65.8706093  47.6588726
 101.9882507  46.2124443  58.0142212 101.3212342  46.8295860  57.7134609
 101.8410892  46.1415529  58.9573812 121.9332174  91.8260670  23.3499932
 121.3861946  91.3532448  23.9772391 121.3138211  92.1834469  22.7137065
  36.7274380  80.3629303  37.2823143  36.6425204  79.5186138  36.8394208
  36.1524439  80.2925682  38.0443287 119.5188058  68.5361099  28.2939434
 120.2380211  68.0121803  28.6467314 119.1273487  67.9817677  27.6188850
  13.7903750  65.3373623  16.5516376  14.6847415  65.0363827  16.7121112
  13.8421524  65.8099985  15.7208765  38.3260036  57.5944471  55.1646090
  37.7935815  57.4049854  54.3920422  39.0747666  58.0846834  54.8251200
   0.9858178  69.7981787  36.6000748   0.8617721  70.5377626  37.1949363
   0.4210568  69.9946499  35.8526301  30.1072431  71.8527365  68.5514259
  29.1898775  71.9088173  68.2839823  30.5976129  72.1704483  67.7932501
 117.2552759 106.8790436  18.7791467 117.4271537 107.4260235  18.0126631
 116.9234187 106.0573006  18.4174216  30.3194642 107.4336815  62.1890116
  30.7384753 106.6633987  62.5728416  29.3881726 107.3189545  62.3781395
 111.1948342  70.8001900  30.1557326 110.9650654  70.4330444  29.3021274
 110.3634078  71.1100340  30.5148435  30.4329729  85.3670979  23.9670801
  31.1529708  84.9119663  23.5303950  29.7169852  84.7318363  23.9736676
 108.2619173  81.5847969  74.9114037 107.6691324  82.1417904  75.4159737
 109.1260952  81.9754696  75.0410318  12.0308006  89.4088364  72.8244495
  12.7001166  89.7383118  72.2247028  12.5258386  89.0170288  73.5439348
  20.8551097  72.9209566  35.1656842  20.2347994  72.3744392  34.6832228
  21.5835428  72.3341894  35.3689766  99.8962683  74.1414261  50.0730944
 100.4160733  74.6207094  50.7183218  99.0891904  74.6494150  49.9906301
  13.5653830  93.7836361  46.9130898  14.1416097  94.3466949  47.4299622
  12.9578102  93.4114742  47.5522947  11.5792406  60.4647207  65.0169134
  10.7997465  60.4621267  64.4613838  11.9982135  61.3065052  64.8377943
  25.0018096 109.8853874  47.2957850  25.3777885 110.6610775  46.8796539
  25.1692057 109.1759014  46.6754341  95.6109161  49.2718887  64.1008329
  95.1574535  49.5131350  63.2931185  96.5373272  49.2579699  63.8604164
  11.4898407  53.3730030  47.6479197  10.6986821  53.5420227  48.1595182
  11.9526935  52.6946449  48.1396818 104.9939639  73.2555914  54.0202999
 104.6598381  72.5420046  53.4768009 104.2958946  73.9104605  54.0114594
   9.9146599  73.5334110  63.0391645  10.6139541  74.1722584  62.9009819
   9.1069508  74.0386391  62.9465008  16.5798438  71.1910677  20.0126529
  16.0111225  70.4768801  20.3002739  16.5333188  71.1642456  19.0569615
 123.6560490  84.9493027  39.6744943 123.1732092  84.1743660  39.9618626
 124.5004496  84.8844528  40.1206064 121.7205573 110.7629776   6.8648332
 122.4326876 110.1407146   7.0128071 121.0119242 110.4547501   7.4296963
  15.0643694  48.9622068   7.9557735  15.0132501  49.5139694   7.1752769
  15.0652218  48.0670929   7.6166606  33.8037539  33.6713052  59.0413523
  34.4102430  33.7465811  59.7780609  34.3162751  33.2502103  58.3512545
 107.7199561  71.0889053  40.4334068 107.6056713  71.4975691  41.2914085
 106.8629140  71.1677599  40.0144911 114.8512954  83.4794044  67.6837397
 115.1827008  82.7719402  67.1306658 115.6361455  83.8735008  68.0644369
  30.6988525  85.6389141  19.9128425  30.5994844  85.0026417  19.2046690
  31.1253643  86.3905907  19.5013726  89.3356985  45.8707333  70.3585005
  89.0967721  46.3667870  71.1414909  88.5010189  45.5597878  70.0079966
  12.1845806  84.0974522  40.0825310  12.7199197  84.6208191  40.6789589
  11.2836218  84.3475628  40.2873373 108.8071949  76.7022514  37.7466369
 108.0391366  77.0230150  38.2193208 108.7268967  77.0835972  36.8723607
  23.9641643  53.9665747  35.5583358  24.7365856  53.6799860  36.0456371
  23.3291650  54.2040539  36.2340689  12.8200686  94.2899513  37.3966408
  12.1281409  93.6292267  37.4268341  13.5976720  93.8375568  37.7235937
 117.6200706  75.2588320  17.1738958 116.9469757  75.5714512  16.5693760
 117.2070057  74.5292568  17.6357758 115.4608107  79.1974688  13.0652022
 115.4208005  80.0754070  12.6859188 116.3967294  79.0164757  13.1519747
  16.7133796  67.0706463  29.0309620  16.4160216  67.9744339  29.1357446
  17.5382566  67.1440268  28.5509396  34.0787220 109.1764832  21.9474196
  34.5771933 108.3726406  21.8004417  33.2036185 108.8745213  22.1908212
   1.2964520  61.2349844  56.2345409   1.2704049  60.3018522  56.4462566
   0.4514758  61.5718555  56.5324736  24.2860317  82.5547791  10.9419847
  23.4430122  82.1748829  10.6945384  24.5906115  82.0097733  11.6675425
  48.1666136 105.4053497   7.1056616  48.6233950 106.1837482   7.4245411
  48.1922293 105.4863739   6.1522406  83.8904667 115.1851749  16.3561392
  83.4787941 114.3940163  16.7037451  83.5968781 115.8843613  16.9402528
 113.1600053  84.5307922  17.4597108 113.1898386  83.8195705  18.0996346
 114.0784711  84.7476959  17.2997022 122.3839813  71.9220638  48.7968636
 121.4843447  71.7689705  49.0857363 122.6704825  71.0779476  48.4481239
  93.3818716  90.1620960   4.1665819  93.8570351  90.2161121   4.9957579
  93.2396168  89.2250538   4.0326500   0.1175761  58.8274240  65.8142233
   0.6401540  58.9461946  66.6073418  -0.6287108  59.4157839  65.9287739
 123.5030477  70.3634214  53.2124949 123.5899913  69.9501657  52.3534870
 123.3923516  69.6320629  53.8200235  98.3763523  70.7043743  41.6815472
  99.0866799  71.3431883  41.7414379  97.7322478  71.1157370  41.1052275
  14.7111940  94.9621582  11.8380988  14.1926563  95.6268597  12.2914374
  15.5608439  94.9796486  12.2785759  13.8193190  58.6227083   5.9042633
  14.2335367  58.4148121   6.7417800  13.1746078  57.9267979   5.7766378
  31.2486601  63.2457304  15.8929682  31.8325830  63.9377689  15.5825722
  31.0596943  62.7240515  15.1129842   3.6009845 102.7702522   0.0405367
   3.3252850 102.1824837  -0.6628539   2.9871422 102.5947571   0.7537200
 101.7911500 103.5323524  64.5674276 102.7012319 103.7679291  64.7476768
 101.5706915 102.8927326  65.2445698  19.9352050  67.5560045  86.1703452
  19.9971902  67.4739361  85.2186879  20.1353884  66.6798878  86.4998492
  29.6758580  90.9040833  76.9693565  30.2997303  90.1807499  77.0310974
  29.5997167  91.0752296  76.0306644  14.5129001  68.7294769  35.5717063
  14.3513954  67.9875469  34.9888754  14.8866093  68.3372307  36.3608289
  10.8784199 109.5199680  44.3129969  10.3611898 108.7752056  44.0063334
  11.7822599 109.2050743  44.3008852 124.6672107 111.0042381  32.2235155
 125.3406868 111.1454201  32.8888941 124.0637680 110.3775597  32.6227164
  89.2112893  66.3614893  10.8713067  90.1220149  66.0838985  10.9700716
  88.9853687  66.7473030  11.7176759   2.7819967  52.6472807   8.5181922
   2.7027395  53.5857725   8.6890423   2.3365255  52.5177956   7.6809222
 110.6441385 124.9041843  44.8234081 109.8664374 125.1887989  45.3034115
 110.3399426 124.7848034  43.9237165  23.3742499  71.9247484  23.9509439
  23.4403038  71.5312767  23.0808592  23.6599588  72.8298426  23.8268280
   2.4184486  58.5179377  41.7194557   2.5078845  59.4100094  42.0547724
   2.8637332  57.9725504  42.3679209  16.5335059  89.3941021  44.9725056
  16.1759925  90.1643276  45.4142904  17.4374211  89.3382549  45.2824211
   2.0362355 107.9221725  39.8924899   2.2201739 107.0067787  39.6816635
   1.1187724 107.9254150  40.1654053  46.2288618 107.2732544  27.2882557
  46.1068821 107.4057102  26.3481450  47.0945883 106.8718433  27.3632360
 112.6069803 122.1556568  15.1958764 113.1438751 122.1907043  15.9875500
 112.0923919 121.3541412  15.2907526   5.0532073  86.1358547  42.9759312
   4.7104052  85.6618500  43.7335825   4.4640386  86.8833923  42.8744364
 122.6020696  57.3171663  20.0030708 122.9116041  56.6018438  19.4474351
 121.7019377  57.4710274  19.7161555  18.7119710  56.0088873  54.7354269
  18.3307314  56.6976261  54.1908789  19.3342471  56.4670753  55.3002882
  10.7881212 103.0356407  39.2882681  10.9541047 102.4718666  38.5327315
  10.7740605 102.4371815  40.0351858   5.3948456  78.3094788  41.3859510
   5.5295897  78.0562401  40.4727459   6.2675267  78.5459328  41.7001963
  15.1159251  64.4621992 102.6733252  14.9476957  63.6455393 103.1434288
  15.2022934  64.1978931 101.7574027 120.2724767  91.2413883   3.3256611
 119.3917710  91.5822601   3.1694713 120.7010326  91.9169044   3.8512588
  18.0244672 119.5502090  69.7833347  18.8030827 119.4721413  69.2320681
  18.1346667 118.8730049  70.4507780  31.0891008  78.0128860   4.9961120
  30.3125334  78.4267950   4.6194726  31.3906288  77.4079657   4.3183351
 120.9123886 108.5242748  44.1216421 120.3750703 109.2788887  43.8806391
 121.5233413 108.8642788  44.7753763   9.7897989  62.3228788   0.8860739
  10.6836569  62.5091982   1.1733627   9.2705196  63.0481100   1.2333770
  23.8483071 106.0831642  29.4183373  23.5959148 105.4747677  30.1128769
  23.3740783 106.8892860  29.6220565 105.4587621  89.5059872  41.3925409
 106.2703223  89.5835304  41.8941259 104.7749800  89.4140434  42.0560312
   8.1989640  42.2267294   1.4714076   8.4823453  42.9269314   2.0593277
   8.5552573  41.4281797   1.8607724   0.7420258  66.9502926  13.5394967
   0.4484980  67.1776009  14.4217694   0.0520209  66.3824987  13.1963682
 108.3212609  84.8895264  17.7265608 107.7229137  84.5411396  18.3874989
 107.9389197  85.7308197  17.4770117  25.0355053  41.8823767   6.9237846
  25.4247332  42.2461128   7.7190387  25.1738238  42.5571823   6.2591523
   4.3914834  85.4881668  80.8871460   5.0257504  85.2288914  80.2187824
   4.9199924  85.6516552  81.6682911  66.3293314  67.2208834  17.2968912
  66.5517950  68.0483341  17.7235758  65.6983089  67.4629879  16.6190791
  25.1688862  62.3332882  27.3700833  24.7446513  61.5301323  27.0680928
  24.7859478  63.0242443  26.8295622   8.1219149  66.3228798  12.0048833
   7.5815725  67.0161152  11.6258264   7.6085627  65.9960222  12.7437103
   5.5069011  69.7998142  23.8029814   6.4573532  69.6868706  23.8137579
   5.2617002  69.6787167  22.8856802  25.3528357  71.6733980  46.5406799
  25.6498885  70.7670069  46.4603662  26.1015034  72.1386290  46.9138908
   9.9003130  73.4429026  46.6863298   9.4768453  73.9328671  45.9814644
  10.7602000  73.8528538  46.7799520   1.9299686  64.7478533  25.2114534
   1.5431967  65.6044006  25.0299001   2.6495814  64.6723127  24.5848083
  25.9121060  64.7808933  57.4131584  25.9642935  65.0990343  58.3144331
  25.9672379  63.8285208  57.4917698 114.9385286  75.8641958  98.7352070
 115.4606593  75.2919054  99.2974325 115.4420311  76.6768408  98.6870297
  23.7710524  91.1630154  44.9018383  24.2853403  90.3623390  45.0050783
  24.1184783  91.7581654  45.5661583  11.2818599  71.8729401  53.0014420
  11.8881476  72.5496244  53.3026743  11.8044829  71.3276434  52.4134398
  18.9005077  60.6372404  14.7432840  19.8221290  60.3860903  14.6819031
  18.4196234  59.8292780  14.5639002  12.0255530  64.6714354  75.7351255
  11.7502820  65.4427719  76.2305975  11.4993429  64.6997166  74.9360418
 124.3356323  72.2146940  29.7469997 124.1375673  72.3287153  30.6765175
 123.5862487  72.6005125  29.2933464   4.9530068  78.6532974  33.1118512
   5.4039621  78.2946825  33.8762236   5.6331146  78.7190056  32.4415016
 124.3167332  74.7581148  35.9459400 124.7861948  73.9259243  35.8885360
 125.0067478  75.4209375  35.9738183 108.4371478  70.6699419  12.7163577
 109.1416640  70.2595901  12.2148585 108.8218755  71.4799356  13.0512023
 120.7903258  66.9666529  22.9645395 120.9400389  67.0212889  23.9083791
 121.0049138  66.0612440  22.7400088 120.8804799  88.9538193  35.3928232
 120.0791112  89.3487072  35.0491571 120.8403150  88.0416489  35.1054668
 118.0206216  58.2976580  29.6072078 117.8895081  58.1532145  30.5443192
 118.4146822  59.1682243  29.5518804  19.1535592 137.9815483 106.4077526
  18.7816715 137.3797798 105.7629248  18.9492714 138.8528061 106.0680281
  48.2942581  74.3443775  44.8161173  48.2007265  74.2545557  43.8677406
  47.4981117  73.9512157  45.1736116 117.3549236 113.6645317  25.5196309
 116.4788110 113.6713982  25.1341295 117.7131510 112.8084755  25.2849650
  21.2886024  93.2128048  41.8633175  21.4165044  93.8543510  42.5620985
  22.0414782  92.6261806  41.9359970  12.4069500 111.4247990  58.5917902
  11.6782582 112.0150948  58.7835884  13.0603623 111.6252804  59.2619324
 108.8064880  69.0002537  27.8009558 108.9636702  68.0720377  27.9740119
 109.6766455  69.3985176  27.8219986  87.0557374  42.3371220  89.6173390
  86.2359828  42.2043514  89.1413101  87.1958870  41.5148926  90.0869378
  38.4421873  85.0719547  73.2891846  39.2021322  84.5069599  73.1495571
  37.7664018  84.7104931  72.7156925   7.5242943  76.6123724 110.0040672
   8.3336073  76.9055986 109.5854261   7.0499742  76.1515999 109.3120091
  42.8409386  78.6262131  92.1417853  42.1551085  79.2923784  92.0960411
  43.0434942  78.4278202  91.2275418  13.9410567  66.1654425  20.8718491
  13.7271404  67.0218801  21.2419701  13.0919540  65.7468843  20.7301998
   8.4177226  94.0091228   3.9814836   9.2787474  93.7504101   3.6529508
   8.5962141  94.7437382   4.5686072  45.1364422  86.1166191  39.8457193
  44.8266029  86.9907093  39.6086526  45.7309103  86.2645340  40.5812168
   9.2728245  67.4863052  33.8182759   8.7507558  66.7870569  33.4249187
   8.8396120  68.2935762  33.5410309   0.9022091 105.5594254  54.5603800
   1.6991907 105.8111763  55.0269365   0.7562187 104.6471214  54.8106480
  25.5804729  42.9004478  41.9091797  25.0231171  42.1381760  42.0657778
  26.4419937  42.5313568  41.7148018   7.8603965 102.6681709  27.5159502
   7.1541637 102.1675587  27.1074772   7.4625313 103.5117245  27.7312684
  28.4721375  72.7982140  55.5139494  27.5512171  72.6189470  55.3242064
  28.9133286  72.7041912  54.6697092  26.1480880  84.0082169  54.7924519
  26.9676709  84.4976521  54.8629665  26.2941003  83.3996201  54.0682125
   2.5431034 125.9693050  26.4214826   2.6815444 126.9151688  26.3725090
   2.9103717 125.6308842  25.6048918   8.8033736  82.5976086  33.7625051
   9.5071536  82.6053524  34.4112468   8.6190850  81.6691780  33.6201072
  42.4648762  79.6982336 109.6607457  42.7519131  80.2059460 108.9017551
  42.3853731  80.3427982 110.3639124  97.8648157  67.7638578   5.7885391
  98.3516139  67.9834747   6.5829122  96.9645018  68.0274439   5.9787798
  31.6640615  87.6575851  18.2977998  32.2973347  88.3424473  18.0829632
  30.8262014  87.9998302  17.9862070  11.5534556 106.3276577  41.6116381
  12.4788809 106.3332462  41.8561554  11.5535820 106.1147594  40.6784153
   1.5956132  98.5091972  98.9368948   0.7725988  98.9441872  98.7140390
   1.7436014  97.8941250  98.2185563  19.0194321  65.1406050  34.7383904
  18.2875621  64.8044491  35.2556896  18.8493419  66.0796976  34.6648121
  95.9803910  54.2908335  21.4338923  96.0418362  54.3424749  20.4800630
  96.3132090  53.4193945  21.6485071   7.1023655  71.2660456  39.3329906
   6.8398130  71.2919283  38.4128666   6.5793949  70.5593157  39.7114992
  19.1122079  92.7336979  30.5265093  18.6549366  92.7119732  29.6858764
  18.6470735  92.0965958  31.0687137  23.0527139 128.4310341  42.4467897
  22.2766781 128.9908600  42.4222422  23.3951402 128.4570122  41.5533113
 113.4315462  67.5533295  63.1402874 112.7496559  67.3457813  62.5013924
 114.2480964  67.2996283  62.7100372   4.6968389  89.8582077  48.4992504
   4.0366176  90.1277542  49.1377544   4.9417788  88.9725685  48.7673426
  16.2819099  88.3843231   7.7485949  15.7867217  87.6996517   7.2988826
  15.6202006  89.0223122   8.0156904 114.7955448 116.8957424  39.0510225
 114.1466112 116.7467880  39.7387218 115.5655349 116.4047718  39.3378901
  93.1128759 117.2283077  82.4410495  92.3824853 117.7449512  82.1006902
  93.2939381 117.6072025  83.3012184   3.6564916 122.9691219  62.0852184
   3.3208808 122.8034687  62.9662180   4.1695940 123.7725544  62.1715212
   5.4328167  93.1200600  20.2471185   5.2363050  93.9002132  19.7284913
   6.2829936  93.3054638  20.6459355 123.1723560  90.8515167  30.1404667
 123.3092705  91.7961311  30.2125549 123.7379316  90.4753685  30.8149052
   3.5437736  91.1539555   1.2385587   3.9244348  91.9394112   1.6314839
   3.0424085  90.7505608   1.9471776  33.9227629  86.4612293  19.8965096
  33.3759809  86.9577885  19.2876637  34.7580051  86.3596630  19.4401264
  12.4299252  90.0119686  32.5611472  11.5283155  89.8018551  32.8044248
  12.5113642  89.7072506  31.6574073  35.3530264  93.2816982  32.1060371
  36.2249422  93.0934525  32.4532533  35.4336381  93.1346989  31.1636329
 114.7212941  85.0854111  40.3144932 114.3311865  85.1208496  41.1878729
 115.5529285  84.6289444  40.4419756  30.1772642 102.3597622  11.8191242
  29.8823285 102.9867172  12.4795544  29.6165133 101.5947533  11.9477952
  16.3288116  98.9472198  23.5149121  15.9499848  98.6295795  24.3345618
  16.7583907  98.1801033  23.1364655  20.0015640  67.1872520  50.8882332
  20.8526373  66.7609262  50.7874823  19.3962920  66.6331673  50.3954172
 115.1774008 103.4589481  13.3544397 114.9485136 104.3627357  13.1376195
 114.7923721 102.9386139  12.6492953  20.0584745  93.8417912  14.8369551
  20.2130699  93.2220078  14.1240788  20.5418086  93.4786606  15.5790842
  96.6181893  64.2549467  33.1681180  97.3900098  63.7246895  33.3664989
  96.1439104  63.7498713  32.5076699   6.8674809  46.8840075  15.4569256
   7.7799243  46.6068077  15.3742385   6.3907999  46.0802126  15.6640971
  14.9736416  74.3273592  49.3321514  15.8675313  74.0903568  49.0851259
  14.4504189  73.5589266  49.1041517 116.4925850 141.1078453  17.7230287
 116.8694008 140.8543873  16.8804109 116.0479683 140.3190899  18.0335295
   3.7622952 116.3905811  56.9965410   3.1298390 116.7653656  57.6095390
   3.4655795 116.6860199  56.1357832 112.1131045  62.7864361  11.4464605
 112.2277278  62.8582287  12.3940575 111.1643440  62.7748489  11.3201630
 114.7311509  94.1149521   3.9559510 114.3068320  94.1868019   3.1009522
 114.1492910  94.5859814   4.5524430  46.1888504  61.5065145  15.4819572
  46.1742353  60.7890987  14.8484528  47.1188974  61.6896772  15.6149697
   4.2875963  77.7697134  38.1655908   4.3062541  76.8821907  38.5236239
   5.1549649  78.1247473  38.3601499  99.2949504  34.1741848 104.7943231
  99.2568893  35.0674653 105.1361319  99.6946759  34.2655277 103.9293899
  34.2382479  70.4763699  88.9727195  34.1264057  69.8653650  88.2444390
  33.3817148  70.8924532  89.0699753   9.0103942 108.0066299  52.7694321
   9.9346495 108.1170082  52.9925871   8.9340991 108.3601665  51.8831921
  13.2558489  97.0303059  13.1464791  12.9878581  97.6054287  13.8631725
  12.4544179  96.8847275  12.6437402  92.6291222  71.6335726 108.1133912
  92.8546352  72.1087790 108.9131130  93.0752749  72.1135664 107.4156883
  29.5989037 119.0790558  58.3352470  30.2363515 118.5868645  58.8525867
  29.9171782 119.9814892  58.3584976 109.1780955  90.2014160  16.4133966
 109.0068991  90.5413628  15.5351233 110.1246495  90.0607777  16.4354908
  20.2889657  92.2938728  26.1908770  19.9045587  92.5901699  25.3658485
  19.9776709  92.9244423  26.8402648   7.9910761 102.0710468   8.4202927
   7.3307729 101.7141342   7.8262830   8.3543873 102.8221130   7.9511112
  29.0837097  67.6418829  34.0833282  29.4374180  68.4196901  33.6518884
  28.8073444  67.0738840  33.3641410   1.5622258  38.5129333  30.6397700
   2.4627379  38.7660766  30.4367208   1.3909538  37.7613616  30.0722837
  44.5155811 109.9637032  21.5983939  44.2518663 109.1005135  21.9171238
  44.6666527 109.8372650  20.6616855  29.2578554 114.3691063  23.0342793
  28.3858943 114.6816921  22.7930188  29.3118095 114.5151329  23.9787340
  21.9631028  88.8628006  24.0990615  22.0696259  89.3892479  24.8913574
  21.0983157  88.4630299  24.1915989  28.7443066  77.7751780  26.0404348
  28.3662915  78.5513306  25.6270099  29.5476365  78.0912876  26.4539123
  43.7249088 106.9094086  37.5249767  43.8879633 107.8509140  37.4683475
  43.3077812 106.6880703  36.6923618   8.0022573 107.5077915  40.9846401
   7.9322195 106.6638947  40.5383682   7.1386254 107.9068661  40.8792448
  14.5692265  56.4894867  83.1432232  15.1751053  56.1660814  83.8099703
  13.8621569  56.8999767  83.6410030   5.8045053  94.7823238  17.7589691
   6.4722699  94.1003513  17.6866210   6.2406772  95.5779266  17.4540210
 120.5148602  64.7926712  12.7048552 120.0047592  63.9833117  12.7360046
 120.1606951  65.3265190  13.4160542  37.8206992 107.6756763  11.9306111
  37.1640515 107.8383541  12.6077986  38.4832573 108.3518600  12.0720863
  43.6203814 114.4703388  54.4463873  44.2885303 113.7885857  54.5172262
  42.8175163 113.9970970  54.2280245  24.2679691  74.6372652  33.2399631
  24.3664193  73.7726593  33.6387062  24.4987512  75.2505112  33.9377427
  33.1090474  66.7414761   3.5652697  33.4645605  65.9802771   4.0239862
  32.1634388  66.5934896   3.5527748   0.8576076  83.1573105  21.5191317
   1.3730130  82.9538631  20.7386208   1.0626529  82.4514294  22.1322584
  10.9464133  95.0319576  57.0393324  11.3025725  95.7252312  57.5949860
  10.4100657  94.5032787  57.6301432   8.1966859 114.7547531  23.9072108
   8.9924031 115.0037003  23.4370065   8.3409274 113.8416290  24.1554403
  45.7008123  39.2475653  51.1480856  44.7626638  39.0577364  51.1393404
  46.0969687  38.5194969  50.6693316  40.2620411  60.0942850   1.1364283
  40.7085657  60.9226227   1.3116533  40.6406307  59.7877264   0.3124619
  34.4477558  80.4979515  58.5664034  33.5552502  80.6165695  58.2414389
  34.3793559  79.7825241  59.1986322  20.9032321  62.8044319  46.0540009
  21.6193557  62.2192717  46.3009501  20.9273529  63.5021162  46.7088938
  90.2852029  91.3452148  31.4011216  89.5598668  90.7302952  31.5106153
  90.5985040  91.1898327  30.5100942   7.3513788  68.1102085  37.6977897
   7.1684378  69.0484762  37.7469540   6.5129542  67.6921129  37.8939295
  25.2323389 114.1644955  58.1644392  25.5111694 114.9009991  57.6203346
  25.8079648 114.1996861  58.9284086  11.9479334  85.0022984 102.9525628
  12.3835969  84.9422836 103.8027551  12.6502740  84.8779011 102.3142239
 109.6066279 115.4973507  12.2547436 109.9727542 114.6823883  11.9111979
 109.0230567 115.2189541  12.9605567  12.5817168  86.3109875 107.5288684
  12.4548090  87.2325897 107.3035229  11.6978991  85.9791851 107.6869921
  14.8947823  57.8082705  38.3074832  14.4398737  58.1738853  37.5487924
  15.6752503  57.3923540  37.9412627  28.6726236  75.3461266 107.0152214
  29.0114522  76.0139418 107.6114184  29.2814708  74.6130896 107.1057584
  88.4168476 139.0623916  45.0808525  88.8526124 139.4292349  45.8501196
  87.6210589 139.5854665  44.9841785   4.7426477  83.3383369  38.9876151
   4.4046703  82.6326370  38.4362602   5.5974799  83.5478210  38.6113024
  22.4942327  93.4783745  28.6721992  22.2478080  94.3307781  29.0312481
  22.5251889  93.6170959  27.7256083  25.5508614  79.4905043 104.6950146
  25.0684023  78.8018656 104.2375817  26.1718678  79.0193462 105.2505245
  18.8811171  74.8709774  49.7321129  19.2713571  74.3026257  50.3961372
  18.3533692  74.2819738  49.1928673  14.6613419 116.8992424  50.6361961
  13.7217784 116.8794250  50.8180141  15.0734866 116.8227673  51.4967299
 110.6322939  83.3874226  16.9637668 109.9412019  83.8603115  17.4274457
 111.4222474  83.9053631  17.1184814   8.1238770  71.5774536  42.7244711
   8.2261950  70.7387733  42.2746086   8.2894611  72.2339487  42.0478392
 121.2746826  29.5170951   4.0297240 121.7844368  29.9635577   4.7057813
 121.8754283  29.4400740   3.2885063  22.2803712  93.5072327  45.8906269
  21.5939856  93.6633015  45.2419710  22.1464515  94.1883850  46.5496635
  86.1558289  55.4126167  37.8161383  85.3606767  55.6449318  38.2957172
  86.8679780  55.6023550  38.4269357 124.2690222  70.3151083  13.9240885
 124.2870745  71.0988140  14.4733739 123.3383215  70.1489735  13.7743318
  39.5817995  95.9516621  74.4630957  40.1240778  96.4780331  73.8756466
  40.2090263  95.4390526  74.9730444  42.2029161  69.9261093 101.8231215
  42.3079252  70.8136082 102.1659734  42.7382278  69.3814993 102.4002465
  23.2616639  71.3341236  82.5094207  23.0456901  70.5646372  83.0361851
  23.0348110  72.0778704  83.0676397   6.4475054  66.0458565  35.4929280
   7.3590612  66.1818314  35.7514024   5.9368998  66.4570236  36.1903930
 104.0038127  95.5811501   9.2773396 104.3751687  96.3980389   9.6105409
 103.9428396  95.0145245  10.0463974 117.7884567  48.7005377  22.4966335
 118.2432748  49.5210743  22.3066425 117.1741719  48.5934734  21.7703938
  10.7266974   3.0490189  22.6241994  10.1357520   3.1171589  23.3741117
  10.2071214   2.6132279  21.9486499 102.6007575  61.6356802  15.8815658
 101.9799537  61.2740040  15.2490902 103.3747668  61.8509912  15.3611994
   0.4711996 100.9742260  14.2232966   1.0919140 101.6824150  14.3948090
   1.0088716 100.1824093  14.2101824  16.6666472  74.5958042   6.5733212
  16.8869674  74.9616337   5.7166660  17.1509981  75.1371431   7.1966892
  12.9096889  65.0380230  80.1839384  12.1797740  65.4813910  79.7516450
  13.3373201  65.7243299  80.6961306  90.9022493  84.2610359  93.1452104
  91.5678830  83.6793900  92.7779862  90.1241249  84.1020393  92.6109120
 120.6535680  86.9024944   2.1624932 120.0667173  86.3748455   1.6208103
 120.4664311  87.8061390   1.9082358  91.8017144  69.9193430  31.7160177
  91.4764661  69.1357517  31.2728190  92.6416940  70.1015377  31.2947440
  13.0847061  91.9778347  34.2362642  12.7463603  91.4696598  33.4990287
  12.4802637  91.7897892  34.9542594   0.6120880  84.1728210   5.4855174
   0.2701809  83.6640739   4.7503293  -0.1544271  84.6198368   5.8445007
  10.0942314  52.2992659  97.5621506  10.7529891  51.7524242  97.9902049
   9.4350553  51.6796494  97.2494348  27.1689916 103.5579014  11.7485213
  26.4674306 104.1353512  12.0494998  27.7113295 103.4154415  12.5242829
 116.0692204  83.0366325  74.1672310 117.0143217  83.0611801  74.3169411
 115.9601999  83.3564758  73.2716616   2.5905365  85.0461674   8.7464052
   2.6023731  84.0893841   8.7207133   3.3023182  85.2785778   9.3427140
   4.6214047  82.6519108   6.5158039   5.3491211  82.3968697   5.9486949
   3.9731789  83.0268860   5.9196246 106.7660684  78.9029455 107.5345654
 106.0709543  79.3978167 107.9683290 107.5632913  79.4008589 107.7155355
  36.4211059  99.0827465 109.0983284  36.3445592  98.3232784 109.6758940
  35.5565262  99.4925976 109.1257432 120.7198567  54.0414143  10.1315951
 120.2094532  53.5884094  10.8027923 120.5652726  54.9709463  10.2998376
  18.3468342 127.2143650  46.1919737  19.1984141 126.8566227  46.4430952
  18.1871521 127.9172325  46.8218184  50.1018620  44.1339827  27.1240497
  50.1947308  43.6075401  27.9180694  49.4003391  44.7526121  27.3275185
 111.0267705  57.1140480 108.4944976 110.8512551  58.0350494 108.3016815
 110.2079100  56.7870617 108.8670300  53.8999796  95.3612804 109.7670113
  53.1044102  95.7869816 110.0865018  53.9737082  95.6445026 108.8556480
  38.5060263  50.9454393 105.5174124  38.6597252  51.5526915 104.7936370
  37.6523161  51.2007141 105.8670523   7.8799564 112.7742100   5.5363321
   7.5681353 113.6662674   5.6887901   7.2186506 112.3836899   4.9650204
  42.3373508  90.6235313  31.6896892  41.5728378  90.1882553  31.3124752
  42.2715044  90.4518127  32.6290560  19.2222869  75.0676584  60.1987839
  18.5921216  74.3647861  60.3572035  18.7324417  75.8718061  60.3709030
 114.3371684  55.0811672  12.1449172 115.1850784  55.4529333  11.9018745
 113.7317390  55.8216953  12.1087670   6.9463110  94.0620899  35.0622463
   6.8727529  94.2105865  36.0049915   7.1302766  94.9275684  34.6970916
 120.4631305  72.0348263  93.4469744 120.9798361  71.5955925  94.1224881
 120.7830167  72.9369879  93.4495124 123.7362756  67.8279686  54.8808002
 123.7079556  66.8754148  54.9705935 122.9183235  68.1301832  55.2755833
 106.2897832 101.4652824   5.4002106 105.4275078 101.2964725   5.7799661
 106.3704271 100.8237362   4.6944201  16.1246836  45.8220339   9.8775738
  16.9664764  46.1713362   9.5849884  16.3548613  45.1338005  10.5017376
   2.8760099  81.1325550  79.3667420   1.9896497  81.0209370  79.0230282
   3.0741102  82.0578384  79.2224177 123.9763143  77.8753185  85.7340344
 123.6025252  77.1457577  86.2282547 123.9923221  78.6027145  86.3560256
  18.9926350  95.3086472  25.2259994  19.3926740  96.1782265  25.2194595
  19.4614971  94.8241997  24.5465088  20.1910305  73.8677645 106.5618151
  20.1655436  74.6153402 107.1590700  21.0993052  73.5672522 106.5928640
 114.9534882 110.7527447  62.5874567 115.1094670 110.0253105  61.9851780
 114.6486408 111.4664459  62.0271492 112.5229616 117.1022606 105.1257490
 112.4570496 117.9538918 105.5577382 112.3599619 117.2893810 104.2012771
 101.2281961 110.0028610 102.7363779 101.5907640 110.7036591 103.2782885
 101.9115681 109.8210144 102.0912667 105.0046617  89.0067005  16.0596383
 104.1642851  89.3314171  16.3829839 105.4015917  89.7612286  15.6244826
   2.3434255 111.0997105  67.4740132   1.6890544 110.8636856  68.1315287
   2.1314773 112.0029831  67.2386368 123.6349511  59.0040445  54.1006804
 123.1502601  58.5482836  53.4125042 124.5361574  59.0336847  53.7794638
  18.2301509  60.4096603  20.8784199  18.8241553  60.2659035  21.6151166
  17.8947306  61.2963581  21.0106993   9.2568457  64.4478750  52.3321581
   8.3728886  64.3524456  51.9775534   9.1320592  64.4819403  53.2805777
 101.0122556 101.1113644  15.7497776 101.7689461 101.5828133  15.4013741
 100.2599043 101.6475296  15.4993236  16.3187432 102.7807331  14.7965872
  16.8000114 102.0076275  14.5017600  16.9241238 103.2288742  15.3872812
  80.6959791  80.4937363 108.7082734  80.5269403  80.7903004 109.6025355
  80.6045312  79.5418406 108.7503012  24.1613364  61.4028549 108.8970596
  24.2450500  60.4493237 108.8969947  24.2712188  61.6528702 109.8144738
 114.9025000  80.3906631  98.9501902 115.1194257  79.6605635  98.3704218
 115.6952882  80.9267902  98.9671119 109.7318417  36.8867636  14.2937207
 110.3315133  37.6085520  14.1049159 109.8471183  36.7179680  15.2288413
  28.6810517  96.4357471  19.0871394  28.5241628  95.5931473  19.5133305
  29.1395330  96.2127113  18.2770276 117.4452478  69.2169189 106.6005602
 117.3842800  68.6795044 105.8108123 116.7471684  68.8893366 107.1676635
 116.1615396  42.0716572  40.3609800 116.5319932  41.3045168  40.7974386
 116.9154055  42.6348877  40.1858091   3.3665332  73.5622454  21.9228673
   3.6763838  74.0226841  21.1429834   2.4125233  73.6227703  21.8735409
  98.6738223  76.2059116  27.9551625  99.0769882  75.7550192  27.2132826
  99.3798155  76.7352247  28.3261514 112.3798294  36.8987322  20.4731297
 112.8368515  37.6774859  20.1554751 112.3575611  37.0053148  21.4241171
  19.0635562  48.6444902  24.2732882  20.0203466  48.6166906  24.2704630
  18.8446903  49.4122362  23.7451863  19.2391229  38.9448690  -0.0907722
  19.9539542  39.2315745   0.4776002  18.8780332  38.1748390   0.3484304
   3.5070556  95.5170441  42.5256109   3.5249269  96.3796043  42.1110106
   2.6884395  95.5066109  43.0215836  20.3564429  63.3846188  26.3492441
  20.6575227  64.0548706  26.9627166  19.4039440  63.3837128  26.4439964
  17.4460876  84.5792675  32.3990345  17.0192921  84.2116261  33.1729341
  17.2660220  83.9471245  31.7031908 119.3815727 105.8684254 108.8233682
 120.0465146 105.9872627 109.5015732 119.2720146 104.9197006 108.7589806
 107.6184625  77.1369696  35.0476718 106.8230183  76.6050434  35.0712729
 108.1298739  76.7711782  34.3259454   7.3764068  65.5530691   6.4139259
   7.6048547  65.5402660   7.3433769   7.5910854  66.4405680   6.1267203
  24.5273376 128.0218887  26.1748242  23.6265135 128.2601357  25.9557700
  24.9742532 127.9724789  25.3298044  26.9140673  70.4210567  26.3958192
  27.8362060  70.3807449  26.6493273  26.9276357  70.4010439  25.4389238
 121.3085697  96.4254856  18.4277272 121.7063532  96.0738087  19.2241740
 120.8690990  97.2265339  18.7130678   0.0476838  71.8765926  98.0049010
  -0.4084318  71.9289255  98.8448127   0.7453760  72.5286579  98.0701932
  18.8503516  94.7670650 102.0563050  19.1589844  95.6705379 101.9875386
  19.1549623  94.4746399 102.9153320 105.9262843  83.1773090  34.5153546
 105.1878542  83.4891319  33.9921737 106.6478724  83.7619591  34.2835522
   8.6608928  77.0723104   7.5512862   9.3611854  77.1161222   6.9002086
   9.0702039  77.3701000   8.3637005   3.5453182  74.4876051  84.4775327
   3.5378250  73.6251450  84.8926696   2.7476245  74.9122572  84.7931083
   7.5732034  58.3275747  48.4575462   8.3629930  58.7709427  48.7671995
   7.8958303  57.5338411  48.0307770  23.6900353  96.4459801  32.3704863
  22.8145814  96.8150234  32.4871802  23.7921190  95.8359241  33.1009936
  31.0065842  79.4415951  87.6075896  30.5107355  79.0889597  86.8686589
  31.0781550  80.3780746  87.4229153  22.1856713 104.1601849  18.3978212
  21.7754269 103.7366199  17.6438177  22.4462819 105.0229549  18.0754185
  96.5993924  79.4731855  42.7578306  97.3117108  79.1335011  42.2161198
  95.8723039  79.5965338  42.1476173 112.1935934  79.0093851   5.7815659
 111.5234346  79.1874170   6.4414334 112.7966864  78.4022713   6.2104285
 115.7283176  57.6506281  10.0883245 115.8218080  57.8548145   9.1578412
 115.5801255  56.7052746  10.1123750  15.0364268  91.6470814  46.1493349
  14.5434737  91.1535549  46.8048191  14.5788205  92.4854755  46.0866785
 124.1656209 100.2705383  97.9614385 123.4968933 100.0345612  98.6043605
 123.6710963 100.6050301  97.2132441 115.2215666  49.9444389 103.0214980
 114.6553630  50.3338766 102.3551764 114.8973609  50.3000927 103.8489243
   0.3371258  98.8432217  80.8994230   0.8767675  99.2588043  81.5719637
  -0.3746464  98.4278488  81.3863262 121.3203300 100.5113888  47.7713108
 120.4816905 100.2039051  47.4272633 121.3871071 100.1069927  48.6363173
 121.8493632 106.1960125  34.6114302 121.8368281 105.8105850  33.7353468
 122.2387988 107.0614815  34.4867873 112.2903914  60.7268667  97.6822051
 112.3625822  60.3039122  96.8265601 112.7739746  61.5472412  97.5854238
  16.8507433  66.2106371   5.3609413  17.7347648  65.8450890   5.3275746
  16.3474405  65.6767559   4.7462124  17.4306977  96.6324520  35.6505466
  16.8299627  96.3522053  36.3410640  18.1691062  97.0217896  36.1189461
  10.8225715  79.0167713   8.9894843  10.2065194  79.3531275   9.6403122
  11.5760410  79.6043396   9.0467727  10.5644500  92.6858616  38.1353283
  10.4716778  92.4597359  39.0607977   9.9367720  93.3953762  37.9980469
   8.6871922 111.7815876  14.9142075   8.5757405 112.2624493  15.7343161
   9.5087492 112.1132183  14.5518577  16.2266755  82.0987606  21.2874937
  17.1020877  82.2816563  21.6287184  15.6886744  81.9646358  22.0677495
 117.7145315  58.2507324  20.6044912 118.0779637  57.3763752  20.7446551
 117.0335395  58.1239796  19.9438751   3.8859281  78.5771036  96.4601561
   4.6826941  78.7783051  95.9693273   3.6050716  79.4198227  96.8167790
   6.3119107  71.0883427   8.0015486   5.6211400  70.9194565   7.3608112
   6.7742282  70.2539587   8.0808723  12.6150358  82.0808411 105.9257799
  13.0268180  81.2420082 106.1332100  12.0327401  81.8866730 105.1912984
  11.7011106  86.2601280   8.7585998  10.8731568  86.2772274   9.2386323
  12.2607505  86.8816757   9.2241216  39.6585536 119.4257736  19.9956357
  38.7764049 119.5061779  19.6328938  39.9379802 118.5431480  19.7524989
 112.9603536 126.0414219  15.3868639 113.6664540 125.8053017  15.9884465
 112.4800176 125.2250099  15.2491176  94.8086566  95.0999069  40.9918022
  95.4199809  94.9821568  40.2647161  95.0277919  94.3983173  41.6049814
   9.3581092  92.0751476  32.3304415   8.4322023  92.1587849  32.5583291
   9.7259653  92.9422760  32.5007629   9.6926898  89.1932392  10.7671094
  10.4095495  89.3980217  10.1667702   8.9778781  88.9077950  10.1980746
  25.2510929  95.4661560  22.6665616  25.3247118  94.5188046  22.5510597
  25.7092786  95.6436062  23.4880280   0.9676764  86.1081123  51.7611074
   0.5422414  85.5717945  52.4301338   0.6614473  86.9978046  51.9369125
  10.4287767  82.8594208  29.4965792  11.2771451  82.5710869  29.8332787
  10.5340242  83.8004208  29.3563056  23.9858794  43.8774967  32.7839398
  23.1204891  44.2281675  32.9945707  24.3710351  44.5273304  32.1960592
 123.8391196  77.5130033  76.6536411 123.4775887  78.2321548  77.1716651
 123.2409582  77.4283218  75.9111699 104.4134349 102.1601391  47.5861311
 105.3510303 101.9997978  47.6930666 103.9938969 101.3831043  47.9554844
  15.4674828  74.3234205  13.7393165  15.4315388  75.1004171  14.2971873
  14.8186660  73.7284613  14.1152060   5.0740933  66.7616653  28.6845970
   5.2826226  66.4362097  27.8089094   5.5366528  66.1688232  29.2768884
 121.0932339 104.3764210  11.6057253 120.3822831 104.8302460  12.0582998
 121.5579317 103.9078236  12.2990489  24.1003323  77.3562860  17.5954211
  24.3441129  78.0061007  18.2546163  24.6880007  76.6183567  17.7577329
  52.4100304  91.3331795   5.3456455  52.1073723  90.4529476   5.1224464
  51.6085434  91.8521404   5.4129922 100.4289979  93.2945156  46.8909407
  99.7968668  92.5782776  46.8305254  99.9162478  94.0410042  47.2008896
   4.9137434  85.7563686   1.6577791   4.5594260  86.4165497   2.2534752
   4.3621391  85.8168221   0.8778363   7.4817896  58.0938864  25.5539250
   6.6137302  58.3407927  25.2349544   8.0894548  58.5609722  24.9805093
  11.8604982 110.1881886 107.4073409  12.7598631 109.8914719 107.2683137
  11.7786336 110.9691620 106.8599712  93.2396550 117.0375443 102.9791179
  93.1169481 117.1756649 103.9183178  93.3748264 116.0940075 102.8914370
   2.7165717  59.8108482  21.9462538   1.7689079  59.7189426  21.8476677
   3.0816552  59.0873957  21.4367771 121.3767720 100.3161716  26.4212227
 120.4929695 100.2414799  26.7811489 121.4362887  99.6053791  25.7828927
 120.6627939  56.4442062  18.5513663 121.1735315  55.9465361  17.9128480
 119.8744965  56.7061138  18.0757380  22.2208548 134.2123127  35.8089089
  21.9558406 133.8402176  36.6500664  22.1011138 133.4982872  35.1827669
  90.6269044  61.6447067   5.1442468  91.1262102  61.4084339   5.9259748
  90.3895349  60.8058405   4.7490400  56.6327953 120.0950909  49.6019840
  56.3883781 120.0023937  50.5227995  55.8333015 120.3976154  49.1712523
 103.7539143  84.2061710  33.1215835 103.7514848  84.8038960  32.3739600
 103.1638951  83.4978676  32.8638625  51.5898228  74.0547466  39.3163776
  50.7070971  73.6917114  39.2440629  51.5447569  74.6461868  40.0676441
  52.9675674  69.4449663 108.1483088  53.2420874  68.8045263 107.4920248
  53.7388134  69.9957180 108.2827886 119.6705270  71.3085699  21.0457468
 120.2084748  70.5231333  21.1454296 118.8866974  71.0054588  20.5875278
 104.3409271  75.9953642  13.5830653 104.2191381  76.3430166  14.4665432
 103.5106058  75.5653954  13.3783031  37.3574209 109.0208912   4.5003515
  36.5608931 108.7162304   4.0656629  37.0957685 109.1585445   5.4107475
   9.3182290  67.1961403  20.6366992   9.7268152  68.0033493  20.9492707
  10.0410199  66.6898346  20.2659416  45.1956320 112.3933220 105.3579500
  44.5275927 111.8011570 105.7033592  45.9506178 112.2635174 105.9318673
 122.3584550  77.2385454  80.0422081 122.1944738  76.6188288  80.7530459
 123.3049083  77.3802614  80.0615700  17.0335531  75.7642651   4.0543789
  16.7576861  75.2193356   3.3173689  16.5393412  76.5772533   3.9493296
  34.3811536 107.7396297  25.2163076  35.1340103 107.9983044  24.6847749
  34.7478056 107.1622658  25.8859658 103.5512680  87.9384136 105.1615941
 103.2394356  87.2009563 104.6370515 104.3986649  88.1639481 104.7778174
 109.0921266  53.8658905  48.7101173 108.6667663  53.8807297  49.5674849
 108.3763248  53.7269402  48.0899954  22.3915887 106.3370419  16.7024696
  22.7222133 107.2345352  16.6649258  22.3210859 106.0692406  15.7862020
  40.2968359  55.1719761  11.5366995  40.8946419  55.4582167  12.2272980
  39.8549199  55.9730482  11.2552333   9.4092059  82.7414989  45.9833097
   8.7717086  83.3805561  46.3017988   9.8344499  83.1755447  45.2437162
   7.9240674  88.7159729  30.3574085   7.8121376  89.0533543  31.2461615
   8.8299543  88.9285278  30.1328540  32.9183173  68.8016939  17.6385009
  32.8299546  67.9645920  18.0942237  32.3146772  69.3877840  18.0949533
  14.2520273 104.6475029  10.1527500  13.8795793 105.2193642   9.4815648
  15.1493466 104.4877625   9.8602927 120.1024500  48.5420752 102.3279514
 119.6508563  47.8828526 101.8009576 119.5405037  49.3153048 102.2772940
  18.9891291  42.7956676 108.3411829  19.8349118  42.9870605 107.9359024
  18.4034300  43.4739733 108.0048940  60.4962349  82.0028305  22.4843979
  59.8508072  82.7090454  22.5147390  61.0655785  82.1662331  23.2363129
 114.3043465  69.9801874 104.7339901 114.6102805  70.2903461 105.5863034
 113.4851820  69.5234394 104.9252515 121.2180976  90.9015560   9.6425229
 121.8678857  91.3292313  10.2002859 121.6635848  90.7826138   8.8036990
   5.2607858  46.3301992  70.4082450   5.6915474  46.3924932  69.5557221
   4.3680954  46.0503864  70.2056631 123.2552206  47.3589802  11.7500615
 122.3994627  47.0909023  12.0847929 123.7495217  47.6104259  12.5302362
  14.0994084  67.6624155 106.9407635  14.6355307  68.3979034 107.2371813
  14.3070769  67.5742292 106.0105329 114.4346065 100.7377148 107.8045368
 113.8626511 100.7004642 108.5711600 114.7386581 101.6448975 107.7764083
 112.9234905  94.4466305  88.8865169 112.7479798  93.7134743  89.4763597
 113.7459535  94.8186302  89.2049512   0.8716840  55.3193998  27.9359055
   0.0828288  55.3604555  28.4765124   1.5916988  55.4529095  28.5523367
  16.4763546 121.7522335 105.5683067  15.5927503 121.3856792 105.6017228
  16.6711771 121.8228531 104.6338078  49.6750355  69.4065952  92.2122785
  50.3894663  70.0315189  92.0886429  49.5206261  69.4031477  93.1569358
  11.9415331  75.9409380  21.4682770  12.7912164  76.1448717  21.0775328
  11.3050628  76.3632298  20.8913803   4.0680006  88.3534622  12.1223342
   4.7974527  88.2802391  12.7377772   3.4779176  87.6396751  12.3642957
  28.3767104 102.6487732  37.1672916  28.0441785 102.4804211  38.0489445
  27.8675985 103.3981609  36.8583298 124.4815256  92.6597214  65.4226168
 125.0463716  93.1649876  66.0073241 124.2642803  93.2671547  64.7154721
   9.0062875  93.2926273  16.6862500   9.8545843  92.9510880  16.4034498
   8.4412360  92.5214386  16.7333484  84.5018930  74.2334318  12.4877584
  83.6714572  74.5116329  12.8740394  85.1659579  74.7351837  12.9605126
  37.5613022  95.9396172  38.0023885  36.7304468  95.5044270  37.8112888
  38.1377482  95.6817627  37.2830486  12.8453922  72.1935034  50.2708197
  13.3395755  72.8493309  50.7626534  13.3816099  71.4021873  50.3210735
  50.9763002  57.1674871 108.5761261  50.9153414  57.9675817 108.0542469
  51.2757635  56.5006685 107.9581451  13.6477542  17.1894586  70.6877184
  13.3585548  18.1013656  70.7196617  13.2142651  16.7744517  71.4334297
 100.9288067  68.0317736  89.8963356 101.5720362  67.3244619  89.9432182
 100.0832123  67.5845909  89.8612404  32.2425914  76.9180250  87.8267384
  31.9589829  77.8262043  87.7218151  32.7074361  76.9074154  88.6634254
 108.0623645  92.4932575  81.5816975 108.7286086  92.8178024  82.1875191
 108.3430428  92.8119469  80.7238674  21.2076735  62.7679396  23.8054982
  20.9754944  63.0764484  24.6813623  20.9386659  63.4777832  23.2224027
 113.4052081  69.6164179  92.0814419 113.6293883  69.8948479  92.9693890
 114.1764767  69.1370296  91.7788410  28.5999441  85.1346207  85.6606197
  28.9680076  85.6076241  86.4069653  29.3196416  85.0822449  85.0317192
 123.5554582  40.9849310  74.3108749 123.5429807  41.7239189  74.9191332
 122.6320407  40.7807589  74.1630697 117.8550041  53.0969858  28.2274476
 118.4421260  53.8027239  28.4984723 118.2671548  52.3006296  28.5623781
  42.7696180  55.5326319  94.7276592  42.4186754  56.2050009  95.3116035
  43.7153387  55.5589581  94.8731041   3.6460385  37.9220772  42.8681699
   2.7933988  38.3559990  42.8373567   3.7352169  37.5080109  42.0097867
  25.2720714  94.7035789  97.9051685  24.9998093  93.8061333  97.7135944
  26.2001896  94.6300125  98.1274605 104.9593467  51.5079069  83.6433220
 104.4625897  50.8800316  84.1679573 105.8347327  51.1261845  83.5783577
   3.2949439  33.0643940  89.2863750   2.8252110  33.4553671  88.5496807
   3.8098174  33.7841201  89.6512508 111.6334659  59.1894054  32.2444478
 111.4639694  60.0626659  31.8910161 111.0597677  58.6117697  31.7410222
 123.5425582  40.1544666  89.1686249 122.8236125  40.2458286  89.7939205
 123.1619467  39.6717429  88.4349060  31.4132714  77.6247692 106.5226936
  31.5949678  76.7083406 106.3144112  31.2328005  78.0317402 105.6753254
  35.3920341  71.0332918  85.2738953  35.8687210  71.1425734  84.4510555
  35.5980825  71.8213940  85.7765579  34.7284293  66.2793541  61.4118099
  34.2565179  66.3791513  62.2385931  35.4757929  65.7218885  61.6283894
 101.1603064  97.2173500  66.2259483 100.5040306  97.8717804  66.4652252
 100.6635231  96.5325737  65.7781410   5.5990452  68.0623722   5.1957551
   5.2019083  68.8272429   5.6122629   6.5399724  68.2358503   5.2239076
   4.7104296  42.1974373  98.1211567   4.4145852  42.8155899  98.7894344
   4.6057320  41.3371277  98.5275269  41.3252878  68.2559586  97.0892429
  41.3310194  67.7222776  97.8838444  40.8031034  69.0241432  97.3204231
   0.5293919  69.7926617  96.5625095   1.3007717  69.9515533  96.0184956
   0.5097350  70.5307722  97.1716404  33.4463477  46.6972780  15.1246587
  33.0026150  45.8521128  15.1955644  34.3658257  46.5008450  15.3041211
   8.6437494  62.1508884  90.1750851   7.7446193  62.0827103  89.8539162
   9.0085047  61.2742567  90.0538635  33.9549470  91.8098831  94.9602890
  33.2658696  92.0874119  95.5639267  33.5559034  91.8793774  94.0930176
 117.7651436  72.1554089 101.2588596 118.4944904  72.6665783 100.9081554
 118.1468231  71.3012886 101.4614105   0.4650524 102.5671673  90.3032494
   0.2902355 102.8879738  91.1879826  -0.2977029 102.0303917  90.0880432
   2.9428256  63.5693407 100.0406837   2.5507021  63.0219316  99.3603802
   2.9912108  64.4410944  99.6483421   5.6409162  33.3179307  13.8423864
   5.1205379  32.6554537  13.3878938   5.0576204  33.6560225  14.5218602
  40.0010300  60.9285116  56.4282743  40.0283241  60.2005816  55.8073179
  39.1329741  60.8703899  56.8274442   8.5961771  44.6223974  36.9877855
   7.7745289  44.1465569  37.1090452   8.5908014  44.8784542  36.0654870
  39.3569040   6.7145962   4.8110620  39.6599078   7.3618090   4.1742460
  40.1591587   6.3750803   5.2077333 122.7830785  99.1332817  77.0603561
 121.8507395  99.0976524  76.8465662 123.1140115  99.8822975  76.5646839
 112.8658826  66.3597536   3.4127084 113.3228440  67.0701694   3.8629571
 112.9849440  65.5995846   3.9820901  45.0079727  62.2376299 101.1510372
  44.4522047  62.6202583 100.4721069  44.5185614  62.3686266 101.9631672
  14.2880726  75.4260921  86.5985680  13.9922774  75.8574963  87.4002075
  13.4868741  75.2798319  86.0956573 119.9738810  73.6784124  90.8979893
 120.0532944  72.7266932  90.9624100 120.5723379  73.9214230  90.1915741
 120.9074277  65.4400873 102.2383785 120.2360804  64.7636223 102.3273754
 120.9803123  65.5825043 101.2946415  31.8486810  60.1317120  79.9769688
  31.5075088  60.7915115  80.5807018  32.7453756  60.4135180  79.7959805
  17.5368154  77.3950005  80.2981186  16.6698515  77.0095348  80.4246902
  17.3956299  78.0997086  79.6659136  12.4550283  38.4184623  10.7002584
  12.1949446  38.5865402   9.7945348  12.8647184  37.5537300  10.6752721
   1.9876678  92.3944569   8.8838998   2.0193803  91.4419460   8.9730588
   2.6846629  92.7120781   9.4579545 119.7836298  98.6138248  31.6045610
 120.0927449  97.8925610  31.0564081 118.8842500  98.7665272  31.3146917
  83.0653781  64.3030262   2.4685232  83.4962148  64.4811726   3.3045141
  83.2315654  65.0849485   1.9420186  28.7958360  58.8448477 104.0302753
  28.3625388  58.0667591 103.6794758  29.6372533  58.8761854 103.5750103
  32.0709181  91.0447311  18.5063402  31.7559338  91.5232468  17.7395097
  31.2900305  90.9133911  19.0441171  39.4969320  53.2591295  80.1407242
  38.7793589  52.9809475  79.5715714  39.9069405  52.4425030  80.4257488
  28.2506680  62.0941496  92.0611191  27.7229047  62.5703335  91.4200687
  29.0247393  62.6425457  92.1888351  22.7577615  40.8303070  13.7416784
  21.8462849  40.8832073  13.4541932  22.7043152  40.7516479  14.6941415
  32.0212770  49.9383450  76.3966656  32.2854996  49.7421980  75.4978085
  31.0648131  49.9597597  76.3658953  98.8071937  66.2741947  80.5630207
  97.9926533  66.4571953  80.0947571  98.5532207  65.6650925  81.2563610
  16.1049271  78.3668041 103.6181355  16.3381219  78.0932522 102.7309895
  15.1752198  78.5880280 103.5639668  12.7949286  53.0581045 104.6560764
  13.4953129  52.7405214 104.0861320  13.1756163  53.8124657 105.1057911
  17.3989272  64.5101643  12.6490918  16.5886772  64.9251747  12.9448835
  17.3969853  64.6307516  11.6995183  20.3774834  51.4102888  98.7619877
  21.0235929  51.5597010  99.4522381  20.8826137  51.4443970  97.9496384
  25.7600951  23.9496636  55.6152010  25.4472589  24.0828800  54.7204256
  26.6913080  24.1681099  55.5783701  38.3504772  63.7703228 101.5635014
  38.5517335  64.5090628 100.9890461  38.8452148  63.0385160 101.1948299
  11.1070001  69.5518351  20.7048646  10.7723868  70.4451561  20.7838861
  11.5204978  69.5264196  19.8419610 107.2381086  85.5312061  78.4245634
 106.4007193  85.9948730  78.4197187 107.8518743  86.1409473  78.0149984
  13.7316263  39.3721819  23.8190118  13.8196683  38.4190488  23.8231984
  14.1485798  39.6476460  23.0026189  79.3819923  72.7108908 106.8384743
  78.9225645  73.5129023 107.0873451  78.9415426  72.4205685 106.0397625
  27.1630669  95.0209332 101.3529587  27.0478821  94.3065548 101.9795609
  28.1118202  95.1240826 101.2790775  26.6139078  47.8775692  65.3659058
  27.4371815  47.6334190  64.9430084  26.8806481  48.3270407  66.1678123
   2.3205617  53.6014032  86.4678860   2.3627263  52.6745844  86.2323952
   2.9938412  54.0163898  85.9287071 107.0278115  70.6419849 102.3325729
 107.9634053  70.6004143 102.1346664 106.5981454  70.5107403 101.4873600
   3.3541471  63.3047485 102.7784538   3.9147407  63.9695358 103.1784821
   3.4432361  63.4514141 101.8367672  25.1761985  49.4027281  10.0780240
  25.7676625  49.9413538  10.6036512  25.6555390  49.2443562   9.2647687
   5.1420164  89.4559765 108.5220432   4.5248860  90.1172733 108.2088757
   4.9586672  88.6843777 107.9860783  13.0850387  53.0554104  85.8228874
  13.5874259  52.7505493  85.0673103  12.5060344  53.7304783  85.4689503
   0.4200040  61.3268614  96.3519573   1.1118331  60.7313156  96.0639763
  -0.1075371  61.4782047  95.5677128  18.2189286  93.7644958   5.5820504
  17.9981744  94.5601654   5.0978795  19.0844846  93.9408684   5.9507505
  20.7295895  41.1099005  94.7758675  20.9680820  40.9587765  93.8612556
  20.7529902  40.2407742  95.1762390 116.5512872  32.7628875  71.6064072
 117.4405897  33.1014705  71.5028048 116.6576225  31.8117690  71.6237116
 118.7778605  66.5934420   8.0552236 118.1400949  67.3071766   8.0635682
 119.3392540  66.7650270   8.8112871 113.8270409  50.5369377  86.9046021
 114.3555338  51.1403894  86.3823223 113.1576890  50.2188826  86.2987614
 121.5130357  85.6005669  42.8109121 121.4884189  84.8973942  42.1619272
 122.3393307  85.4686642  43.2757473  27.4623728  62.7405500  68.0477190
  27.2684455  61.8724251  68.4012556  27.9277062  62.5674152  67.2293568
  25.7156563  51.1972380   3.7467328  24.8405862  51.5790224   3.8154641
  26.1803102  51.7713547   3.1378595 105.1593573  66.9575977  10.9433690
 104.4548268  67.0305538  11.5872232 104.9217410  67.5806808  10.2566854
   1.2715317  59.3430805  68.2962990   2.0251659  58.7553024  68.3490753
   1.5880318  60.1713181  68.6569548 121.9469220  68.8099623  58.0828953
 121.3367859  68.0846357  58.2165575 121.6573302  69.2193985  57.2675848
 111.9568605  74.4153595  80.0978088 112.3227806  74.9178123  79.3698788
 111.4883680  75.0630665  80.6243324 105.3820295  41.9640493  98.4094143
 104.5088763  42.3147678  98.5850048 105.2378625  41.2774515  97.7582359
   3.8827750  80.1627731  86.2831974   4.6835366  79.8439312  86.6995525
   4.1587532  80.4301071  85.4065037  46.1597776  53.7890577  96.3760757
  46.6011190  53.2631874  95.7090569  46.6818953  54.5891953  96.4344311
  62.2176218  48.6490154  87.9267979  62.1316433  47.7145672  87.7380085
  63.1621361  48.8010931  87.9582882  12.2959244  78.7867260  87.0862293
  11.7044759  79.2561579  87.6744938  11.7156160  78.2893324  86.5099716
 116.7638004  48.0517387   1.8229619 117.7202941  48.0825472   1.8029062
 116.5358741  48.2741976   2.7256242 113.9551825  77.6796007  86.5917301
 113.3828301  78.2443762  87.1110249 113.9337391  78.0595255  85.7134151
 119.1452909  76.4376307  99.0006065 119.0476418  76.6620684  99.9259853
 118.8944752  77.2343826  98.5331535 113.0892260  91.8243122  10.3562776
 113.2450849  91.0262775  10.8613244 113.2715566  92.5357246  10.9701768
   5.4491782  81.2680531  76.7624760   5.1004070  80.4454994  76.4189672
   4.8621947  81.4943790  77.4839020 108.0263025  31.4665294   4.8718683
 108.8263745  31.9823241   4.7715036 107.3264534  32.0509076   4.5804159
  32.6689959  94.9671650  95.1341724  33.3931708  94.5704556  95.6183434
  32.3459029  95.6593132  95.7110310  15.3259993  79.8076820  73.0670881
  14.7249794  79.6409416  73.7931776  14.8764682  80.4591846  72.5288582
  15.0885034  54.3859482  11.2451497  14.3643236  53.8933229  11.6313115
  14.6671247  55.1187181  10.7960264 119.4856817  73.6917734  78.2304239
 120.3508738  74.0989828  78.1873369 118.9920957  74.1023588  77.5204802
  26.9113421  56.8159723  75.0905132  26.4881134  56.6906023  74.2411661
  26.9248414  55.9428596  75.4825926 122.3607132  70.8225060 102.9026890
 122.6951710  69.9851131 103.2238579 121.7031086  71.0812521 103.5483170
 121.7903507  76.7476130   9.1170446 121.1020786  76.3402224   9.6429197
 122.5742096  76.2324905   9.3079416  15.1981294 109.4366932   0.4952756
  15.0487471 108.5379982   0.7889787  14.5724368 109.9596214   0.9965650
 103.7073321  33.5763025  87.4768925 103.4841651  33.8167334  86.5776634
 104.3714899  32.8932428  87.3843956 113.7367315  62.8439856  66.8188381
 113.9861495  62.7609968  67.7392387 114.4674391  62.4567413  66.3368177
  24.9511623  50.0899649  29.0115777  25.1504540  49.4498158  29.6947423
  24.6550536  50.8651304  29.4887201  11.4049852  70.7040977  10.8808652
  11.1222315  70.2011347  10.1171247  10.6166494  70.7887745  11.4171449
 124.1342270  65.9374475 106.5886593 124.8769936  65.4548216 106.9514275
 123.9775760  66.6430664 107.2161865 116.7093456  72.3014545 103.8151550
 116.0437662  71.6648149 103.5545254 117.1145964  72.5748014 102.9921818
  16.0039413  17.2219121  81.5566826  15.3863728  17.9398286  81.4172649
  16.6134107  17.2840202  80.8212090   8.6624378  70.4390240  29.7593252
   8.5241956  70.6295586  30.6871263   7.9246056  69.8793650  29.5172254
   8.3880067  81.3436127  30.0571767   9.1051799  81.9764614  30.0198022
   8.1631011  81.1820984  29.1409055 100.8470601  61.2319994  13.6670247
 100.9486861  62.1199083  13.3242074 100.3902525  60.7578278  12.9722444
  19.5100451  32.7973390   1.7257634  19.7365546  31.8675685   1.7470590
  18.7135005  32.8619289   2.2526208  23.3831120  80.4404545  13.2518331
  22.4854589  80.2649117  12.9696313  23.4299946  80.0819302  14.1381112
 121.0520277  81.3576317  31.9434968 121.9830189  81.1402702  31.9907991
 120.6550486  80.8689880  32.6645128  38.9302611  60.7738638 104.6693230
  39.6042180  60.6272745 104.0055943  39.1115642  60.1189804 105.3434753
 119.9601812  55.1959610  79.6145248 119.4429571  55.3278065  78.8199615
 120.0498662  54.2457294  79.6870041 119.3675149  32.9132891  52.0706312
 119.7266943  32.5834656  51.2469426 118.4521670  32.6334810  52.0618573
   2.1362862  44.8016644 107.4498081   1.4357421  45.3067398 107.8625584
   1.7918010  44.5761108 106.5856934   5.1239341  90.4994583  20.9348813
   4.6082333  90.6325340  21.7302362   5.1430267  91.3595009  20.5151120
  18.6618280  72.1565151  66.9256830  18.2153988  72.7133131  67.5635767
  17.9616475  71.8323755  66.3591909  85.4905672  52.4945498 102.8955364
  85.2930755  51.6811895 103.3599377  85.9646601  53.0263186 103.5348320
  19.0153873  39.6583772  30.8036748  18.2187402  39.2091537  30.5212156
  18.8709414  39.8411179  31.7320958   6.0058296  30.7020664 104.0803146
   5.6736755  29.8083782 104.1653347   6.9418144  30.6284571 104.2667198
 110.3192706  41.1176586  98.1390858 110.9959919  41.1101103  98.8160038
 110.4756219  40.3189850  97.6351929  11.9885862  56.5437269  89.8457432
  11.3940191  56.0560417  90.4157257  12.7665067  55.9897614  89.7810078
 108.1421120  51.3408661  13.5081807 107.3424572  51.8506193  13.6383287
 108.4394092  51.5815258  12.6307241 119.0351600  58.5460186  88.7606144
 118.2792414  59.0776396  89.0100193 118.9953721  58.5064745  87.8050613
  33.5612655  42.1068764  65.8006239  33.3361220  41.8397999  64.9094343
  33.7991810  41.2915707  66.2421036  28.8469815  54.0997553  98.1814098
  29.0390778  53.9647150  97.2534561  27.8910565  54.1151810  98.2283401
  23.9342499  48.9560127  93.9591026  24.4405913  48.1521273  94.0757751
  23.3916259  49.0135717  94.7455311  17.1554732  91.3084507 101.8452644
  17.3780322  90.4640961 101.4531231  17.3501992  91.9490051 101.1611557
  14.5808160  66.0821247  34.5906392  14.0747190  65.9988499  35.3988210
  15.4895675  65.9545231  34.8628846  12.0911682  49.4835091 108.5226154
  12.1274304  50.0016260 107.7185822  13.0010021  49.2382002 108.6907101
  12.7068377  24.6390963  20.0712243  12.7036786  25.5111194  20.4659406
  13.3416665  24.1440845  20.5890981   8.3059794  69.0469170   8.5513059
   7.9756254  68.8466311   9.4270841   9.1600132  69.4512606   8.7041513
 120.0069595  67.6284075 103.4456158 119.1644514  67.2032166 103.6056995
 120.5622501  66.9338989 103.0912971   0.1525856  23.4982538  85.5721188
  -0.5038410  23.0148721  86.0737896   0.4670503  22.8703952  84.9216270
   1.0426179  57.1362782  18.9673368   1.2971757  57.8025913  18.3290139
   0.2110325  56.7948723  18.6385003  26.1125636  48.7401104   7.6996366
  26.9392443  48.9754868   7.2784177  25.4395318  49.1236496   7.1373597
 110.4896635  21.6304231  21.7245427 110.7090456  22.2287321  22.4387780
 109.7755141  21.0954785  22.0710317  17.7023602  62.3440599   4.9329892
  17.5346279  61.4418268   5.2051584  18.1044281  62.7543831   5.6986276
   9.1219699  67.9332256 105.2779484   8.8129807  67.7862740 106.1719036
   9.5099616  68.8080025 105.2993965  34.6997690  42.7145815  53.8002729
  34.7228003  43.5565376  54.2550421  34.8075223  42.0643902  54.4944477
  47.8405190  91.2817383  71.2500525  46.9492435  91.3689804  70.9120464
  48.1278992  92.1818924  71.4028978 122.8338129  51.8928432 102.9294014
 122.6632631  52.6309919 103.5144520 123.0712081  51.1734056 103.5144520
  13.2484472  52.9733515  13.3660356  13.6438572  52.3262072  13.9500657
  12.7832150  52.4525595  12.7113859  32.6542187  88.2252312  21.5872804
  33.0333471  87.5355911  21.0424081  32.9868793  88.0457497  22.4666826
  16.0850096  83.5971451  92.3118210  16.4704323  83.5915089  93.1879711
  15.8192611  82.6899910  92.1612167  18.3992469  49.0808105  99.9275780
  18.0298316  49.3779945 100.7591057  18.7569106  49.8734236  99.5274830
 111.6760630  96.3946247  84.6060848 111.2383336  95.7586288  84.0402889
 111.4602167  96.1128235  85.4950333 118.1725932  72.0334101  95.2364922
 118.0157358  71.1091042  95.4295826 118.8956303  72.0277119  94.6092606
  17.3834300 105.5137539   5.4397432  18.2243514 105.6463718   5.0021402
  17.2784460 106.2857342   5.9958497  36.0019088  51.2480545 107.0015144
  35.7387710  50.3419065 107.1624088  35.5528855  51.4874983 106.1907864
   0.7620335  82.4137115  12.4409810   1.6860601  82.5557232  12.2354547
   0.4718350  83.2416248  12.8238241  42.5883150  48.6993122   3.3160631
  42.6023054  49.4022989   3.9655534  42.0659208  49.0500307   2.5947229
  36.6073132  31.7467117  83.5038567  37.1087933  31.7306638  82.6886940
  37.0508838  32.3997855  84.0451241  22.6131058  12.6633084  85.7592297
  21.8417120  12.1246004  85.5832291  22.9752350  12.8531003  84.8937416
  24.0941882  85.2166462  80.4797935  23.3083940  85.3664875  79.9541426
  24.7699857  84.9897480  79.8410034  34.2075825  44.7574615 100.5210972
  33.2818103  44.7589827 100.7643604  34.2388868  44.2650366  99.7008705
  22.2800946  66.8560505  70.0806665  23.2355165  66.9138432  70.0884581
  22.0713997  66.4528322  69.2379951   8.1891495 110.2474499  11.2397710
   7.3439682 110.6895065  11.3203183   8.8166082 110.9552383  11.0929338
 122.2201643  22.6670980 108.6523151 122.6846894  22.1613836 107.9854488
 122.0866392  22.0495772 109.3713856  10.0054407 114.4406319 101.1157036
  10.0092578 114.1693687 100.1977539   9.8387980 115.3827572 101.0863495
   5.2695429  74.4776869   3.3761445   6.1687160  74.3099689   3.6582605
   5.2021933  75.4320192   3.3455030  56.4152431 115.8398914  87.5192261
  56.0800838 116.5943718  88.0036449  56.6763830 116.1970234  86.6704082
  11.0293913  66.0890388  63.2574129  10.2319241  66.3624430  62.8040600
  10.7736170  66.0309076  64.1779757   8.6861897  30.3581333 104.5976925
   9.3807578  29.7530818 104.3374634   9.1214722  31.2080193 104.6644497
  12.8937542  30.8346295  47.7570057  13.6580682  30.4906654  48.2193327
  12.7751029  30.2409577  47.0155859 117.5642861  95.9544945  43.6494112
 117.3962182  96.6288376  44.3076229 117.0436508  95.2043819  43.9366579
 113.9493126  91.7484188  78.9754820 114.5822365  92.0309734  79.6356392
 113.5267944  92.5574303  78.6870289   4.9206346  80.3975487  93.4635735
   5.6147879  79.9786711  93.9724255   5.1970410  80.2964497  92.5527477
  20.1719999  47.2040367  62.8720331  19.2485726  46.9921160  62.7356386
  20.6282949  46.3701868  62.7592230  27.0566463  75.0538683  59.9984884
  27.3321223  75.8980799  59.6412134  26.1896920  75.2215528  60.3679514
   1.8467920 111.6515064  16.6714898   2.1116875 111.2727547  15.8332769
   1.0821131 111.1394405  16.9347230   6.4081240  41.9599390 101.9095993
   6.7794991  42.1506262 102.7709675   5.4624921  41.9371128 102.0561981
  15.2706969  69.8845625  64.9259567  15.5608392  69.8545170  65.8376312
  15.9347486  70.4106998  64.4804859  20.8570695  36.6217041  84.3965054
  20.1419783  36.3317823  83.8300896  20.6555724  36.2401724  85.2509403
   2.8302574  62.3512697  97.4667072   2.8613076  62.8834057  96.6716576
   2.3956172  61.5423250  97.1966648  39.9709940  60.6358004  20.3467695
  39.5207691  60.3389692  21.1376039  40.9014750  60.5607510  20.5584279
 101.5824575  26.6845250  53.9583158 101.5827078  26.4378309  54.8831844
 100.9264059  26.1136866  53.5583496  11.1022532  69.8979855   8.0560151
  11.3742948  68.9968872   7.8821126  11.0496294  70.3035450   7.1905748
  15.7129395  56.3934040  98.8197613  15.6644547  57.1337271  98.2149410
  15.0766528  56.6010904  99.5040321  12.2026002  63.8449001 105.3554344
  11.2881994  63.8919353 105.6345272  12.2343409  64.3623257 104.5507622
 109.1662092  56.9633579  49.7916842 108.2117958  56.9160223  49.8472452
 109.4073421  56.2504911  49.2001534   6.4004481  78.6914825  87.1390820
   5.6741834  78.0796242  87.2591114   6.7827582  78.4470558  86.2962723
  13.7477136  74.9205446  79.9545431  13.5752892  74.4900656  79.1171694
  13.5292029  74.2606306  80.6125736  31.4471865  75.2580929  79.4003439
  30.8549118  74.8976803  80.0603008  31.1912131  74.8243427  78.5863590
  36.4108443  36.8751550  82.5895023  37.0303273  37.0316744  81.8767738
  36.9449234  36.9102216  83.3830738  17.0095873  74.9460793  86.4216423
  16.1424458  75.1449871  86.7748165  17.6189709  75.2971315  87.0709801
   2.1036100  59.4267750  82.7208042   1.2869510  58.9306641  82.7771568
   1.8944763  60.1686954  82.1533012  33.0320621  19.5692134  41.1166811
  33.0716944  18.6600840  40.8197880  33.9331388  19.8840892  41.0449696
  11.6137421  69.3520880  92.6008701  11.0074830  68.6527205  92.3568058
  11.7887425  69.8142767  91.7811203   3.3665434  44.3396759  61.2884665
   4.1389659  44.3591881  61.8534613   3.0440569  45.2409077  61.2924433
  40.4140520  73.4480762  95.1778030  39.8349500  72.6961470  95.3022003
  40.1881790  73.7833786  94.3101692  29.8035693  78.9346266  99.3517113
  29.7671938  78.9691353  98.3958244  29.0397573  79.4350910  99.6386814
  35.8827186  35.2118325  80.3254032  35.7959461  34.2687249  80.4641438
  36.2119389  35.5473018  81.1592579 114.9781615 108.5057068  84.5602322
 115.1025254 108.7052822  85.4881001 114.4320244 107.7196121  84.5554352
  21.7926693  77.3733377  95.4479599  21.4587760  76.5867949  95.8793545
  22.2623181  77.0449400  94.6812725  28.0211496 109.7557735  11.7628042
  28.8281679 110.1845264  12.0476285  27.7188301 109.2772961  12.5347368
  25.8715701  98.3995056  67.8262377  25.5226159  97.6299858  67.3764706
  26.5435171  98.7384319  67.2347593 111.0006446  87.6830673  85.8535957
 110.9694356  86.7567539  85.6144524 111.7298991  88.0373573  85.3447723
  26.7349792  65.2104139  68.8061762  27.5290155  65.7201099  68.6450958
  27.0072627  64.3000221  68.6909342   9.0573001  70.7932615  91.5019131
   9.4241261  70.0818157  90.9770107   8.6794221  70.3571987  92.2656441
   8.2949519  39.9996996  53.4064913   7.8573346  40.8503628  53.4396362
   8.5968035  39.9207354  52.5015688 114.9334622  71.6852760  82.0729828
 114.9205763  71.2999249  82.9490948 115.7426841  72.1959209  82.0478058
  28.9633393  83.7272549  89.0042114  28.8379622  82.8153229  88.7417507
  29.9118352  83.8236809  89.0895844  38.9099097  44.8392010  81.0534382
  39.8007035  44.7780323  80.7085133  38.8170600  45.7550144  81.3159084
 121.2767429  43.1891060  54.0832233 120.9436501  42.3455095  54.3892050
 122.0796431  43.3262110  54.5860004  36.0120869  69.3810701  78.0504751
  36.8074846  68.9467382  78.3585835  36.0782480  70.2726555  78.3924294
  40.8320904 117.8308868  67.6166868  41.7231798 117.5362301  67.4286270
  40.5529785 118.2756424  66.8163633  21.2862849  48.8408279  30.1078200
  22.0002460  48.3066845  30.4559326  21.3846421  49.6865559  30.5451989
  13.7928176  60.7101727  76.8006277  13.9963984  59.8477411  76.4386940
  14.0559638  60.6526518  77.7191448 117.3188443  40.1581907  98.5800552
 116.3714719  40.2876997  98.6241627 117.4257565  39.2170596  98.4419441
  27.4313760  69.9106646   0.8691350  27.7663231  69.0150595   0.9131471
  26.5210605  69.8403215   1.1565534  99.3098516  72.8183174  85.3830624
  98.7721819  73.5737324  85.1453781  98.8703794  72.4419594  86.1455917
   9.0276670  48.5768127  82.6676750   8.4608912  48.4877396  81.9014740
   8.5739386  48.0941772  83.3586311 115.1319969  45.5199718  80.6322670
 114.1819913  45.4601145  80.7329559 115.4680330  45.5244780  81.5285301
  40.6176329  35.2330732  70.9019184  41.2492228  35.4157948  71.5975809
  40.5015421  34.2832780  70.9272289 107.6802725  68.5036087  56.1357117
 106.8000001  68.6173630  55.7773638 108.2636542  68.6705875  55.3954315
   8.2895023  60.3198099  52.2497892   7.5385356  60.8722305  52.4668455
   7.9604101  59.4248056  52.3328114 101.2328143 110.3875923  78.6942244
 100.7674403 109.7734165  79.2620707 102.0753521 109.9660206  78.5250092
 124.2275245  63.0649757  65.3325367 123.6647992  62.3168278  65.5321407
 123.6255067  63.7415171  65.0225353 108.0197281  63.9958286  70.1545286
 108.7557024  64.6027613  70.2332926 108.0110688  63.7485886  69.2298508
 116.8738890  48.5775661 105.2553844 117.2097517  47.8634262 104.7136879
 115.9515733  48.3610916 105.3921509  14.2507446  63.5297489  90.6875706
  13.8633132  63.2758284  89.8499298  13.9554167  62.8574991  91.3016510
   6.6502529  61.3170719  14.1774217   6.1687744  61.7288113  14.8949758
   6.1220443  61.4976835  13.3998624  13.4885311  90.2452660  75.1050854
  14.3206692  90.5802155  75.4391241  13.1994820  89.6179867  75.7678127
  35.1678848  50.4028559  48.5619402  35.5648780  50.7257652  47.7530146
  35.3465176  49.4624805  48.5576391 115.8009101  72.7555180  75.2291870
 115.2354003  73.2368231  74.6252203 116.5530939  72.4955606  74.6973276
  17.2402620  53.1258678  63.0270052  17.9547393  52.5601482  63.3197737
  16.4498925  52.7130175  63.3750010  15.8101237  70.6470108  14.2877618
  15.8454204  71.1958599  15.0711862  15.2598369  71.1369228  13.6766950
  -0.0560330  55.6349182   4.0616552   0.8113663  55.5485296   3.6662046
   0.0862877  56.1821222   4.8340265 114.7619266  50.9487295  99.5344448
 114.4713623  51.4117765 100.3201771 114.1868634  50.1854801  99.4797993
  19.6638548  83.4020424  69.5885897  19.1331875  83.8811970  68.9521694
  19.1873264  82.5840759  69.7303295   3.3753458  71.2937021 106.1528873
   2.6675966  70.6767130 106.3390160   4.1360706  70.9291124 106.6052151
 117.6577342  70.0200987  82.8433609 117.6379550  69.4768333  82.0555115
 117.9468030  69.4265032  83.5364151  23.3561373  66.3946581  74.8023939
  22.4383545  66.1955881  74.9875450  23.5248470  67.2091198  75.2761269
  29.7895217  85.0350666  99.5891285  29.8005247  85.1439476  98.6382103
  30.3897738  85.7061672  99.9140167  26.5059566  74.1169834  89.7826004
  26.3586473  74.9944115  89.4295311  27.2987008  74.2019320  90.3122902
  26.2023067  77.8517866  96.0599327  25.5251837  78.2233000  95.4944992
  26.0757542  76.9052124  95.9950066 115.0715358  61.6016865 107.2692013
 116.0163761  61.7509556 107.2341537 114.7448707  61.9375563 106.4345074
  43.8946533  81.8107891  73.4475899  44.4114208  81.9581890  74.2397118
  43.5944796  82.6829433  73.1917000  36.2828279  28.3455467  81.0910225
  35.6015110  29.0153503  81.0326767  35.9415030  27.7109599  81.7211246
  36.8130302  49.5587492  96.4684010  37.6139593  50.0351763  96.2498474
  37.0390797  48.6377859  96.3381863 119.7360799  74.2951441  42.2679234
 120.1934523  73.9202881  41.5152454 120.2862615  75.0291872  42.5412703
 106.2482328  83.5412598  80.4956150 106.9177002  82.8672504  80.3782940
 106.4466531  84.1951656  79.8253393 101.3974327  80.9430408  95.8918476
 101.9953556  81.5083790  95.4028511 101.7503924  80.0612831  95.7728577
  15.0903034  49.0424490  66.9655418  14.4715238  49.4005442  66.3290596
  15.8361566  49.6417522  66.9378138 101.0896224  68.6500311  75.9985876
 101.9296975  68.6408091  75.5398703 100.7807631  69.5521307  75.9146023
   9.9817288  64.0463638  82.2809887  10.6037819  63.7473488  82.9442215
   9.9348420  63.3246803  81.6539288 123.0718199  39.2945075  18.8663904
 122.8655083  39.4035840  17.9380742 123.9573027  38.9310575  18.8738576
  28.2646489  84.6557140  79.8087740  28.8664150  83.9131737  79.7562551
  27.8145027  84.5404720  80.6456280  17.3449719  66.6094255 106.0556984
  17.7218676  66.0893297 105.3459930  16.4649427  66.8294573 105.7501411
  35.7652283  52.6623535  75.5692339  36.6604853  52.9865122  75.4709053
  35.3103399  52.9740906  74.7868443 123.0400982  27.0310402  20.6335298
 122.2612453  27.3451519  21.0928289 122.8038106  26.1531234  20.3340951
  12.0116866  51.4423227  63.1980181  11.2306333  51.7846060  63.6327887
  11.6983151  51.1403704  62.3454618 114.5718104  64.7288227 100.3841686
 114.4990689  65.5926657 100.7900238 115.1388938  64.8675632  99.6256161
   5.1071602  34.8601580  62.7855968   4.4311357  34.3168831  63.1906605
   4.6202239  35.5176187  62.2887373   0.5949217  81.3490772  89.5680714
   1.4690009  81.5881538  89.2597580   0.1227392  82.1802330  89.6175289
  26.7712760  73.3300114 100.6190777  26.8283343  72.3943186 100.8126259
  27.6178765  73.6832094 100.8924770  18.5462654  35.5086422  83.4002018
  18.0315900  34.7348309  83.1709576  17.9515827  36.0451698  83.9243412
  14.0145981  44.7349024  98.9900780  13.9578676  45.3155851  98.2312489
  13.1247628  44.7132397  99.3421459  90.0144286  84.2602730  52.6550245
  89.2820520  83.7605667  52.2942591  90.7649059  83.6703682  52.5840807
 115.0205112  67.7981377  52.3012018 115.4017825  67.7726507  51.4235830
 115.1835323  68.6902857  52.6073456   2.8965268  81.7418385  55.3733397
   3.2043591  81.0661125  55.9773779   3.4944993  81.6871834  54.6279049
  13.0851626  95.2792168  98.0901718  13.5038137  95.8774853  98.7090778
  13.4966290  94.4319153  98.2604694   4.2581815  55.1718903  85.3848076
   4.9880707  54.7988605  85.8791161   4.1723651  56.0640097  85.7209587
 103.9416308  50.5610180  50.6708574 103.6143298  49.6641493  50.6020689
 103.5167999  50.9116364  51.4536858  53.9190531  31.9285250  92.4876308
  53.7641191  32.3715305  91.6533852  53.0900764  32.0093751  92.9593277
  27.4770451  37.5050020 109.3647385  27.0574498  36.8033409 108.8669014
  27.4742246  37.1916962 110.2692032 115.2297247  79.8931980  56.8420172
 115.7368655  79.1209793  56.5915728 115.8096541  80.3813934  57.4264622
 104.4355149  83.6668110  91.2273312 105.0470585  84.3925476  91.1025810
 103.5853571  84.0229225  90.9691620 115.5146415  94.8804951  62.2457361
 115.1741416  94.3393517  61.5333748 115.0331617  94.5882607  63.0196953
  22.4888396  98.3842278 109.0243626  21.8271089  97.7085304 108.8768196
  21.9851327  99.1851616 109.1693211  49.0619278  68.4432173  54.9307442
  49.4092941  68.7845230  54.1066790  49.8296452  68.1075668  55.3935432
  19.7207665  65.9138680  59.3234444  19.6622133  66.8666506  59.3942738
  18.8730371  65.5979061  59.6361017  20.6580520  85.3416824  46.9420576
  21.0283828  85.9746647  47.5572205  19.7830963  85.6786537  46.7493677
  85.3387947  89.6056461  74.4773102  84.9902958  89.4383335  73.6016464
  85.8962507  90.3763390  74.3700171 118.9788855  39.9119592  57.1219540
 119.6532804  39.7809815  57.7884865 118.8544399  39.0459180  56.7337275
 109.0504009  45.7083035  80.9941959 108.6491997  45.2356434  80.2649021
 109.5620806  46.4017630  80.5776215  15.9984040 108.7757397  47.0865202
  16.5007555 109.4108105  46.5760756  15.4847431 108.2977486  46.4354420
   1.8823840  40.2599669 109.3517685   2.4491826  40.4422283 108.6022758
   1.0686646  39.9379230 108.9639759  35.5353785  58.7536097  68.0311823
  34.8621058  58.1554174  67.7069855  36.2058377  58.7525034  67.3480177
  44.3848562  73.0828190 102.0233250  44.5044518  73.5546398 101.1991215
  43.4363222  72.9870844 102.1090508   3.3978724  62.5727654 109.5046997
   3.2317004  61.6897583 109.1746712   4.3070552  62.5497484 109.8031712
  54.1560030  61.3221598  16.4177934  54.6967125  60.9728289  17.1262018
  53.7786913  60.5478334  16.0003225   1.7081755  67.6919413   3.4736482
   0.9071157  68.2107353   3.4002725   2.3802656  68.2283068   3.0531350
   4.3179131  52.6494408 107.0771694   4.8585442  52.0532322 107.5953197
   4.9080968  53.3658028 106.8432045   5.3809690  60.3131104  96.2608242
   6.2651050  60.5180979  95.9566593   4.8093721  60.8591461  95.7210541
  23.7915635  53.3528471  69.3570566  24.2310739  53.4931040  68.5183716
  24.0182781  52.4549246  69.5990562 122.9848597  42.1348476  67.0847797
 122.5248871  42.6813745  66.4476252 123.1225046  41.3029861  66.6316938
  24.2856956  72.5726700  90.6315041  25.0221753  73.1730270  90.5157471
  23.5176134  73.0839014  90.3767109 114.8842687  43.6218596  16.8206254
 115.1937962  44.5245314  16.8955365 114.7524715  43.3380032  17.7252237
  22.2116923  43.3668184   1.5284673  21.8038893  42.8608131   2.2312394
  22.5239015  42.7075291   0.9087125  11.9237185   6.5429437  93.4542084
  11.2758434   5.9470046  93.8301754  11.4038718   7.2357082  93.0466938
 114.8242766  57.2675991  37.7841091 114.3325526  58.0599022  37.5680137
 115.7103158  57.5787067  37.9695225  20.2074170  79.9030828 105.8164787
  21.1313391  79.9594545 106.0602379  20.2184558  79.6800566 104.8856926
 117.5287557  46.2860107 103.8849163 116.9127310  45.6489515 104.2467213
 117.9751921  45.8146954 103.1815052 102.6428766  40.9156895  71.8028021
 102.0222992  40.3054047  72.2011280 103.3976168  40.9081078  72.3914766
  22.3242164  66.4214754  64.9888420  22.0157266  65.9278774  65.7487297
  23.0858612  66.9042158  65.3099203  96.9899697  59.2706394  76.4303637
  97.4056429  59.2749071  75.5681372  96.1833233  59.7716713  76.3098574
  15.3228617  73.0664110  93.4584236  16.2382543  73.1393766  93.7285423
  15.1614618  72.1240997  93.4111786  31.1506510  42.2051907  72.5144768
  31.4838338  41.6167355  71.8370247  31.9315267  42.6343727  72.8641415
  98.6528868  85.9136677   2.7537099  98.5740251  85.8448315   1.8022481
  98.3969731  85.0503254   3.0783407  17.8437459  58.0713415  53.2371902
  17.6007664  58.9849567  53.3871937  17.9488027  58.0041647  52.2881460
 117.7899254  60.1525211  91.0590839 118.6035062  60.5656385  90.7698631
 117.4614418  60.7280540  91.7498112 122.1923537  57.1647453  49.9301386
 123.0423961  57.4660349  49.6093798 122.0499391  56.3301706  49.4835615
 124.0297418  62.0110083  69.6285248 124.9409667  61.7257452  69.6958017
 124.0101915  62.5688410  68.8509178 108.8296015  59.7310162  36.9051671
 109.0671927  59.1049433  37.5891399 108.7596483  59.2022943  36.1103129
   1.6298719  58.6282825  63.5595369   1.0349982  58.9820242  64.2207670
   2.3243435  58.2048225  64.0641356   0.0151516  37.0155644  91.7497349
   0.5017291  37.7878666  91.4615917   0.5328952  36.2748337  91.4343166
   4.8558179  64.5779276  51.1998606   5.7272923  64.4876337  50.8143568
   4.8026279  65.4978895  51.4588451 104.7666938  75.5464458  89.9596310
 104.9884445  75.1295710  89.1270065 103.8096756  75.5513811  89.9776268
  32.6171565  37.7480936  67.7857351  32.0383668  38.3742929  68.2206011
  32.6884317  38.0715346  66.8876600  16.9670248  79.4869900  78.6886311
  16.1731160  79.6128368  78.1689167  17.0813811  80.3147411  79.1555071
 109.1942782  61.3893509  99.0910339 109.1264719  61.0857296  98.1858063
 109.4474382  62.3094702  99.0167236   4.8307407  41.5481567  85.6067371
   5.6766510  41.9423962  85.8194447   4.8794046  41.3688326  84.6677399
  23.2181144  20.2209210   0.9383718  22.9476190  19.7536266   1.7287580
  22.4062276  20.3539801   0.4491273  11.4621091  47.9677057   1.5678541
  11.9738114  47.4704504   2.2059194  12.1021056  48.2475615   0.9133951
   1.5507384  62.4114275  83.2948875   1.1026602  61.7679930  83.8439369
   0.9365837  63.1430578  83.2335186 111.9763381  33.4971690  99.6427250
 111.4713377  33.0484319 100.3208351 112.1580452  32.8195405  98.9915466
  27.3585463  63.4248018  17.3570291  27.3540378  63.4402466  16.3999692
  28.2448387  63.6954403  17.5967637  38.6740303  34.8035097   1.0594312
  37.7259827  34.7666669   1.1862508  38.8972092  35.7254219   1.1879007
   9.2146456 100.0136662   9.6801606   9.7967315 100.2953243  10.3859083
   9.0169120 100.8165550   9.1979734 105.7565612  66.9654703 100.8410931
 105.5795986  67.0351887 101.7792130 104.8927957  66.8638611 100.4413223
  31.8840504  53.9026976  62.9131889  31.9736981  53.0412531  63.3207464
  31.3123393  54.3899965  63.5064173  30.0726175  16.7916059  65.7592964
  30.3373981  17.6667452  66.0425901  29.5083952  16.4723718  66.4635515
   9.0298879  35.5949259  90.7725525   8.7880826  35.5821419  91.6986179
   9.2577904  34.6871495  90.5719662  28.2233644  57.1115732 100.8487034
  27.3443985  57.3553514 100.5584908  28.7948108  57.3711824 100.1260185
  91.5286655  61.8791056  99.9302006  91.6140766  62.0602751  98.9941978
  90.7976431  61.2640142  99.9893761  21.7990160  66.0051012 102.5784779
  22.0625854  66.2789059 101.6999626  22.2708035  66.5961981 103.1652164
  23.0796337  52.9508495  89.4242764  23.0908060  52.1847248  89.9979973
  23.4608150  53.6517143  89.9531651  14.0136623  41.0120153  10.6949273
  13.2235873  41.1708117  10.1784078  13.7186575  41.0585928  11.6043416
  23.3435798  26.4952540  87.2534370  23.3251166  27.1262097  87.9730129
  23.1843948  27.0211291  86.4696312 122.7840157  34.3989587  18.4446279
 123.1581511  34.5305204  19.3157998 123.3313932  34.9300122  17.8661958
  22.5856400  65.6927156  91.0733795  21.8020058  66.2280083  90.9484482
  23.0860710  66.1540985  91.7463779  17.2795224 107.9908657  58.1103706
  17.6007760 108.2327557  58.9789963  17.4226284 107.0459461  58.0566454
  28.2416272  54.7399712  86.2378693  28.3116984  55.2569485  87.0403957
  27.3959541  54.9894953  85.8652973   7.8278136  38.8938403  99.0086651
   8.0329996  38.1417632  99.5641041   7.0410788  38.6311674  98.5308743
   9.5333540  43.1199551 102.1068573   9.0474409  43.5210466 102.8274441
   9.1522723  42.2463942 102.0179653  99.4775075  84.5252705  77.8980255
 100.3997464  84.4435692  77.6550627  99.0099091  84.5366383  77.0628881
 120.9652353  76.7825222  69.7160721 120.4978118  76.0911322  70.1848221
 120.4071189  76.9818163  68.9643908 101.2967987  66.5283060  84.7068310
 101.2494201  65.9979630  85.5022717 102.0361204  66.1642361  84.2199135
  21.5864968  73.9536047  89.5441151  20.9063625  73.3433199  89.8290634
  21.1780763  74.8165560  89.6129131   7.1788931  67.1323586 102.9858589
   7.6414436  67.1447992 103.8237858   7.6510614  67.7630568 102.4422455
  11.5615201  76.7694473 104.5582199  11.1178458  76.7291307 103.7110138
  11.1556327  77.5116920 105.0060654  18.7332046  42.6022434  75.6387901
  19.4540584  41.9761515  75.5709076  19.1609299  43.4582043  75.6634951
  39.3545866  72.8311110  49.5193386  39.3450260  72.3117685  48.7153387
  38.4393358  72.8574467  49.7983646 119.2189670  58.2970142   1.5582792
 119.1216314  59.0251064   0.9445611 119.7171653  58.6642265   2.2884694
  26.2153149  55.7977629  70.1808548  26.5537333  55.5349302  69.3249178
  26.3837385  55.0442839  70.7466602  18.3548892  63.7047338  57.6121902
  17.4417889  63.6861277  57.3256016  18.5208857  62.8211021  57.9406357
 117.3371775  96.5611649  63.8015223 118.1537307  96.1634827  64.1037226
 116.9933379  95.9421825  63.1574154  45.2095318  43.1952810  79.5955038
  45.6554699  43.0211878  78.7666130  45.8224678  42.8924465  80.2654552
  41.2400150  55.5060387  72.3706198  40.6011629  55.5581379  71.6597128
  40.9746456  54.7371578  72.8752375  96.9647116  65.6609488  37.9788661
  96.2141938  65.3936243  37.4483085  96.9810290  66.6153097  37.9070330
  13.7649727  35.1655102  64.7641945  12.9559135  35.4010749  65.2182484
  14.2680824  34.6718836  65.4118395 123.6253028  52.1744823  50.7514954
 122.6853154  52.2232962  50.5775023 123.7767307  51.2611961  50.9948206
   8.3273906  47.2644138  88.8649178   8.4996939  46.9630766  89.7569561
   8.1170070  48.1931162  88.9622688   9.4107276  65.6210756  36.2182117
   9.8522359  65.8173037  35.3918958   9.1345966  64.7086859  36.1314559
   2.3001951  62.9324818  29.8451734   2.5945166  63.0773973  30.7443976
   2.3255613  61.9819689  29.7351003  30.4291821  68.6468315  61.2469959
  29.4740057  68.6210966  61.1903715  30.6281805  68.2768631  62.1070910
   1.8594493  70.9139252  58.1143713   2.0199035  70.2662754  58.8006973
   1.2578413  70.4787254  57.5103045  14.2059731  31.6482639  93.1128311
  14.8084807  31.1193061  93.6357307  13.3855522  31.1552382  93.1209850
 115.0618494  63.7975264  89.3770218 114.2684740  63.2640219  89.4235420
 114.8144162  64.5481300  88.8370228   5.5294865  66.7582512  59.0713739
   5.6078047  67.6663351  59.3637371   6.4179426  66.4081049  59.1367626
 123.3371041  58.8850212  58.9889860 123.5683095  58.8905144  58.0601454
 123.0534584  57.9869318  59.1598988 117.8929610  53.2261515  67.3565149
 118.2690055  52.3861217  67.0935106 118.2716770  53.3987236  68.2185030
  19.8117340  84.8019314  74.9208593  19.7754562  85.2025509  75.7894325
  20.5873680  84.2416573  74.9477291  19.6004915  64.8828793  84.0191364
  19.5199156  63.9976549  83.6640167  20.4993606  64.9293709  84.3448734
  30.8254600  74.9609900  36.2740684  30.4668331  74.8610830  37.1559048
  30.0575018  74.9696922  35.7027578  11.6979182  68.8364124  62.4580622
  11.3736916  67.9548788  62.6424694  11.5163100  68.9686346  61.5275955
  30.9745550  60.5896616  17.2059119  31.0039830  61.5243530  17.0016575
  30.1303053  60.4657459  17.6396394   9.2223442  64.9848509  42.3553133
   8.4583920  65.1306534  42.9133034   9.6699488  64.2377663  42.7524805
  43.0283022  80.9923553  64.6793938  43.0359507  81.4232445  63.8246918
  42.1787643  80.5530548  64.7185564 118.6723298  72.7625418  74.6952248
 119.2127741  73.2539368  75.3138351 119.1712589  72.7754974  73.8784409
  12.7424860  76.4085865  58.4210491  13.3681941  77.0246935  58.8020134
  12.9713786  75.5640507  58.8091230  27.1394730  84.1481686  60.0090075
  26.4911699  84.3850327  59.3458080  27.6834440  83.4839725  59.5857286
  14.8546147  52.7105522  60.3808832  14.0155530  52.6887846  59.9207354
  14.6218276  52.8659391  61.2962484 110.7418460  59.3945217  69.5565605
 111.3911659  58.9214468  70.0769567 110.5963559  60.2089787  70.0379467
  87.4100990  49.2993927  52.2263241  87.7809758  50.1756573  52.1222115
  88.1291551  48.7072372  52.0059919   0.8426602  46.7130756  16.7732060
   1.6220054  46.2072563  17.0034134   1.1828975  47.5620699  16.4909303
   9.1194266  49.4342709  63.4869003   8.9152616  50.3664064  63.5622168
   9.9684131  49.4099379  63.0454683   2.5117713  64.4839334  77.2022009
   2.5474355  64.3223238  78.1449842   1.6008726  64.3115330  76.9639301
 124.6990311  81.1844349  62.2460365 124.8427869  81.3963127  61.3237143
 123.7873938  80.8953953  62.2861195 117.7781022  64.7292995  32.8489304
 117.8510684  64.9912214  33.7667012 116.8648643  64.4607496  32.7483749
   0.5975743  68.5038280  83.0787563  -0.3163759  68.7256241  82.9006195
   0.8039204  67.8139496  82.4481010  21.4895201  81.2253952  68.7460232
  20.9888697  81.9030285  69.2003250  22.2577691  81.6833210  68.4049559
 117.1422458  88.3856106  62.3846817 117.4781311  87.7979469  61.7078829
 117.3959864  89.2602348  62.0899153 109.7478134  77.2556210  77.2875929
 109.0169866  77.8544712  77.4409008 109.3427617  76.3893986  77.2448874
  20.8852077 110.9705353  62.2358561  21.3245702 111.2018585  63.0541992
  21.0630679 111.7077637  61.6518211 119.0864295  94.1458130  53.7888002
 118.2982952  93.7774658  54.1880512 118.8761181  95.0694847  53.6515760
  16.6626191  33.2284975  90.0791264  16.4900923  34.1190529  90.3847027
  16.0009193  32.6927638  90.5165863   1.4893864  45.4570723  97.6726627
   1.9765285  46.2585545  97.4814796   2.1257293  44.7536325  97.5442982
 118.6012960  70.3810596  35.9293532 117.7764649  69.9162960  35.7883596
 118.3646739  71.3075256  35.8857036  17.0275760  88.8962936  59.0872526
  17.0446718  88.3672523  59.8847818  17.3978531  88.3259964  58.4135389
  39.8726726  73.9826727  83.1081486  39.8707938  74.3572617  82.2272873
  40.6239367  73.3895540  83.1145954  20.5748391  83.1116009  62.9631710
  20.8256245  83.7145710  62.2633410  21.1446357  82.3522758  62.8407240
  18.4219658  95.7377720  58.0865526  18.4197342  96.4677715  57.4674177
  17.8017759  95.1089096  57.7176094 105.6453401  76.2198734  51.1797094
 106.2430365  75.6728888  50.6700039 105.9441537  77.1149826  51.0193157
  18.7393546  23.5757279  90.1701260  18.6272132  24.5199323  90.0599670
  19.6055770  23.3933139  89.8059654  23.5771632  31.6764474  85.0633907
  24.4568682  31.3939357  84.8133183  23.7083530  32.5287890  85.4787636
 119.3223262  50.6598425  65.9067774 118.4073055  50.4930973  65.6805849
 119.8159260  50.0170851  65.3974152  27.3978114  87.8941154  58.6937428
  27.9640889  87.1424961  58.8687420  26.5102506  87.5366974  58.7206125
  27.7687502  71.0959578  67.4573803  27.7592134  71.0211706  66.5031528
  26.9352460  71.5142012  67.6731873  25.3081274  50.3613615  89.1307163
  25.5768919  51.2244797  89.4454002  24.5929813  50.5409622  88.5203552
 114.9751598  86.9567871  51.5427637 115.0475914  87.6441479  52.2049761
 115.6784309  87.1472168  50.9219742  31.3041830  49.7571611  79.5500946
  31.6439176  49.3457890  78.7553692  31.9083238  49.4815445  80.2394962
 111.6337962  48.1265259  55.9328127 112.1212739  48.3682299  56.7203236
 111.5279431  47.1774673  55.9985018   5.9361118  67.1079540  62.2705269
   5.6446534  68.0040836  62.1024847   5.3013134  66.5592718  61.8098593
   2.4395803  47.1124077  61.6096926   3.2633883  47.5846148  61.7305088
   2.1324934  47.3839569  60.7447100 109.6253676  56.7876196  80.2004528
 109.8734993  57.6276493  80.5864716 109.4602413  56.9869471  79.2789125
  28.6460519  49.7172022 107.0183945  27.7260447  49.5281124 106.8338299
  29.1300511  49.2137003 106.3638306 108.1845970  69.5098495  58.7956142
 107.5467629  69.2657471  59.4662952 108.0540163  68.8692665  58.0964470
 117.3357356  93.0719376  60.2888298 117.6484794  92.7746773  59.4343901
 117.1109945  92.2667122  60.7550192 113.6435968  42.9981709  41.1428928
 114.4845838  42.6957512  40.8000898 113.8099629  43.1678534  42.0701265
  27.7709222  24.7069335  80.9645367  28.5711098  24.9976826  81.4020252
  27.4526787  23.9829159  81.5037537 115.1479209  47.3247099  37.8093886
 115.1871139  47.6958799  38.6908245 115.9714717  47.5909138  37.4005723
   3.8653558  52.8316450  82.5365448   3.3248001  53.5734987  82.8079987
   3.9179423  52.2763014  83.3143997 120.2855236  50.0977612  33.1801915
 119.4041944  50.4661655  33.1188178 120.3139118  49.4293261  32.4956322
 111.6109688  32.1979833  49.4581318 110.6555075  32.2119927  49.4021893
 111.8348855  32.9986739  49.9324608  28.2423186  41.9002914  72.5536728
  28.1650901  42.5597382  71.8641806  29.1521692  41.6071606  72.5039101
 121.7835761  87.4252415  77.3719263 121.9084225  86.4978409  77.5733566
 121.7647377  87.8555775  78.2267284   4.5176148  66.5557814   3.1670514
   4.7872141  67.0240927   3.9571325   4.3193889  67.2467232   2.5349656
  56.9330645  43.0685616  81.8836021  57.4062014  43.3162594  82.6779652
  56.9708776  43.8480854  81.3293934 105.4675478  51.2727928  63.7921286
 104.6000523  51.2778521  63.3875847 105.9646029  51.9270945  63.3011580
 121.6668589  76.1513186  61.9389820 121.8970630  76.3576746  62.8448820
 121.2141497  76.9332027  61.6228437  15.4840255  56.0427809  55.6561518
  16.4339817  56.0916758  55.5492592  15.3315258  55.1854086  56.0535002
  16.9538379 101.8728161  40.6855488  16.1654699 102.1977043  41.1204720
  17.5324881 102.6338768  40.6388092  14.2276406  59.5550299  83.6915112
  13.4251463  59.2914200  84.1417789  14.4254565  60.4230690  84.0430927
 116.1235685 119.3052197 101.8937969 116.6419256 120.0251102 102.2533607
 116.5938873 119.0434456 101.1022758  92.0477242  52.8039646  63.6508322
  92.8778357  52.4473810  63.9670515  91.3814516  52.2270632  64.0243244
   8.8277084  52.6036978  78.0007029   9.5103103  52.2889280  78.5933256
   8.2022083  53.0500937  78.5714149   3.9784995  88.7744427  39.1664219
   3.0643630  88.8985729  39.4217277   3.9845923  87.9412079  38.6953449
  10.1150620  42.8648806  68.2540178  10.6195557  42.5195742  67.5174856
  10.3730679  43.7849092  68.3106756   3.9953464  72.4408674  62.1156025
   4.1571945  73.3842754  62.1113586   3.8315725  72.2218227  61.1983109
 114.1261715  94.3690395  64.7653008 113.3270461  93.8448429  64.7119045
 113.8319630  95.2225018  65.0835419   7.5255042  43.2216024  69.3049383
   8.3978647  43.0645275  68.9436245   7.2687453  42.3813629  69.6848106
 123.4060340  67.8532982  60.6189775 123.0939429  68.2378435  59.7998619
 122.6123825  67.7129269  61.1353540 123.8822155  83.3056164  32.2501063
 124.8204954  83.1840706  32.1048832 123.8307878  83.9170647  32.9847622
  14.1458929  87.0319939  78.6057854  14.8525798  86.9937325  79.2502737
  13.6619437  86.2158966  78.7322664   5.1025230  75.0255632  62.4519730
   4.7197112  75.7135534  61.9075871   4.9546659  75.3209305  63.3503723
   4.8218009  40.0123787  55.7573175   5.0456488  40.8812904  56.0906506
   4.7663999  40.1267576  54.8085928   3.3022124  26.3603520  51.1733723
   3.5172412  26.0594440  52.0562410   2.3597804  26.5257764  51.1996126
 105.5410642  84.5392799  30.4140830 105.3747970  83.7859821  29.8474026
 106.4659054  84.4629478  30.6487608 111.1030478  61.7312431  31.4034271
 111.3336737  62.6559544  31.4926171 110.1467175  61.7257214  31.3630247
  67.6648045 128.7485313  54.5144796  67.4326897 128.0833626  53.8664818
  67.1574450 128.5134220  55.2913570  33.9072776  76.2160110  74.2845535
  34.2485189  75.4670238  73.7958813  33.2347131  76.5879536  73.7139845
  27.3642468  49.2977190  45.1827049  27.5387836  48.8329792  44.3642998
  27.4521565  48.6286211  45.8615351   4.2635635  74.1091728 101.3237476
   4.2625400  75.0304031 101.5836811   5.1520526  73.8077784 101.5134335
   2.2130327  28.3675599  89.4093609   2.9206097  28.9286852  89.7266960
   1.6960591  28.1693077  90.1901722  37.9798818 115.1033592  59.2228174
  38.3257461 114.2723656  59.5484877  37.6330853 114.8949432  58.3553314
  15.0690055  78.0509424  69.5923615  15.3415978  77.1521854  69.4075346
  14.3600762  77.9600763  70.2290678  14.9518454  81.3651943  93.7497711
  14.0603256  81.0506344  93.8996887  15.2258217  81.7204952  94.5953083
  13.2759130  85.2568817  67.2031593  12.3998868  84.9206829  67.3923159
  13.8584077  84.5165443  67.3729706   6.6649985  97.3521328  94.7829247
   6.2295985  96.5021896  94.7177029   7.4552774  97.1778107  95.2941036
  31.4714766  50.7565737  70.2803802  32.1120214  51.4452600  70.1024914
  31.9225979  49.9444914  70.0496340   9.5713669  64.7528028  73.4141541
   9.2774057  64.9066877  74.3120098   9.0405178  65.3465700  72.8832436
 116.9249070  35.4346371  90.3942585 117.8373290  35.6193542  90.6169701
 116.8782890  34.4796991  90.3478813   1.4303416  52.2535133  23.4927368
   2.1724111  52.1166754  24.0816689   0.7245675  52.5575829  24.0633988
 112.2764320  44.5225811  75.6776667 112.8150708  44.9625969  75.0200319
 112.1815593  43.6281776  75.3501415 121.7607839  75.7316446  35.8172011
 122.6065410  75.2859116  35.8646464 121.9256896  76.5008497  35.2718973
   0.8300024  63.5293531  60.9647083   1.3707240  63.5557222  61.7541122
   0.1573186  62.8760576  61.1568785  18.8844633  67.4169159  78.4638453
  18.7726367  67.3977709  79.4142962  18.0366683  67.1387625  78.1172800
   4.9800172  93.1650162  29.0053344   5.5618060  92.6926708  29.6008539
   4.1614994  92.6692390  29.0267658 116.9146187  69.2603254  89.9758530
 116.9239873  70.0170469  90.5619526 117.7790720  68.8635397  90.0831604
   1.4939852  71.4482737  50.6382847   1.1266366  72.0777702  50.0177813
   0.7435150  70.9267616  50.9229851 114.4610841  45.2105331  54.3845558
 114.3911774  44.2599058  54.2970705 114.9755228  45.3405523  55.1812220
  30.9509778  66.0751581  73.4338236  30.9391332  66.9455671  73.0357265
  31.2867188  65.5013609  72.7451515   7.8761578  35.2009988  62.5837612
   7.7607483  36.0958886  62.9032707   6.9864589  34.8892689  62.4179554
  16.8160474  93.2840443  57.7144861  17.6603329  92.8417206  57.8026438
  16.3111758  92.9897690  58.4726000 118.8581950  73.3341837  62.1734762
 119.1908062  74.1294956  61.7574453 117.9065878  73.4041023  62.0974064
 100.9761161  50.4382515  77.6848269 100.0269265  50.5031109  77.5796556
 101.1171741  49.5664215  78.0539513   8.9673460 101.0128117  83.3873940
   8.7063885 100.4367447  82.6688671   9.5114976 100.4621410  83.9503288
  41.9749737  70.4858398  79.8213911  41.5437508  69.8835802  79.2151213
  41.8799829  71.3460970  79.4125319   7.2635400  73.6912966  50.7056332
   6.6287887  74.1004181  50.1174641   8.0736560  73.6565447  50.1969671
  16.2056017  58.0162716  60.9930182  16.5572023  57.1335888  60.8768940
  16.4030695  58.4629679  60.1697922  91.7993922  76.4585257  53.9724684
  90.9750194  76.5960360  54.4390917  92.4660367  76.4569712  54.6593523
  12.1912467  83.8141823  62.0170164  12.0974159  84.1382790  62.9127789
  11.5298653  84.2938232  61.5182590   1.9410236  51.8947887  20.8502221
   2.1419089  52.6975679  20.3691554   1.9961739  52.1476460  21.7717719
 102.7163429  64.6408033  67.7868748 103.1914300  65.3448725  68.2282448
 103.1963009  64.5032835  66.9701958   9.4413525 115.5672741  43.1271982
   9.0297174 115.6315422  43.9889717   8.7092614 115.4646778  42.5191259
  15.4276705  66.5606356  54.4427109  15.3427279  66.7316771  53.5047531
  16.3011253  66.8818474  54.6666098 122.4529955  88.4190750  88.2368565
 121.9206829  87.6673889  88.4973145 122.5729083  88.3121777  87.2932243
  17.8145707  52.0273590  99.0236664  17.8471792  52.9010439  98.6340046
  18.7121248  51.7015696  98.9566612  20.5531907  47.6338625 103.5091305
  20.1954699  47.1290064 104.2394638  19.8857975  47.5722551 102.8257370
  14.0130568  70.0792313  52.8803444  13.6635816  69.2481136  53.2018089
  14.6258986  70.3602028  53.5598373   9.8010463  48.9884710  71.4784956
  10.1049232  49.5659733  72.1787691   8.9385092  48.6925077  71.7694712
  16.5252984  53.1136894  76.3905716  15.9691834  52.3456430  76.5212250
  16.5566337  53.5355616  77.2492170 103.8682646  50.0022745  54.7507000
 102.9806108  49.6468735  54.7060871 104.3880124  49.3001127  55.1419306
 121.7006064  57.3384047  63.8277102 121.1337007  57.7206659  64.4975805
 121.3545439  57.6743364  63.0008936  33.5664701  75.7313204  71.1877871
  34.0224099  75.0851965  71.7271137  32.9569840  75.2154493  70.6599283
  29.6680498  48.7088013 104.5921421  29.2150450  48.2337761 103.8954639
  29.9665308  49.5173883 104.1758156  36.0430098  65.1807690  65.4229021
  36.6351032  65.1431322  66.1740589  35.7014036  66.0748959  65.4317665
  24.5394063  64.2205667  55.1293659  23.7306952  64.6688032  54.8817730
  24.8131680  64.6505451  55.9395552 123.2654481  47.1938848  50.7199860
 122.6093156  47.3772287  50.0475979 122.7730530  47.1916103  51.5408230
  20.6474495  88.8258457  50.4865456  21.0578108  89.6648312  50.6961393
  19.8316216  88.8265419  50.9872007 122.3783571  62.9301977  59.2866373
 122.8770051  62.1801376  59.6106720 122.9475552  63.3302498  58.6292171
   2.8302017  42.9215145  43.5636902   3.5059613  43.5736704  43.7488127
   2.1224838  43.4194517  43.1545115 111.6943724  68.0300617  51.1009216
 110.8979065  68.2519197  50.6185770 112.2798414  67.6609516  50.4396963
  39.6291685  46.8304253  68.1639767  38.7332797  46.5448952  68.3431053
  39.5293570  47.5721121  67.5671768 112.4903280 115.5965233  88.0663586
 112.2197420 116.1787510  88.7763119 113.3206052 115.2250671  88.3645153
 101.4251322  43.1504393 108.3714104 100.7195730  43.7947226 108.3138657
 101.7954916  43.2781935 109.2447662  31.5967798  73.0407476  50.6144667
  31.9792533  73.5337591  51.3403320  31.1421371  73.7001371  50.0903177
   2.1983512  44.7121811 102.3441601   2.4062921  45.3191757 103.0544758
   1.7313589  45.2463388 101.7016506  95.8019728  86.7341137  78.1236219
  95.7492918  86.2868881  77.2789621  96.2612552  86.1169529  78.6931801
  18.2196259  17.7616310  96.3930893  19.0292215  17.8179252  95.8855247
  17.7625728  18.5817504  96.2067032 102.2733015  44.2724514  79.7256279
 101.5602583  44.5795488  79.1657257 103.0327076  44.2296505  79.1445065
 107.1773106  85.7007599  51.6883039 107.1288700  84.8798561  51.1984062
 106.3559110  85.7359695  52.1785021  84.5814533  29.6498466  79.3970394
  84.9328727  28.7932396  79.1542196  84.1192979  29.9497676  78.6142921
  29.6195149  43.8699245  98.1585598  29.2679930  43.0252266  98.4399033
  29.2183971  44.0233326  97.3031044  15.9861243  64.5673370  56.1680984
  15.4986250  65.2043915  55.6458569  15.4140842  63.8008118  56.2060308
   8.7458324  93.1208611  74.4419622   8.9190692  93.7150383  73.7117767
   9.5532310  92.6154327  74.5362091 114.3459458  50.1565695  42.8973770
 113.6034412  50.7603312  42.8775644 114.1454918  49.5538330  43.6134481
  28.8567352  47.6856709  71.8081570  29.2180943  47.5014257  70.9411430
  29.4976997  47.3195314  72.4175310   2.7010942  60.6723499  45.5574131
   3.1633347  60.4580450  44.7470808   3.0596805  61.5198803  45.8207369
  13.2792604  67.0394516  49.8041248  12.7321005  66.7281961  50.5252123
  12.7905786  67.7737474  49.4323301  29.1659474  44.9223375  42.9536200
  30.0993276  45.0846195  43.0903673  29.1378522  44.1860151  42.3426580
  18.8435555  30.6249714 106.6060066  18.7958646  31.5464115 106.3512421
  17.9531896  30.2959585 106.4825916 116.0412390  64.2429447  48.0641842
 115.4350484  64.8669004  47.6648760 115.9275127  63.4397984  47.5559998
  35.4203892  57.7654171  29.8004961  35.8681774  56.9194221  29.8030376
  35.4812384  58.0658960  28.8937187  85.6591386  73.9695549  64.1634464
  84.8764963  74.1901636  64.6684551  85.5656261  73.0363274  63.9722204
 114.4500632  80.7584190  54.3114805 114.2833847  79.8981142  54.6966171
 115.1816965  81.1101913  54.8186302 106.3489086  43.7429380  87.4240208
 107.1494419  44.2470646  87.2782898 106.3092119  43.1372499  86.6838932
  27.4947762  77.7282810  32.2406721  27.3151255  76.8069696  32.4281263
  28.3544421  77.8886843  32.6298738  20.2423882  72.6045752  47.2371817
  19.7109282  72.8549337  46.4814711  20.6031394  73.4301901  47.5603676
 121.2924869  58.1166029  44.3447113 120.8244497  57.3385906  44.0416050
 120.9770629  58.8214111  43.7790442  38.7919164  73.4976959  72.6939154
  38.9228249  73.5217762  73.6418152  38.2871628  72.6986980  72.5420618
 100.0669641  64.5945024  89.5365429 100.6139988  64.3376350  90.2788448
  99.8287863  63.7677145  89.1171169  14.2089915  49.1039467  12.0350754
  13.9340448  48.6215019  11.2554049  14.3842888  48.4254694  12.6871300
 116.2761772  83.6039257  33.7778258 115.9693957  84.2332458  34.4305706
 117.0647318  83.2231236  34.1643500   3.2091525  88.0709267  42.5749874
   2.3583364  87.7461815  42.2802258   3.4319738  88.7606144  41.9497633
  31.6369390  71.0736561  61.1478662  31.2396407  70.2462339  60.8762836
  31.9364262  70.9132099  62.0427370  44.6072388  57.5340319  28.7210131
  45.4983377  57.8616714  28.5992527  44.1196537  58.2856512  29.0580082
  22.2959805  61.4646673  20.7970476  22.8000283  60.8511639  20.2624607
  21.4228725  61.4628696  20.4047346  34.6534753  52.3179054  99.5509955
  34.2817855  52.1002913  98.6961731  35.5861115  52.1208715  99.4638261
  18.9382243  49.1422796  27.3130178  19.2251873  48.3165455  27.7029538
  18.8613510  48.9517260  26.3781333  19.5171583  46.0934067  49.3783712
  20.1517916  45.5515432  48.9094877  19.0605128  45.4818344  49.9560261
  36.6119170  99.8131180  60.5031872  37.5688934  99.8019791  60.5206156
  36.3606858 100.1542377  61.3615322  45.3424597  81.2409687  91.4911175
  44.7501659  80.9814358  90.7853889  45.3173780  82.1978283  91.4851379
 124.9325773  53.0960846  62.6452303 124.8865641  53.7912369  63.3016443
 124.3479896  53.3880711  61.9457769 122.0983712  82.9720592  45.8908463
 121.4766983  82.6802540  45.2240610 121.8573452  83.8826847  46.0608816
  20.2459693  55.6895351  34.3773699  20.3341985  55.8278704  33.4343386
  19.6560049  54.9397993  34.4553041  51.9119644  50.9081697  37.0084000
  51.4456320  51.2184715  36.2322068  51.6708660  49.9845552  37.0793796
 123.3654829  43.6177731  56.4592218 124.0997046  43.0887508  56.7711306
 122.7879131  43.6971426  57.2183990   7.2493470  55.6708241  50.3399038
   6.5317774  55.0828218  50.5756617   6.9028276  56.5483570  50.5014229
  33.3282399  83.2931995  19.3308794  32.4663258  83.4228611  18.9352489
  33.6845112  84.1767597  19.4237566  20.1621842  61.6912603  60.2437687
  20.3427243  61.6463852  59.3048191  21.0161972  61.5677166  60.6580496
 108.9845795  36.5905809  70.1708317 109.6300096  35.8865762  70.2343130
 109.1096014  36.9517231  69.2932367   5.7659864  49.4245291  69.8448086
   5.9446418  50.3421879  70.0502586   4.8164940  49.3400764  69.9317789
  55.3037882  84.7444630  41.9976425  55.5461836  83.8333702  42.1631336
  55.2888489  84.8188019  41.0434532  18.3171022  71.0508299  39.7845435
  17.7250385  70.8365440  39.0635896  18.7231863  71.8773460  39.5233941
   9.7967327  78.2615137  39.5579195   9.7739094  78.5530663  40.4693508
  10.1984334  78.9894390  39.0835834  15.8496857  67.6082420  37.8091693
  16.2653744  66.8535900  38.2262278  16.5790033  68.1752491  37.5585175
   4.1057125  79.7548723  15.8139193   4.1846734  80.7087898  15.8203995
   4.7166544  79.4593763  16.4889503 107.2485251  74.7015095  64.8020840
 107.7152914  75.5017138  65.0429916 107.1814591  74.7413445  63.8480663
  23.4650016  60.1093626  82.0056820  23.0923939  60.5277538  81.2295723
  24.4104505  60.2229023  81.9083881 104.8227174  80.6712246  34.8017311
 105.3978319  81.4352894  34.7605991 104.0406794  80.9336758  34.3161726
 109.5288808  93.8955402  34.1452408 108.9144213  94.4428062  33.6561894
 110.0006170  93.4048653  33.4722376  28.8380527  50.5823469  69.4114637
  29.6269512  50.6286526  69.9515820  28.2351756  50.0348711  69.9144983
  27.5949597  62.7456284  75.7974863  27.1869993  63.5976076  75.9521818
  26.8725848  62.1802950  75.5239773  18.5419202  82.7901649  29.5414734
  18.5664058  82.1702957  28.8125062  17.6119673  82.9830170  29.6607447
 106.4699263  70.4788303 106.6190096 105.6933505  70.3297472 107.1583944
 107.1069569  69.8375130 106.9338682  87.7668399  66.5534639  63.7745190
  87.0381088  66.2115574  63.2565641  88.5427613  66.3753319  63.2430601
 116.0541839  44.3061972  70.4623795 116.0035724  44.6287680  71.3621664
 116.2379045  45.0858927  69.9384022  30.6658363  54.1159773  71.5693474
  30.9564590  53.7166405  70.7494116  31.4646101  54.4715786  71.9588852
   7.2056884  27.9488635  46.8193674   8.0585873  28.3807755  46.8667698
   6.9998479  27.7249312  47.7269554  24.1358995  58.2983828  11.8579352
  24.4751573  58.6820364  11.0492659  24.7333241  57.5753355  12.0490432
  37.0112228  36.7127180  56.5122318  37.4197912  37.3787355  55.9593058
  37.0876956  37.0595217  57.4011135  31.0389876  83.5674286  73.1100035
  31.8093014  83.7985611  73.6290646  30.8702874  82.6505280  73.3269596
 123.3090318  63.1885052  20.1801085 124.1565607  62.7873182  19.9878192
 123.5253058  63.9825773  20.6688857  39.6425462  99.1171455  39.4389391
  40.1951742  99.8632717  39.6716166  39.5661116  99.1636848  38.4859324
 123.3750567  67.5096130   7.4328679 124.1632905  68.0497551   7.3765993
 122.8773431  67.8870392   8.1581676   1.9988191 113.8646126  30.3413010
   2.1253057 112.9191589  30.2615380   2.8446180 114.2407990  30.0977135
  38.8200092  29.4334412   9.3825877  39.4050288  29.7499037  10.0709438
  37.9682255  29.3508816   9.8114020  35.9183836  64.4317102  42.6900434
  36.2695146  63.6055326  42.3578262  36.0859752  64.4016743  43.6319780
  14.3827963  42.4850416  65.0445557  14.5995140  43.0220795  64.2824173
  14.3752182  43.1009722  65.7772255 114.8459483  59.2879820  42.6356506
 115.4824788  59.1499043  43.3370781 114.8749853  58.4799194  42.1233797
 109.0528101  27.1315598  24.0141821 109.5698327  26.5557671  23.4508133
 109.6605546  27.8255796  24.2695522 112.0841391  73.1273127  54.4578695
 111.7773945  73.9246130  54.8896742 112.0998866  73.3499384  53.5270548
  23.0579281  81.5122414  46.5977144  22.5373721  80.8619881  47.0693350
  22.4104595  82.0832348  46.1842203 111.4418013  72.4558878 103.3057561
 111.2005670  71.5749550 103.5920980 110.6780250  72.9934216 103.5153660
  65.1250267  34.8769021  54.3079805  64.1904497  34.6776891  54.3637276
  65.2569008  35.5853653  54.9379969  20.7278633  77.7737570  63.7853050
  20.3378868  77.4763680  64.6073198  21.6497040  77.5252676  63.8538408
 119.1548479  56.9967222  51.1863804 118.6507816  57.7729893  50.9423351
 119.4824738  57.1902561  52.0646954  32.1529794  60.9737635  54.3420839
  32.6967788  60.7740498  55.1040745  31.2542415  60.8921957  54.6612263
   0.4780125  64.5089245  41.3481092  -0.0005630  65.3378153  41.3362503
   0.4054678  64.2033863  42.2523260   2.6992586  68.5260105  53.9626217
   2.4745564  69.4548798  54.0168333   3.2143074  68.3577394  54.7517014
  18.9842343  89.2388630  46.2426043  19.7472036  89.6812630  45.8705997
  18.7746286  89.7431469  47.0287275  16.0424662  60.3717756  70.2981234
  15.6540775  59.8988438  69.5621061  15.6536555  59.9681807  71.0741186
 113.9559442  60.5721426  56.3654661 113.1221766  60.4202080  56.8104124
 114.0490670  61.5246773  56.3499784 121.2327919  52.5476551  76.2130308
 121.5013549  51.6384459  76.0809660 122.0512996  53.0190468  76.3681698
 122.1203691  82.0426559  60.6171942 122.5663874  82.8355122  60.3194189
 122.1149511  81.4688206  59.8510933 121.5793065  53.1708145  62.1312952
 121.9885338  53.0874777  62.9925823 120.8093110  52.6039553  62.1761131
  26.1835456  64.2315578  52.9578257  25.6481791  63.9043045  53.6806822
  27.0680094  64.2849731  53.3199072  10.4321313  62.4259233  92.1317768
  10.5601621  63.3568573  92.3139954   9.7261542  62.4031973  91.4857769
 118.8635183  33.6059690  64.0131330 117.9294629  33.4586716  63.8645554
 118.9133466  33.9448595  64.9069452  14.4911325  82.4734879  72.8605700
  14.8355734  83.2764912  72.4697113  13.6548173  82.7344227  73.2462120
  23.7043715  39.8568892  46.5053988  22.9678893  39.8270535  45.8947134
  24.3077135  40.4935074  46.1220837  29.2031646  32.9747891  64.7740269
  29.1967392  33.1804633  63.8392067  28.6205077  33.6250424  65.1663446
  19.2001784  54.9025869  28.8953567  18.7164891  55.3666592  28.2120466
  20.0974584  54.8574638  28.5650778  35.2677917  64.8041296  49.8036623
  35.4720807  64.5217752  50.6951618  34.8835492  64.0312815  49.3897772
  31.3446403  95.5753326  21.4676785  32.1572757  95.0725651  21.5231872
  30.6854296  95.0103283  21.8707204   8.3047098  59.5394421  37.8050852
   9.1579449  59.8720026  38.0836987   7.8566825  59.3160486  38.6209273
  39.0318847  59.6279812  26.8438435  39.0087771  60.5666637  27.0297742
  38.3951306  59.5076084  26.1393666  17.6219940  64.5185804   9.9782133
  18.0906737  63.9447546   9.3721688  17.3398674  65.2573156   9.4388562
 121.0813791  62.6663494  73.1796598 120.7583148  61.8523121  72.7933931
 121.3861913  63.1814623  72.4326801  23.8319945  91.8483829  42.2354698
  23.9508963  91.7506027  43.1802082  24.7084093  91.7276955  41.8700027
  13.6228979  92.5713730  82.7210236  14.3039513  92.1316624  82.2120476
  12.9032731  91.9410229  82.7531052  29.7301912  83.7552547  38.8507080
  30.0860643  84.4953442  39.3424916  29.9742174  82.9860592  39.3655086
   2.5441426  73.4898567  32.7150869   2.6735094  74.1476917  33.3982801
   1.9086632  72.8789139  33.0881119  26.4739799  92.1160889  68.6172771
  26.8030095  91.2176800  68.5885429  27.2501850  92.6598454  68.4828377
  12.4127579  49.6064425  34.3038988  12.5247884  49.3482304  33.3890176
  12.1067739  48.8118935  34.7412753  31.3806939  27.7466416  31.5161514
  31.8507838  28.0726409  32.2835970  32.0700049  27.4619818  30.9161115
  27.9483390  94.8021030  42.5766230  27.7367187  94.0830135  43.1719017
  27.2714782  94.7608757  41.9010592  10.4533362  70.9719276  55.4058361
  11.2672997  71.2358046  55.8348608  10.6439507  71.0366106  54.4700384
  11.0161197  81.7658234  50.5802298  11.2782013  81.1133099  49.9307966
  11.8088627  81.9260120  51.0922194 111.8169434  64.0433884  52.5580502
 111.9716138  64.9532223  52.8120327 112.2356588  63.9593554  51.7014027
  38.1409121  78.6459351  10.6179571  37.2503591  78.3112049  10.5125904
  38.5002065  78.1445360  11.3499010  19.8645282  78.0967903  73.5161066
  20.3454161  77.5594950  72.8865910  19.1167533  78.4329939  73.0221081
  24.2202687  61.2394142  38.0028820  23.9304399  61.3982010  37.1045399
  23.8401389  61.9582987  38.5077953 121.4410821  47.2780895  60.7025766
 120.9156931  47.6279783  61.4221478 122.1578152  47.9046202  60.6026411
   5.9632427  43.9369297  26.8606925   6.1990982  43.9676666  27.7878714
   6.5488172  44.5688343  26.4435196  18.9297187  34.1271520  11.8726790
  18.0419147  33.8723540  12.1239042  18.8135600  34.9287772  11.3626420
  30.8475900  76.6040421  83.0060005  31.5751052  76.7993164  83.5966110
  30.5950594  75.7072067  83.2254124 111.6625149  77.2257853  37.2624040
 112.2435672  76.6825056  37.7948117 110.7951588  77.0959330  37.6458931
  25.3225470  32.6966166  44.9885798  25.0170445  33.3567643  44.3664026
  26.1022115  33.0845833  45.3858709  31.9816256  61.3204384  34.4269252
  32.6037598  61.3992882  35.1500893  31.7455363  60.3928995  34.4141412
   9.3803501  69.7616816  71.5542030   9.7520268  68.8795900  71.5564632
   8.7968075  69.7776508  72.3127937 124.1411383  64.8171806  36.7743516
 123.4979516  64.2694283  37.2243643 123.6309568  65.3014803  36.1251974
  25.1901174  70.9862328  10.1623821  25.1329470  71.2704277  11.0746312
  24.8740220  71.7356968   9.6577793  32.9613400  63.2760477  49.5043039
  32.9282260  62.4079180  49.1024494  32.9274201  63.1057024  50.4456139
  91.3871760  70.4154634  37.5072694  90.7121295  70.6805897  38.1319690
  92.1224398  71.0017014  37.6859927 116.2104089  69.5190811  61.0652208
 116.8753231  69.6441221  60.3881073 116.6914237  69.1567373  61.8092394
   8.3818352  58.6913204  68.8105583   9.0287739  59.2555809  69.2340136
   8.9014459  58.0128431  68.3793926   2.7615106  66.2387705  43.2798386
   2.6437405  66.8559265  42.5577068   3.1437868  66.7633772  43.9833164
  15.9675014  64.9607944  96.3145351  15.4219508  64.9776411  97.1008682
  16.7315865  65.4906845  96.5417385  15.0460052  56.6926003  25.0935173
  15.1925564  55.8362579  24.6917272  14.1129196  56.8617582  24.9632454
  33.6906266  60.6110430  37.9165411  34.1308498  60.8380556  37.0974541
  33.0739832  61.3281918  38.0637813  38.1890845  49.5496511  46.4620876
  38.9199638  50.1624346  46.3811779  38.5428762  48.8208580  46.9719124
 110.9689087  87.5774384  39.6922827 110.7315809  88.0188465  38.8767719
 111.8449993  87.2279644  39.5292902 111.4520306  79.6229887  55.1290751
 111.7197627  79.4580460  54.2250013 110.7724196  78.9710426  55.3003407
 116.1355425  78.6848259  51.9141865 115.5539817  78.5794401  52.6671219
 116.9399471  79.0505219  52.2821951 118.0138457  54.1177368 109.0219871
 118.0374945  54.3413115 108.0915638 117.9536307  54.9616575 109.4696495
   7.1103257  67.7958441  26.7549610   7.0193666  68.7396574  26.6239357
   7.3353863  67.7031422  27.6806974  20.9085464  58.1199980  21.6333580
  21.5640593  58.4173489  21.0023928  21.0826015  57.1844435  21.7366457
  49.8928213  84.4495583  15.9913170  50.6149769  84.1236496  15.4541862
  49.5220184  85.1703739  15.4822409  27.5695634  56.9383669  79.7653246
  27.5463128  56.0199690  79.4965506  27.0034766  57.3862886  79.1367197
  25.4295349  79.5853710  69.4538307  24.6814966  79.0043354  69.5919132
  25.0533247  80.4655266  69.4590616  19.9280620  41.2099791  46.7504215
  20.0405025  40.5294561  47.4141026  19.9663162  40.7405186  45.9171295
 122.8767050  68.8672590  43.4086132 122.6995470  69.6704483  42.9189825
 122.4795856  68.1733656  42.8822660 111.0252423  51.7973757  24.3034649
 110.4013962  52.5199556  24.2332530 110.5072755  51.0146475  24.1156268
 112.1724803  65.8652401  36.0894275 112.1357090  66.7734861  35.7894707
 111.8188102  65.8921194  36.9784856  21.2334609  39.8863459  53.3854818
  20.4946280  40.4555845  53.6007071  21.3408399  39.9808121  52.4390268
 105.4729468  85.1469135  48.2395411 104.7249717  84.8690033  47.7108335
 106.2153823  84.6637726  47.8767872  91.3989705  52.9460669  97.3406029
  92.1802897  53.4984112  97.3667622  91.1989898  52.7703285  98.2600403
  39.0984702  63.9389944  80.4038048  38.8413715  63.6201000  79.5386839
  38.4189463  64.5712757  80.6376839  18.6335409  46.8270588  15.9520400
  18.7020111  46.2798166  15.1696897  19.2240667  46.4167023  16.5837991
  21.6492248  82.8301716  16.0170400  21.7315698  83.7771797  15.9046710
  22.5315356  82.4929619  15.8619666   3.4497246 113.8360691  94.4508934
   3.0005080 113.4545803  93.6966419   3.4792280 113.1286716  95.0950718
   9.3880039  63.9648485  25.3131843   8.7640440  63.3712626  24.8953843
  10.0753558  64.0892029  24.6587253  13.2193375 103.2691765  35.9495234
  13.3651435 104.1551685  35.6178665  13.8073695 103.1950092  36.7011523
 100.9601087  56.4620161  40.4917955 101.1134929  56.2902594  41.4208841
 100.6189579  57.3560047  40.4666281  22.6722407  52.7817440  56.8744946
  22.7532458  53.4536266  56.1975622  22.8047681  53.2531738  57.6969433
  18.6565948  52.6384354  71.3133097  18.4247172  51.7466068  71.5723562
  19.1990399  52.5276518  70.5324650  37.6668334  20.8802724  17.7789176
  37.3934078  21.7696738  18.0034971  36.8478966  20.4108095  17.6202297
 106.3421018  73.6497164  14.4346237 105.6931824  74.2838430  14.1296279
 105.9154589  72.7996826  14.3267167 118.4726018  79.5296812  53.1041336
 119.3519927  79.9073648  53.1202126 118.4650255  78.9092779  53.8330221
 116.9405711  75.4723978  53.3965826 117.0584566  74.5931911  53.0369616
 116.4285952  75.9356689  52.7336407  12.6356602  44.8794985   6.1823702
  13.5147917  44.5108604   6.2687641  12.6423466  45.6503391   6.7498165
 117.9654390  49.7029781  53.1855965 118.2504905  50.5630302  52.8769064
 117.7490205  49.8392105  54.1080046  13.3557415  33.5542202  28.5471201
  14.0201461  32.9948092  28.9494348  13.8362384  34.3332291  28.2669473
  29.3343353  59.3726635  70.5013514  29.1995025  58.6155415  71.0712814
  30.1314020  59.1660976  70.0132465  62.9482937  56.5196276  50.7807112
  62.3607302  57.2476768  50.9830666  63.6483860  56.9142580  50.2607441
  47.4950886  57.9106331  28.7871242  47.5652790  57.5538921  29.6725845
  47.7878332  57.1987152  28.2181764  25.4559851  65.3898048  60.1547289
  25.9209991  65.0529003  60.9205532  24.6284914  65.7211399  60.5035877
  13.4145141  72.7712059  42.6117563  13.3734941  72.5747252  43.5476732
  12.9439664  72.0495033  42.1946669  25.6798220  47.8923416  55.6210661
  25.7520890  46.9686460  55.3806543  24.7541022  48.0130911  55.8324766
   5.7851845  87.7252865  29.1650581   6.4903980  88.1083679  29.6867394
   6.0129845  87.9394627  28.2603693 106.4759952  57.5968647  52.7929115
 105.6277687  57.6986122  53.2246399 106.5568334  58.3725357  52.2379017
 109.5909924  59.6390915  51.0985470 108.9958102  58.8938904  51.0168982
 110.0353248  59.6846151  50.2519464  52.0770121  95.6190205  49.0096712
  52.1342421  95.1462936  49.8400259  52.8611422  96.1677074  48.9918947
  12.6001155  69.0519667  69.0924215  12.3326826  69.2971802  68.2066536
  13.5108376  69.3396854  69.1559315   1.1803038  71.9125175  38.3075809
   1.9980615  72.2620630  38.6615896   0.4956874  72.3244429  38.8346958
  22.1283579  54.3768740  48.9905548  21.6622519  53.8547897  49.6435547
  22.3637223  53.7501621  48.3063984  30.2045560  78.8758898  44.8499012
  30.4744959  79.7940159  44.8701429  30.7880950  78.4687328  44.2096424
  37.5190616  42.5406361  61.2922955  37.7282572  41.7840052  60.7445908
  37.1054101  42.1662474  62.0700836 123.0756523  37.5222015  61.6787815
 122.3998979  37.0701671  61.1735582 123.2272758  38.3373332  61.2004471
  48.5789680  81.2783623  56.8345499  49.5098543  81.0584545  56.7982149
  48.5618114  82.2196865  57.0073509 121.7195905  29.9676490  47.6537943
 121.5079424  30.8590794  47.3766851 122.6742259  29.9209118  47.6016569
 114.9740875  74.8335838  47.5372887 115.0918121  74.3014097  48.3241558
 115.2768619  74.2739773  46.8221617  10.7382619  67.8717756  27.4005294
  10.7818389  68.8238955  27.3121643  11.0520792  67.6990032  28.2881665
   6.2256390 108.7068176  48.0472088   7.0101345 109.2451000  48.1523228
   6.1789829 108.5324669  47.1071815   8.9906812  40.5470324  61.8223143
   8.4963453  40.8018589  62.6013708   9.0902781  39.5983315  61.9015455
  11.3458359  47.0416594  81.3015747  10.7216775  47.6719809  81.6612339
  10.7994056  46.3557243  80.9179878 108.7607295  63.6904383  11.4816153
 108.4084231  62.8333473  11.2418139 109.1967148  64.0007591  10.6879854
   7.0755768  28.9736295  35.9645510   6.4138174  28.5671329  36.5240765
   7.3940110  28.2594037  35.4125428   7.1316171  37.7603698  51.1085224
   7.0859170  38.2262874  50.2736187   6.2840402  37.3221922  51.1849880
   7.2772211  72.3409605  20.6433797   6.8740624  72.3918056  21.5100455
   7.6728725  73.2026577  20.5123448 110.4511077  70.8755064  54.9106789
 111.1343092  71.5459204  54.9069357 109.7501499  71.2508392  55.4436064
  95.1115746  27.0436573  49.4201565  95.3477091  27.9485106  49.2159176
  95.8291239  26.7268658  49.9687910  28.0302978  69.3881941  17.4143708
  28.1693554  68.4937525  17.1031404  28.3751416  69.9418783  16.7138374
  22.7548003  49.9046469  77.6530838  23.4167171  49.7478771  78.3265209
  22.3398757  50.7274628  77.9120207  45.5637169  85.4024124  54.2460299
  44.8526859  85.7665825  53.7187338  45.9303951  84.7038937  53.7039471
  21.9538641  84.9339485  69.6400642  21.0434580  84.6789169  69.7895527
  22.0942044  84.7839069  68.7051678 109.5237786  41.1433935  17.6548147
 109.3040771  41.4694118  18.5275555 108.9826352  40.3610802  17.5481355
  10.4014945  49.5770502  24.5879912   9.9669820  49.6221256  25.4396939
  11.2199521  50.0579357  24.7109127  13.5841405  33.0217910  67.2669315
  12.6700091  33.3053708  67.2536516  13.6248541  32.3144484  66.6233158
  20.8022666  63.8244438  50.6345797  20.1867986  64.0283537  49.9304152
  21.6660404  63.9424086  50.2393484 116.7824221  38.4799862  39.0236688
 116.5328074  39.3682814  39.2783356 116.1945016  37.9134512  39.5232892
   0.8467124  71.7616463  80.5602264   0.3143645  71.3480854  81.2397861
   0.2346571  71.9245529  79.8425388 116.1481810  53.2043982  60.0479841
 115.3522415  53.6829090  60.2798080 116.7150003  53.2971478  60.8137178
   0.1703832  21.2043476  26.5432143   0.2284338  21.5430021  25.6498075
   0.9509713  21.5453672  26.9798136 117.9917116  75.4040718  35.3577757
 117.9242117  75.5629730  36.2992787 118.0507142  76.2776852  34.9710608
  99.0179772  94.1099072  62.0683384  98.3432860  94.6917534  62.4183035
  98.6151952  93.2416534  62.0802784  15.9858882  79.6821690  31.1593103
  15.0654984  79.8823118  31.3297701  15.9660876  79.0771151  30.4178596
  64.3351507  26.8129015  52.9948950  63.4803915  27.2432041  53.0162764
  64.5253992  26.6124845  53.9113426 114.0741617  62.7972889   3.2359299
 114.2957158  61.8682194   3.2989526 114.9072052  63.2513237   3.3629170
   4.3098736  52.6280642  22.7120495   4.7550413  52.1747303  21.9961262
   4.4534436  52.0689440  23.4755945   3.9430276  49.2429543  26.5076733
   4.4236892  49.1437531  27.3294735   3.8612053  48.3514404  26.1689401
  39.8502350  67.2996616  59.2570877  40.3746986  66.7474461  59.8369455
  40.0411272  66.9729042  58.3778763 120.6777439  83.8678455   9.6317261
 120.4656247  84.0169907  10.5531347 119.8285467  83.8492870   9.1904193
 123.3602626  42.7873230  41.3183212 123.5245430  42.4189806  40.4502392
 123.3458225  43.7340689  41.1779690  17.7024806  65.4335165  76.9343376
  18.3831859  64.8528862  77.2745514  16.9660437  64.8528004  76.7428589
  12.3665321  66.9727230  40.5098486  12.5566471  67.7351618  39.9632430
  13.1545496  66.8560028  41.0405397  25.1092100  70.5318213  16.4904177
  24.9309635  69.5948029  16.4100385  24.2455792  70.9434271  16.4595461
  15.1155722  45.7936525  93.4958085  14.4877422  45.1825285  93.1103369
  14.6816802  46.1163616  94.2856380 120.9787945  68.2874823  31.7321825
 121.3006437  67.4416876  32.0440745 120.0368062  68.1590366  31.6208601
  15.9039104  72.4590540 109.6692204  16.3478482  72.3478651 108.8285136
  14.9729252  72.4791765 109.4476502  15.0531006  48.1437206  22.8205800
  15.9926677  48.0570793  22.9816318  14.8112333  47.3333836  22.3721576
  24.0475869  81.2421894  18.0666769  24.3217635  80.5740643  18.6949039
  23.8736892  82.0168018  18.6014402  96.0489339  53.4068918  25.0897837
  95.8327407  53.7152338  25.9697962  96.9792241  53.6076880  24.9874520
  30.2124238  97.0030594  40.9556437  29.9333453  97.4077320  41.7769766
  30.8819723  97.5947952  40.6124592  12.5709629  87.5693989   5.2571648
  12.1574688  88.3036232   4.8031014  11.8637347  87.1740437   5.7668263
  18.8041711  28.3647466  13.0248296  18.8570046  27.4459743  12.7615905
  19.6434641  28.7392044  12.7572465   9.8835278  30.4851007   0.7749292
  10.1032555  30.7021308  -0.1310787   9.0530026  30.0132036   0.7135127
   7.4735206  42.4419069  44.5732546   8.1998491  43.0456591  44.4178152
   6.8363982  42.9562807  45.0689650 104.4988341  65.6987810  46.4329720
 105.0015087  66.5060806  46.5416908 103.6007709  65.9440041  46.6556358
  27.6865649  38.5073495   9.2902917  27.1622539  37.8865457   9.7961897
  27.0845628  38.8443971   8.6267996 104.8906738  58.2993984  21.4364314
 104.3390746  58.2193518  22.2146106 104.7028107  57.5107527  20.9275341
 118.7215239  62.7461481   1.8484311 118.4967471  62.2239017   2.6184744
 118.7736780  63.6443663   2.1751051  28.5977173  74.3760014  14.4658005
  29.5540261  74.3917131  14.4276273  28.3778882  73.4519339  14.5841622
   9.4269729  82.3911953  81.7751821   8.9104271  82.1355724  81.0109385
   9.0716207  83.2425022  82.0306047   0.6022098  45.6798649  13.8481224
   0.5080985  46.3239717  14.5499051   0.7824206  44.8563194  14.3014729
   2.1814317  54.1109324  51.7822409   1.8033931  54.4041348  52.6113081
   1.9650406  53.1796408  51.7363977  13.7254298  83.7194824  17.4661291
  14.1715133  83.6925983  18.3126032  14.1183639  83.0044937  16.9655037
  94.9595804  64.1935205  49.1272449  95.5926508  63.8635778  49.7648907
  95.1175160  65.1371813  49.0991783   3.0520490  29.4230580  32.4339652
   2.7442884  30.2718139  32.1159601   3.6645249  29.6385479  33.1372929
  33.4999275  56.1882687  23.4162450  33.2089567  56.1345100  24.3265629
  34.1712689  55.5103588  23.3389497  44.1581154  49.0620995   9.3214226
  44.9098921  49.6318817   9.1589266  43.8915730  48.7634420   8.4519434
  24.5724225  71.5482044  60.8992863  25.0204968  71.9890928  60.1774263
  24.3208671  70.6970358  60.5408669  21.0380578  68.1455946  63.3995867
  21.4606094  67.4235773  63.8647413  20.2160692  67.7750444  63.0782461
 106.2411780  50.8493710  44.9632311 105.5819625  50.3384781  45.4329681
 106.9207818  50.2140665  44.7379351 112.5459165  54.0081739  51.9026756
 113.4447569  53.9926815  52.2314262 112.3893721  54.9250078  51.6765213
   2.9624557  85.2989292  15.4856217   2.0448622  85.0415039  15.5749989
   3.1915653  85.6688786  16.3381934  28.7555766  63.5490227  31.2499738
  28.1054854  63.7695265  30.5828953  29.5559907  63.3729744  30.7554269
  21.8815756  51.4161301  11.9080591  21.2617683  51.8554544  11.3257682
  22.0562553  50.5767012  11.4825201  12.8549373  11.9244504  25.6811857
  12.2406721  11.2350261  25.9333849  13.7193561  11.5416551  25.8311200
  58.4390688  25.1261258  40.9747553  59.2987013  24.8526502  40.6546402
  57.8552198  24.4051743  40.7389975 116.9702393  86.1184597  29.5110607
 117.4622512  85.4041004  29.1062689 116.6030890  86.6048050  28.7728906
  49.2398548  59.5600271  38.2976413  48.3144140  59.6705532  38.0795240
  49.2347097  59.1414642  39.1584611 124.8227909  64.5862436  72.9720243
 125.1522199  65.2468252  72.3626455 123.8746778  64.7176790  72.9781779
 106.7023916  25.3509259  49.5945501 107.5408430  24.9348521  49.7948360
 106.6779882  25.3925776  48.6385679 121.7613918  74.7351933  25.1296854
 121.5475214  74.7677708  24.1972542 121.0998622  75.2872896  25.5465817
 101.0095305  52.8520775  41.9259930 100.7222242  52.0839262  41.4323997
 101.5087909  53.3697033  41.2943029  31.1609006  50.6220007  49.9827957
  31.2982154  51.5680313  49.9338388  31.1014318  50.3410387  49.0696907
  34.6666765  50.9762144  42.7440071  33.9987373  50.8955193  43.4248734
  34.1800475  50.9117699  41.9222593 107.6463932  61.1297655  47.6827812
 107.6302308  61.8919992  47.1040154 108.1831378  60.4876375  47.2182322
 107.1515722  70.8676672  28.9741731 107.6780826  71.1011267  29.7387075
 107.6948637  70.2458286  28.4900427  14.8526537  51.7996550  50.1768875
  14.8532307  52.3511505  49.3945265  15.5943489  51.2073994  50.0529861
  31.4965582  43.3813381  95.9921035  31.3422537  44.1255903  96.5739211
  31.9569349  42.7429247  96.5368124  59.6628571  46.7703819  17.6203239
  59.5500803  47.0922709  18.5146952  58.9131975  47.1245527  17.1419895
  98.8126773  32.3105431 109.9360002  99.0137596  32.4223948 109.0068679
  98.2015914  33.0196714 110.1358612   5.2623135  82.5198841  43.7314939
   4.9563918  82.0963955  42.9294348   4.5162183  82.4686718  44.3289471
  27.6236629  69.8667765  57.5696564  27.1328378  70.2791119  58.2805014
  28.2915878  70.5109072  57.3346949   3.5239005  79.7728300  43.1318712
   3.1280243  80.4190159  42.5471020   4.3466336  79.5351219  42.7042770
 101.3974637  59.0042591  57.2794676 101.6453595  59.1137791  58.1975031
 101.7565579  58.1514549  57.0345116 115.1221258  68.7272072  18.9010966
 114.1691358  68.6541986  18.8490319 115.4448271  68.1466913  18.2118273
  31.7194581  39.1381383  35.6939101  32.1406937  39.1849732  34.8356557
  30.7930374  39.2994452  35.5151463  30.7252073  70.8152342  10.7051623
  30.4300261  71.7212296  10.7961237  30.9065723  70.7151031   9.7706503
  28.8212371  64.8214293  53.3619928  29.3014121  65.4742908  52.8526497
  28.8261271  65.1639795  54.2557859 115.8104468  84.5307350  14.3788910
 115.5582494  84.8568726  15.2427578 116.6011859  85.0230694  14.1584849
  23.1568027  67.2873878  40.0554419  23.2766056  66.4041615  40.4044247
  23.8589692  67.8003073  40.4555750  80.8663673  38.7556744 105.8237203
  80.0519485  38.2916951 106.0178306  81.5474338  38.0878830 105.9039443
  44.3720341  45.6643867  53.0497742  44.6019220  45.3399944  52.1790552
  44.9320745  46.4303875  53.1755590  12.2459865  71.4329195  26.9736981
  11.8553329  71.8513298  27.7408719  12.8288054  70.7654381  27.3356748
  59.0304804  45.6488657  10.4334760  58.1824684  45.2049160  10.4290068
  59.2629194  45.7119608  11.3598800 112.0490117  74.7165298  46.7341757
 112.9473597  74.3964243  46.8162346 111.8798537  75.1697445  47.5601387
 115.3263587  60.8250332  96.7798551 115.1688320  61.6248989  97.2814842
 115.3638858  61.1170053  95.8690449  21.5010762  66.5452385  46.3655663
  21.5178299  67.4384546  46.0218811  20.8938980  66.0788918  45.7910347
 122.1169803  44.7149229 108.2807931 121.7311794  45.2443314 107.5828552
 122.3972929  45.3521919 108.9377146 114.1917748  64.6233749  42.4294043
 115.0547833  65.0186872  42.5526047 114.3276972  63.6921692  42.6043653
  96.9891853  46.0545635 109.1645523  97.6286072  46.5229321 109.7012066
  96.1586661  46.4964199 109.3412746  71.6309661  64.4026089  26.4869022
  71.0548324  65.0787497  26.8434596  71.8116016  64.6895027  25.5917525
   7.5007302  88.7044048  35.9339833   7.0592952  89.5267773  35.7216787
   6.8305695  88.1786156  36.3706398   7.7381152  70.5804873  96.3447531
   7.6201785  69.8253918  96.9210788   6.8644285  70.9645748  96.2713941
 105.3207964  69.1071701   9.3482381 105.7371301  69.8924398   9.7035527
 104.4101400  69.3637562   9.2029822  24.7677469  66.5614605  18.6728072
  24.0018797  66.4812136  19.2413497  25.0936985  65.6660318  18.5822594
  38.7311053  45.2809095  30.0205779  38.0373406  45.3218555  29.3623638
  38.2721448  45.1033211  30.8415842  12.3943043  51.3285017  11.4222610
  11.4502347  51.2183332  11.5355265  12.7783859  50.5696297  11.8613815
  12.2820556  45.5087996  26.6916823  11.5769577  46.0865593  26.9836760
  12.4550486  44.9428797  27.4440384  19.1344261  42.0049334  18.8770854
  18.3248758  42.1058321  18.3764076  19.8216915  41.9515038  18.2129753
  14.3895781  53.7967205 107.2084346  14.6729946  53.0811214 106.6393732
  14.4514441  54.5782900 106.6592967 108.4580261  45.2986193  25.9716606
 109.0847010  44.5856953  26.0951304 108.1480891  45.5006504  26.8544722
  38.8835263  58.5570621  34.0482354  38.8294053  58.0948877  34.8847127
  37.9797792  58.5915470  33.7347341   8.0860907  52.1282530 103.2904735
   8.3717990  52.9101372 103.7629827   7.6463413  52.4669886 102.5106581
 118.7655205  40.2736139  22.4769235 118.2460774  40.9146786  21.9916964
 118.5735745  39.4381285  22.0510697 117.3980296  37.7616215  97.5398632
 116.7776395  37.9459500  96.8346175 117.1138973  36.9192576  97.8947219
  21.7472506  52.2641897  20.8518410  20.8632946  52.5418758  20.6115437
  21.7912531  52.3979568  21.7986274  96.4369435  78.1269073   8.1458771
  96.5693397  77.2711325   8.5537392  97.2854347  78.3412838   7.7581424
  18.7796581  42.1864462  99.3820532  17.9878378  41.8414402  98.9694723
  18.5706866  42.2139788 100.3157582   6.6917491  29.9349618  43.2379961
   6.0085964  30.5410266  43.5247374   7.5079268  30.4210114  43.3556509
 121.8286485  89.3731308   4.5984140 121.1169589  88.7389946   4.6855834
 121.6391415  89.8350906   3.7817654  17.5280261  77.4092340  20.2019858
  18.2745624  76.8294907  20.3530097  17.7714980  78.2298231  20.6304598
 108.5834331  54.6061802  35.4075551 108.8659377  54.0103960  34.7136784
 109.3914515  55.0187922  35.7126546  17.3774183 103.0041981  10.3510380
  17.7617490 102.7243233  11.1818171  17.7264595 102.3888016   9.7062927
  13.5237706  62.9527760  67.3364687  13.2741368  62.7880716  66.4271927
  13.0773306  63.7685061  67.5634146   9.6359777  89.0346050  61.5678263
   9.3188357  89.3750763  62.4043274  10.4831791  88.6404037  61.7753983
   3.3132797  26.6934657  42.7571011   4.0262491  26.7361450  43.3943462
   3.7461042  26.4971375  41.9262266   5.1680893  87.8281021  16.5837932
   5.2924174  86.9678974  16.1827779   6.0305703  88.2407093  16.5378165
  36.3388729  45.8578300  28.6716533  35.3898001  45.8034277  28.7835956
  36.5324163  45.2417421  27.9651070  13.0861843  81.7504978  13.3715761
  13.4637773  82.0844746  12.5578690  12.1706212  82.0282173  13.3424520
  16.5224409  69.8629665  29.2604327  16.6667223  70.4056168  30.0356364
  16.9695699  70.3299522  28.5545754   9.9313509  60.4180765  34.8963857
   9.3569309  59.8862982  34.3454909  10.4289722  59.7808552  35.4087853
   0.0635973  51.4143229   9.4381982  -0.4028745  52.2446918   9.5337039
   0.9275689  51.5801907   9.8153877   7.0436025  65.0285387  44.3707323
   7.6487750  65.1747036  45.0978041   6.6312826  64.1874504  44.5676851
   2.5289759  53.7060881  99.7512695   1.7654209  53.6405087 100.3247800
   3.1904790  54.1488743 100.2828565  12.0940900  32.5828004  34.5530152
  11.4255786  31.9913483  34.2073178  11.6074061  33.3598638  34.8278689
   4.9818140  46.3944721  57.4645853   5.0444865  45.9233046  56.6337395
   5.4392362  47.2203445  57.3066854  95.7827825  34.0092278  36.1238551
  95.3523845  34.8553705  36.2464595  96.2556667  34.0987039  35.2964473
 122.1472276  61.3070965  21.7763448 122.4894705  62.0654917  21.3031244
 121.4857934  60.9380817  21.1910558  34.7368908  55.9144688  47.7415991
  33.9396834  55.4184437  47.5554466  35.4267907  55.2522469  47.7832174
   7.3161781  52.3994970  34.7749257   7.4386173  53.0021238  35.5084658
   6.3796020  52.4437904  34.5823264   9.1174501  37.8582382  11.2355781
   8.2628268  38.1229234  10.8952940   9.5132029  38.6718011  11.5481925
  16.8391812  67.0737410  85.4633268  17.6101029  67.5771236  85.7250842
  16.0974336  67.6272488  85.7076057 120.9803463  57.8321791   4.9613193
 121.5954346  57.8048944   5.6942272 121.0117123  58.7388182   4.6559381
  17.0104980  43.0310535  48.5578346  16.6094136  43.8203573  48.9216566
  17.7421832  42.8416586  49.1451979   0.4177197  82.0169258  28.0965352
   0.4602520  81.3197231  27.4420595  -0.5178080  82.1901131  28.2015467
   6.1621445  51.0190105  25.8510733   5.9072036  50.5607319  26.6518354
   6.0647607  50.3646612  25.1592827   6.1413652  67.8763628  10.6198108
   5.4725182  68.5279894  10.8301985   5.6474060  67.0785570  10.4307663
  39.5516157  41.1073446  11.1347210  39.4301724  40.1965189  11.4028168
  39.3776512  41.1051941  10.1934648  21.3773179  40.9245396  33.5521817
  20.6645060  40.3021193  33.6961508  21.2308431  41.6111279  34.2028499
  10.4466224  79.3143368   3.5881415  10.8195043  78.6134624   3.0533868
  10.3109086  80.0369072   2.9751927  10.5538380  56.9835854  32.9566073
  11.5039480  56.9040251  32.8717899  10.4242516  57.4200487  33.7985921
 119.5713628  56.2088013  33.0177522 119.9016718  56.7727566  32.3184085
 120.3555608  55.9272385  33.4889102  29.3610573  77.7283001  55.0291014
  29.1225696  78.4048128  54.3953133  30.2907133  77.5665951  54.8684120
  31.9309735  72.8638649  15.3352737  31.7548323  73.7961245  15.4621518
  32.5642943  72.8352118  14.6181154  19.7141898  52.3618841   9.8194969
  19.3126333  51.5011072   9.7009742  19.0160251  52.9031801  10.1880014
  39.7642565  78.5816622   8.6288047  39.2544007  78.9093590   9.3696791
  39.2968011  77.7959967   8.3451748   4.1426525  83.7891388  33.6474514
   4.5001376  83.7131596  32.7627683   4.5099908  83.0416584  34.1192222
 109.8439605  29.3915606  44.5703697 110.1101643  29.7882605  45.3998232
 109.1179795  29.9363470  44.2664146   6.8809372  38.2810807  84.7463902
   6.2153721  38.9513516  84.9012836   6.7178762  37.9839945  83.8511904
 114.5081646  61.6783524  53.3563137 114.8037196  62.5887108  53.3452463
 115.1407457  61.2279510  53.9159679   5.8201653  68.9938211  40.7458973
   4.9847156  69.3724823  40.4722691   5.5993730  68.4450245  41.4984274
  26.3639712  57.6176310  36.4162517  25.5480790  57.6770496  35.9192395
  27.0062709  57.2942877  35.7844806  25.8280873  26.7979074  14.5214939
  25.7259440  26.9555545  13.5829067  24.9601579  26.5191078  14.8133814
  20.9114242  80.1245117  59.2142344  21.2694311  81.0089493  59.1378784
  20.8861804  79.9568462  60.1562929 122.4580514  47.6124048 109.5344841
 122.5974098  48.4269571 109.0514546 121.5193353  47.6024008 109.7214168
   9.6009988  85.9256172   3.3236310  10.1366425  85.8342361   2.5356165
   8.8167119  86.3878250   3.0278552  15.3690648  34.3610811  32.8089690
  14.6073818  34.0240741  32.3372746  15.0026143  34.7784281  33.5885644
 113.2389242  82.4620152 106.5404537 113.7510247  82.8357887 107.2575872
 112.5338609  83.0929470 106.3954025  31.3754058  85.9377003  45.0806856
  31.2731552  85.2765846  44.3960667  31.1906934  86.7678833  44.6414661
 111.3275308  51.9492149   3.3166167 111.4178223  52.7327204   2.7742141
 111.0726983  51.2607431   2.7023700 120.9038535  46.9917488  23.8218355
 119.9687315  46.9589329  23.6200881 121.3355825  46.8908834  22.9735041
  21.3978195  85.5186558  16.2109900  21.1838746  86.1610603  15.5343986
  20.6366777  85.5195999  16.7914152 118.2234938  99.9838161  36.4369750
 118.8101286  99.6015358  35.7843232 118.3994824  99.4881916  37.2367382
 118.5414649  58.7325716  10.7671463 118.5317022  59.6421719  10.4692149
 117.6179326  58.4845734  10.8097613  20.3084040  58.2035685  12.6714885
  20.9914804  58.8276100  12.9168606  20.6775689  57.7235889  11.9301593
  18.0007780  47.0268011  33.3690619  17.1791065  47.5175810  33.3839536
  18.3842731  47.2276211  32.5153446  20.2935910  58.4091282  31.8226624
  21.2003660  58.6993933  31.9213223  19.7703683  59.1490698  32.1308112
 123.6824441  54.7362804  91.3010212 123.3292568  54.1974020  92.0089027
 123.5597242  54.2069721  90.5129822 109.5584244  49.0222120  48.5138369
 109.3940968  49.6720076  49.1972113 110.1217718  49.4732141  47.8849745
  30.7613873 104.0372658   7.4013507  31.3128257 103.2774639   7.2146630
  31.2101579 104.7688389   6.9775212 119.7475655 101.0283184   5.5613577
 119.1867823 100.3402328   5.2031791 120.3165660 101.2769699   4.8329043
  28.3464456  36.1051345  30.0363660  29.1749907  36.0684061  29.5584559
  27.7235389  36.4704823  29.4080806  72.2425318  46.3178396  25.0423002
  72.7032948  45.9546041  25.7985997  72.9365253  46.5291166  24.4178271
 101.3649363  30.9094524  63.0509138 101.5003104  30.1461244  63.6123705
 101.8009872  31.6261482  63.5118246  41.8556881  49.2827177  41.4744997
  41.5028095  50.1595211  41.3230848  42.7214670  49.2992496  41.0665989
  35.4308319  67.8923845  53.2145834  35.4975390  68.8421583  53.3131027
  35.6977129  67.5440168  54.0652609 106.0876233  45.9565449  46.7200851
 105.2770252  46.0889864  46.2285376 106.0831720  45.0256777  46.9430208
  25.1419163  45.6345987  25.7987833  25.3115129  46.4066553  26.3385987
  24.2462349  45.3796530  26.0201144 112.3368174  53.4877920  36.8931174
 112.4377412  52.6040459  36.5394998 111.6846520  53.8995647  36.3262343
   6.0510635  48.3551884  22.5649309   6.4098340  48.3323765  23.4520602
   5.7099915  49.2442179  22.4673009  18.0891883  77.8414488  15.8765590
  17.5470650  78.4868526  15.4229200  18.8663042  77.7513218  15.3250158
   2.9251379  85.9126663  12.6822579   2.0623441  85.9909153  13.0893147
   3.5356507  85.8825302  13.4188700  10.0397813  74.0369558   7.3586744
  10.2134538  74.9763441   7.4188125  10.6741261  73.6375237   7.9538959
 117.6834971  62.4705315   7.2341293 117.2229726  62.0787859   6.4920497
 117.1903092  62.1813107   8.0018198   3.9794809  23.4095812  43.2056141
   3.3190110  22.7496457  43.4165621   4.0350550  23.9526844  43.9918613
  49.0260983  62.8875971  34.6219540  49.8629761  62.4869490  34.8572135
  48.9481878  63.6408615  35.2074051  19.3752909  93.4160900  44.7912645
  19.0638673  93.2226658  45.6754780  18.5918784  93.3610821  44.2440271
  12.1687138  27.9837060  10.5297077  11.3014293  27.5857186  10.4545033
  12.2699416  28.1625032  11.4645970   3.4067482  45.4881048  83.0517920
   3.9066911  44.9982500  82.3988494   2.7803433  44.8533297  83.3995112
   7.2711676  33.5937285   5.9345436   7.8920639  33.7259293   5.2181345
   7.3573107  34.3795705   6.4742303  32.3549294  60.2238131  21.0211563
  31.3995290  60.2012682  21.0753155  32.6434851  59.5000219  21.5771198
  33.4340906  78.4401512 108.6418080  33.9372396  78.8748741 107.9532673
  32.5878954  78.2504034 108.2366171 110.4147882  79.1763830   7.9947346
 110.2979226  79.4159651   8.9140677 110.3524358  78.2212543   7.9863441
   4.7488347  34.9641657  26.5119648   5.5166221  34.3941903  26.4688158
   4.0035555  34.3680382  26.4383268 114.8905606  88.0589485  13.2357252
 114.6160514  88.3364010  14.1097367 115.6262249  87.4669266  13.3924091
  14.2565262  45.1789045  30.4089904  13.5148454  44.9355650  29.8549795
  14.4015563  44.4133091  30.9649253  33.9945769  79.7549152 106.2880483
  33.5620689  79.8110294 105.4359799  34.7164989  80.3809357 106.2318920
 115.6026292  88.7388802  39.7206283 115.4360873  89.5646858  39.2661595
 116.3411672  88.9286232  40.2992344  19.0168536  94.6879005  41.0676050
  19.7054052  94.1217709  41.4163494  19.4867921  95.4294491  40.6861687
  16.9265985  53.4210396 101.1867579  17.1664071  52.8700113 100.4417124
  17.2270513  54.2967129 100.9435388  11.7684448  98.1443787 103.1126418
  12.3489821  98.0664444 103.8696983  12.3172879  98.5274982 102.4283757
 117.7447308  82.6985931  12.1379006 117.8732724  82.2889233  12.9933989
 118.2643998  83.5015297  12.1763337  25.6946754  83.8171291  24.4511294
  25.5429840  83.7476921  25.3936768  25.1414609  83.1360149  24.0686798
   5.0839847  60.8376741  26.7946720   5.1097822  61.6376734  26.2697291
   5.9518075  60.7859421  27.1952200   3.5952801  76.9530058   3.4213594
   4.2599207  77.5792170   3.7083188   2.8200477  77.4879122   3.2506996
   2.6904359  86.5496922  31.0649395   2.4654612  87.2988415  30.5132198
   1.8663549  86.3071632  31.4871979  47.0705843  41.3582802 105.6233790
  47.3617792  41.4292049 104.7143110  46.6006088  42.1755934 105.7887947
  14.4386065  42.2385406  19.3197286  14.9376976  41.9580078  18.5526288
  15.0150967  42.0538712  20.0612068  18.1202435  78.8208818  95.1307234
  18.6487412  78.5798836  95.8915385  18.7230825  79.3004465  94.5625349
  46.5468407   5.8014292 105.9337743  47.4639559   6.0276079 106.0885897
  46.5464830   5.3762585 105.0761836 121.6113902  55.6788206   0.1699828
 121.5120510  56.5578699  -0.1955781 121.3185335  55.7622957   1.0774507
  34.1825223  56.6818047 104.7106847  34.7478080  55.9378290 104.9184879
  33.3489704  56.2856770 104.4567063  28.4140468  73.5948801  87.7101024
  29.3167973  73.9092970  87.7592739  27.8802180  74.3840313  87.8022679
  49.9034786  66.6859102   9.7909981  50.0478792  67.4301147  10.3754151
  50.1437426  65.9208155  10.3136241 120.6839437  93.0405331  79.5544013
 120.5621482  92.9228210  78.6123069 120.2036501  93.8426781  79.7596248
  24.8930788  89.3150330  87.0519646  25.3744793  90.1418209  87.0820841
  24.7047114  89.1812611  86.1230668  88.8981718  71.0658026   3.7299824
  88.0508346  70.8071280   4.0923905  89.5242924  70.4630041   4.1310304
 123.0664859  81.8114662  -0.1643930 122.8948066  81.1585712   0.5141984
 122.3190600  82.4076366  -0.1177470  28.6053896  72.2622442  93.9465913
  29.0241933  71.6586065  93.3330294  28.9860654  73.1159067  93.7402340
  16.7296278  40.9147072  83.9746603  15.8865058  40.6001282  84.3008765
  17.3317671  40.7904387  84.7082933  26.8767571  47.7561665  37.8033447
  27.1458960  47.1645212  37.1006703  26.2397718  47.2522926  38.3098912
 110.1802391  73.9556789   9.3223959 110.5515689  73.5497236  10.1056874
 109.2949397  74.2110538   9.5817459   2.1400702  55.4139376  23.0821085
   1.7201826  55.5902195  23.9240408   2.2350307  54.4618034  23.0565190
 122.1990494  51.3111067  35.5580330 121.9079969  52.0343208  36.1134458
 121.4668921  51.1581802  34.9607134  45.2222633  50.9597063 107.6654952
  44.3926477  51.4196014 107.7937993  45.2001238  50.6762552 106.7514934
  36.8557453  58.5120773  84.0638264  37.1171331  58.4324980  84.9811991
  36.9194984  59.4487000  83.8769993  32.9857111  51.0382080 101.3539835
  32.6613474  51.8592024 101.7240992  33.7491322  51.2939596 100.8362868
  22.0649147  46.1033058   3.9520898  22.2260475  46.3401842   3.0387685
  21.4813900  46.7885637   4.2778915  28.4382725  45.1657724  25.1477313
  27.7788377  44.4729805  25.1853371  28.2847691  45.6856346  25.9366655
  22.9575014  89.6958351 108.8060547  22.6623106  89.2398262 109.5941870
  23.9128637  89.6776676 108.8624758  21.5062642  69.2826509  17.1824539
  22.4036193  68.9644480  17.0837927  21.5024614  69.7300482  18.0286515
  36.1560774  79.5526361  89.5006903  36.6921592  80.1141167  90.0606819
  35.4289389  80.1116753  89.2268642  55.7212019  86.7318153  33.5825038
  55.7383251  86.3714314  32.6959062  55.7822371  85.9660435  34.1535473
  23.2164478  60.2036572 105.1236554  23.3952117  61.1080980 104.8662307
  22.2653604  60.1670885 105.2252861 115.1005763  40.8971882   4.4630849
 114.9318320  41.7419052   4.0456969 115.9372098  40.6115675   4.0960747
   8.7551969  72.4469328  27.8914785   8.9943624  71.7259121  28.4738469
   7.8969121  72.2012949  27.5461650 119.1022272  53.4637260   7.1126717
 118.7237830  54.2950726   7.3988152 120.0372303  53.6459017   7.0187896
   4.4552302  54.1911936  25.7232356   4.1857690  55.0512028  26.0457468
   4.6532005  54.3337536  24.7976446 124.7913261  66.8873262  25.1854730
 124.6379401  67.7864742  25.4757023 124.3506526  66.3458109  25.8403015
  10.1790440  76.8226719   5.0741887   9.9411613  77.6037884   4.5746863
  10.8974051  76.4305115   4.5778018  89.3930287  89.0167618   6.4080089
  88.6585636  88.4221077   6.5602493  89.2240924  89.7593975   6.9878274
 117.6893497  68.9886236  43.8373566 118.4205914  68.3883476  43.6917925
 117.1818221  68.5819769  44.5396996  18.0214715  77.6078558  32.3445296
  17.3087525  77.0252228  32.6068330  17.5984120  78.2761717  31.8054485
   2.6547444  80.4819489   4.9416178   2.9777277  81.3804626   5.0092953
   3.3690041  80.0015831   4.5229146 112.4849302  60.7532406  21.1242270
 112.0172603  61.1153793  21.8768024 112.1521420  59.8594475  21.0428834
  15.2305746  54.5056534  37.5779843  15.4705095  53.8083315  36.9677329
  15.9509683  55.1332474  37.5197673 114.1135628  37.8238726 104.6310183
 115.0680477  37.8633070 104.6913066 113.9354188  37.7560782 103.6929884
 111.9705684  28.4915614  97.4061998 112.7241702  28.0802655  96.9829377
 111.7026562  27.8656697  98.0790409  16.9898152  58.0552578 108.7815514
  17.6941741  58.6340857 109.0732141  16.5325689  58.5560036 108.1059692
  52.8043365  44.7035408   3.4920445  52.6321650  43.9521885   2.9245400
  53.6333609  45.0598907   3.1727153  32.7217913  53.9231682  42.5939894
  32.9025936  54.8476362  42.7639914  31.9950533  53.9318514  41.9710875
 104.1827816  19.7893620  25.7857966 104.9362404  20.0605392  26.3101935
 104.2156286  20.3506756  25.0111461 123.4493602  53.5176134  10.5966437
 122.5137421  53.7196970  10.6003523 123.8481244  54.2383099  10.1089799
  19.7807789  54.0790939  47.1999264  20.0915098  53.3788347  46.6260624
  19.7039235  53.6671257  48.0605125   7.0324773  77.6859808  39.0353322
   7.3295110  77.8399992  38.1385159   7.8350449  77.5108862  39.5267177
  18.5937047  71.1302280  24.5405626  17.9341948  71.6013098  24.0312910
  19.1730678  70.7443714  23.8835335  12.7063262  88.9461613 106.7844894
  11.8391550  89.1691875 106.4461061  13.3088303  89.4883823 106.2753638
  14.8610008  39.1881776  93.4612139  15.3267837  39.7526455  92.8442427
  14.5294285  38.4685779  92.9241224  14.5610940  61.2111902   8.1624722
  13.6571765  61.3796759   8.4285146  14.4988430  60.4723120   7.5571549
  20.9896922 111.8223763  29.8306227  21.8217349 111.7597675  30.2996826
  20.8455348 112.7625275  29.7230482  37.6530933  96.0879707  98.6377689
  37.1091652  96.8509769  98.4423371  37.3569703  95.7973385  99.5003673
   6.6457641  79.0263939  95.6763598   7.3762268  79.6448755  95.6878587
   7.0597905  78.1655741  95.7380875  10.5043364  69.7576380  95.0015315
   9.6370280  69.5139265  94.6780916  11.1069083  69.4563866  94.3215414
   0.4473543  28.2883644  19.8589540  -0.3655252  27.8155565  20.0375891
   1.0102762  28.0879784  20.6067491   2.9233834  55.2137661 109.4776712
   2.0978847  55.3785753 109.0220167   3.5935891  55.3083515 108.8008335
  29.5992994  37.5508428  43.8971996  30.2931619  37.8825998  43.3273554
  29.2533612  38.3302426  44.3320513   9.3246543  60.4971886  13.7798393
   8.4705269  60.9205198  13.8663948   9.8264688  61.0838223  13.2139087
  10.6894088  74.3819427 103.1297877  10.4477954  73.4594536 103.0468830
  11.5795624  74.4286680 102.7809688 124.7177116  63.3058405 104.0048989
 124.9677721  62.8718328 103.1892159 123.9743009  63.8585806 103.7639596
 118.5461116  81.9468498 104.0874919 118.2935960  82.5924873 103.4274807
 119.1182680  81.3380241 103.6203744 112.9899544  59.9650621  12.7582133
 113.9245409  59.7773266  12.6714098 112.7986307  60.5665350  12.0385897
   7.2900963  74.3090630  37.8645420   8.2362795  74.3110657  37.7197480
   6.9139022  74.4176149  36.9910860  15.6457710  57.0477962  30.7267833
  15.3892863  57.7882910  31.2764359  15.5472398  57.3692894  29.8305893
   9.1464907  71.3011742  12.0110440   8.2771701  70.9690809  12.2351623
   9.4128895  71.8106556  12.7763498  21.5591621  84.6259022   9.6749681
  20.6059361  84.6785164   9.7444177  21.7697954  83.7313557   9.9426639
 118.3301867  52.0205879   2.1825278 117.6479114  52.6788521   2.0505297
 119.0435261  52.4968719   2.6074207   6.3379264  82.8880024  97.0506629
   6.0819346  82.7719307  96.1356600   6.4550477  83.8329506  97.1485885
  15.6199324  63.3777094 100.0288817  16.3065147  62.9784298  99.4946393
  14.8042810  63.0240822  99.6740695  96.8711037  17.8216946   8.3221048
  96.9974751  17.8277814   7.3733032  96.4803786  18.6734688   8.5171598
   2.0364113  65.8371067   0.1718172   1.5791869  66.1569548   0.9495547
   1.7874566  66.4489412  -0.5209389  30.7395697  79.8387051  49.9627018
  31.1524940  80.7022572  49.9629545  29.8002267  80.0223827  49.9740171
   2.4120794  85.1737404  35.2986264   3.0879989  84.7419357  34.7762179
   2.8795218  85.8596611  35.7753253  25.3038883 102.1147156   2.9575542
  24.9105477 101.6021156   2.2513214  25.0723076 103.0207825   2.7535197
  33.8950133  41.3759041  22.9677534  33.3217549  42.1305227  23.1025100
  34.1380382  41.4218378  22.0430589  59.8691082  57.4750328  92.2399756
  60.3790808  57.5932932  93.0413326  59.4579649  56.6166973  92.3421975
 103.1092209  91.7698193   9.1565001 102.3412890  92.1580219   9.5757997
 102.9232878  91.8239403   8.2190931  38.5820246  86.4057159  84.3396004
  37.7502942  86.2322807  83.8987192  39.2182136  86.4838409  83.6286887
  13.3338237 104.1500568  28.6952710  12.8613830 103.6913204  28.0005836
  14.0329373 103.5470676  28.9480209 121.0149310  64.8880243  98.1105419
 121.8301106  64.4352245  97.8944739 121.2956954  65.6864119  98.5577329
   2.9896727  70.7546329   8.3334094   2.9353070  69.8515272   8.6459368
   2.8420153  71.2877178   9.1145957   6.8220139  52.8239107  30.2659869
   7.1286267  53.6762190  29.9564910   5.8683556  52.8744125  30.2010465
  68.0869293  84.0864182 107.2466555  67.9400444  84.6364689 106.4771732
  67.2203255  83.9909458 107.6417721 116.7876632  68.2780695  28.8132644
 116.6553504  68.6980581  29.6631670 117.6955343  68.4786463  28.5857320
 124.4037358  78.2866144  10.4981625 124.8350974  78.1197262   9.6601248
 124.7893259  77.6475620  11.0974669 120.2355520  62.1530914   8.3032835
 120.6696326  62.9934359   8.4503448 119.7257955  62.2835207   7.5036788
 110.1492006  43.6855650 106.5472367 110.5963690  43.4964275 105.7223138
 110.5923933  44.4629097 106.8871670  12.7635336  75.4440355  88.8025554
  12.6536512  76.1442327  89.4458946  12.2234380  75.7142067  88.0598983
  34.1344833  31.6385603   0.3905671  34.6364355  32.1567392   1.0196660
  33.5261440  32.2637820  -0.0034573  86.7247934  87.9436398  91.7521139
  86.1986656  87.1632195  91.5778574  86.5040750  88.1853580  92.6516064
 104.7314495  78.2176685  97.2398325 103.8338346  78.4606218  97.4667510
 104.6814913  77.9452276  96.3235840  17.8516436  46.0031652  13.1403601
  18.3611953  46.7233276  12.7689385  16.9420302  46.2267971  12.9433179
   4.5455781  74.6546841  70.3094515   3.9781585  74.9416065  69.5939501
   5.0035453  73.8901806  69.9601158  10.2262032  74.9933529  84.0021714
  10.4032481  75.2172565  84.9158200  10.9136045  74.3685818  83.7711509
   9.6999669  12.7569246  94.6740469  10.5859184  13.0602181  94.8723777
   9.2004335  13.5592663  94.5225688  26.9778538 109.9428272  14.2154717
  27.1905613 109.2475891  14.8380721  27.1052051 110.7532310  14.7086859
  92.5467176  83.6182117 105.3581866  93.1529540  84.0786171 105.9384798
  92.9010720  83.7600517 104.4803789 101.0987729  29.5155287  21.1358094
 100.1771326  29.6347809  20.9064865 101.2137074  28.5662818  21.1799908
 103.4526796  70.2429676  17.5297308 102.6275963  70.5774927  17.1782207
 103.1919045  69.6818781  18.2600784 124.4987300  63.9254045  76.8871626
 123.8278861  63.4954166  77.4175485 124.0063254  64.4770193  76.2793049
  27.8135109  65.6225538  46.2510824  28.1301713  64.7885990  45.9039831
  27.6043248  65.4370165  47.1665335  19.9585497  98.1629658  19.0950656
  20.2612019  99.0426826  18.8698244  19.4350612  97.8895855  18.3417702
 111.0606403  72.1933270 100.6254294 110.9247882  73.0309629 100.1825496
 111.2119944  72.4282265 101.5409329  62.4640293  71.2178755   8.8818151
  62.9356021  71.9819164   9.2136115  63.1358404  70.5419064   8.7925863
  36.1495352  77.7996111 105.8343031  35.3393912  78.2865667 105.9852188
  36.8335462  78.4691668 105.8266562 124.4180501  55.4113054   9.2163277
 124.5959497  55.0050974   8.3680493 124.9868236  56.1809063   9.2373413
  25.4353070  74.2751884  15.3592348  25.2326441  74.6208000  14.4899189
  26.0263777  73.5408163  15.1932001  19.6126819  37.2460961 102.1801611
  20.5106807  37.5710034 102.1148612  19.5915377  36.7651963 103.0075189
  59.9271297  96.8787289  94.8183056  59.2509174  97.2743607  95.3682538
  59.4548178  96.2489986  94.2737004  13.2970452  30.0986505   4.7128281
  12.7323973  30.3984404   4.0004161  13.7977242  29.3762302   4.3338034
 111.4011247  85.8904076  95.6685349 110.9368057  85.3113270  95.0641307
 112.3257989  85.6789684  95.5400749 122.3900998  55.7335377  28.4170699
 121.6831899  55.1317787  28.1838298 122.7547371  55.3729010  29.2252874
  10.8137310  45.3484917  19.8901856  10.4843652  45.3795099  20.7884002
  10.9206939  46.2668705  19.6424532  87.3956723  57.6849127  29.5553279
  86.9361967  57.8290987  30.3825665  88.1029863  57.0791435  29.7766399
  18.8150239  61.0339403  85.4162368  18.9996791  61.6208076  84.6829446
  18.8708663  61.5935421  86.1908063  37.3342681  74.6115589  92.2504541
  38.2401347  74.8099327  92.4876913  37.3566651  74.4884872  91.3014623
  20.8753967  41.8747282  31.0016990  20.4347014  41.0808134  30.6988502
  21.4053392  41.5859222  31.7446566  49.3089437  54.4855404 103.9618822
  49.2903805  54.4604921 104.9185743  49.2988873  53.5654974 103.6979606
  20.5801320  51.3039494  14.6696603  20.5533123  51.5075064  13.7347400
  19.8622370  50.6845045  14.8006022 110.4800517  51.9995451  19.8156929
 110.9741730  51.8755627  19.0053189 109.6863026  51.4785194  19.6943271
 111.3855988  63.9353943  42.6010799 110.8620507  63.3609772  43.1598043
 112.2582216  63.9215851  42.9942322  10.3062224  82.4829960  12.3494089
  10.2803862  83.3255482  12.8029108  10.2702165  82.7099323  11.4201975
  36.3104558  41.0707903  46.7619705  36.2761450  40.5132484  47.5392723
  37.2103071  40.9869194  46.4465857 112.9282219  85.9609604  33.4611607
 113.5442371  85.8183479  32.7425385 112.5918335  85.0883102  33.6650133
  98.4463806  63.1365967  92.7830943  98.5589022  63.0888700  93.7324580
  99.3153567  62.9473972  92.4290987 107.6727898  39.8128486  80.8786067
 107.5999839  39.8431826  81.8325504 107.9737169  38.9240789  80.6895050
  21.4211559  70.1476669 101.1065670  22.3693538  70.0170803 101.1164060
  21.3044405  71.0290861 100.7520100  41.0410500  43.8197517   6.0108900
  41.2111187  44.5764780   6.5718490  41.3929796  44.0707827   5.1568633
   7.7490944 113.4561062  17.1471751   8.5853481 113.1251526  17.4748719
   7.1571630 113.3955479  17.8969622 116.0916049  69.1199112  35.8580041
 115.2586836  69.5900488  35.8199716 116.2076951  68.9129543  36.7853236
  11.9881797  55.1288939   2.7523395  12.1739972  54.5025158   2.0527975
  12.2518456  55.9755659   2.3919877 113.2154257  43.4809494 102.3240431
 114.1675109  43.3846617 102.3018070 113.0519933  44.3372488 101.9287308
  16.0943234  38.9137721  10.4476392  15.3312433  39.3392253  10.8387029
  15.8462596  38.7693238   9.5344949 122.1881092  33.6369848  77.4860462
 121.2728680  33.3779383  77.3789986 122.4277580  34.0233755  76.6437277
   9.8114580  54.4230890   4.3242779  10.6236887  54.5233917   3.8278383
   9.3809384  53.6652517   3.9285922  28.8407183  52.3982477   4.5942137
  28.1157923  53.0141640   4.4876277  29.4234300  52.5844622   3.8580048
   0.2992595  75.1938963   2.6559037   0.7230856  74.9119806   3.4665367
   0.7885578  74.7503614   1.9630149 106.0688288  30.9398556  99.2363330
 105.3948767  31.5964746  99.4120380 105.8519084  30.6004071  98.3680280
  25.4265094  43.8563251  97.2414788  24.8510242  44.0373230  96.4983162
  26.3110590  43.9455318  96.8867286  13.6142695  55.6732655  14.0938509
  13.2006192  54.8106098  14.0630388  14.5382166  55.4899120  14.2639554
  21.9730830  42.0028687  79.3156131  21.2809777  42.5297642  79.7151192
  22.0712805  42.3645687  78.4348401 113.7896163  28.3747435  37.0607519
 114.7118658  28.4059286  36.8063617 113.3364219  28.8720989  36.3799548
   5.3402638  66.5039492  92.6639351   5.5956209  66.9360638  91.8488880
   6.1644924  66.3675308  93.1311282 112.3337943  61.4492416  26.8048930
 112.1129233  60.9600115  27.5974226 113.1363708  61.0372448  26.4849567
  30.6339097  70.0084972  18.6871016  30.3283477  70.5256796  17.9418576
  30.1823807  69.1692638  18.5974610  16.3909757  82.7233219  51.1195707
  16.8554401  83.2411671  51.7770958  15.7940793  83.3449268  50.7029772
  41.8471289  10.8035135  64.8911095  41.2287283  10.3224540  64.3412018
  41.3958216  11.6213703  65.1000738 119.7911940  50.1060867  17.5555078
 120.2774570  50.6818867  16.9653932 119.1064984  50.6641293  17.9243127
  15.8883440  52.3829317  15.3963128  16.8383443  52.4877167  15.3438608
  15.7540941  51.4364338  15.4447786  39.0329003  48.9237070  10.2365247
  39.9663615  48.9446497  10.4473344  38.6961079  48.1665039  10.7155362
  12.0868194  23.0633259   3.6883298  12.8960001  22.5541186   3.7348691
  12.3078334  23.8144398   3.1376783 119.4366378 121.3838482  96.5701389
 118.4807188 121.4225769  96.5393162 119.6300501 120.5117512  96.9140339
  94.8126287  34.1403770  20.5968419  93.9973301  34.6416473  20.6125966
  94.6128125  33.3426332  21.0866491  18.9281225  39.6930265  88.5429573
  19.3513918  38.8345027  88.5466385  18.8380909  39.9116969  87.6154232
 104.3802518  32.6319385   3.4024469 104.4052071  32.8425550   2.4690477
 105.0545365  33.1887412   3.7917367  48.2997084  10.8251238  84.3672657
  47.9250813  11.6178203  83.9831829  48.3126354  10.1935625  83.6481094
 109.2502481   3.5399905   3.5208074 108.5533900   3.9920926   3.9964334
 109.8233265   3.1955904   4.2057840  19.0696990  83.3566570  21.9987336
  19.8387671  83.4946346  21.4458028  19.4217372  83.2897949  22.8863279
  26.3969159  31.2898922  42.0727960  27.0635271  30.9100533  41.5004484
  26.2868929  30.6460452  42.7725068 117.6833112  48.5750961  11.9146577
 117.2109008  47.8620958  12.3444215 117.0442534  49.2853975  11.8571512
 111.2606639  49.6619606  10.4691449 111.4346618  50.4390955   9.9380914
 111.0097498  48.9900017   9.8353139  11.9705117  53.5408926  17.8587953
  12.6846611  53.0016088  18.1984941  11.5908003  53.9522600  18.6352102
 119.1936297  24.6747398  67.1886587 118.4522874  25.1728654  66.8443966
 118.8619650  24.2773604  67.9938412 119.1507984  37.2219348  77.8382730
 118.7068886  37.7580690  78.4953403 119.5285988  36.4969420  78.3361578
  30.5676699  50.9226608  18.2089559  30.6820798  51.4981079  17.4526445
  29.8110151  50.3807354  17.9852907  30.0665808  65.9594631 104.9680519
  30.2083230  66.8466616 105.2982426  30.9222388  65.5368328 105.0419903
  44.3009472  53.0698156  80.7232571  44.1779280  54.0168810  80.7877636
  45.1562548  52.9672670  80.3059196   7.8499454  51.8693781  73.5780382
   7.7507573  52.1277189  72.6617098   8.6202455  51.3011980  73.5846615
  24.6675444  71.2388754  77.6578379  23.7844372  71.5435171  77.8665209
  25.0939941  71.1394691  78.5090113   6.0957086  36.2708902 108.4878826
   5.2953470  36.1531758 108.9995384   5.8993345  37.0007563 107.9005432
  27.0808601  31.1225557  97.1953487  27.0074630  31.2086844  96.2448597
  27.9597521  30.7707429  97.3367977 120.1379434  58.1340647  75.6856966
 120.8062369  57.4739695  75.8697796 120.6137860  58.9645958  75.6909513
  33.2445097 146.2971113 106.4174843  32.5498104 145.9596226 105.8520412
  32.8467250 147.0430704 106.8664169 114.3838949  84.1525364 104.3825245
 114.0191669  83.6070251 105.0793934 115.2322740  83.7550163 104.1863918
 114.3133599  60.3409433   4.4807473 114.4919819  60.5042982   5.4068319
 114.0044934  59.4353867   4.4524900   4.5592692  15.1179051  92.3440552
   4.5275500  14.1612315  92.3453331   3.9365086  15.3791022  93.0224133
  24.1054678  27.3095179  84.1802883  24.0011501  26.6828156  83.4643269
  24.9067569  27.0335817  84.6252918   6.1081517  62.6764727 109.8125458
   6.5006661  63.2912111 110.4324341   6.0204244  63.1773186 109.0015602
  21.2514687  55.5859661 104.2861366  21.0973859  56.4381599 103.8783836
  21.8050313  55.1179361 103.6610317  79.1992111  60.0599718 100.5919933
  78.3932418  59.9763632 101.1015606  79.8914451  60.1332998 101.2490082
  18.0141425  61.4297676  24.6748773  18.1389976  60.8423424  25.4202405
  18.6221457  61.1059618  24.0102617   9.2148554  34.4918251 102.1443367
   9.2924160  34.6640778 103.0827045  10.0305903  34.8259306 101.7712593
   3.1139255  77.4210262  92.7048779   2.6867884  78.2081413  92.3668957
   2.6731539  77.2477484  93.5367012  14.7844625  53.3711195 102.7395344
  15.6430626  53.4748507 102.3293114  14.2495167  52.9437017 102.0706654
  17.6466858  46.9125366  47.1662521  18.2031393  46.7450476  47.9268694
  17.1709192  46.0928011  47.0323992  14.4696903  37.9086947   8.3709089
  14.8674166  37.9671407   7.5022165  14.3563819  36.9699550   8.5197870
  39.5033240  58.7208748  14.8928205  39.3913460  59.0613461  15.7803861
  40.4510784  58.6419630  14.7843591 113.1193036  26.9807315  23.2031480
 112.5272352  27.7128243  23.3755628 112.5625259  26.2041306  23.2590143
 117.9911942  66.7751122  22.8137628 117.5567026  65.9268713  22.9028646
 118.9191944  66.5843964  22.9504243  31.1634350  61.1116457  82.5691986
  30.3325748  61.0760736  83.0431652  31.7273307  60.4883766  83.0272293
  11.1162508  51.8711853 102.7665520  11.5100813  52.6117563 103.2277203
  10.2558053  52.1893311 102.4933243 104.6705264  46.6070509  86.7473793
 105.0700683  47.4733400  86.8257713 105.3684980  46.0519600  86.3996124
 111.4179356  78.4220362   1.1744157 112.3060746  78.2626104   1.4938203
 110.9057826  78.5912323   1.9651738 123.9538882  24.3594623 106.5587807
 124.5959389  25.0500393 106.3941383 123.2989212  24.7708631 107.1226883
 112.5389332  30.4075360 101.4209270 112.9721910  30.8334160 100.6812286
 111.6142482  30.6329370 101.3190269 115.1349152  31.3298988  88.8483524
 114.8966319  31.5254474  87.9421425 115.5806220  30.4840899  88.8016319
 123.3662449   0.7272680  95.7028198 122.9590223   0.2612244  94.9726200
 123.0236334   1.6187611  95.6388760 108.9555270  26.2418342  80.7997990
 108.9837140  26.8850303  80.0914669 109.6661539  25.6328750  80.5987835
   7.2762972  31.1772990  97.6161480   7.3545796  31.1718845  96.6621685
   6.7653930  31.9631743  97.8100872  17.0582032  29.0702009  15.0870744
  17.5512564  29.8611259  15.3051702  17.5691903  28.6530662  14.3934385
  18.1567740  64.7256184 104.3168449  18.1206489  63.7995434 104.5562363
  18.2186866  64.7238445 103.3616447  95.9137220   9.0535778  83.9137840
  95.7420010   8.1490237  83.6520100  96.7587466   9.0169227  84.3619156
 121.4690152  38.3117008   1.6212980 122.0342026  38.7707138   2.2426645
 120.7138625  38.0375719   2.1417085   8.5353726  54.7041225 104.3426609
   8.8496035  54.8222065 103.4462547   9.1673845  55.1788473 104.8824978
 123.3006849  31.7478776  74.7914362 123.7331831  32.5828433  74.6125221
 123.7076249  31.4356875  75.5996227  27.3392725  13.7933910  96.0121918
  27.8204370  14.3176877  96.6523743  27.3362136  14.3282199  95.2183533
 123.5388865  23.6758637  73.5800123 124.1346960  23.4029746  72.8823185
 124.0616830  24.2639613  74.1250420 120.1449231  39.9068832  30.7207624
 121.0244731  39.7283888  30.3879491 119.7254497  40.4166460  30.0276414
  19.9791598  25.8802223   7.9533902  20.0182009  24.9547338   8.1945936
  20.3962612  26.3360715   8.6844579  23.8276339  27.9014540  19.1823331
  22.9689288  27.5971603  19.4760362  24.3534255  27.1045709  19.1133920
  13.7431097  79.5305872   2.6944391  13.5350335  80.4288769   2.4375192
  13.4952736  79.0011644   1.9364682   8.6213070  45.0726557  26.6323606
   8.3155429  45.5700731  25.8738653   9.4754213  45.4520845  26.8391362
 110.9595186  36.9242620   3.8150827 111.4622147  37.6295590   4.2226163
 110.0464875  37.1406817   4.0042058 123.8306908  60.0497675 101.1043262
 124.4658457  60.6731081 101.4568329 123.1631175  60.5965042 100.6900120
 116.7140884  17.2863173  28.9148179 116.1274368  17.6576102  28.2558671
 117.5139112  17.8074110  28.8442842 103.7500829  13.5487282 105.8641720
 103.3694620  13.6565804 106.7357922 104.5565791  14.0636563 105.8896065
 120.3561611  29.5595098  90.7145977 120.6691871  28.7550569  91.1282444
 119.6312845  29.8476839  91.2693405   2.2073989  45.8623171  28.1995908
   1.6510808  45.0846672  28.2443658   2.3941672  46.0761499  29.1137163
  19.8693120  75.5911922  20.3924028  20.7390308  75.5269670  19.9978200
  19.5221233  74.7000360  20.3532258 119.7076375  32.4710536 104.5714760
 119.7792867  31.8229270 103.8707447 119.0828556  33.1154108 104.2387867
 110.4963715  48.8705778  19.7268239 109.9680609  48.0911303  19.5548288
 111.3432629  48.6796522  19.3236390  64.6032095  77.3468494  81.1595154
  63.9460659  77.8803301  81.6064930  64.1083431  76.8591881  80.5010891
 119.1026432  65.3776264  43.0914632 119.5652426  65.7188034  42.3260728
 119.6245164  64.6255302  43.3711664 114.4155807  49.2647028   6.6652147
 114.0207083  49.7439480   5.9367696 113.8124866  48.5398912   6.8300096
  19.7805631  47.6628828  94.5650673  19.0692055  48.2931948  94.4514656
  19.3559182  46.8851614  94.9270916  26.8860674  31.3278627 102.1845150
  27.3504424  32.1042943 101.8718719  27.5768995  30.7497358 102.5081730
  12.9731560  63.1086636 107.9781818  13.3943045  63.9548254 108.1294537
  12.9865980  63.0010557 107.0271397   4.5463479  87.5428486   3.9356557
   4.8306268  88.4341240   4.1382448   4.6823198  87.0573139   4.7492830
  58.7891150  30.4925489 103.7699413  58.6804342  30.8252048 102.8790092
  58.1010818  30.9274936 104.2735958   7.5982189  47.0567513  20.8867112
   7.0572263  47.6044846  21.4555208   7.1447414  47.0656490  20.0437967
 114.8428202  28.2167101  82.9426384 114.6125931  27.3339272  83.2323265
 114.9269975  28.7201762  83.7523651 124.3402585  45.9136868  25.7807103
 124.9292746  45.6611967  26.4917222 123.5688832  46.2679577  26.2230913
  25.1093984  67.3563004  69.5399332  25.8316493  67.9675055  69.6848774
  25.5342889  66.5454292  69.2603064 121.4784122  52.2084427  19.2288057
 122.0674021  51.6235638  18.7521116 121.6396747  53.0722237  18.8491765
  26.7939591  26.4320326   4.8821775  27.5721979  26.6660190   4.3763868
  26.1213613  26.2630963   4.2224065 122.5527381  31.6876960   1.5652982
 122.9046913  32.3350954   2.1762315 121.9102511  32.1721005   1.0468427
  21.1082435  40.3873062  99.4947147  20.6129646  39.7056842  99.0404892
  20.5181766  41.1407995  99.5121288 122.1755884  51.3978577  98.0653954
 121.5762535  50.9407568  98.6553860 122.5136009  52.1271086  98.5851765
   3.6328378  36.4259577 103.6187077   4.4970241  36.7642403 103.3842278
   3.0378067  37.1589446 103.4609032   5.5663610  54.9825716  92.3326683
   6.0400295  55.5489922  92.9417992   6.2329471  54.3852758  91.9933605
   5.4482174  44.3487406   0.8224622   6.3512164  44.0876961   0.6416837
   5.3870100  45.2446890   0.4911557   5.2361077  31.5351605  74.2308807
   5.3208739  31.2197089  73.3311415   5.6774664  32.3845339  74.2294788
  23.4245992  45.4538155 106.7167664  22.6442528  45.9361649 106.9899464
  24.1261220  45.8016157 107.2673416  13.2447088  75.2089882  97.0320129
  13.1152940  74.9672842  96.1149120  12.4046707  75.0202560  97.4502754
   2.1605755  76.0952616  36.8529391   1.7704940  76.6827250  37.5002074
   2.9313374  75.7342386  37.2909117 104.3381996  41.5338087  20.5225984
 104.7365028  42.2140789  19.9796239 103.4125561  41.5443897  20.2790777
 112.2105855  72.2349882  90.6822109 111.5370066  72.4163914  90.0267601
 112.3689813  71.2938499  90.6087399  89.9102587  53.6560392  28.8727132
  90.1664133  53.1042576  29.6117345  90.6309766  53.5702896  28.2486574
   2.2180274  31.6929460 106.4680576   2.5981984  31.8152881 107.3379612
   1.2883526  31.5356135 106.6329288 124.0905559  49.7120714  19.8483316
 123.9228430  50.4972029  19.3271104 124.5399855  50.0346518  20.6294767
  17.5721848  55.4486370   2.8127614  18.1095254  56.1060810   2.3708764
  16.9018543  55.9556675   3.2708112   0.2051072  28.1850863 103.2130337
   0.0822522  28.9341950 102.6299667   0.9317952  28.4405184 103.7812901
  40.9225559  83.5889244  98.9986038  41.3714075  83.4954166  98.1583500
  40.5731630  84.4799805  98.9856529   0.3595088  69.2749643  56.5986967
   0.0092420  68.9191246  55.7820415  -0.1777673  68.8766098  57.2834444
 123.4950189  68.0395126  95.8220673 124.1127642  67.3083782  95.8138084
 124.0010662  68.7767887  96.1634922 117.8917850  48.5665655  99.7434139
 117.4207050  49.2889452 100.1587200 117.8009523  47.8373337 100.3567600
 113.3993608  13.6976063 108.0409813 113.3786041  14.6509314 108.1244755
 113.7484998  13.5415745 107.1634960  44.8929405  27.3680043 102.7205086
  44.4267559  26.5539503 102.9108143  45.7901335  27.2037077 103.0108166
 113.5913391  72.0281982  18.1629316 112.9267640  71.3412619  18.2147638
 114.0936572  71.8166065  17.3760835   4.3941250  21.8593478  92.9577923
   3.9141625  22.6127982  93.3015633   4.0082803  21.1056137  93.4041595
   6.0683453  32.5659633  30.2263013   6.4939594  33.3893085  30.4654447
   6.6762424  32.1510196  29.6143285  12.6891029  69.8317528  85.0459480
  12.6689589  70.7007742  84.6451664  12.2517908  69.2648172  84.4106770
  17.7452672  47.4995232 107.7642155  17.6645720  47.0964527 108.6286449
  18.6790419  47.4452591 107.5608635  34.0703058  62.2897291  12.5521032
  33.5491371  61.5150070  12.7628747  33.5575891  62.7497435  11.8874685
  97.3238391  34.6046329   0.3650037  96.4768810  34.5490074   0.8074991
  97.7831406  35.3136063   0.8151475   8.9434201  44.7598743  71.1768484
   8.4870970  44.3290615  70.4540777   8.9036757  44.1286850  71.8953609
 124.3788797  56.8508959   0.6874029 124.7471067  56.4103079  -0.0784453
 123.4640679  57.0103455   0.4551832   5.1831442  64.4847441 104.5982170
   5.5222511  63.7353420 104.1086864   5.6010962  65.2445364 104.1929245
  29.7659397  35.2166390  15.1558057  30.3030562  34.4512033  15.3603689
  29.0126157  34.8614526  14.6840230  33.4813547  48.7307692  98.8091087
  33.8831115  49.5430279  98.5007858  32.5797606  48.9741898  99.0191269
 117.9602028  31.2396717   0.8517782 117.9101372  31.4413977  -0.0825843
 117.1230120  30.8208346   1.0515729   2.2786385  62.6416349  87.9076195
   2.8525963  61.8778753  87.8486824   1.9502845  62.7637959  87.0168400
 107.8239650  41.1166954  93.9885902 107.9867477  40.3685617  93.4141159
 107.2021419  41.6597843  93.5042191   8.4216231  31.8228841  43.7417451
   9.3337172  31.5486264  43.6463586   8.4461343  32.5079966  44.4097654
 122.9464055  78.8683319  64.0317440 123.1020144  79.3026066  64.8704481
 121.9935373  78.8019514  63.9695549  23.3195114  44.7589493   8.0001298
  23.8227034  45.5187130   8.2930223  23.7143922  44.5188093   7.1618978
 109.3113465  91.4937592 103.2123661 109.4525558  92.4399662 103.2436848
 109.1939086  91.2997627 102.2824192  19.2820680  59.6227407  91.1549854
  18.8876784  60.4126263  90.7851696  19.2599893  58.9867163  90.4399872
   1.7626753  82.5342846  83.6912537   2.4001397  82.9339027  84.2830086
   1.9544247  82.9202938  82.8365898 120.0821782  42.7564383 109.1314316
 120.6910596  43.4922075 109.0671253 119.7481111  42.6435184 108.2415581
 115.8876229  52.3226547 108.5607815 116.5886796  52.8685999 108.9167309
 115.1137835  52.5647449 109.0695000  45.6287527  44.3375111   3.0278245
  46.3477278  44.4775200   2.4116174  45.2252388  45.2000380   3.1250516
   2.7520415  57.7141237 101.1922359   3.4391415  58.1116962 100.6573963
   1.9350517  58.0282021 100.8047962  26.0471082  24.2878628  66.1808395
  26.5530062  24.9786234  66.6088009  25.2122998  24.7023869  65.9629011
   9.4314647  49.7878313  10.6874410   8.6667341  49.9829197  11.2290708
   9.3221599  48.8694859  10.4406110   1.3474509  16.2468874 103.9737129
   1.3385488  16.8410933 103.2233334   1.3027944  16.8235445 104.7364140
  19.9422204 144.5202059  74.8294830  19.8390901 144.1369755  75.7005358
  19.7010803 143.8158531  74.2278433 117.4464340  20.4656839  70.7698774
 117.7022112  20.9626579  71.5469408 116.7049564  19.9338639  71.0590363
  27.2045445  20.6764674   3.3103315  26.4272714  21.2252855   3.2060567
  27.9301882  21.2978220   3.3702508  18.1778860  75.0307703   0.1658193
  18.2839942  74.1931820   0.6168405  19.0616107  75.2627754  -0.1195487
   5.5016088  38.2314849 101.2500286   5.2127630  38.5101438 102.1190166
   6.4309698  38.4589601 101.2221718  23.6723208  70.6249905  13.7448160
  24.1775441  69.8359585  13.5488263  22.7843046  70.4195595  13.4524862
  13.0711746  72.4141455  80.7623482  13.8354158  72.1107292  81.2523556
  13.1847143  72.0427942  79.8874521 118.2567770  73.6081600  66.5030384
 117.6561279  74.2507982  66.1255836 117.8087569  72.7692080  66.3950062
  27.0288777  57.1580076  15.3527395  27.7756882  57.5445223  15.8100263
  27.0458984  56.2345648  15.6041185  20.9693956  25.1136923   0.1333085
  20.5270815  25.1020002  -0.7154902  20.3429961  24.7119713   0.7353631
 124.5961284  65.0456429 100.6665325 124.3811598  64.4149876  99.9792957
 124.9241340  65.8112955 100.1949215  37.7812696 142.1652750  50.3313637
  36.9015670 141.9547100  50.6444359  38.3636212 141.8460388  51.0207033
 119.8046011  54.7121525  95.0083637 120.1566250  54.5341539  95.8805084
 118.8842470  54.4551992  95.0645351  16.1063707  61.2770414 108.7792683
  16.8619788  60.9944105 109.2944431  15.3655720  60.8083010 109.1636181
  16.1306262  26.7534709 102.9351139  16.7321956  26.0922313 102.5929070
  16.0204053  27.3731399 102.2139359  19.3552566  61.5481615   9.8959104
  19.8171580  60.7220411   9.7530690  19.9425781  62.0574999  10.4543535
  12.5982773  50.5635023  98.2747269  13.4714794  50.8611202  98.0194378
  12.7406359  50.0665283  99.0803242  36.3408375  80.8967590   3.6619989
  36.2750864  81.6918659   4.1908685  36.2810874  80.1819229   4.2957727
  14.0051711  42.9124403  95.0178432  14.0618622  42.8949594  94.0624809
  13.8307095  42.0040560  95.2640820 120.5111761  60.6675863 102.7328014
 121.0266030  59.8704433 102.8557777 120.5398301  61.1049938 103.5837269
 124.7055976  23.3693647 102.3506927 125.1822379  22.5587463 102.1719742
 123.8297166  23.2152176 101.9967175  10.0466490  40.1430273  24.1777555
  10.6278598  40.5708361  23.5489408   9.2063135  40.5881405  24.0684549
  23.5675526  49.2463160   3.7196580  24.0213370  48.4836388   3.3610097
  24.2480588  49.9148798   3.7981931  11.7578650   0.6469100  90.1859093
  11.5790439   1.2165365  89.4377232  12.0910370   1.2369874  90.8619595
  90.1536340  32.4696922  12.9930250  90.7496995  32.4712038  13.7419835
  89.3865914  31.9852877  13.2983533 105.7749791  37.4414349  73.8559198
 106.1467130  37.1310973  73.0302429 106.5083272  37.8605485  74.3062210
  24.4421148  62.7950287 106.4575386  24.2292023  62.1218252 107.1038342
  25.3937149  62.8844357 106.5094280  26.8294024  59.2838717  13.2321969
  26.6137767  58.5552788  12.6500551  26.8856978  58.8872766  14.1015474
 104.6073408  41.3887072 104.1785622 105.2514393  40.9565973 104.7395039
 104.9714953  42.2601604 104.0230274  32.6573968  25.5867076 102.4535656
  32.4706674  25.7631588 101.5314865  31.9940162  24.9478102 102.7142811
  32.5446224  39.0248585 105.4367447  31.9478869  39.6437550 105.0158978
  32.1755242  38.1640983 105.2390289  15.8194196 143.6819548  15.3231088
  15.6423891 143.1656427  14.5367757  16.7685115 143.6291484  15.4356710
 101.6865510  80.6021976  52.6555014 101.2095279  79.8779774  53.0606937
 101.2872524  80.6980133  51.7908525   5.5455095  29.6251488  83.4748745
   4.9915710  29.4512272  84.2358780   4.9830309  29.4420242  82.7223301
  28.0535722  52.0158672  76.4073896  27.6624846  51.8291569  77.2608662
  28.2792234  52.9453087  76.4455032  41.6410732  67.3629665  91.2509918
  42.4487495  67.2665930  90.7464027  41.9344187  67.4532843  92.1576405
  12.2259974  34.7753859  14.9758378  12.7205014  34.1835332  15.5427591
  12.6686990  34.7213459  14.1288797  34.0950561  92.0704460  65.0072670
  34.0859890  91.1284828  64.8374081  34.8087811  92.4048996  64.4641495
  21.3189363   3.9996988  90.0045300  20.8026314   3.3145601  89.5799732
  21.6219950   3.6005849  90.8200645 124.1373700  68.8945532  79.2041111
 123.2760801  68.4773397  79.1855812 124.7152528  68.2341099  79.5863390
  12.3138297  24.3871617  75.7588291  12.9967439  23.7855411  76.0553360
  12.4154258  25.1584291  76.3165569 122.6423258  18.1483734  30.2749864
 122.1961934  17.7380121  29.5341817 123.2463132  18.7736273  29.8743764
  37.8470874  62.9033327  72.9626226  37.5779653  62.6213026  72.0884037
  37.7050996  62.1355247  73.5162830 124.2354904  76.6390228   0.4482595
 124.3688416  75.9564734   1.1059610 124.7580403  77.3777723   0.7603875
  36.8853474  11.9296622  70.3624582  37.0794129  11.6467702  69.4688463
  37.6827407  11.7334700  70.8542967 124.1307323  26.7629099   2.7078382
 124.5099225  27.1871424   3.4775678 124.3334021  27.3551941   1.9837133
 122.4954355  50.4262304  38.1090331 122.2161446  51.3414669  38.0850053
 122.4628200  50.1418066  37.1956491  18.9608979  47.2492695  88.1008434
  19.1313231  46.5895891  88.7731647  19.6573043  47.8955317  88.2174206
  23.2377815  62.9634666  91.4989758  22.8598952  63.8406610  91.4360142
  23.2567191  62.6454782  90.5963326  28.5620427  21.3698530  60.4054880
  29.0009236  22.2056818  60.5636215  27.6438713  21.5375090  60.6178188
  21.4316177  40.1971531   4.0139142  20.5199647  39.9770212   4.2053834
  21.6474247  40.8888865   4.6393434 119.7372318  28.5138011  65.5904150
 120.0337110  29.2193699  66.1653090 120.5143136  27.9710555  65.4569864
 114.5923740   6.3650340  70.1232004 115.3552133   6.4670318  69.5540762
 113.8700814   6.1763936  69.5240879   1.1077294  13.4388423  69.8837280
   1.2063462  14.1896713  69.2982674   1.9761969  13.3190465  70.2679729
   0.8458018  72.2411442 108.6965847  -0.0729398  72.1551228 108.9510345
   0.8294052  72.2505713 107.7395725  41.6402578  23.3122087  32.4955869
  41.1579132  23.7776327  33.1789279  41.1456108  22.5037527  32.3615766
  22.9008675  27.0752978   0.9864179  22.0729399  26.5958619   0.9563104
  22.8722644  27.6508784   0.2221433  14.1193640  49.5989895 104.8256207
  14.4267714  49.1228867 105.5970287  13.2312489  49.8746872 105.0524998
   5.7800782  57.4750757 103.4074688   5.2577370  58.2759285 103.3623695
   5.2257138  56.8538189 103.8796329  18.6407828  59.3760872  80.9237194
  17.9878163  59.8967886  81.3914108  18.1555188  58.6163950  80.6018257
 119.3646610  48.1432247  89.6415997 119.5401908  48.7991524  88.9669323
 119.9640766  47.4249601  89.4390583  32.5442719  55.5874395  72.4408817
  32.4251246  56.4079380  72.9192305  33.4350657  55.3115320  72.6567411
  37.5295138  56.7208433  74.2885017  36.7919302  57.0779705  73.7938643
  38.3044195  57.0241594  73.8154793  27.5317121  30.8674073  79.0590620
  26.8113828  30.7993531  79.6857405  28.2280207  31.3126230  79.5419359
 119.6338446  29.9263787  76.4645624 120.1611961  30.5384040  75.9511852
 119.6328134  29.1200280  75.9487820  18.6133575  50.8501005  60.9264994
  17.8752255  50.2895880  61.1657047  19.3502760  50.2470541  60.8289576
   4.4910976  42.9156494  52.8264141   4.8733702  42.0472336  52.7001095
   3.6722556  42.8912115  52.3313046   6.9250852  48.1299925  56.7174339
   7.2936118  48.1094503  55.8342600   7.6879030  48.1197262  57.2955656
  35.6476378  81.5991306  27.1149293  36.2592912  81.9948387  27.7358476
  36.1895108  81.0156345  26.5837709  12.7080953  47.5157213   6.7333070
  13.3027184  47.2649002   6.0263768  12.2428107  48.2806873   6.3948289
   7.5814813  44.8867512  52.4258375   6.9066423  45.3264475  52.9430294
   7.1082938  44.5142794  51.6817999  16.6070461  46.5584946 105.4367733
  16.5474713  45.6315422 105.6679440  17.1472931  46.9432259 106.1269569
  22.2482991  66.5887499   1.3266889  22.3050499  67.0428801   0.4859868
  22.5021911  65.6871510   1.1295072  13.7567151  53.4266043  82.8945827
  13.6983633  54.3526268  83.1297684  14.6963179  53.2479620  82.8562832
   0.3198595  69.4442940  68.7229395   0.9526641  70.1544428  68.8300943
   0.8189601  68.6487770  68.9080906  16.4761031  33.3661342  62.3582506
  15.5849755  33.1689596  62.6467752  16.4357030  33.3141065  61.4033175
  31.5642142  34.7693610  78.9655018  30.6632018  34.9916267  79.2000389
  31.8018985  35.4093599  78.2945824  98.6217303  23.0207038  88.8292408
  98.7995238  23.9391088  89.0321064  97.7505893  22.8596449  89.1917419
  17.6044393  54.3884945  69.3596029  17.3789716  55.3027201  69.5316124
  17.8720212  54.0434504  70.2114105  24.9071598  17.0459485 108.5492516
  25.3925729  17.4484622 107.8291225  24.9133372  17.7071524 109.2413521
  27.2463250  30.7172990  39.2024827  27.1460605  31.5220332  38.6939740
  28.0703568  30.3402638  38.8941884 120.8908496  30.6571674  50.5727768
 121.0769797  30.0407195  51.2809992 121.6157082  30.5420065  49.9583244
 110.4460008  55.8764839  75.4849005 111.3400061  56.1903429  75.3489733
 109.9569959  56.2138796  74.7343874  12.5709128  47.1574783 102.3306847
  13.1181717  47.9271173 102.1744823  11.8082964  47.4969292 102.7991009
  29.7811174  19.6096063  79.9467754  29.4037771  20.4849815  79.8598146
  29.1069770  19.1019928  80.3985500   6.2379938  30.2599525   1.8905488
   7.0551795  30.2395344   2.3885671   5.5557227  30.1028752   2.5432912
  25.1215434  42.9796696 107.5444698  25.0618410  42.0288038 107.4522018
  24.3995380  43.3175278 107.0145702 107.9635817  25.1487899  21.2196771
 107.1444637  24.7646427  21.5322629 107.7863044  26.0884380  21.1764661
  26.7933393  38.5915089  77.0014906  26.0052395  38.7801743  76.4920473
  26.4665008  38.2057381  77.8142595   2.9298207  47.2524881   0.3709737
   3.0803558  48.1613827   0.6307355   3.8065180  46.8740606   0.3044359
 114.9361319  43.4047318  98.2024574 114.3652398  44.1508293  98.3858967
 115.2936310  43.5847664  97.3329735   5.3290796  76.5731907  83.7932587
   5.2097154  76.6513443  84.7397614   4.7062773  75.8962917  83.5283852
   2.2724308  42.0820951  74.2763758   3.2147950  42.1188545  74.1125774
   1.8770926  42.0962048  73.4047461  19.2151892  19.7450089  80.1655960
  20.1096988  20.0797653  80.1021767  18.7103164  20.2958965  79.5673895
  12.5088668 143.0741836  62.2774744  11.7261791 143.4103907  61.8409014
  12.7560914 142.3037429  61.7660713   2.6617092  63.1053114  10.9419767
   2.5919724  62.8150511  11.8514386   1.9540782  63.7415695  10.8387033
  22.5130081  24.0629411  86.4737701  22.7351356  24.9412036  86.7828751
  23.0329728  23.9504623  85.6780148  15.8312571  40.8841419  70.8514261
  16.0900176  39.9626327  70.8416843  16.4298594  41.2944221  71.4755917
  34.4409919   8.7308729  82.7570820  33.8362765   7.9904610  82.7086830
  34.3226647   9.0793902  83.6406898   7.2117466  46.8337107  77.6765108
   7.4027175  47.5736094  78.2529736   8.0563658  46.6107416  77.2851849
 100.0882143  22.3429036  85.3665066 100.6755132  22.7773881  84.7480106
  99.2870373  22.8662038  85.3440285 113.7810106  57.7758455  49.9527740
 114.7046441  57.8797626  49.7240019 113.6389310  58.3997345  50.6646776
 116.2285472  49.3963861  97.3092175 116.8421221  50.0390911  97.6651573
 115.9437603  48.8901854  98.0700684   1.3391739  62.2766972  92.7794075
   1.1978126  63.2204723  92.7049923   0.6715298  61.9826365  93.3990955
 124.4177862  66.4312458 102.9511356 124.8381419  65.9066629 102.2697067
 123.5212451  66.0982800 102.9908562  89.2422027  60.4982948  94.1294289
  88.7576026  60.1815128  93.3671665  88.6192507  60.4332447  94.8532581
  24.5483828  22.4925542  42.4881792  24.9537969  21.7284751  42.8981209
  24.0774250  22.1380901  41.7340040  35.9215355  54.7958231  93.9803982
  36.5971589  54.1489124  94.1835594  35.8198547  55.2979565  94.7889423
  11.0785329  26.5791750  44.5869637  11.3965285  26.1155105  43.8122845
  10.3852141  27.1503854  44.2564249  22.4149156  46.2823296  98.0079079
  22.2597718  45.3577137  97.8149033  21.8292451  46.4757633  98.7398911
   8.1685877  46.7383480 109.0147400   8.8543010  47.0953465 108.4503174
   8.5180795  46.8267965 109.9014568 105.7472617  46.4524317   8.0834142
 105.9255905  45.5699015   8.4083310 106.5706856  46.7310667   7.6826993
   1.1922501  40.8284235  76.4992428   1.2896998  39.9936390  76.0411263
   1.5400869  41.4786053  75.8889151   3.5864201  63.7251329  80.1480770
   3.4492072  63.5060453  81.0697079   4.3227613  63.1761932  79.8784542
 116.7740775  68.3341885   8.0503599 115.8493394  68.4635067   7.8397218
 117.0568002  69.1737223   8.4129659 104.4094963  63.6880541  52.8648520
 104.9284381  63.4496593  52.0966768 105.0213940  64.1590834  53.4304905
   4.1358200  24.9030423 101.7793274   4.7656435  24.9496388 102.4986267
   4.3758291  25.6289554 101.2034130   8.6398721  21.0240364  92.0829201
   9.5159137  20.8193016  92.4098206   8.1646937  20.1947856  92.1356487
 104.4532794  69.2045164   3.0304948 103.9506525  69.5979977   3.7437764
 105.3116733  69.6249151   3.0820504   5.8733618  62.6554966  47.4364853
   5.7222551  62.5510406  46.4970779   5.0977689  63.1180573  47.7538586
  22.7329564  21.3232780  52.6476955  22.6776147  21.1913300  51.7012501
  23.3740187  20.6765223  52.9426098  40.5673742  26.2791657  98.4185123
  41.1359835  26.1402988  99.1759014  40.6602764  27.2102427  98.2167816
  22.5427127  35.7099724 105.2327824  23.4471440  35.7765698 104.9265099
  22.4301791  36.4630842 105.8127689  15.3235281  33.6387658  52.6886034
  14.6447909  33.5078764  53.3507347  15.1236880  34.4933081  52.3064327
 118.4987897  55.1451349  71.7618322 118.4565384  55.9048796  71.1811113
 118.3772052  55.5074263  72.6394367 115.6426341  44.7071838  36.4293146
 116.0890252  44.9985981  35.6343031 115.3538520  45.5159855  36.8520093
  21.2246466  52.7681875  68.5668707  21.9327235  53.0756617  69.1328382
  21.0607600  53.4984207  67.9701090  30.5851579  51.7138004  67.4498510
  31.1976552  50.9782267  67.4536085  29.8533177  51.4188528  67.9917431
  11.8034983  65.5100965   2.3510495  11.7405152  64.8353577   3.0270616
  12.6059270  65.2974892   1.8744603  33.0381417  54.7448683   2.7218286
  33.8347673  54.3132782   3.0306188  33.3481264  55.4036474   2.1004239
 119.2920429  23.9696527  75.0538158 118.5101695  23.6933517  74.5757341
 119.2141569  23.5431767  75.9072113   7.7830744  42.8242159  72.6099062
   7.7126771  42.8145647  73.5644674   7.8228247  41.9001770  72.3633242
  29.5157170  32.6630116  48.9799452  29.0778089  32.8531957  48.1503057
  30.2388000  32.0828509  48.7416220  99.8967857  89.3754387 102.8981304
  99.2864651  90.1122475 102.9274178 100.1636476  89.3218040 101.9804573
   6.9295961  65.6450796  14.9671022   6.1829931  66.2262964  15.1120321
   7.6963586  66.2023640  15.1003019  14.5918906  27.7580547  70.5587387
  14.0589046  26.9633603  70.5836248  14.7715676  27.9548335  71.4780998
  18.3407521  49.5071220  14.8941366  18.2226408  49.3542099  13.9566366
  18.6375058  48.6648321  15.2386800  20.5085826  76.0957336 108.5192585
  20.0003695  76.9043589 108.4553909  21.1631346  76.2768698 109.1937828
  39.8098350  27.4940157  76.7964220  40.3806734  27.0059705  77.3898745
  39.2256498  26.8316555  76.4273119  20.7862091  35.4675841  69.7395611
  20.5399489  34.5626497  69.5480347  21.4340901  35.6863809  69.0697765
 112.1766169  44.2672443  71.2553215 112.6445038  44.4684315  72.0657778
 112.0990307  43.3131933  71.2540674  26.4565229  47.4541140  73.7658405
  26.3760853  48.4008265  73.8819981  26.9702792  47.3539257  72.9644346
  37.2966480  41.8201971   1.9842283  36.4652348  42.2933674   1.9511834
  37.6604891  42.0349550   2.8431360   8.5486943  69.4587755  15.3192369
   8.3704907  68.5291052  15.4613248   8.0067647  69.6941566  14.5661489
   8.6941326  27.7622986  51.5620613   9.6317762  27.6193619  51.6910028
   8.3593029  26.9122386  51.2765455  13.5848749  47.1024656   9.9223939
  13.5337257  47.5758171   9.0920011  14.4506073  46.6942501   9.9124566
 115.6758923  19.9759662  45.1687098 115.2265734  20.8027840  45.3439665
 115.4818059  19.7878456  44.2504644  10.4856646  71.6832399 102.7336884
  10.2191067  70.8041859 103.0028343  10.2004445  71.7515564 101.8225288
  17.9428053  25.3116608 107.7488327  17.6606262  24.4343901 108.0076885
  17.5617397  25.4392242 106.8800735  70.4706163  63.2107639  94.3673038
  71.1463756  62.6234293  94.0287590  69.9479169  62.6624441  94.9524212
 116.0075534  58.5671139 101.8548775 116.5053094  58.6953163 102.6623631
 116.6156096  58.1184006 101.2673759  12.8506994  74.0077496 105.8895874
  12.9231548  74.9540186 106.0142994  13.3950830  73.8247061 105.1238346
 121.9221232  30.2657795  80.2980232 121.3576994  29.5308495  80.0581551
 121.3349307  31.0213804  80.3204155  34.2122197  43.7736368  97.8568935
  34.0595031  44.5617962  97.3356342  33.7665343  43.0773306  97.3744583
 108.4657711  48.0500078  82.3409557 108.0852742  47.2713614  81.9345474
 109.3934602  47.8376007  82.4434662 122.5808365  57.3603964 101.2782574
 123.1231136  58.1491232 101.2692833 122.3259347  57.2554016 102.1949005
   3.2858732  43.4552193  90.6740952   2.4429609  43.0278301  90.5222130
   3.6369944  43.6107349  89.7973061  47.0093632  48.6545992  16.0391084
  46.3312149  48.1609011  15.5780164  47.4421072  48.0059910  16.5943281
 103.3558626  51.2344694  68.6560106 103.4275383  51.4767790  67.7327633
 103.3175702  52.0704031  69.1207504  35.9054351  11.1163759  62.1803951
  36.6782045  11.5426624  62.5509882  36.2203407  10.7093525  61.3733006
  11.1455142  70.0613022  74.4821358  10.5089009  69.3464947  74.4833279
  11.8202388  69.7800922  73.8641596   2.1719950  42.5377083  62.7989483
   2.5329345  43.0538988  62.0781851   2.9301673  42.0935822  63.1786299
  28.1142497  54.1928720  78.0567217  27.5741649  54.1662407  78.8465548
  29.0095043  54.2879963  78.3818388 124.8015440  50.2467632  86.2473965
 124.1370559  50.9197712  86.0999298 124.8192558  49.7450209  85.4324341
  20.5370069  57.8736925 103.0629253  19.6373093  58.1944847 103.0007076
  21.0763860  58.6224747 102.8086948  31.0477901  39.7081614  82.1358681
  31.9451666  39.3920851  82.0307827  30.8465672  40.1384878  81.3048649
 122.5730539  43.0690002  22.9922962 123.1042380  43.8650703  23.0110264
 122.8437712  42.6191998  22.1919060  15.0995648  72.4056721  78.0333948
  15.7743549  72.5279522  77.3656130  15.4664016  71.7509174  78.6275005
  37.8325319  34.7171688  59.7063732  38.3508372  35.1138139  59.0061855
  38.1051612  35.1807380  60.4982138  57.7396679  56.2789249  75.9110022
  57.4168873  56.9875145  76.4677334  57.1065569  55.5713940  76.0326576
 106.0237259  41.7121792  69.3330240 106.2985153  41.0037518  69.9151325
 106.7936713  42.2764874  69.2624855  30.2188349  67.2175264  80.8910275
  30.9007072  67.4809361  80.2730465  30.6618547  67.1899509  81.7390823
  26.2473202  58.5234261  99.5993614  26.0511255  58.0882645  98.7696838
  25.4180193  58.9225054  99.8624706  25.2393675  10.0144887  26.1036444
  24.6030498   9.5342219  26.6334319  25.8153582  10.4338408  26.7428732
  58.3762550  60.0105762  82.8510380  57.6167536  59.7164440  83.3539104
  58.9136696  60.4857779  83.4847641  15.7115757  52.2002220  78.9917517
  16.2724245  52.9630375  79.1324425  15.0472057  52.5023699  78.3724356
  13.7347400  39.6415854  95.8399868  13.9746881  39.4200420  94.9402237
  12.7788663  39.6904683  95.8278465  17.7988017  28.5718322  87.7002430
  17.1448314  27.8827477  87.8173637  18.5011482  28.1533670  87.2024250
  29.2099237  46.6365767  64.8839188  29.1883183  45.8492899  64.3399143
  29.5477843  46.3356543  65.7274389  36.1403537  59.8084068  61.7381048
  36.3125825  59.1367865  61.0781908  36.0044408  60.6105042  61.2337208
  80.0595474  77.7967930  -0.0662764  79.9794912  76.8437290  -0.1049479
  80.1232338  77.9940748   0.8682100  30.7943892  36.0910583  63.7141657
  30.9910297  35.8111048  64.6081448  29.8459697  36.2202144  63.7067795
  16.5508270  53.4252834  83.0554581  17.3281467  53.4963655  82.5014210
  16.3601339  54.3260193  83.3172703  23.8307667  40.5080795  73.9200878
  24.1854095  41.1850262  74.4964552  24.2120290  40.6992722  73.0631638
   9.0342641  20.8714557 100.0133514   9.4305634  20.4603934  99.2451000
   8.1467795  20.5142498 100.0450897  35.2601576  24.8221326   3.5445253
  34.6653342  24.2500067   4.0293924  35.2392459  24.4854355   2.6487390
   3.3695292  19.4997537  93.5243702   2.7893502  19.6523941  92.7785015
   3.1319404  18.6271524  93.8379765  13.0415452  57.3486567  60.4367828
  13.9816463  57.5227070  60.3904438  12.9737747  56.5269661  60.9230614
  23.2614923  23.7453008 109.3293571  22.9561853  23.0598354 108.7350845
  22.4597645  24.1537929 109.6558571  22.8186274  50.6462288  67.3012495
  22.3515654  51.3347912  67.7744961  23.6423302  51.0548449  67.0352125
 109.9624259  42.1707439   3.4950963 110.3686590  41.6213989   4.1654912
 110.3813917  43.0250502   3.5992948  23.9826703  64.2394638  87.3406506
  24.6624064  64.3876219  87.9981041  24.4092512  63.7041712  86.6715336
 118.3813972  42.7114773  81.5900517 117.8308154  42.7659369  80.8089447
 118.5963804  43.6213207  81.7954540  98.8041539  15.4067528  75.8789110
  99.0717930  16.2513578  75.5166340  98.2674784  15.6314027  76.6390085
   0.4318738  68.0390167  85.5772209  -0.0579610  68.8114071  85.8595467
   0.6628326  68.2215834  84.6664238  23.6611843  59.0822124  94.7322464
  23.3765244  59.9367237  94.4081974  22.8612614  58.5571432  94.7578430
  58.7466049  76.6864109  86.1242485  58.9772797  77.5076771  86.5584564
  58.3967209  76.9547272  85.2746487  24.6797800  12.7050424  91.3769054
  23.7483454  12.9256046  91.3733482  25.1046014  13.4660244  91.7727184
  29.9867678  35.3722382  53.4445906  30.8532214  34.9811721  53.3325243
  29.3974042  34.7901082  52.9649973  25.6089306  58.4854412  78.5210419
  25.8842540  58.5310888  77.6054287  25.7789493  59.3618870  78.8662481
  33.5255408   1.3322285 102.8499794  32.8494859   0.9741700 102.2746754
  33.2327604   2.2240543 103.0374813  13.0746591  75.1723814   1.7300931
  12.6667881  75.8970070   2.2042219  13.9034009  75.5305529   1.4120809
 115.3259773  46.8170023  99.4109726 114.4617481  46.4271355  99.2792797
 115.3473402  47.0436239 100.3407192   8.3735597  60.4722404 103.4377956
   8.4048998  59.5411348 103.6575508   8.3233654  60.9165287 104.2841530
  27.1899700  34.6069098  57.8415298  26.6157246  35.0704980  57.2319746
  27.3394632  35.2311778  58.5515833  53.2598972  56.9922018  76.2328959
  52.8647566  57.1878386  75.3832960  53.5929203  57.8347349  76.5418625
  24.3173456  52.9030561  96.1547375  23.9437246  52.0796919  96.4689255
  24.6581411  52.6949120  95.2848244  22.0058584  59.0662289  88.5576153
  21.7858839  59.8313093  89.0891266  21.9041634  59.3650961  87.6539803
  50.7805967 138.3937568  -0.0712832  50.6807137 138.7459821   0.8131353
  50.9276199 139.1637618  -0.6205615  16.8730140  78.2148266  91.3648224
  17.6898348  78.5294485  91.7521763  16.3156641  78.9915752  91.3173485
  23.8648391  45.7011175  80.6034756  24.7849512  45.5585146  80.3814602
  23.5708833  44.8616028  80.9570885  31.9697404  50.4436445  60.2554131
  31.3410378  50.4577065  60.9770536  31.4305711  50.5039549  59.4668150
   2.1218246 139.3181772  80.3834343   2.5424975 139.3140871  81.2432289
   1.6937914 138.4642077  80.3221512   1.1955184  15.5401456  63.9958048
   0.7150678  14.7322428  63.8149929   1.2669080  15.9719777  63.1445360
  34.4113994  53.1622982  73.3158541  33.4836006  53.1598663  73.5512495
  34.4217467  52.9587555  72.3806000  47.0506144  50.4006386  86.6697788
  46.8047190  50.7207298  87.5377083  47.9285574  50.0380754  86.7880821
 122.2906827  26.8391180  96.6979408 121.9494498  26.9712567  97.5824356
 122.9268990  26.1299229  96.7901421  16.0666466  23.9290357  44.2710161
  15.9814930  24.4508505  45.0689459  15.1763892  23.6317968  44.0830755
  33.6021066  28.4876323  87.4521732  33.4563184  27.8589535  88.1590939
  34.2642999  29.0865970  87.7970982   1.0979747  60.6779480  61.8068647
   1.6394454  60.4415751  61.0537577   1.2858965  60.0023890  62.4584293
  18.6505330  53.4896708  35.1480031  19.2775178  53.3103228  35.8486867
  17.8494954  53.0439472  35.4235029  42.3906708  33.0951786  79.1518354
  42.5991535  32.4449444  78.4810400  42.4889088  32.6250815  79.9798346
  23.3019829  51.0354185 103.5803032  23.7585974  50.1953459 103.6251640
  23.9996743  51.6896105 103.6189461 120.3675119  68.8413382  64.3462801
 119.6799356  68.5985708  64.9663877 121.1111072  69.0863371  64.8969793
  91.0086150  48.7973690  31.6776323  90.8153672  48.3173037  30.8723831
  91.2727494  49.6679211  31.3799572  38.2098103  11.3787103  96.2238503
  37.3238087  11.7395461  96.1917210  38.6986899  11.8860638  95.5759144
  32.1509671  68.6815691  68.1508541  31.8013787  68.9724588  67.3085928
  31.4985204  68.0635595  68.4804106  30.5479765  56.7041683  18.0133498
  29.9466944  56.3808870  18.6843026  31.3661504  56.8662739  18.4829748
 112.3391504  28.3806276  88.9170837 111.5511984  28.8310814  89.2211533
 112.1364338  27.4503732  89.0158939  10.7928729  40.6399727  59.7862339
  11.0704923  41.5532207  59.7145748  10.1265824  40.6454039  60.4734468
  30.1622677  12.2021890  31.2903810  30.3889322  12.6905656  30.4989624
  30.6212974  11.3675022  31.1964536   5.8567578  25.7977629  55.8899164
   6.7046130  25.9119201  55.4605675   5.7359004  26.5996528  56.3984394
   2.2228612  23.2615066  55.3804159   2.1846253  22.3264027  55.5812883
   1.3865717  23.6077619  55.6917953  13.6498916  64.8809528  94.3952751
  14.5790279  64.7088289  94.2426014  13.4775472  64.5135975  95.2622128
   5.2715576  47.8820610  95.7835960   5.8907849  48.5541391  95.4988194
   5.7749212  47.3311806  96.3830853 114.6367592  66.2643814  56.7237854
 114.9263937  65.9643173  55.8622169 113.7242705  66.5223837  56.5932751
 113.9584524  55.1286030  59.9921799 114.3972511  55.3974295  59.1850758
 113.0375833  55.0405502  59.7462559 116.0655326  40.3356075  63.3472395
 115.5146510  41.0497332  63.6678505 115.4790205  39.5802212  63.3069468
 102.6826353  54.1348076  40.2732801 102.9630417  54.9003410  40.7748413
 102.1038551  54.4894934  39.5984149  12.3698652  44.4791031  62.4613142
  11.9938815  43.6963272  62.8639698  12.5574422  45.0608206  63.1979609
   4.5632041  51.7844725  85.1233578   5.5167067  51.7679930  85.2057743
   4.2994016  50.8684731  85.2104473 106.0627932  43.6615133  39.4978213
 105.9510273  43.6979294  40.4477739 105.9585804  42.7353382  39.2797232
   2.8888676  51.5479994  71.8174028   1.9814172  51.4386177  71.5331507
   2.9154998  52.4242544  72.2017193   1.7478552  41.5159369  45.7994223
   2.4614705  41.7754745  45.2166462   1.0121424  41.3391018  45.2131701
  12.5109172  21.1350155  67.2179174  12.5831342  20.4960132  66.5089083
  11.7498422  21.6666031  66.9846535   9.5257670   6.9890368  58.8870096
   9.5063615   7.6968926  58.2429647  10.4571807   6.8248034  59.0344095
 118.8950611  85.8982944  57.7755451 118.4946544  85.1758480  58.2592583
 118.3389766  86.0073185  57.0041084 107.3749906  12.7260077  78.6745596
 106.9020755  11.9784582  78.3088303 107.1608598  12.7117825  79.6073914
  34.3546581  48.9938736  60.0794506  33.6066389  49.5635605  60.2587891
  34.2258835  48.2408142  60.6561232  39.2861772  15.8222175   6.6596580
  39.3795943  16.5711725   7.2483617  38.7518787  16.1510134   5.9367114
  90.9589738  45.0267982  90.9037018  90.2709145  44.6175194  91.4283943
  90.9269304  44.5660305  90.0653172  15.7845569  55.9161186  73.8991404
  16.6103196  55.4395294  73.8142252  15.7555032  56.1831284  74.8178864
 104.5612568   0.1289077  76.8059921 105.3736097  -0.1214596  76.3659573
 104.8258562   0.8030058  77.4319410  17.4229980  42.0366907  73.0478621
  18.2193542  41.9156456  72.5307560  17.7371609  42.1933794  73.9383554
  34.7282791  40.5617714  59.9280024  34.4256258  41.4413548  60.1537609
  35.6787443  40.6472635  59.8535872  13.7373734  38.1649327  66.4211559
  13.9265847  38.3301306  65.4975033  14.2316663  38.8367653  66.8907833
   1.9583128  32.7309918  56.9025946   2.8597328  32.7776289  57.2211838
   1.9597310  33.2558680  56.1021376  18.8063765  77.6188612  61.1984634
  18.5280228  78.5345745  61.1834955  19.5338142  77.5997877  61.8203163
  40.7205486  23.2486391  55.7728386  39.9951386  22.6290727  55.6944180
  40.4510641  23.8458753  56.4706326 113.0102212  53.6388731 106.6493511
 113.7698144  53.9998770 106.1922646 112.3526818  53.5196352 105.9640312
  18.2629871  35.5538440   5.5899946  18.5042214  34.6456218   5.7721177
  19.0633881  36.0520506   5.7554761  35.4785705  49.0075493  34.0222669
  36.1595845  48.5635471  33.5169768  35.7709932  48.9381838  34.9310613
  23.7971830  24.6595597  28.7702131  24.7426844  24.6775365  28.6221099
  23.5697150  23.7299347  28.7531829 115.5365050  37.6655388  66.4120340
 115.3594644  36.7439866  66.2232780 115.7709224  37.6792121  67.3399878
 105.9877760  29.9632192  75.6418610 105.7370657  30.2345848  74.7588348
 105.2101762  29.5249987  75.9876013  47.3902416   3.7076053  74.4413280
  48.0340528   3.0121022  74.5755529  47.8424120   4.5075414  74.7094250
  31.0350323  82.5627041 100.4145813  30.5268383  83.3730412 100.3782558
  31.1763144  82.3272800  99.4976044   1.5834290  16.4454389  27.0780563
   1.9252005  15.7899880  26.4699388   1.5316886  17.2487533  26.5601349
  19.8061693  62.2301197  82.9775620  19.1504896  62.2593451  82.2808075
  20.6410050  62.1436024  82.5173473  11.4689088  54.9620771  40.8198643
  12.0359373  55.1399994  40.0694942  12.0707595  54.8709059  41.5585756
   0.1724963  31.1213827  77.1433592   1.0299623  30.7433629  76.9482088
  -0.1610952  30.5957961  77.8704834 113.4482462  24.5062399  85.3713512
 113.1958074  24.6963620  84.4678307 112.8619868  23.7988949  85.6400490
  15.0557470 140.9559757  63.0593491  14.5357287 140.7548405  63.8373995
  15.7058692 141.5895201  63.3629894  19.0029395  37.4365425  62.8554678
  18.5721052  37.2249126  62.0273209  18.2980442  37.7603650  63.4162617
  32.8333569  52.9833460  25.1039839  33.7886810  52.9963875  25.0455403
  32.5387287  52.9161406  24.1957378  97.8994102  26.6582203   0.6263868
  97.7010316  27.3808265   0.0308076  98.7056941  26.2763834   0.2794877
 121.5849695  26.3752866 106.6281796 122.1231527  26.9839644 107.1342468
 121.9854001  26.3673973 105.7588005 109.0948409  30.5538392  72.5467777
 108.7522573  30.9819698  73.3313608 108.4363622  30.7252264  71.8735313
   1.2807988  33.2631111 101.3443470   1.8836768  33.3547831 102.0821667
   1.4162070  34.0553808 100.8245373  25.6903481  57.7933121  31.5392780
  26.6164565  57.6535511  31.3417411  25.4037070  56.9714355  31.9375110
 114.8120952  68.5639143  47.7315140 114.4367058  69.4345951  47.8627920
 115.3733421  68.4274960  48.4948111  24.4525743  38.0838609  74.9136925
  24.1989017  38.1052637  75.8364201  24.0918064  38.8912368  74.5473289
  22.7034092  16.8948483  46.4837790  22.5395536  16.9240510  47.4263954
  23.1849480  17.7012694  46.2992859 113.9119870  28.3472681  31.2194204
 113.7903971  28.2334495  30.2768207 114.4902188  27.6284933  31.4748454
  16.5975690  46.8226433  59.7139072  17.4954093  46.5931177  59.9535608
  16.0591590  46.1488628  60.1290751 108.1256146  62.3552990  76.5779877
 107.8139038  62.9033995  77.2981644 108.7425692  61.7491102  76.9880247
  25.1967168  36.0356617  66.3738728  24.4234681  36.5391922  66.1193705
  25.1467371  35.9861016  67.3284817  24.8316908  68.9551163  54.0862465
  25.1866627  68.3561850  54.7431374  24.1887403  68.4318924  53.6076164
  57.3908043  39.9541473  22.0765535  57.8594923  39.2226028  22.4783078
  57.7390432  40.7309771  22.5141565   8.7896013  33.6219907  57.5416517
   8.3685941  34.4778371  57.4609613   9.6127242  33.8018537  57.9959106
  37.2669458  64.4900513  34.2326474  37.7681804  64.3052578  35.0269079
  37.9101276  64.8498058  33.6218071  19.2555845  85.2405643  93.6249733
  18.6607230  85.1554012  94.3700314  19.5422530  86.1534691  93.6504936
 105.5848843   5.8325750  92.5874519 105.4871065   6.0560495  93.5130501
 104.9081594   6.3446283  92.1446514  34.0706706  38.7178254  57.3933315
  33.3804035  38.0562043  57.4382830  34.0343451  39.1598654  58.2415724
  27.3967481  38.8054037  80.6802845  28.0981684  38.3613420  80.2037907
  26.6032577  38.3277488  80.4385185  23.9081383  38.9532614   5.6354085
  23.8061047  39.9048495   5.6527845  23.5531712  38.6897779   4.7864095
 122.7754890  70.9120417  36.1398244 122.9708687  71.5478468  36.8281674
 122.0589641  70.3864574  36.4956117  14.0293884  61.7212057  54.7998857
  13.8943470  60.9312010  55.3232288  13.1610990  62.1194363  54.7389126
  16.9366145  19.0156698  92.4097252  16.3378322  19.1668212  91.6783905
  17.2779739  18.1337857  92.2614479  21.7793894  52.4400043  77.8983402
  21.4680529  52.9754400  78.6281395  21.7026210  53.0100393  77.1332264
 110.6186540 103.5737133  66.3161325 110.1160354 104.2259693  65.8280993
 110.5063826 103.8222408  67.2336674  15.7499993  29.6351337 107.6760960
  15.5800080  29.3025160 106.7947865  16.4926052  29.1180396 107.9881573
  11.1772883  11.4409351  56.7045784  12.0396316  11.1429584  56.9940662
  10.8280301  11.9259536  57.4522448  36.0623622  45.1437330  74.7853756
  35.6354547  46.0002947  74.7684574  36.9986391  45.3425217  74.7754097
 119.2623175  70.3169441  71.9200134 118.9949167  70.0793505  71.0321617
 118.7405158  69.7493553  72.4872780  13.2044888  13.8273454 103.6894035
  12.3772633  14.1809678 103.3624744  13.0435383  13.6612320 104.6182346
   4.3848789  31.1515856  60.3107071   3.8659582  31.9446397  60.4449368
   5.2261788  31.4686012  59.9821520  28.2585931  36.1337709  70.3701448
  28.9319468  35.4555774  70.3164577  27.6449060  35.8102989  71.0296774
   7.3997158  66.8300629  72.0941114   6.8325979  67.4585533  71.6473341
   8.0332363  67.3715973  72.5648785 111.1696882  64.4715214  62.7922106
 111.7651803  64.3031597  63.5224676 110.7972009  65.3329134  62.9806089
 106.2994761  51.9512272  22.3934865 106.8365533  51.4122820  21.8126917
 105.3981728  51.7481804  22.1431756 115.8656264  54.8869705  79.3433332
 116.3762612  55.6964159  79.3601465 114.9811114  55.1565933  79.5906544
 102.6676435  40.0304365  37.1495128 102.6474351  39.2906141  36.5424800
 102.6360030  40.8035469  36.5860128  31.6053319  54.0005207  65.8509302
  31.2299991  53.2816219  66.3594007  32.5323844  54.0039730  66.0892487
 122.7748871  17.8934503  63.4957504 122.7970410  17.2407508  62.7959490
 121.8943516  17.8201270  63.8638687 104.3369240  34.3244791  95.1518440
 103.6741990  34.9008226  94.7712421 103.8460893  33.5580087  95.4482174
 101.8356199  72.2489357  84.7450447 102.0181412  73.0127382  84.1977596
 100.8972926  72.3028898  84.9263287 106.8192560  69.3390417  52.2149038
 107.1103246  70.1701069  51.8396091 107.4610550  69.1471672  52.8986549
  13.6513758  40.2200794  60.5182505  13.6218321  39.6498704  61.2865067
  12.7488887  40.2399731  60.1998901  21.7040062  54.4056082  64.6269417
  21.7535901  53.4997892  64.3215418  22.5825715  54.5959234  64.9557829
  31.2781620  79.3315220  70.0059557  30.3565860  79.2128468  70.2358389
  31.4069438  80.2799797  70.0145674  25.6706524  33.7918782  93.1987000
  24.9678493  33.4981585  93.7783718  25.4106522  34.6746182  92.9352474
   9.4367319  30.6014013  95.0977421   8.7022442  31.0814524  94.7152328
   9.0655553  29.7553396  95.3480148   0.7042940  48.4598589  94.2250538
   1.4647034  49.0127707  94.4047642  -0.0488604  49.0231276  94.4031525
  17.7593637  49.8767328  70.5007505  16.9131947  49.6657467  70.1061440
  18.2502520  50.3056049  69.7998047 122.9372687  54.2095757  39.6921372
 123.3267022  54.1583490  40.5650330 122.4658883  55.0426531  39.6886849
  11.0483456  26.5199518  51.0707474  11.3802016  25.6302857  50.9499216
  11.8093407  27.0815325  50.9232807 120.2833325  79.5470095  45.0646877
 120.5528165  78.6540270  44.8497725 120.4631761  79.6326923  46.0009289
 124.3329219  33.6975479  92.2455883 124.6650870  33.5997868  93.1379700
 124.9188310  34.3370533  91.8406487  14.6587920  48.5043383  44.4014740
  14.0054941  47.8345251  44.6034193  14.2105532  49.3337297  44.5670843
   0.3689648  19.9804866  87.9566097   1.1665484  20.4498553  87.7120972
   0.4611084  19.1211402  87.5451946   9.5008260  12.3406005  29.2736769
  10.0699377  13.1069899  29.2030478   9.6427453  12.0180881  30.1636648
  17.4751139  63.3204079  26.8950653  16.8769538  63.8878632  27.3813128
  17.1168816  62.4402475  27.0100451  33.5230327  38.7299919  82.5794411
  34.3672299  38.5393405  82.1705151  33.7196732  39.4008851  83.2332516
 122.5018317  46.8513823  78.1417179 123.4521184  46.8496847  78.2565403
 122.1680713  47.3078156  78.9140558   4.6584019  51.8388653  16.1014211
   4.9631980  50.9366083  16.1976838   3.9368364  51.9158030  16.7256451
   5.1297444  56.1927319 107.9165745   5.6767184  55.6952429 108.5244846
   5.2421409  57.1047258 108.1846428   3.1217116  46.7895651   3.6404744
   2.5696892  46.3912106   2.9675618   3.6044040  47.4754477   3.1791726
  10.8055532  47.5283051  28.1291652  10.8727980  47.4442577  29.0802932
  11.3505185  48.2859612  27.9165483   0.5992095  55.8813286  55.7651854
   0.2700452  56.0255003  54.8779964   1.4765662  55.5198860  55.6393433
  10.2317369  60.4931641  69.9720907  10.0666392  61.3328028  70.4010201
  10.9803963  60.6598759  69.3994236  38.4788990  71.5823793  91.0009193
  38.6253452  71.3660955  91.9217873  38.6750412  70.7721710  90.5304718
 116.8027175  54.2871380  74.9939871 117.7074707  53.9807320  75.0553703
 116.4544160  53.8511086  74.2162991  40.1899576  35.6118774  52.0802879
  40.9655571  36.1172843  51.8369007  40.5001879  35.0064659  52.7536869
  28.4345746  75.3893042  34.7078705  27.4974990  75.4245043  34.8999143
  28.5014057  74.8142624  33.9455771   5.6994110  44.7281885  78.4518671
   6.1916310  45.4780722  78.1177616   5.8740926  44.0277433  77.8233004
  25.5388689  81.3619614  51.0487604  24.9812603  81.8703842  50.4598618
  25.0297308  80.5743122  51.2401295 110.6905634  69.8599911  67.9460621
 109.9987740  69.1996765  67.9055548 110.9332389  69.8961926  68.8712788
  27.9357433  89.7642136  25.1084495  27.9747963  89.8506069  26.0609412
  27.0652151  89.4055080  24.9359798   9.9823415  61.5406418  55.5463314
  10.1963055  60.8896351  54.8780203  10.3023422  61.1588812  56.3636971
  30.9159946  87.6863384  55.1436901  29.9776220  87.7387524  55.3251839
  30.9680581  87.3834133  54.2371798  28.0200267  10.7611406   0.8403341
  28.0764937  10.7505417   1.7958013  27.1078753  10.9859145   0.6567804
  37.3596668  50.3133678  99.8838043  38.2289076  49.9362373  99.7480488
  36.8097830  49.8915148  99.2235756 104.3799061  45.4595613  63.3025789
 104.7402484  44.9332762  64.0163088 104.4524903  46.3628674  63.6107969
 120.8278847  18.0570173  79.9357271 121.3435329  17.8021455  80.7008266
 121.3723326  17.8120375  79.1875362  21.7790818  35.4419589 100.3266144
  21.5776014  35.1525497 101.2164974  22.1679783  36.3093305 100.4391289
  14.7097528  58.7504148  54.7677946  14.2968869  59.3169785  55.4195452
  14.9501538  57.9616928  55.2539539  33.5123229  22.9149723  64.9279213
  33.5138774  23.4785223  65.7016373  34.1358685  22.2194624  65.1369429
 122.2259316  28.0954719  99.4173336 121.7131526  28.8915563  99.2775440
 122.9621915  28.3770776  99.9603367  27.3284960  24.2407513  46.3499832
  26.6166782  23.7093234  45.9934235  27.1457386  25.1267719  46.0372543
   6.6428411  25.5115962  93.7805176   7.3454136  25.3591251  94.4124794
   6.5554458  24.6801853  93.3143139  88.1971759  29.0685606  48.1985283
  88.6615319  29.4128084  48.9614820  87.7782554  29.8350859  47.8071451
  15.9200704  45.0678921  36.6157079  15.8984065  44.9592590  35.6649375
  16.1218679  45.9944057  36.7463803   3.0753341  35.7998443  74.5501375
   3.6008316  35.4150796  73.8486814   3.0502975  35.1249170  75.2284288
  98.6120409  53.8091040  73.2402992  99.0485925  53.8445711  74.0914154
  97.8123207  53.3085680  73.4019852  27.4052095  51.3378525  49.4559002
  26.5622783  51.7788982  49.5616198  27.2487617  50.4451942  49.7639751
   6.4556277  21.3822007 103.8646221   6.1800194  20.7257581 103.2248116
   6.6881210  20.8754754 104.6427059  17.5962973  17.9233253  46.0976505
  18.2685673  18.3419800  46.6352510  17.2714794  18.6237884  45.5319023
   1.9609588  41.7953587  85.2120399   2.7087492  41.2176132  85.0595665
   1.2663651  41.4393950  84.6579075  23.2107449  60.8395386   6.0559694
  22.9750514  60.1807690   5.4027501  23.6679673  60.3476429   6.7380372
  17.4360192  66.5369081  74.4188213  17.4451661  65.8132219  73.7923813
  17.3790431  66.1121130  75.2747011  43.0680704  21.2212062  93.4755707
  42.5532055  21.3419986  92.6777267  43.5764170  22.0281625  93.5570431
  31.0725284  28.3384991  95.7283306  30.1367474  28.4856725  95.8657455
  31.4787030  29.1836047  95.9208107  99.7298450  44.5661592  75.6680155
  99.5344347  44.2585707  74.7829008 100.1232786  45.4293537  75.5402040
 110.5851776  61.5865469  63.3148098 110.9020502  60.8366299  62.8113651
 111.2278444  62.2759676  63.1477547  21.1049938  81.6633415  77.7849579
  20.5453873  82.0045280  78.4825706  21.9906950  81.7073822  78.1452656
   9.0769821  23.8951850 102.1913910   9.5804101  23.7652254 101.3877106
   9.7325039  24.1241622 102.8502464 119.0030826   6.7698979  66.5391684
 118.4457237   7.2329229  65.9137154 119.4835103   7.4635577  66.9911194
 103.1246228 126.5360768  61.9553185 103.2149310 125.6806321  61.5354490
 103.4926433 126.4134283  62.8303909  54.6743155  43.9650965  48.1167221
  55.3518820  43.9173603  48.7911510  53.8665962  43.7260437  48.5713387
   4.2431280  18.8681245  78.4559822   4.0469560  18.3507967  77.6748800
   5.1757795  19.0701973  78.3814240  36.0749388  46.3807154  58.0062723
  36.7397261  45.9953976  58.5770750  35.2672648  46.3409376  58.5184336
  42.3274136  27.9605627  90.5021667  42.2912788  28.2408142  89.5876312
  41.9341850  28.6841059  90.9901142 107.3846335  43.2621050  54.5086241
 107.8945512  43.1182909  55.3058290 106.8889195  44.0622807  54.6824694
  42.1924734  30.1044059  92.3904705  41.7351341  30.9409499  92.4757290
  42.2658205  29.7790051  93.2876682  13.4327984  48.3253145  95.8997059
  14.3353152  48.0356550  95.7663250  13.0680311  47.6944637  96.5203571
  99.5179195  65.0755119  74.7238684 100.0180668  64.4389200  74.2131472
  98.9626641  65.5157042  74.0803194   6.4555961  75.6328011  66.4320946
   5.9449631  76.2247849  66.9844007   7.2710127  75.4983091  66.9150400
   9.3730730  59.0255451  43.5852194   9.1850996  58.1545401  43.9348555
   8.5371339  59.3260288  43.2286358 123.8300801  39.7188449  60.2663374
 124.1399223  40.0813484  59.4363880 123.8687025  40.4540253  60.8781004
   5.3760356  37.0533967  82.8562069   5.3048801  36.3312006  83.4803963
   5.1997161  36.6525722  82.0050430 103.6150736  61.1405563  34.4150329
 104.1012449  61.4638472  35.1735520 102.7386279  60.9565210  34.7529793
  11.2332916  23.1550193  53.7954760  10.9192932  22.3873210  53.3176947
  12.0709825  22.8793883  54.1676760  18.4644711  49.9889278  73.0257607
  17.8949380  49.3550062  73.4616613  18.3220863  49.8361683  72.0916176
 123.8241576  35.1864052  62.7805805 123.5340917  35.9442306  62.2728443
 123.2784112  35.2017546  63.5668087 114.1493291  57.4128675  22.8164887
 113.8223369  57.7817202  21.9959688 114.8132486  56.7785454  22.5461626
 105.2585573  54.2421007  53.6994362 106.1228067  54.4521332  53.3456087
 104.7056717  54.1243029  52.9269886 118.3940483  79.8075438  80.5933857
 119.0481657  79.8788786  81.2885666 118.2894231  80.7024479  80.2702236
   4.1725144  72.9970741  11.4233613   5.1030594  73.0269957  11.2010491
   4.0658048  72.1721029  11.8969297 103.1549949  48.3916759  37.2959542
 103.9526719  47.8799677  37.4304748 102.9536480  48.7527847  38.1592584
  47.2363806  19.0321505  99.8065186  46.7695045  19.8573399  99.9381256
  47.7266693  18.9022458 100.6182861  26.4383817   7.7727038  55.0025702
  27.0189643   8.2128340  55.6234121  26.9428825   7.7323496  54.1901159
  13.5777247  87.7863884  50.1477337  12.9553628  87.7824593  49.4204903
  13.0568969  87.5337601  50.9100628 104.1467447  51.9172525  66.0780859
 104.2004055  52.8308249  65.7974815 104.7498733  51.4526701  65.4978848
   9.1479337  38.4460378  42.9163408   9.4557679  37.6657104  43.3773851
   9.2212492  38.2208037  41.9889116   5.2921820  52.0182753  70.5323219
   5.1140118  52.7975273  70.0057745   4.4790488  51.8628359  71.0128260
   0.0968955   2.7570009  60.1129293   0.8770113   2.6436210  60.6558800
  -0.5998954   2.9652143  60.7353115  20.6378818  57.6155710  28.0133390
  21.0802460  56.7896557  28.2093143  20.7243085  58.1298971  28.8159800
   6.2936640  55.6396723  57.1662617   5.5833703  56.2651110  57.3095798
   6.6823566  55.5161047  58.0322170  95.9445972  76.3620949  34.5243669
  95.2474827  76.6676378  35.1048040  96.7520279  76.6653252  34.9395084
  25.2845049  73.4397459  44.2508793  25.8225369  73.0305815  43.5731363
  25.2862787  72.8093290  44.9711561 100.9344167  55.6716061  43.3313799
 101.5216822  55.1450825  43.8737154 100.7692570  56.4582205  43.8511801
 123.0816307  53.7495947  72.5258350 123.9491259  53.9357471  72.8850460
 122.4873369  54.2968369  73.0392265  22.0465064  15.4607463  53.4201765
  22.9298258  15.1778793  53.1836176  21.5557885  14.6463752  53.5307598
  79.7679395  57.1527529  44.5780468  80.4420537  57.7148771  44.9599123
  79.7447366  56.3848495  45.1490307 108.1651873  41.1408997  73.2766962
 108.0927665  40.2060890  73.0840254 108.2048160  41.1861849  74.2320013
  10.9327471  59.1891050  39.1581964  10.6674922  58.6657190  39.9144626
  10.7124507  60.0886011  39.4002914 114.9970771  42.4840546  48.5549545
 115.7595784  42.0858955  48.9748335 114.3722886  41.7649174  48.4616232
   4.1883531  75.0846910  38.3386827   5.0454676  74.7919559  38.0290174
   3.8308138  74.3285751  38.8041806 109.0039927  34.5369887  62.9213476
 108.6505885  34.1093373  63.7013817 109.8340887  34.0892172  62.7580309
  24.4469118  32.9240179  57.8541517  25.3243136  33.3009815  57.7885914
  24.5818233  31.9827461  57.7444363  75.3717393  16.5354109  58.0092764
  75.6730909  17.0647109  57.2708607  75.0499935  17.1736622  58.6459494
   8.7710690  48.3696842  51.8496084   8.5754842  49.1485739  51.3287354
   8.6931306  47.6426649  51.2318707  14.4612300  74.6008778  76.1198759
  15.1868677  73.9771271  76.0950089  13.8727880  74.3116713  75.4225063
  93.2490415  71.1616850  51.7416430  92.7609105  70.7036829  52.4258852
  92.7072782  71.9215441  51.5287113   9.6937710  27.9335046   2.1336937
   9.1834396  28.5548735   2.6530141   9.2523623  27.9116368   1.2846282
  22.3201275  50.3059244  40.0573826  22.5479507  49.5900011  40.6504917
  23.0101776  50.9558487  40.1902819  14.8386717  36.6747403  28.3041716
  15.1265907  36.1415768  27.5631809  15.1076770  36.1769772  29.0762472
  98.3489031  41.5602636  29.6156549  97.9840893  42.4328804  29.7629237
  97.6237459  40.9632635  29.7999501  29.1948175  47.2585249  23.6960244
  29.0217090  46.4985371  24.2516208  28.4613705  47.8501558  23.8641429
 115.7124532  57.2468901  41.1486721 116.5934784  57.3174000  41.5161657
 115.6500567  56.3401556  40.8483839 122.0393083  74.7922421  48.5151625
 122.8628667  75.1739216  48.8189793 122.2099609  73.8510180  48.4804106
 121.1966590  57.8566408  22.3781896 121.8930102  57.9050827  21.7232251
 121.4804573  58.4497595  23.0738211  23.3552265  58.9572668  69.2295122
  22.8524685  59.0370178  68.4188938  23.4679651  58.0143547  69.3496513
 117.3433585  54.3724489  62.4256992 116.5398956  54.8896885  62.4817753
 117.7698208  54.4997931  63.2731342  11.3419855  50.4361773  30.5065680
  10.7927394  50.7337236  29.7812915  11.0750592  50.9797907  31.2478280
   7.9636073  53.6396360  18.1494498   7.7724892  52.7060890  18.2399750
   7.3749030  54.0661192  18.7721610  31.0360718  78.9822912  27.3688722
  31.9073129  79.3099928  27.1457553  31.1712027  78.0544138  27.5612712
  19.2216003  63.3649540  87.0819569  18.7241018  64.0600014  87.5128174
  19.7527528  63.8202715  86.4286613   8.6579955  37.2575426  30.6014085
   9.4175959  37.2433925  30.0191379   9.0291947  37.3685193  31.4766955
  20.1732659  50.4289532  74.9922609  19.7450769  50.3457165  75.8442926
  19.4918203  50.2041292  74.3587637 108.6516566  57.7199507  34.4783616
 108.0052215  57.8171587  33.7791443 108.3575935  56.9541645  34.9716449
  20.5655169  35.0089836  58.1494331  20.1259732  35.7710052  57.7721357
  21.1230564  34.6804953  57.4441147  30.7187819  38.7369013  59.0267134
  31.0756969  38.0395269  59.5767260  30.3262424  38.2786846  58.2836246
   2.9611295  56.6093349  25.8837509   3.1419545  57.5424242  25.9972262
   2.0450598  56.5096569  26.1428118  17.4628651  62.5757933  70.7687902
  17.3477590  63.1690598  70.0264835  17.0981240  61.7432117  70.4687834
  15.8598745  41.8808126  51.7906666  15.7903790  42.7685595  52.1418190
  15.5312884  41.3191605  52.4926710  28.5156608  57.1641445  43.1785107
  28.5194039  56.8310690  42.2811413  28.7232685  58.0943203  43.0896044
   6.6947854  47.5054359  18.2076764   7.3509955  48.2017994  18.1812644
   6.6558039  47.1788502  17.3087573   8.3212292  28.4165955  61.4317799
   7.4880505  28.3202410  60.9705210   8.5305697  27.5332260  61.7352104
  31.6157937  52.2023916  80.6634617  32.4390078  52.5243282  80.2961636
  31.4636374  51.3696289  80.2167130  25.5794549  61.3927555  51.8651438
  25.7771540  62.1377611  52.4326944  24.8803258  60.9236383  52.3205328
  17.2598469  25.2094626  42.3329210  17.4252248  26.0442472  42.7711153
  16.7719340  24.6942568  42.9753637  28.7912464  52.5298738  51.9152927
  28.8385034  53.3346987  51.3992977  28.5015559  51.8629313  51.2928009
  41.6843414  28.3400178  27.5888824  42.0287323  27.8642344  28.3446980
  41.5096188  29.2210484  27.9197741  13.2744837  19.2785978  26.0451961
  13.5747695  19.6864891  25.2329850  12.5994313  18.6596012  25.7670283
   1.9397168  30.7570767  48.3382511   2.1733278  31.6737676  48.4843206
   2.2439928  30.3041244  49.1246891  15.3738785 146.6064702  29.7703791
  15.0515640 146.1838404  30.5664515  16.3237560 146.6386755  29.8840761
 119.4802899  34.4247198  71.8095064 119.4388354  34.9602199  72.6018143
 120.2421806  33.8604784  71.9413614  24.1411233  40.6650257  42.7225590
  23.5955048  40.6410980  43.5086632  23.5543704  40.3966618  42.0154953
  20.8604407  38.7724090  50.8097506  21.5822148  38.1681442  50.9833574
  21.1642957  39.3032122  50.0734425  22.6381898  29.4765449  42.7639294
  22.8324270  30.3024459  42.3207664  22.8116131  29.6542072  43.6883688
  35.1435089  60.9557152  31.5089369  35.5067253  61.1776209  30.6515765
  35.4954863  61.6229343  32.0981431  36.7163205  44.3882227  26.2196755
  37.2062182  45.1620293  25.9413695  36.2545776  44.1009617  25.4319525
  41.0789537  31.8596888  47.0221519  41.8024778  31.2756777  47.2494650
  41.0461044  31.8392897  46.0657310  11.7817056  56.0232735  28.2903862
  11.7988253  55.0881815  28.0865598  10.9160542  56.1694479  28.6718464
  20.3735781  27.9465175 103.1783485  20.5794883  28.5273862 103.9107609
  20.7158208  28.4010649 102.4086189  23.9355564  57.6429462  51.2475204
  23.1152487  57.7626228  50.7689762  24.6030951  57.5736856  50.5650091
   1.4845568  65.4540300  56.8714476   1.6569790  65.2132416  57.7816772
   1.8316562  66.3422441  56.7887878  22.5563526  66.0140944  37.0635176
  23.0122972  66.5822315  37.6844597  21.6568756  65.9769344  37.3887730
  16.3487339  47.8656197  39.8276758  16.9948328  48.2854271  40.3956079
  15.5164361  48.2707214  40.0714016  15.4800129  42.4264765  28.7317157
  14.6003246  42.8031349  28.7543011  15.9437275  42.9404593  28.0706382
   0.8552967  20.5691838  78.9637852   0.0020205  20.3929853  79.3601513
   0.7769039  20.2376747  78.0692530  29.1777778  50.5148602  42.7093220
  30.1330328  50.5225277  42.7698183  28.9297175  49.6221638  42.9497147
  24.4890571  81.8327522  29.4058061  25.2051449  82.4674797  29.3818140
  24.3650770  81.6466141  30.3365111  38.3354092  16.6269541  29.1958261
  37.5953770  16.4945447  28.6033297  39.0843606  16.7661083  28.6162233
  25.7380009  91.8559837  93.0075836  25.3541112  91.0458946  93.3431530
  25.4283547  91.9112396  92.1035385  56.6476774  46.3659191  55.2012777
  56.7502403  47.0917988  55.8167553  55.8638048  46.5871763  54.6984673
  22.7408934  66.1129427  61.9358635  22.2763300  65.2763271  61.9579124
  23.1044745  66.2082863  62.8161764 120.5772991  35.9529185  18.3090699
 119.9319161  35.8220601  17.6143837 121.1759881  35.2110744  18.2226324
   8.6328840  63.8136244  54.9415874   8.8005674  64.5468283  55.5336380
   9.0474588  63.0628633  55.3666973  22.0926356  36.5053558  55.1554918
  22.2640848  35.6028414  55.4243898  22.5744343  37.0391464  55.7872915
  15.0422859  14.2984831  56.7513800  15.6549549  14.8618352  56.2786198
  14.4135654  14.9044001  57.1435642   7.2971237  12.2158206  59.5087814
   6.7432070  11.9404447  58.7783194   6.7094088  12.7064180  60.0833559
  22.7290320  59.3249750  32.5138760  22.4877024  60.1791191  32.8722501
  23.5067368  59.0683794  33.0094194 111.6603131  24.9117804  30.4087305
 110.7197804  25.0417304  30.2873158 111.7904121  24.9733281  31.3550496
  86.3085193  43.8966131  23.5184503  86.7926020  44.7116470  23.6511898
  86.0700316  43.9079380  22.5915074  26.1622977  43.5840893  24.6716547
  25.8153415  44.3790817  25.0764251  25.7852149  42.8696918  25.1851487
  36.0635686  43.6762428  23.4848022  35.9743071  44.3535137  22.8143048
  36.7164516  43.0727243  23.1301951  14.1867626  71.5596104  24.5648909
  13.4057391  71.2340450  25.0123715  14.7338581  71.9144535  25.2656078
  26.3518429 137.3865909  70.9624481  25.5303264 137.2065587  70.5053568
  27.0287824 137.2579277  70.2980471  35.0052834  15.0837016  39.2542124
  35.3907061  14.8512435  38.4094381  35.7096457  14.9405277  39.8863578
 124.4804344  53.3809423  53.1925583 125.1759861  52.7392530  53.3363533
 124.0997209  53.1365204  52.3490238 118.9730079  12.1390235  38.0271411
 118.0683500  11.8264961  38.0147839 118.9239491  13.0284512  37.6767945
   5.0942284  71.6691542  34.1509318   4.5270979  71.9326353  33.4262419
   5.3269333  70.7615423  33.9551926  13.5775721  74.2899036  59.7846699
  13.0707932  73.7761354  60.4135180  14.4406343  74.3794823  60.1888084
   6.8411219  55.9815836  15.2364564   7.3882961  56.4918470  15.8335018
   6.2021589  55.5520248  15.8051729  32.1270251  85.4053020  70.9331369
  31.6187239  85.8620548  70.2628899  32.9591250  85.2022839  70.5057955
   4.4336849  41.9303656  93.7297630   4.5934603  41.7174673  92.8103161
   5.2749670  41.7786884  94.1604233  20.6602955  37.3643470  47.7439117
  20.2512956  37.6742744  48.5519314  21.4878893  36.9762254  48.0279589
  37.1577072  58.6346149  49.2562008  37.8546476  59.2742968  49.1102028
  37.6179290  57.8266954  49.4835567  25.2844477  49.3780184  13.9660287
  25.4195619  49.1931248  14.8954320  24.9405003  48.5602236  13.6066639
 124.7570649  75.3839350  24.8813748 125.1296743  75.6174517  25.7315898
 123.8236438  75.2614450  25.0544429 107.5926966  23.3202004  76.3937616
 107.1601207  23.6348534  77.1875525 106.9853658  23.5393453  75.6871128
  37.7581167  70.8594418  63.0263329  37.0783591  71.2644100  62.4876642
  37.6814294  69.9227953  62.8445435 112.7399725  36.8266749  57.2212648
 113.6739964  36.9152403  57.0315647 112.4290127  36.1739349  56.5939999
  11.2593007  50.6763792  58.2575560  10.4517817  50.8745861  57.7833605
  11.3272464  49.7221041  58.2264519 104.7765357   8.6468852  63.8698721
 104.4275517   9.5005405  64.1262245 105.6070156   8.8474494  63.4382391
  19.9329948  40.2562189  41.1390400  20.0482869  39.3066525  41.1746454
  18.9971972  40.3896809  41.2897062   8.2891184  58.1026983  65.1164532
   8.6687529  58.2473707  64.2497492   8.9402986  57.5743389  65.5780125
 117.7080680  30.2748442  48.3129549 118.1911827  31.0378027  47.9955864
 118.0142612  30.1543713  49.2118263  99.0475554  62.3840618 103.0253124
  99.1966338  63.2407761 103.4253693  99.7479910  62.2964668 102.3788166
 113.5943121  37.0164442  29.3887591 113.2885832  37.4908209  30.1618886
 114.2837638  37.5714755  29.0243030  12.2460151  29.3571472  56.1754656
  11.7231154  29.9338865  55.6185293  13.1465185  29.4902492  55.8794785
  15.2891088  38.8760185  50.0733280  16.0591507  39.3696761  50.3554106
  15.6467891  38.1148386  49.6162701   3.8687173  25.8566594  53.8680744
   4.5261553  25.7810664  54.5596600   3.1594574  26.3614798  54.2659950
 117.3193414  25.7285714  48.5886240 116.7711324  26.1716366  47.9410172
 117.0017636  24.8256016  48.5936928   2.8979218  40.4581642  24.8926497
   2.9239270  41.3004398  25.3466678   3.6927453  40.4488993  24.3593550
 112.2058350  17.7615952  39.0457010 113.1178088  17.8389430  39.3259716
 111.7546887  17.3828816  39.8002028 101.6867799  71.9509220  68.9927578
 100.8744354  71.7726994  68.5188723 102.2627229  71.2215424  68.7635612
  35.7927036  34.0363622  26.8271661  36.2580609  33.2030869  26.7541885
  35.9236479  34.4589615  25.9783459  35.7617497  58.2014942  72.9091644
  34.8047137  58.2000780  72.8914976  36.0149860  58.6939096  72.1283770
 105.5773539  63.3401442  63.1120253 106.2954969  63.1345797  62.5134897
 105.7514090  64.2376328  63.3956623  49.3934345  38.5648751  52.3074675
  48.8468742  38.0037594  52.8576040  49.5562410  38.0439162  51.5211296
  18.2001448  67.7554703   9.0476888  17.4465930  67.3510885   8.6177266
  17.9565096  67.7929926   9.9726033  92.6553196  20.6975007  54.8449230
  92.2400684  21.2266660  55.5259371  92.5706500  19.7964895  55.1567554
 122.8103392  43.2751560  15.1997483 122.1351863  43.1928253  15.8732629
 123.6217870  43.0264139  15.6423688  12.7245235  60.0331116   2.1411130
  13.2701898  60.7330561   1.7825693  11.9324040  60.0479269   1.6039357
  43.4855270  52.2332525  39.7536802  42.6666069  51.8455267  40.0623369
  43.2846546  52.5468683  38.8719034  16.9172502  50.9247065  33.5266495
  16.8885136  49.9703598  33.4585953  16.5175784  51.2349129  32.7140832
 111.7938799  52.1779680  17.5371432 112.3601598  51.5190315  17.1354473
 111.2108285  52.4555588  16.8305826  13.4235001  49.0380764  82.7158260
  14.0785909  49.3136644  82.0746231  13.0758893  48.2178307  82.3657036
   9.0348774  44.6913767  46.4642239   9.3754989  44.0064812  47.0396566
   8.0983067  44.7241020  46.6591501  12.5005507  28.8847184  50.8050203
  13.2900000  29.0804529  50.3003550  12.3570168  29.6666980  51.3380623
  11.7998767  60.2025414   4.7220489  12.4527740  59.7091103   5.2185172
  11.9954526  60.0044823   3.8062143  39.2241383  71.6407633  81.0228634
  39.7014761  72.0129013  80.2813148  39.8781657  71.1244440  81.4939213
 111.6596610  15.5911458  44.4987488 111.7998952  15.2069235  45.3641605
 112.2656483  16.3312948  44.4642448  22.4443650  44.8745489  51.4361382
  22.5185752  43.9282370  51.3127756  22.1610785  44.9761438  52.3447943
  13.1668675  25.6022143  73.0878496  12.7721989  25.0021601  73.7206221
  13.0357373  25.1768923  72.2404194   3.8450766  22.6378942  58.0545712
   3.7948164  22.1091938  57.2582150   4.7736973  22.6336241  58.2866859
  47.6351547  37.0806384  28.0096006  48.4815788  37.5187755  27.9211068
  46.9961119  37.7348280  27.7269459 123.1964884  30.1078820  60.9053516
 124.1144316  30.0546479  61.1713934 123.0371667  31.0434389  60.7805300
  51.8137312  30.5900478  21.8291497  52.3679638  31.1908722  22.3272133
  50.9957504  31.0701013  21.6999793 124.3578120  41.9445181  28.7332630
 124.0676243  42.3029518  27.8944850 123.9278922  41.0912275  28.7906933
  87.4370164  71.9813776  29.9301481  87.8408045  71.2194347  30.3456283
  87.5109858  71.8095827  28.9914012  14.6765041  88.2657242  63.6401176
  14.7725332  87.3302841  63.4613752  14.3451977  88.3053684  64.5372772
  43.3654881  63.7009048  39.5677376  43.4809113  64.5870686  39.9107027
  44.1401768  63.2252693  39.8675132  89.4402809  17.0925903  63.2837534
  90.3051776  16.6832995  63.3095741  88.8608903  16.4073706  62.9505634
   3.0488908  67.1697617  81.1797333   2.9657143  68.0543852  80.8237076
   3.9345202  67.1395302  81.5416431  33.4985375  45.8973598  58.9566088
  32.8618693  46.4701223  59.3841887  33.0826139  45.6516647  58.1302452
  96.9701762  53.3394289  63.3171320  96.3637013  52.6036978  63.4014893
  97.3518509  53.2364655  62.4453783 105.3632647  75.2967882  32.6469731
 105.1466066  74.5876026  32.0417070 104.6203036  75.8974171  32.5879455
  26.4689589   6.3139200  38.8694263  26.3332605   5.9113771  38.0116510
  26.6658998   5.5791146  39.4503784 104.7508318  52.0672512  72.9994440
 103.8429803  51.7860365  73.1132746 105.2560098  51.4786434  73.5603094
  17.5784981  54.6918297  18.8069046  16.8910050  55.2457047  18.4370279
  18.0980611  55.2851009  19.3494141  98.8548250  70.0708723  54.3408108
  98.6310715  69.5320892  53.5819435  98.1557269  70.7231426  54.3859482
  85.2969593  39.9897075  47.8151083  85.9059257  40.0450516  47.0786810
  85.7135004  39.3809247  48.4251165 122.5693569  15.0205839  19.8054504
 122.0360715  15.7997656  19.9626613 122.2306699  14.6598721  18.9860535
 117.2548479 143.2166559  51.9768572 117.2548915 142.7676229  52.8221941
 117.9427148 142.7805636  51.4739704  27.1935058  55.3639650  48.3828402
  27.4450088  54.5063305  48.0401421  26.3998103  55.5919504  47.8987885
   7.7261323  31.4705706  36.3579702   7.4466741  30.5680370  36.2044525
   6.9156706  31.9433093  36.5474534 102.1080822  11.5295088  24.7055650
 102.4036116  11.5507722  23.7953782 102.4572105  12.3337853  25.0895977
  41.3408947  41.3473320  46.2371731  42.2713089  41.3009310  46.0171461
  41.1146545  42.2709465  46.1276722  35.8053875  58.7268829  87.4562343
  35.0498247  59.1864586  87.0899733  35.9603715  59.1541815  88.2986292
   3.5801581  81.2965870  74.2855072   4.1605046  81.8453693  74.8130131
   3.4733734  80.4967880  74.8004436  22.6575637  68.2038069  57.5579214
  22.4935913  67.3336315  57.1944094  22.3301315  68.1538105  58.4559870
  21.7286587  55.0927973  28.0364609  22.5494695  55.5299950  28.2630849
  21.9992423  54.2541790  27.6626468 120.3262932  45.9247255  33.6209297
 119.6691996  45.9217596  32.9249048 120.8135361  45.1106834  33.4937954
  22.8601408  51.4097738  16.1036003  22.9319334  51.9297075  16.9040680
  21.9704866  51.5734911  15.7906413  19.6956682  70.3252459  15.5388689
  20.3947186  69.8113871  15.9432304  19.9326277  70.3646326  14.6122992
 116.7547817  36.8855596  63.4073019 117.4488015  36.5576148  62.8354454
 117.1912271  37.5232482  63.9721918  36.4843321  61.3541365  78.8021183
  36.0008430  60.8890438  78.1193638  37.2011828  61.7851067  78.3366966
  10.2147305  54.5108747  25.8611202   9.4588459  54.7898674  26.3778710
  10.0303280  53.5978365  25.6406760  31.5672779  52.4684715 105.2779373
  31.4051795  51.7874146 105.9307148  30.7851768  52.4623299 104.7261115
   5.5063593  83.2839298  26.9183850   5.9042352  83.6567974  27.7050877
   4.6559069  82.9571629  27.2119570 124.7119939  41.4720440  50.3436708
 123.9336424  41.9824457  50.5670404 125.0100567  41.8412209  49.5123482
  18.3387268  94.4191074  21.3107347  17.4395227  94.1897488  21.0760880
  18.6871958  94.8506260  20.5306101 124.2937712  34.5398021 106.4632943
 125.0290465  34.0016913 106.1699706 124.6274903  35.0030518 107.2315803
 121.2263105  50.1958466  21.3151479 121.5100474  50.9050989  20.7383537
 120.8470515  49.5444918  20.7251239   9.4472980  74.4309282  18.3608067
   9.4974953  73.4760714  18.3165038   9.2397046  74.6176338  19.2763817
   6.8705076  43.6465740  12.2384501   7.7164578  43.2200813  12.3752081
   6.2640887  42.9261875  12.0666063   8.8389486  36.9559455  13.8499546
   9.5769972  37.4517322  13.4953964   8.0890983  37.2334266  13.3236837
  49.1567850  62.9677439  43.7074184  49.4080448  63.8367605  43.3945131
  49.8080683  62.7564669  44.3763161 110.7367331  32.4579406  35.3200936
 110.6554729  32.3285508  36.2650204 111.2072856  31.6834593  35.0118876
 103.5086007  41.3589382   0.8532158 103.7655515  41.0740328  -0.0237319
 104.3351979  41.4503193   1.3271567  91.3064880  43.1805086   1.9084285
  92.2205014  43.3723545   2.1182059  91.3331026  42.8338575   1.0166010
 119.3011547  34.9103594  23.0131197 119.6172369  35.3575873  23.7981749
 120.0932557  34.7202992  22.5104427   1.6642049  49.1469479  53.4745741
   0.8277611  48.9976025  53.9153576   2.0957194  48.2925844  53.4838343
 122.4844120  32.2107363  67.6783848 122.5089507  31.9855285  68.6083889
 123.3448905  32.5907493  67.5011873 107.9444403  36.3559723  12.3494649
 108.6296541  36.7352939  12.8997636 107.3985607  37.1012497  12.0988452
   0.4950811  75.6849909   8.5339105   0.8443864  75.1210070   9.2239404
   1.2531680  76.1789989   8.2216752 115.2086133  31.7123532  36.8954659
 114.9738783  32.2165990  36.1164498 115.9902698  31.2235928  36.6378617
  24.2031288  67.8376245  16.3523722  24.2849612  67.3361874  17.1636033
  24.1845512  67.1748734  15.6619775  13.3474696  46.5003729  37.3162246
  13.0581212  46.0631847  38.1170845  13.8182378  47.2752666  37.6230574
   2.9428229  83.1759834   4.3972656   2.7830639  83.4755993   3.5023147
   2.2367311  83.5683060   4.9108282  11.0849822  83.0963516  24.9195790
  10.1402378  82.9893303  24.8089552  11.3206804  82.4600506  25.5947042
   5.6209004  61.8538904   4.3466815   4.7153854  61.7004824   4.0769771
   5.7956707  62.7605152   4.0942577 116.4866746  33.7103200  15.7116807
 116.1334319  32.9023361  16.0839915 116.1060495  33.7563300  14.8346186
  28.5525179  36.9119716  35.4227090  28.6855412  37.8243613  35.1656413
  29.4358110  36.5471244  35.4766846  24.1159415  62.0283413   1.9893664
  24.6002126  61.3293648   2.4288523  23.2239437  61.9512081   2.3279269
  17.7306867   1.2965743  22.0731068  17.3782504   1.6991234  21.2793970
  17.1672773   1.6199329  22.7761269 104.9452693  15.4121125   4.0178403
 105.2977640  16.3010681   4.0595224 104.3065972  15.4408669   3.3054480
 119.4398308  54.6229601  49.6419191 118.5627485  54.7333288  49.2747974
 119.7247363  55.5120564  49.8530293 114.1917688  63.6212778  37.1909952
 113.3754379  63.1216478  37.2054362 114.8794580  62.9558659  37.1677017
  15.3199661  82.4298382  24.0755820  15.9332359  82.9504490  24.5943284
  15.0888741  81.6952419  24.6440744 109.8322863  62.4121571  28.2503939
 110.0130076  63.3519220  28.2706285 110.6845493  62.0078039  28.0879760
   4.4017923  69.7479057  21.2915492   4.4458342  70.5329132  20.7456088
   4.7335812  69.0469980  20.7304120 117.1354896  80.9049225  43.5199499
 117.4288923  80.8847237  42.6090527 117.7541739  80.3404331  43.9834309
  19.1243637  60.4796791  33.2850099  18.5668123  60.4768753  34.0630579
  18.6116362  60.9457397  32.6246071  96.8261856  70.3950071  25.8837008
  97.7190942  70.7396841  25.8956933  96.9264407  69.4791842  25.6239915
  21.5306425  21.1772323  35.7785892  21.3859415  22.1166515  35.6655312
  21.0259938  20.9494233  36.5594006 120.0589574  55.0472116  37.3631716
 119.1622025  54.8230457  37.6117897 120.1692844  55.9521675  37.6549220
  -0.2090522  57.6744556  48.8890648   0.0110675  56.7634106  48.6947107
   0.2304333  58.1784010  48.2041407  46.6585732  51.0082054  34.6786642
  47.1122646  50.7076693  33.8912177  47.3096275  50.9275579  35.3756976
  29.1931176  55.8305836  54.6279621  29.0239549  56.2352324  53.7771511
  28.9632225  56.5071154  55.2648973   3.5476869  66.1196470  18.2053614
   3.7950447  65.2020931  18.3200109   4.1778985  66.6058350  18.7370420
  34.7383070  63.5899210  33.0299807  35.5433607  63.9744139  33.3768082
  34.1615772  64.3385458  32.8777456  19.7031462  44.8962545  10.5744898
  19.8498511  45.0899744   9.6486479  20.0243616  45.6713724  11.0351920
  24.6393776  53.4164238  21.4360166  24.0290833  53.1423998  22.1206212
  25.2762818  52.7037954  21.3836646  30.8926511  35.8614039  41.4922810
  30.6226206  36.5449953  40.8790827  30.3580904  35.1032376  41.2563610
  31.5932703 119.6192551  48.4985447  31.6874218 118.8685989  47.9121256
  32.1239018 119.3942165  49.2627573   4.2615753  23.2977080  11.6330636
   4.4203442  23.0322790  12.5389171   3.5784832  22.7020454  11.3251626
  31.4410639  27.0745969  25.3131485  30.8209920  26.4717293  24.9029136
  31.2426257  27.0227623  26.2481165  20.3016973  30.2292204  57.5028419
  20.9490347  29.5465779  57.6794338  20.1550508  30.1816177  56.5581369
  28.1870174   7.1527404  17.9428732  27.9336286   6.2769961  17.6511586
  27.5525498   7.7365816  17.5271678 108.4663374  59.6381044  64.3072605
 107.9639000  59.6251440  63.4926319 109.1646261  60.2731085  64.1479063
   6.9374347  52.9644346 100.9797701   6.8886852  53.7875366 100.4936078
   6.8395412  52.2856760 100.3119823 118.0185998  27.1062684  50.8786917
 118.9687879  27.0167732  50.9519291 117.8171033  26.8039393  49.9931240
 108.6883659  33.4669828  65.2721405 108.2855625  32.5996494  65.2307272
 108.8732106  33.6010790  66.2017012 103.5903019  52.6056433  26.0800266
 102.7663464  52.4545097  25.6168962 104.0087432  53.3188438  25.5978584
  21.7792654  38.9981318   9.6177101  22.5497794  39.4839025   9.9119329
  21.3777852  38.6745524  10.4241467   4.7908339  45.0877190 106.4121246
   4.0125766  45.0633526 106.9688597   5.5196726  45.1923275 107.0237472
  32.6754308  38.8594747  53.0497122  32.8525782  39.1927099  53.9293766
  31.7227221  38.7743664  53.0131865   4.0944198  38.8456702  17.3890829
   4.3901256  39.5176649  18.0032599   4.5182854  38.0422211  17.6908088
  24.7040009  25.1587534  40.4307461  24.3189144  25.7843661  41.0443830
  23.9576197  24.6627069  40.0944710   6.7500687  85.4969501  12.1834278
   6.2927508  85.6164074  11.3510692   6.2852603  84.7776699  12.6110089
 115.4792232   9.0253192  97.7472421 114.6794803   8.8730830  98.2506963
 115.7549871   8.1528801  97.4661096  47.2199869  43.5979986  21.9896173
  47.9575396  44.0721035  22.3736382  46.4689207  44.1767788  22.1205497
 105.5704708  47.2353697  37.5316167 105.9133942  48.0764103  37.2294855
 106.2432725  46.9016457  38.1250787  17.1051097  19.3988585  12.5969350
  16.5798569  20.1558971  12.8562319  16.8457937  19.2260981  11.6918707
 110.3959782  63.8110304  98.6551841 111.3295550  64.0109062  98.7238570
 109.9773402  64.6625948  98.5294243  98.5327358  55.3295517   1.2102545
  98.2273001  56.1890697   0.9201371  98.6542363  55.4248524   2.1549168
 117.4374647 142.3596398 108.4647767 118.3887822 142.3246846 108.5647974
 117.1038753 141.7669935 109.1383640  22.8560567  49.8647308   0.5054769
  22.1065664  49.4743490   0.9550336  23.5954785  49.7090340   1.0930505
  16.9347107  30.6964278  20.5837798  16.8059540  30.6947565  19.6352804
  17.8179872  31.0448027  20.7049727  11.3871920  61.7929935  18.7305200
  11.8034911  62.3867130  18.1056833  10.9363306  61.1486673  18.1848085
   8.1395274  73.5703564  41.0545635   7.8019381  73.1933165  40.2420950
   8.2632166  74.4982576  40.8547401  26.1190867  43.5363102  57.2995329
  25.2194595  43.2925415  57.0816374  26.2551808  43.1872034  58.1803513
 116.9439132  56.9166327  54.6696520 116.1087806  57.3316336  54.4538784
 116.8412358  56.6292906  55.5769157   8.9283377  62.7736044  35.2619910
   9.0875208  61.8708944  34.9863005   9.1666585  63.3021927  34.5003963
  52.2590446  64.6771479   7.5969988  52.8332281  64.3983030   6.8837053
  51.3738823  64.5482779   7.2562492  95.7409400   2.8120300  33.3859968
  96.0563583   3.1930977  32.5665283  95.2446265   2.0395404  33.1155086
   9.0249956  56.5281773  46.5282965   9.2405051  55.9860468  47.2871637
   9.6522015  56.2602711  45.8566761  12.9434729  78.0319071  33.7792253
  13.4738994  78.7902355  34.0237927  12.2651815  77.9866934  34.4531012
 117.1660358  27.8617048  31.0964298 118.0202920  28.2175946  30.8518481
 116.7873622  28.5238624  31.6746902  57.3842382  76.7545462  51.6219378
  57.3441505  75.8048105  51.7342997  57.0996952  77.1076775  52.4648905
  13.1188977  89.5592117  23.8710833  13.7904596  89.4491100  24.5442200
  12.4130416  90.0320244  24.3120360  12.9643095  18.7471044  34.8337340
  12.8655088  19.6333098  34.4857240  12.1012211  18.5307431  35.1865768
  64.8345423  35.1943111   7.8650713  64.1005421  35.0850701   8.4696746
  64.5397329  35.8651280   7.2491789  22.8804064  52.8830290  23.3587050
  22.0107436  52.9672718  23.7496281  23.4846926  53.0849791  24.0730476
  27.4002385  51.3266420  23.3730268  28.3411217  51.1748791  23.2839417
  27.3346019  52.1086025  23.9211726   1.7413144  55.9428692  65.4095459
   0.8048828  56.0434532  65.2386332   2.0931387  56.8307829  65.3458261
 118.8219053  17.9709387   2.6962119 119.4055027  17.9483080   1.9378364
 118.3133358  18.7739432   2.5831926  27.2812605  82.5005531  52.7749586
  27.6852822  83.1907845  52.2490454  26.7063880  82.0394611  52.1641016
 104.3620009  21.3596582  23.6934900 104.2180247  21.0126591  22.8130960
 105.0016779  22.0614076  23.5726976 109.6678407  77.1722126  19.0160072
 109.5422501  76.5108681  19.6965075 109.9787456  76.6788149  18.2569754
   8.5969919  55.1738405  34.4022727   9.1935211  54.7782516  35.0377965
   8.6099666  56.1079597  34.6108055 121.4839397  39.8704600  47.3476505
 121.0398281  40.2144241  48.1226921 122.1412770  40.5328274  47.1345568
  40.1668549  78.9658117   3.3024862  41.0308075  78.9249897   3.7125510
  39.5718050  79.1864395   4.0190548  17.5884378  48.6060333  44.9891853
  17.6530731  47.9113197  45.6444883  16.6493952  48.6951447  44.8264265
  21.4250898  78.4773254  49.8135996  21.4815354  78.7924862  48.9115381
  20.9798265  77.6327896  49.7448301  31.1693740  42.4800253   9.7934401
  31.5785027  42.6671553  10.6383240  30.7269812  41.6410065   9.9221426
 117.2820080  48.5936594  25.1731277 117.7930672  48.6419153  24.3652153
 117.7080042  49.2151308  25.7634902   0.4871795 113.5813517  99.6229454
   1.2875345 113.5579056  99.0984317   0.6673521 114.2271633 100.3060957
  23.0250907 102.3285580  98.5714158  23.6833048 102.7800655  99.0997430
  22.4015331 101.9826317  99.2099615  17.7578604  65.1643181 101.3014402
  18.3815813  65.1807737 100.5755385  17.1077108  64.5107365 101.0438242
   4.8268911  36.4233589  51.2688255   4.9967861  35.5345774  51.5809679
   4.2445672  36.8014169  51.9277668 115.9848285  72.8872728  41.1474800
 116.7261881  73.4705782  40.9850931 116.1413265  72.5397730  42.0255375
  23.4872127  21.1414719  40.1013851  23.7579703  21.7455935  39.4100404
  23.8555479  20.2975821  39.8398328 119.0317739  33.3472395  44.0842915
 118.2404984  33.5185671  44.5949411 119.2316747  32.4266505  44.2539549
  23.1925130 110.7259083  73.7677860  24.1462994 110.6571960  73.8102245
  23.0143523 111.0424519  72.8821850  66.3026142  63.4995508  91.0226222
  66.9246292  63.3447886  90.3117272  66.7976761  64.0033960  91.6685983
   8.6328292  69.0765238   1.8134463   9.3757266  69.1272497   1.2119795
   8.8978630  69.6046162   2.5665098 119.4699079  41.9746494  15.2786243
 118.6035914  42.0233440  15.6827974 120.0764672  42.1981192  15.9845853
 118.9196069  51.6137075  45.5998755 119.0832455  52.3675442  45.0331450
 118.4939391  51.9834948  46.3733721  16.9880891  64.7068405  48.6117697
  17.5132155  63.9092636  48.6776829  16.1126113  64.4411230  48.8931322
   4.6531919  52.6376915  34.4870543   4.2364007  53.4267569  34.8333144
   4.0045649  52.2671795  33.8885283  23.1024981  26.9080710 106.1969029
  22.4451208  27.6028085 106.1591929  23.9006138  27.3149705 105.8597406
 117.6584000  48.2655621  58.2638073 116.9330627  47.8590345  58.7379932
 118.3315647  48.4052801  58.9298105  13.1837392  55.8696890  31.0410333
  14.0536046  56.2314653  30.8716679  12.6980972  56.0243702  30.2308106
   6.3954204  73.9612150  31.6909647   5.9584111  74.7843075  31.9095397
   5.7760674  73.5051441  31.1211967  18.5965908  65.7209730  67.0486021
  18.3308029  65.1986456  66.2917948  17.8027833  66.1892271  67.3071432
  18.6024785  29.5397043  22.9945111  17.7360713  29.1329336  23.0049276
  19.1523898  28.9450860  23.5046697  16.6805661  60.9917498  11.7902184
  16.8903160  61.1701822  12.7069509  17.4301851  61.3326406  11.3022673
  18.8427651  31.4541912  49.8413277  19.5353055  31.8236923  49.2935228
  18.9533269  30.5068302  49.7605991   6.2554383  23.6453319  34.9032831
   6.1350703  24.4216943  34.3564701   6.4977521  22.9538131  34.2873955
   5.6164807  36.8482566   5.4006362   5.5415529  36.4698863   4.5245922
   5.7444036  37.7843595   5.2470845  12.2749078  41.4561272  46.4016962
  11.6191781  41.2678337  47.0731068  12.9781389  40.8292675  46.5712404
  23.7241268  52.2881079  30.1196718  22.7672744  52.2710705  30.1390314
  23.9793634  52.4432421  31.0290766   4.5156369  41.8082571  41.7827511
   5.1515341  41.1837578  42.1318388   4.1618064  42.2474146  42.5561714
   3.8006294  50.0769663  42.3756266   3.9526075  51.0138178  42.2513580
   4.2852959  49.8592424  43.1718206 108.1045622  14.6339178 102.8125974
 108.1187767  13.7489986 103.1772163 108.4630126  14.5353127 101.9305416
 109.7436160  62.7122498   9.0804160 110.1535243  63.2833052   8.4307224
 108.8380188  62.6230145   8.7834924  17.0893788  41.8499136  20.8663464
  17.0082319  42.7853584  20.6803727  17.8488505  41.5692139  20.3558135
  23.2236218  10.8962977 104.0127113  23.4327793  10.5548906 103.1432714
  22.3450851  10.5633092 104.1958096 116.3630534  38.5503840  27.6961875
 117.3135281  38.6620736  27.6773715 116.0321409  39.2113113  27.0879912
 117.1904219  73.2319975  13.5458815 118.1301809  73.2002974  13.3667719
 116.8811531  72.3453856  13.3601189   2.2609593  31.8946004  21.7653418
   2.6795891  32.2728896  22.5385666   1.4126396  31.5828729  22.0806360
  20.8895302  53.7181997  39.3424129  21.0606813  53.5617828  40.2711058
  21.7073083  54.0852785  39.0066671  27.0150280  58.4047222  22.8369808
  27.9198575  58.1834984  23.0573845  26.8163085  59.1682529  23.3789754
 124.1575824  43.8005495   5.9686202 124.1118819  44.1712093   5.0872844
 125.0853734  43.8458157   6.1996764   7.9488337  53.5435677   9.7784567
   7.0380116  53.5107327  10.0709558   8.0691135  54.4417000   9.4700283
  36.3198519  49.0209913  54.7953892  35.7716417  49.5527267  55.3724098
  35.7761478  48.2632828  54.5797586 121.6586948  54.6672773  22.6409078
 121.6208330  55.6232595  22.6707578 122.3923632  54.4747496  22.0570469
 113.0843586  44.9813938  39.3743086 113.0384321  44.3526983  40.0946283
 113.3208496  45.8088732  39.7933364 115.5719090  62.2556400  13.5022318
 115.7646245  61.7147923  12.7363515 116.4290077  62.4427032  13.8851440
  16.4169478  64.0071011  44.0492249  16.2086296  64.8692560  44.4091225
  16.6221058  64.1747141  43.1294203  46.4167070  63.8888168  25.6669235
  45.5778360  64.3277502  25.8078480  46.4190817  63.1686115  26.2974262
  60.4257298  57.7331257  40.1008606  60.5605364  56.9659519  39.5445323
  61.2317848  57.8026533  40.6123972  36.1625862  68.0752468  38.6988759
  35.7818270  68.9270449  38.4851098  37.0877624  68.2601833  38.8603616
 112.3070807  37.4389720   1.1052746 112.0323569  37.3895621   2.0208713
 112.2956807  38.3742523   0.9019289  18.2273328  25.2268100 101.8317898
  18.7152541  24.8774552 102.5775226  18.8725495  25.2790213 101.1266651
   0.9491778  60.2091217 108.0316522   0.5102199  61.0558653 107.9505467
   0.2507400  59.5989895 108.2686143  20.3866529  62.8770638  30.3696012
  19.7873271  63.5437775  30.0341439  20.7330585  63.2520008  31.1793280
  21.8492365  43.7006569 103.7186816  21.0537887  43.9660788 104.1802492
  21.8480062  44.2253780 102.9181215   8.9648318  42.1797371  13.3567512
   8.9681655  41.2516975  13.5911965   9.8506796  42.3489285  13.0360019
  12.3782063  18.0645454 108.8621445  12.8421855  18.4777069 108.1339604
  13.0514920  17.9284763 109.5287801  10.3749776  56.8357801  37.6235461
  11.1526537  56.3602829  37.9157019  10.3881156  57.6492596  38.1278348
 120.8629305  61.8059492  12.6900363 120.9902582  60.9177685  13.0234420
 120.9970689  62.3693800  13.4521294  19.5458829   0.5224247  19.4471180
  19.0099823  -0.2624046  19.3327308  20.2531171   0.2466389  20.0302076
 115.8790935  31.4799070  17.3798800 115.0048000  31.4345407  16.9928598
 115.7635701  31.1518931  18.2716727 121.1816091  67.3948193  12.2607744
 121.4036886  66.4868546  12.4669647 121.0737271  67.8147268  13.1141615
  90.9267611 100.1480103  18.2190359  90.1165099 100.5167103  18.5708690
  90.8378572  99.2042255  18.3517098  33.7002063   5.9049338 105.7002577
  34.2142701   5.5145860 104.9934357  33.4343743   6.7590463 105.3595852
  55.9655046  57.9718590  22.3825216  55.9544563  57.8808928  23.3353257
  56.4123297  58.8038683  22.2265220  27.3681164  61.5542507   4.9068558
  26.7235112  61.1594772   4.3195945  27.3141074  62.4926043   4.7257435
   1.6325061  61.8107891  13.0490851   0.9652875  61.3803244  12.5145280
   1.9466847  61.1248636  13.6381745  28.0295849  48.9877558  35.3563380
  27.4311209  48.3132076  35.0353050  28.1735730  48.7624598  36.2754369
  94.2852325  50.5965376   0.8959789  94.4885773  50.7076931  -0.0327450
  94.3487925  49.6529627   1.0438208  36.3292027  59.8324013  21.1202741
  37.1694446  59.7615147  21.5732622  35.7866168  59.1489649  21.5136504
  36.3271213  27.9947186  34.0295219  35.7363629  27.2719765  34.2413735
  37.0285583  27.9285145  34.6774697 123.2195786  33.7410331  33.8605928
 122.9320455  34.4825554  34.3932295 123.0743030  32.9758430  34.4170213
  98.1752581  43.7990808  47.8811789  98.6374039  43.4295321  47.1287918
  98.8415069  43.8586569  48.5658646 108.7422521  44.6776295  15.0389910
 109.5787627  44.6292210  14.5762396 108.9760918  44.6071243  15.9645069
  45.4294777  39.9078822 108.7351056  45.7025242  39.5407367 107.8943434
  45.3595495  39.1502571 109.3159194   8.0281603  48.6548567 105.0790086
   7.7410626  49.2193365 104.3612560   7.4450594  47.8970003 105.0356417
  19.1154385  61.9041681  41.1931944  19.2920339  62.5684977  40.5270767
  19.9360418  61.4172983  41.2693596  24.9601436  42.0747423  45.3792286
  25.0535345  42.6890564  46.1073256  25.7028270  42.2670841  44.8068142
 116.0254986  19.5358109  37.8668880 116.9466937  19.7828674  37.7856779
 115.7256032  19.4293118  36.9641423  98.6373610  34.8691726   6.1040187
  98.4309239  35.5170155   6.7777491  98.9757437  35.3845644   5.3718281
 113.0218739  58.3851099   0.7009970 113.2331724  59.2752934   0.4196587
 112.7484090  57.9391384  -0.1006005  42.2686195  55.5111170  34.8798227
  42.5455761  54.7474670  35.3861523  41.6499853  55.9659290  35.4513717
  22.7349305  66.9452953  53.5764790  22.2678041  66.3259506  54.1372299
  23.0385065  66.4176702  52.8377724 109.3325240  42.8336287   8.6767888
 109.4806892  43.4524155   9.3918973 109.3635160  43.3706808   7.8850543
   6.9769108  55.6265068  22.3226523   7.6005894  56.3515759  22.2835708
   6.3307607  55.9011745  22.9732513  30.4975724  14.7344911   1.2869053
  29.9443388  15.5036652   1.1507589  31.3616157  15.0936079   1.4886358
 124.0353989  53.3265543  34.7902107 123.4044511  52.6068211  34.8011088
 124.7157645  53.0580044  35.4076362 109.7252650  46.4232826 108.8691332
 109.7942454  46.6364002 109.7997538 110.5963284  46.1059141 108.6308928
   3.1340259  55.4241514   9.1152936   2.8970474  55.9742022   8.3686239
   2.6920584  55.8295965   9.8612905  14.3311524  63.9783335  32.8420949
  14.5004082  63.1279850  33.2476711  14.5885098  64.6165180  33.5074663
 105.7373363  25.0648189  45.9659338 106.3212342  25.7955408  46.1692667
 104.8763675  25.4690099  45.8582592   1.1153678  14.0563142   8.6524451
   1.4305989  13.6445045   7.8479111   0.2505308  14.3971193   8.4241021
  22.6702142  13.5321152  74.8900279  23.5780382  13.6272109  75.1781973
  22.4320245  14.3981111  74.5590481  82.1265287  70.3412151   1.0173554
  82.9931421  70.5084467   1.3878229  81.5826005  71.0559797   1.3482477
  16.6341138  13.8083768   5.8825034  17.5140500  13.9355397   6.2371480
  16.5948761  12.8764474   5.6675619 105.7534499  24.1158032   4.8579767
 105.9048111  24.9386597   4.3929720 106.5226764  24.0122557   5.4181564
 120.9304655  17.6471472  40.3380919 121.6487009  17.2986579  39.8099589
 120.2068327  17.0383871  40.1897764  20.4224515  30.3155231   3.8705876
  20.2553320  29.6524358   3.2007977  19.7300780  30.1819253   4.5178914
 112.8692443  67.2055149   6.4565229 113.5471839  66.6040564   6.7645478
 113.3429820  67.8538036   5.9354424   9.5419931 140.7559807  16.0072792
  10.1349676 140.8886046  15.2676678   9.5221364 141.6027493  16.4531720
  13.1313825  56.7000961 107.5604761  12.4722064  56.0096550 107.4897339
  13.6214209  56.6483784 106.7398550  12.9062128  32.3427725  96.1688539
  12.8662014  31.8247151  95.3649589  13.7192142  32.0663118  96.5917381
 111.9592053 135.5591125  25.8773804 112.4198145 135.2167911  25.1112938
 112.3547823 136.4170880  26.0311007  11.8832171  68.6393023   2.2067067
  11.4223933  68.6490726   3.0456212  12.0085633  67.7103043   2.0130999
 112.0159549  17.4568594  95.7666477 112.0476789  17.2817314  96.7071553
 111.5690202  16.6957557  95.3962382   8.5283840  16.7416406 103.3743151
   7.8547746  17.1428859 102.8252383   8.0945957  15.9870279 103.7725826
  13.0132222  62.8664446  86.2036833  13.5326457  63.4515190  86.7551550
  12.6581132  62.2173977  86.8110284 119.3196119  75.4189301   4.3360391
 119.8195330  75.8491611   5.0297344 119.7630394  74.5806837   4.2058671
  12.9620671  24.8001838 103.1792220  13.7814641  24.3800282 102.9179003
  12.3923731  24.0751004 103.4360012 100.7279677   8.0758440  52.2489166
 100.1425309   8.0311358  51.4929438 101.4785308   7.5351346  52.0029116
   8.0399483  94.4063950  76.9849523   8.3389717  94.1653347  76.1081918
   7.3198909  95.0183868  76.8325957  21.9233251  49.1155148  24.8999262
  21.9467950  49.1068554  25.8568001  22.5407410  49.8034620  24.6514153
  49.5014763  54.7839689  17.4705184  50.1101494  55.4055309  17.8697777
  48.6421919  55.0426054  17.8036380 112.2633011  65.2009392  17.3169518
 111.6043527  64.5164204  17.4329388 112.8926010  65.0495577  18.0221450
   7.8325075  15.2019894   6.6584098   8.0150324  15.4394448   7.5675476
   8.6640894  15.3370106   6.2040168   3.6251304  57.4601221  15.8783376
   4.1004309  58.2815742  15.7537079   4.1068763  57.0073032  16.5705132
 117.1449268  75.2414989   2.5430357 117.3360593  75.8768654   1.8530986
 117.8789616  75.3213167   3.1521779 100.0791425  13.0075383 106.5732166
 100.4123945  13.7464595 106.0641282  99.3477554  13.3710372 107.0723864
   7.2237837  13.2561636  18.6383009   7.7333754  13.2097900  17.8293526
   7.7558506  12.7905810  19.2835689  83.2144756  18.0439806  78.1986221
  82.3763055  18.4844244  78.0582126  83.8669557  18.6573827  77.8606304
 108.7162108  54.5383835   3.1026933 109.5511801  54.3865728   2.6599631
 108.0595631  54.1820335   2.5043124  90.3119893  68.6778212  78.8833436
  91.2044448  68.6630917  78.5376033  90.0510950  67.7573156  78.9122137
  27.5472760  46.9637489 106.5455746  27.8066945  47.3468542 105.7076209
  27.8161693  46.0472012 106.4833789  10.9950089  38.5564351  37.0439625
  11.4607179  38.2141900  36.2809324  11.6798246  38.9456129  37.5878382
 114.0715784  53.5119200   9.2909461 114.4391055  52.6544428   9.0767193
 114.7463525  53.9360666   9.8210496  -0.0628531 142.5867165  80.0372752
  -0.4104947 142.2463507  80.8616098   0.6370346 143.1840883  80.3009709
   3.9804259  42.3771048   2.0447157   4.4141114  43.0565834   1.5285197
   4.0439454  41.5891361   1.5049958 124.5006282  31.4606023 107.3270322
 123.9694945  30.8007979 107.7728864 124.1433262  32.2971010 107.6250895
 122.1802316  61.1316681  98.5725173 122.2253040  60.3884315  97.9710230
 121.5344528  60.8698750  99.2287680   5.8043951  36.3022161  43.8524389
   5.3482634  35.6799221  43.2859325   5.3787428  37.1415949  43.6778116
  16.5828621  39.7935319  22.7455759  16.4814186  40.2878618  23.5589504
  16.6165316  40.4622269  22.0615125   1.1820120  30.2768207  60.8329105
   1.7960921  30.3884077  61.5586424   1.4370847  29.4474959  60.4286957
  39.0441275  76.4854097  81.9625028  39.2975664  77.0276213  81.2155040
  39.6020031  76.7886400  82.6787862  16.1253488  28.6954188  25.3025174
  15.2070808  28.5515833  25.5312681  16.0965812  29.0790701  24.4260383
 105.2381832  13.5769570  10.9130108 104.3634934  13.1896889  10.8787680
 105.2729840  14.0151668  11.7633009  13.5772395  35.8542824  10.8478558
  13.8346732  35.3884459  10.0522709  12.6679277  35.5936813  10.9943783
   4.7849751  21.7056441  -0.2581872   3.8638303  21.4791751  -0.1299859
   5.2287549  21.3483572   0.5109923   3.3611032  43.6836433  13.1398714
   2.7784133  43.6038160  13.8950741   3.7801600  44.5371819  13.2498515
  12.4485970  31.0927081  36.8820810  12.7405429  31.5090537  36.0711193
  11.6953242  30.5627012  36.6214991  30.0038218  43.7964249 107.9666197
  30.8889651  43.9043331 107.6186121  29.9755096  44.3711042 108.7315845
 120.2467916  52.5075483  14.9976897 119.3027992  52.3537350  14.9595797
 120.4740444  52.8203106  14.1220379  35.0243306  55.8110619   8.6326885
  35.0350189  54.9023914   8.3319664  35.3243184  56.3168430   7.8774267
   4.1554222  52.8887796  41.0244894   4.4371676  53.7919044  41.1701345
   3.3153856  52.9698277  40.5728245  20.3499818   2.9925361  13.1209683
  20.7549810   2.8887525  13.9820349  19.4202650   3.1228673  13.3077133
  40.3023815  40.6080723  81.0033520  40.8289289  40.0012541  80.4830130
  40.6129932  41.4761162  80.7459553   0.0228962  13.1616580  11.3925862
  -0.4693300  12.3779774  11.1480677   0.6762461  13.2599390  10.6999779
 118.9855022  35.2817798  98.6362430 119.2790497  36.1328006  98.3109339
 118.1659377  35.1168704  98.1700333   0.0147351  16.7747366  20.6442714
   0.8831745  16.3757420  20.5909038  -0.5759120  16.1115062  20.2872109
  33.4334660  37.0666885  12.8534210  32.8308034  36.9920921  13.5933304
  33.8139343  36.1927772  12.7653611 113.1306488  27.7152658  28.6458826
 112.1956808  27.5693345  28.7899995 113.3651132  27.0989132  27.9520750
  78.9677305  53.7020493  91.7242428  78.5416383  52.9939127  92.2071727
  79.8659295  53.7108994  92.0549854  22.9685092  34.0431833   6.1424631
  22.5025296  33.4100056   5.5964047  23.8795137  33.7499285   6.1249411
  24.0246630  39.7512841  77.4552926  23.2570648  39.3345070  77.8468546
  23.8589072  40.6898546  77.5438603 122.2504657  32.1137547  40.4616737
 122.7042856  32.8352022  40.8973265 122.8092871  31.8947101  39.7160387
  22.5117111  19.8520648  33.3191490  21.9702005  19.0696907  33.2148147
  22.3254871  20.1555014  34.2076755  27.3354506  54.4711590  37.0407605
  27.5710320  53.7224674  36.4928627  26.8018532  54.0965843  37.7416158
 109.8765082  26.4780188 109.3890127 110.5445570  27.1621251 109.4330392
 109.8120768  26.2657380 108.4578749 114.4847578  72.6210499 107.4265651
 115.2280564  73.1840563 107.2103121 113.7708778  72.9454708 106.8776067
   0.8442933  56.7688513  34.1596222   0.1866648  57.3485374  33.7752748
   0.4911998  56.5434361  35.0202847  26.5034032  85.0998974   5.5520779
  26.0621905  84.7830200   6.3402104  27.2012138  85.6671810   5.8799189
  42.3932838  53.2114935   4.5088288  42.7827930  53.6673355   5.2549690
  42.2399855  52.3212814   4.8254505  36.1013579  28.7599325  88.7270292
  36.9683909  28.7215614  88.3232816  36.1669374  28.1859708  89.4902452
  43.5022640  42.0356703  31.1760616  43.6515903  41.1874390  30.7584095
  44.1112041  42.6294088  30.7368565 105.2461428  33.4089327   0.8160132
 106.1822385  33.5008383   0.6385048 104.8787112  33.0756950  -0.0026313
  28.2321310  77.8403378  82.8475126  29.0200496  77.3070145  82.9523214
  27.8191566  77.5038004  82.0522603   2.4682364  77.7091551   8.7965339
   1.7710951  78.2204676   8.3857000   3.2659331  77.9862547   8.3458376
  11.4817131  30.6766081  42.5685310  10.8349335  30.5353308  41.8771935
  12.1531212  30.0136518  42.4074936  34.5611930  35.4359126  54.9551058
  34.9938726  35.3430057  55.8038616  34.8128128  36.3083673  54.6522188
  10.6413639  74.3551588  26.9368649  10.2509642  74.1878748  26.0790563
   9.9900860  74.0377617  27.5624275  31.4244246  35.9401131  19.1465902
  32.1778870  35.8153701  18.5695577  30.7251906  36.2403965  18.5659575
 110.1375896  49.8636961  29.7093940 109.9800057  49.1153622  29.1337252
 110.3569049  50.5811691  29.1149449   4.6596649  67.3707056  86.4787682
   3.8972062  67.0342922  86.9496330   5.1370925  66.5874243  86.2053379
  85.2325577  43.5113907  16.5763152  84.4677276  43.2990217  16.0413742
  85.9648890  43.0925179  16.1241341  39.2324781  23.2558155  86.6281470
  39.2352462  24.2128181  86.6089495  39.4479918  22.9976535  85.7319673
  17.4478686  56.3643456  10.3920376  16.7981935  55.7373285  10.0742328
  16.9539428  57.1729517  10.5277872   8.2061797 130.7891042 100.8193060
   7.4014127 130.3178663 101.0349824   8.5036021 130.3928454 100.0003126
  27.6009893  22.0996332  85.7031854  27.4386001  21.4909744  86.4238747
  28.3750534  22.5924015  85.9756526  57.9636240  58.2761621 109.0207849
  57.2723675  58.8685417 108.7250169  58.7774992  58.7177181 108.7781519
   0.8354880  51.3060188   1.6386969   1.0792872  51.1005974   2.5412464
   0.3095973  52.1027994   1.7080858   0.4402660  38.1461668  11.0551655
   0.9688592  38.8386321  10.6585383   0.4374105  38.3526206  11.9898307
  14.1377795   0.0497989   4.8600474  14.0908384  -0.6806093   5.4769206
  14.2485702   0.8233830   5.4127902  22.3253465  31.3941097  13.0680990
  22.6304507  30.7217979  12.4588883  22.3859811  32.2111487  12.5731230
 116.7325617  20.7572031  28.5670996 117.6234240  21.0330963  28.7826920
 116.8245024  19.8454440  28.2905602  22.7795362  37.0106030   3.5426736
  22.0064783  36.6798997   4.0001118  22.4383307  37.6779747   2.9473352
 108.5586590  71.3222599 105.0197994 108.7535579  72.2383499 105.2173507
 107.7129561  71.1616564 105.4383978 114.5468623  55.0196886   4.9830642
 115.4682953  54.7777605   5.0761390 114.0687758  54.2040777   5.1328677
  24.4481778  53.7522030  25.7467723  24.5432591  54.7040653  25.7127666
  25.3408647  53.4262705  25.8612728 115.3636552  68.8525248 108.5152207
 114.6611506  69.5022392 108.5395473 114.9292297  68.0396080 108.2570177
  88.2165713  56.9904184 109.1722195  87.3914165  57.1958876 109.6116876
  88.8777537  57.0562077 109.8612350  19.4651139  27.3676467  27.2858787
  20.3795338  27.1667290  27.4851298  19.2988813  28.1968284  27.7342749
  24.8654747  45.9498215  42.0041752  25.4238081  45.1880789  41.8484735
  24.2989421  45.6872559  42.7296591  13.4730959  57.1376944 101.1504092
  14.2510915  57.2719145 101.6916498  12.7458918  57.4309731 101.6994020
  91.0493416  54.8324156 106.7520439  91.1009235  54.7419643 107.7035632
  90.1110763  54.8412657 106.5628069   9.8757499  56.4184427  -0.0496021
   9.6575665  55.5166912   0.1859211   9.3836421  56.9542265   0.5724863
  14.3957639  34.1384983   0.7592174  14.9947667  34.8820782   0.8264277
  14.9578452  33.3979821   0.5313294  14.6918786  60.9931993  18.4570920
  13.7912583  60.7582808  18.2336473  15.1705599  60.1649237  18.4245467
 102.2606463  43.8911629   1.2519778 101.6780228  43.8314342   2.0090863
 102.7732486  43.0832720   1.2798975 113.8454337  68.7686157   4.4725698
 113.4400517  69.5123148   4.0266913 114.7515625  68.7693167   4.1640878
  85.2731008  77.5063086  33.3633041  85.5357189  76.5921307  33.4707594
  85.0458044  77.5828743  32.4366403  23.5126233  37.7211428  98.3190962
  23.0609655  37.3349619  97.5686952  24.4414711  37.6637244  98.0950996
   2.6069507  72.0203972  95.2799030   3.1215829  72.8010845  95.4846307
   2.1939363  72.2193480  94.4396242   6.2223232  82.3318291  10.5599713
   6.9817364  82.0238686  11.0546279   6.1029452  81.6769886   9.8720938
 116.9697381  20.6509471  24.1152191 117.0636053  21.2911177  23.4098101
 116.6975034  21.1680794  24.8733044 114.3248553 144.9869587  23.5039425
 114.2719657 144.5176042  24.3364930 113.7505562 144.4966810  22.9156899
   2.9667994  46.8515635 104.5759484   3.1769320  46.0064507 104.9732619
   2.3391575  47.2501850 105.1787718 101.4965863  78.8238573  93.2365915
 101.2646479  79.5116091  92.6125416 102.4489636  78.7529802  93.1718846
   2.1009196  78.8122845  25.2751565   2.6719525  78.0795574  25.0443649
   1.8209811  78.6248112  26.1711025  15.0304258  56.7425680  88.6441644
  15.2156806  57.0717716  89.5236739  14.7388518  55.8413696  88.7822350
  20.8382416  54.6085644  17.7324557  20.7101011  54.1441107  16.9053555
  20.0574732  54.4023800  18.2463849   5.5262637  59.2224979  15.4869592
   5.8864987  59.0931368  16.3643014   6.1698955  59.7744560  15.0427580
 123.7725227  51.9989300  95.7001611 123.3419786  51.6863489  96.4958712
 123.6993423  51.2687349  95.0855955 118.4586478  29.2268658  12.0703888
 118.7600226  30.0062609  11.6035366 119.2373950  28.9025187  12.5226998
  29.4060159  58.1983662  89.1065693  30.1214600  57.5948858  89.3070221
  29.5359707  58.9319515  89.7075653  29.4062448  72.0344210   1.7629924
  29.3898606  72.2095966   0.8221015  29.1302085  71.1212492   1.8414453
  13.1201506   6.3149095  90.2596506  12.4663842   6.6813177  90.8551058
  12.6160479   6.0259104  89.4989976 116.3895536  59.1675663  35.1877403
 116.9254453  58.3929491  35.3580952 115.7010264  58.8577986  34.5993471
 114.9085719  32.5885439  32.1703601 115.8242548  32.6659632  32.4382448
 114.6962435  33.4424520  31.7935443   3.2473794 145.4285009  18.1135452
   2.5847483 145.0454649  17.5387108   2.7659649 145.6743392  18.9035046
  13.1712377  45.4817581  24.1532969  12.8690934  45.5400562  25.0596857
  12.8534973  46.2859297  23.7427163  20.7281637  31.9476461 108.6981165
  20.0998163  32.0966768 107.9915737  21.5453672  32.3280430 108.3760779
   5.3735030  36.4094234   9.6647578   5.6589484  37.2209644   9.2450517
   4.4657487  36.5771365   9.9179125 115.6151558  62.0357752  22.8950119
 116.2612016  61.3309479  22.9405618 114.8110629  61.6462040  23.2383800
  20.1223731  39.9418688 107.3723026  19.6833503  39.4812489 108.0873700
  20.0683475  40.8664465 107.6140960   9.6113110  44.1199064  98.2716616
   8.7976164  43.7596703  98.6243089   9.7024709  44.9706030  98.7008961
   3.8466796  39.5367074   1.2283468   3.1632841  39.5885658   0.5601306
   4.6535173  39.3894029   0.7348423   1.1495958  35.2316928   1.7514370
   0.3812694  34.7232628   2.0110622   0.8822401  36.1439228   1.8636313
  26.0093784  56.5565586 107.9141989  26.7350459  56.5100050 107.2917291
  25.4507589  57.2577763 107.5788315   1.0775012  47.2142124  49.7370148
   0.4238039  46.9580698  50.3876305   0.7804956  46.8040419  48.9247417
  42.7810240  56.6528368   1.3095590  43.7057590  56.8413734   1.1497287
  42.5870609  57.0907545   2.1383145   9.8256284  25.8384633  21.1132598
   9.9810731  26.7400885  20.8319402   9.4417226  25.4114294  20.3474355
  15.5799854  56.2840843  18.0911946  14.8448801  56.1575556  17.4913275
  15.1754749  56.3425875  18.9567471 121.8498904  33.0268764  10.7505500
 121.6103706  33.7420678  11.3399243 122.6423553  33.3343792  10.3104663
   9.0169615  27.1653414   6.4139533   8.5536265  26.9151258   7.2132939
   9.6476138  27.8263354   6.6996044  18.7221491  35.7910633   0.2822495
  18.3388221  35.8585072   1.1567458  18.1986070  35.1213360  -0.1577519
 119.2717958  60.1828051  27.9533768 118.9697570  61.0843754  28.0637360
 119.9595646  60.2401161  27.2901106 108.8895292  53.6411476 106.2145766
 109.1164083  52.9548359 106.8420612 108.3920485  53.1882143 105.5336952
  23.8853765  30.0910020  17.4789882  24.4464993  30.1826000  16.7089343
  24.1565323  29.2632198  17.8758299  10.2270579  20.0958586  13.6221194
  10.1881742  20.3722835  12.7065277   9.3482435  20.2659822  13.9611983
  10.8155513  36.1093402   9.6447593  10.2876389  35.3143978   9.5698643
  10.3445029  36.6508913  10.2780581  21.5412235   5.7043272  15.6597769
  22.3767948   6.1370593  15.8352566  21.6697526   4.8045799  15.9600544
 100.5125184  11.1171842   3.3552307 101.4019174  11.1900568   3.7014794
 100.5151386  11.6658592   2.5708961 117.4215300  39.0160894  89.0213474
 118.3148415  38.7160468  89.1892751 116.9918287  38.9791083  89.8758765
 121.4792202  22.2052121   8.2914948 121.1898515  21.4238715   8.7626684
 122.1626509  22.5804019   8.8468200 105.6568868  49.2209768 108.2600039
 106.2731654  48.6507940 107.8003030 106.1772413  49.6261549 108.9537560
 106.6878290  30.9684277 101.8429407 106.5065855  31.8978930 101.9825038
 106.5987152  30.8463168 100.8977535 102.1516222  54.4134998  86.5268406
 102.3865528  53.6588907  87.0668467 102.7776856  54.3942547  85.8030280
  98.0359573  12.4342954   4.7207597  98.5428113  13.0783451   5.2152598
  98.6927552  11.8398428   4.3581629   2.9588532  94.2179108 109.4155132
   3.5260487  94.6274376 110.0688193   2.0810655  94.2707157 109.7935766
   0.0101965  39.7470927  13.4321737   0.0502701  40.6213570  13.0445051
   0.8804038  39.6111822  13.8070059 112.8208382  14.4759500  13.9427447
 113.2429463  14.1020691  13.1692660 113.0954344  15.3929126  13.9457631
  52.7140760  74.5286226  92.1102425  52.3316479  75.3830767  91.9105204
  52.6661110  74.0459585  91.2850376 104.0668315 140.7227326   2.9895917
 104.2739076 141.5065969   3.4984247 104.9147577 140.3060598   2.8358499
  13.7021530  34.7591853   8.4192220  14.4065809  34.7503996   7.7712003
  13.2314622  33.9387321   8.2724706  50.6319284  43.7687111 100.9066772
  51.5722752  43.9392710 100.8529091  50.2753544  44.5331049 101.3592148
  23.2364726   7.8923339  85.3019905  22.7085996   8.6098766  84.9516869
  23.9739108   8.3252966  85.7320595  37.2314930  20.7245708  86.5971947
  37.0549464  21.6235781  86.8744087  37.9878402  20.4570842  87.1193218
 105.2441580  23.6942172  93.8071728 106.1063380  23.9723706  94.1162205
 105.3842182  23.4532857  92.8914452  38.2441211  23.9503932  68.5307789
  38.0717015  24.5089626  67.7728176  39.0802813  23.5288382  68.3323812
  95.7834525 142.2842772  25.2543680  96.2555904 141.9293837  24.5011274
  96.0089940 141.6977806  25.9764425 106.8569440  17.5633478  78.7234449
 106.8474192  17.0985508  77.8867245 105.9667499  17.9017937  78.8195753
  31.0397363   8.5349387  87.8229713  30.9233141   9.0919197  88.5926819
  30.5348754   8.9685488  87.1349907  19.7042787  18.4457648   6.5434018
  20.2114201  18.9663792   7.1663038  19.1062081  19.0734124   6.1376897
  17.8257453  39.3255281  76.6210079  17.9173636  40.1750565  76.1895657
  16.9451296  39.0319824  76.3873816  82.6778097  17.5128281 108.3018208
  82.3570318  18.3085573 107.8773880  83.2811994  17.8271091 108.9751625
  26.8368173  27.4619269  97.4968624  26.6017938  27.1473455  96.6239166
  26.9507504  26.6656876  98.0157566  21.6917539  40.0693703 104.8066139
  21.1081862  39.9746084 105.5594063  21.3659263  39.4336724 104.1694641
  30.8120203   7.3120105 103.5697269  30.2629852   6.6777033 104.0306473
  31.4031911   7.6504087 104.2422104  10.1217151  18.6644757   5.9150163
   9.3474030  19.0747440   6.3001767  10.7286739  19.3897676   5.7674161
 117.6494736  27.7215481   1.5329019 118.0425281  27.2360897   2.2582094
 118.3750564  27.8784585   0.9286348  18.9678061  13.6216843  98.1483555
  19.4437587  13.9393282  97.3810196  19.2420137  14.2028439  98.8577843
   2.5993794  17.6785183  58.2595730   2.1830308  18.3685124  58.7760925
   3.5377425  17.8134155  58.3918953  99.2840475 145.9809170 101.8363380
  99.7081394 145.8540958 100.9876347  98.3540720 145.8340233 101.6637135
  13.1850922 144.0634563  86.2695312  13.2693231 143.2056708  86.6858768
  12.2586334 144.1271158  86.0374641  46.4183521  69.9671650   3.2907621
  45.9884739  70.7028818   3.7268392  46.0642576  69.1911793   3.7251512
  51.8245649  10.8029449  92.5087833  51.4698648  11.6782141  92.6647377
  52.6660013  10.8007002  92.9650784   8.3856755  29.3158150  90.7402992
   8.3136976  28.5571170  90.1611423   7.5419533  29.3541908  91.1907387
  10.9095192  43.4575224  75.3337622  11.5765190  44.0711546  75.0258636
  11.3800633  42.8682709  75.9233427  23.7280607 142.9716707   5.2725927
  23.3324075 143.0298067   4.4029275  24.3107772 143.7294669   5.3217641
  16.2515891   3.6263770   6.6607610  16.3561630   3.8928434   5.7473699
  17.1453571   3.4847164   6.9727651  34.4294477   8.4559554  13.2639829
  33.9944768   8.8442588  12.5048677  33.7218261   8.2911152  13.8871423
   1.3656370   3.9782938  73.5677147   1.9434810   4.0694192  72.8100729
   1.9281743   4.1581914  74.3209887  11.2864888  65.4417515  20.9692231
  11.4455223  65.4742908  21.9125501  10.9177494  64.5713997  20.8183709
 120.3020085  26.2952757 100.3509521 120.9061075  26.8973827  99.9164772
 119.4465238  26.7178559 100.2747726  48.7393332  38.7986755  11.8283311
  48.1538105  39.5173669  11.5898458  48.8270330  38.8666177  12.7790777
  16.2067938  43.5230350   7.5819532  16.8684018  42.8852463   7.8497926
  16.0716915  44.0679264   8.3572427 119.7184104 143.3855520  88.2154942
 119.0016610 143.2185937  87.6034260 119.8384229 144.3348716  88.1905651
  35.8458924 136.0184664   3.3982221  35.2529192 135.5570085   2.8051988
  35.2969909 136.6805125   3.8184968  24.6411180  36.0255408   8.9866010
  24.8530626  36.5774202   9.7394315  23.9710832  36.5164089   8.5108606
   7.6909095  10.1875293   2.1414415   8.2083654  10.9902465   2.0772783
   6.9178241  10.4406023   2.6459447   9.3920898  20.1990867  83.0068493
   9.6558219  20.6674194  83.7989044   8.7891054  20.7967591  82.5647831
  50.1086283  70.4907513  70.3895712  50.4562187  70.7681847  71.2371778
  50.8725643  70.1684046  69.9113178  24.6815252  23.4373927 100.3573513
  24.5316672  22.5204468 100.5875301  25.2192354  23.7788987 101.0718155
  24.2607021  34.7198915  99.0841293  23.3854628  35.0971770  99.1726875
  24.2870998  34.0202618  99.7368622  31.5121102  29.2998075  65.9524107
  30.6265211  29.6384192  66.0839701  31.7503357  29.5881224  65.0713015
   9.6443617  19.9996233 103.8078213   8.9101207  19.7131634 103.2646275
   9.3594718  20.8371902 104.1732693  46.7284966   7.7514058   2.9843847
  47.6420116   7.4661922   3.0038110  46.6054583   8.1010365   2.1018640
  13.7421048  45.0019217  89.4801521  13.8471401  45.9293079  89.2676640
  13.7501824  44.5593357  88.6314583  15.9147704  13.1870890  93.8937950
  16.6132545  12.6348245  94.2450142  15.8239019  13.8937879  94.5329762
  98.0330438  32.4532247   6.8422071  98.0999083  33.2962894   6.3938752
  97.5118298  32.6381016   7.6234762  13.6418355   5.3442007 100.7634354
  13.2134080   5.6031299 101.5793037  14.4613850   4.9358466 101.0423946
   4.1809046   2.7675039  96.0649490   4.1876382   3.6453533  95.6834221
   3.8794112   2.8993201  96.9638157   4.0138572  17.5965869  96.8033981
   3.4412140  17.7966762  97.5438595   4.3205783  18.4510767  96.5000820
 117.6056988  35.6981468  76.1040163 118.1327320  35.8098507  75.3128195
 117.9815406  36.3157582  76.7313337  28.1197882   5.3079957  97.8552532
  27.1685529   5.2207530  97.7938461  28.4424734   4.4069511  97.8702545
  12.4414062  18.9534235  75.6867313  11.4864397  19.0068698  75.7243299
  12.7427828  19.5991135  76.3258600  20.3809762 137.0442892 108.6481285
  19.9653888 137.1767116 107.7960777  20.4112935 137.9178859 109.0381813
  14.2864811   2.6323956  15.7994405  14.1827440   3.5722715  15.9481183
  13.4004474   2.3195392  15.6169740   8.3919358  41.3554001  93.7109089
   7.7559316  40.6996632  93.9968109   8.5345936  41.9031954  94.4827938
  89.4831414 128.0721004  95.8827496  89.3431467 129.0189070  95.8688641
  89.0490860 127.7541728  95.0910759  83.6800355  11.4895713  45.0920105
  82.8359479  11.1361384  44.8112249  84.0934724  10.7708693  45.5703068
 116.2982137  19.8633766  78.9161301 115.3527004  20.0009346  78.8585711
 116.3915426  19.0353143  79.3871212 106.7170805  17.9120839   3.6226312
 106.3413197  18.2874155   2.8262845 106.3231809  18.4167421   4.3342439
   9.3922251   4.5334011  89.9167633   9.5406777   3.5887170  89.8747349
  10.0340426   4.9038970  89.3109226 118.5938514  53.5673714  12.4229471
 117.7547718  53.2301426  12.7367154 119.1315008  52.7865314  12.2908250
 124.2153550 146.3449209  41.1808053 124.4009220 146.7435724  42.0310251
 123.7085328 145.5602379  41.3896982  30.8388758  25.9066176  65.4039049
  31.5986633  25.4881334  65.8086634  30.8715343  26.8121457  65.7124281
   0.3745398  49.9869537  74.1746283   0.7754213  50.3867102  73.4027958
   1.1025885  49.8564148  74.7821903   2.8733715  20.6237006  87.2006321
   3.0342904  19.7271693  86.9064045   3.2861319  20.6704974  88.0629921
  33.6999965   9.8913848  88.2931137  32.9905462  10.2479422  87.7585316
  33.2680321   9.5835024  89.0898895  24.6016359  42.3517513 102.2325993
  24.6031475  42.8135538 103.0710316  24.8894024  43.0075073 101.5974522
  17.4758184  43.3193636 101.8489552  17.1658134  43.4054184 102.7504730
  16.9920826  43.9883089 101.3644505   7.5846964  49.7448397  90.8967686
   6.7059106  49.9608374  91.2087154   8.1090784  49.6659994  91.6936588
  41.5677643  48.0419254 105.2839565  40.8516788  48.0927277 104.6508121
  41.5120888  47.1542740 105.6377983  32.2982979  42.0487881  79.0153599
  32.4273229  41.2929201  78.4424257  32.0652866  42.7624369  78.4215212
  21.3294792  10.6447899  83.9908600  21.8304992  11.3263094  83.5428143
  20.6042552  10.4510796  83.3969212  35.5599976   4.5863444  12.8921644
  35.2662039   4.9025881  13.7465040  35.9198642   5.3613120  12.4607030
  90.8703870 142.9405902  67.6195097  90.7488365 142.2303916  66.9893694
  91.0648341 143.7077899  67.0811558  51.6022396  23.9716411  83.1026554
  51.1775112  24.8286700  83.0660629  52.3165512  24.0310478  82.4682522
  31.3207006  57.9358673 106.3116074  30.5229783  57.4436617 106.1176872
  32.0304775  57.3130751 106.1548328  18.2817578  26.9647026  62.9993248
  17.7166033  26.9143128  63.7702322  18.4253418  27.9019785  62.8684616
   4.3612790  22.8077078  86.3385487   3.8892713  23.6178231  86.5313053
   3.6735868  22.1677685  86.1547375  11.0945141  14.0716636   6.9838182
  10.7978880  13.1851208   7.1894590  10.4394948  14.4075024   6.3719407
  12.3725879  37.6272011 105.6451893  12.3296595  37.0962691 104.8498821
  12.3809361  38.5308838 105.3297234  16.5859914  36.5018749  90.3088284
  16.5289330  36.2874150  91.2399483  17.4961233  36.3182378  90.0760841
  14.0291464  39.7007990  15.3073827  13.9683878  38.9246535  14.7504846
  13.1298125  39.8616886  15.5929414  36.3464332  42.7319431 106.0407448
  35.6894279  42.0457411 106.1578083  36.1840272  43.0714035 105.1606178
 112.0661253 138.9464069 101.9439888 112.8415245 139.4330866 101.6644764
 111.8589909 138.3789141 101.2015152  23.4674931  23.2333994  66.9583035
  24.4084787  23.0878735  66.8603230  23.3364606  23.3261991  67.9019403
   5.9798330  54.0115595 104.9027920   6.8908530  54.2279625 104.7041798
   5.5832559  54.8473263 105.1486588 112.3967165  46.4608145  94.0203094
 112.7457196  46.9199514  94.7842598 113.1639380  46.2841463  93.4758949
  35.9798670  10.0734413  52.1442652  35.1324344   9.7716486  52.4713945
  35.8980393  10.0301874  51.1915493 117.7655554  75.4128265  91.5861034
 118.3960540  74.7261095  91.3690281 117.4900515  75.7616949  90.7383919
   0.9752645  35.0345874  48.9977932   0.9522240  35.3848028  48.1072617
   1.6263893  34.3338418  48.9628077 104.4192404 141.2304265  75.9521008
 104.2883748 140.4859496  76.5393496 103.7765736 141.8786395  76.2402534
  21.3892412  53.3441973  85.6120968  22.1698761  52.8818989  85.3069401
  20.6878042  53.0335379  85.0396347  10.8993506  33.8186955  67.3953629
  10.3712201  33.4841204  66.6705370  10.3145707  34.4156122  67.8622150
 103.8227457  15.6725800  12.4120084 103.0783982  15.9245837  11.8655053
 103.6553997  16.0952866  13.2543603  27.7655244  19.5156419   0.5373899
  27.5474167  20.2318120  -0.0590666  27.5441194  19.8514807   1.4059678
  26.9586921  13.9938283  13.4030572  27.4725866  14.7798550  13.2178251
  27.0255947  13.8818765  14.3513242   8.1202060  13.2739890  72.5879860
   8.6434299  13.8501632  72.0307684   7.8838205  12.5410211  72.0195580
   3.5230368  54.4155598  90.4390335   4.4382215  54.5616007  90.6784916
   3.1791803  53.8572025  91.1363316 103.1969041  23.5441804  99.7469711
 102.7037496  24.1667295  99.2126846 103.4073038  22.8281617  99.1475677
  25.4912233  46.5574312 108.9136028  26.1813927  46.6279078 108.2541084
  25.7264972  47.2063208 109.5767975  23.1903791  71.5606308  21.1656228
  24.0774536  71.3927841  20.8475725  22.9414010  72.3886776  20.7550374
  87.3566431  34.3035460 103.1642818  87.9049940  34.7570848 103.8044739
  87.9285306  34.1747260 102.4075890  21.6479421  52.8957081  80.9969997
  21.9370747  53.7320471  81.3619328  21.6179681  52.3039246  81.7487526
 118.5908992   2.8969628 109.3639183 118.2333375   3.7207782 109.6951485
 119.3660325   3.1555444 108.8653851 116.2606937  36.7587829  88.0450535
 116.5231181  37.6577401  88.2431507 116.1978609  36.3336182  88.9003372
  96.4033241  59.2355537   6.3752118  95.6469650  58.6544514   6.4556829
  96.8082494  58.9879274   5.5439798  39.8310018  10.6201386 103.2573509
  39.9469829  11.2233186 102.5232124  38.9075494  10.7059121 103.4942150
  39.5469046  48.3806181  99.2433834  40.2347517  47.7227354  99.3448162
  40.0040770  49.2183924  99.3166161  10.0441551   7.3316979  78.3608389
  10.0478017   8.2149494  78.7297344   9.6787214   7.4403459  77.4828386
  41.0542488  23.0639434 102.2945690  40.4297924  23.7863898 102.3605728
  40.8982754  22.5400043 103.0803204  30.7463408 143.4975175   1.2097970
  30.9012532 143.9562280   0.3840677  31.4586258 142.8606702   1.2672845
 124.4888366  24.7080803  88.5941696 123.8700869  24.8828769  89.3032742
 123.9420380  24.6338129  87.8120422 115.6772668  33.5160112   2.4552003
 115.9817100  32.7200174   2.8910199 114.8152239  33.6829805   2.8362981
 120.9716720  19.4569850  88.2400322 120.8148441  19.2595446  87.3166466
 120.5692167  20.3152037  88.3731651  20.2328467  22.8391314  92.5119495
  20.0664139  21.9253135  92.2807121  19.4873500  23.3175731  92.1492386
 117.4203808  25.2096915  60.1369429 118.0325288  24.5569468  59.7971916
 117.6433010  25.2871370  61.0645962  44.1754055 139.6921969  14.0456811
  43.2593966 139.9699635  14.0461484  44.4017029 139.6146567  13.1188527
 108.3133192  55.8786440  67.2930050 108.3154196  56.7648029  67.6548815
 107.5592644  55.4544783  67.7025366  54.0075493  11.4319348  83.5566998
  54.8276281  11.1529338  83.1494331  54.2767811  11.8543375  84.3723679
   6.0499066   8.1672668  95.2044678   6.5159321   7.3495859  95.0299740
   6.1562318   8.3074498  96.1453629  86.4966959   5.2333158  23.5502855
  86.6085405   4.9244094  22.6512281  86.1468191   6.1194158  23.4573022
  25.8293176  39.3323135   7.4509279  25.3482318  40.1513100   7.5693837
  25.3945041  38.9035869   6.7137948 117.3893727  33.5055375 103.4477901
 117.5336105  34.0842915 102.6991367 117.1610833  32.6617503 103.0577278
  13.3855557  23.6810684  30.1339189  14.2527294  24.0003276  29.8842946
  13.3906901  22.7561975  29.8873082  17.2440112 120.4851145  86.5577793
  18.0285048 120.9766955  86.3145638  17.1791005 119.7954840  85.8971500
  23.9293480  19.4747412  77.1904516  23.2184601  20.1156712  77.1814919
  23.9716363  19.1513634  76.2905216   6.6552198   2.5560465  97.4977589
   7.3295915   2.3326150  96.8562508   5.8293021   2.3625897  97.0542908
  12.1198702   5.0489259  98.5863686  11.2511194   4.7017920  98.7888622
  12.6117420   4.9541894  99.4020367   7.1423680  30.8724713 100.5369091
   8.0392909  31.1726880 100.6839848   7.1404451  30.5573654  99.6330643
  18.7257266  11.8638492  90.4885769  17.9393101  12.3690188  90.6949329
  18.4792030  11.3366878  89.7286034  38.9552307  41.2636232   8.2435838
  39.8152018  41.3571692   7.8337900  38.4544015  42.0138264   7.9232732
  29.6124172  27.0780373  75.3497553  30.2745414  26.6120148  75.8602953
  28.9280915  27.2923136  75.9838057 123.6426981  53.2763338  88.9129448
 124.4632340  52.8092957  89.0705109 122.9617352  52.6188850  89.0553570
  23.3186746  19.2873836   9.7953168  23.8271141  18.4808445   9.7103635
  23.6831284  19.7200596  10.5674497 124.2362688   2.2983038  93.5291100
 124.2577313   1.3641754  93.7368965 124.2669551   2.7339062  94.3808937
   8.6010742  44.5721245   2.8569547   9.2550635  44.7554684   3.5314313
   8.5011792  45.4009247   2.3886148  31.6595292  21.4787006  11.7750970
  31.4880157  21.4100027  10.8358995  32.1264935  22.3084879  11.8732301
   5.8547527  20.6891155  69.1614294   6.4310974  19.9601924  68.9317989
   6.2215835  21.4404726  68.6954594   6.0002989 134.8714418  11.5767137
   6.0122985 135.7976634  11.3354627   6.2535745 134.8610575  12.4997464
  29.1949821  50.8335209  89.4442749  28.5258722  51.5051031  89.3119907
  29.8378897  50.9967518  88.7541580   6.2313372 138.3983494 100.5770493
   5.4236901 138.8921357 100.7188702   6.2262917 138.1944049  99.6418381
 119.7550148  35.1759624  40.6784574 119.4619418  35.9235191  40.1573983
 119.5924342  34.4160271  40.1196233  15.0978220  36.4427638 106.9632816
  14.6757877  35.5958033 107.1074200  14.6077549  36.8346286 106.2404346
 108.5944468 128.5365004  67.7548456 109.0393145 128.5927756  68.6005163
 109.2616672 128.2030899  67.1549368   6.0680771  29.6721363   5.2189771
   5.9315908  28.8173819   4.8103277   5.2673727  30.1601315   5.0267164
  23.4400296 120.3706402  90.6020641  24.0352678 120.4697723  91.3450909
  23.0130982 119.5264716  90.7481575  37.5357580   1.8675721  21.2600461
  36.6242909   1.9003895  21.5505258  37.5927711   1.0658053  20.7402841
 122.7324638   2.1036163 104.9475288 122.8699262   1.5576896 104.1733837
 123.5261405   1.9838864 105.4690361  20.8409524  65.4862595  79.8576546
  20.1521444  65.9447050  79.3764019  21.2295961  64.8941660  79.2137527
 116.0975516  58.8091230   2.2458879 116.3156784  59.1500378   1.3784543
 115.1976818  58.4942913   2.1601621  94.5675392  31.8781781  22.0143167
  93.8612432  31.2331891  21.9773332  94.6766967  32.0605826  22.9476110
 119.2189217   3.7027737  18.1264631 118.4169633   3.4663370  17.6604215
 119.7902802   4.0670633  17.4503843   1.3395537  36.0062194 108.6657047
   1.9464329  35.9891820 107.9256821   1.7753865  35.4913020 109.3447781
  16.4252841  43.6512232  66.8341017  16.0882926  43.8875294  67.6982927
  17.3697221  43.5616779  66.9615793 120.0013382   1.9540791  73.7838221
 120.7519243   2.5316960  73.6452150 119.7136588   1.7192957  72.9015779
  18.5604990  19.5137036  37.3716871  19.3619061  19.7622752  37.8323308
  18.6631262  18.5775208  37.2006265 122.0996041  24.7376513  91.4679813
 122.6563943  25.1893544  92.1021652 121.4783064  25.4049897  91.1766434
  18.3044624  41.0900831  67.7825832  17.7317035  41.6375637  68.3196545
  18.9823806  40.7877016  68.3869219   0.4541432  24.0078998   3.1361238
   0.5014670  24.0861797   4.0889398  -0.3277579  24.5039248   2.8935949
 114.4235320  12.5598240 105.8695316 114.9195231  11.7552269 105.7183743
 115.0407553  13.2631207 105.6679344  18.1937742  25.2995682  29.6947900
  18.6827350  25.7643819  30.3738347  18.8093972  25.2237773  28.9657537
   2.0864910   7.9689014 108.0874062   1.6510805   8.2927042 108.8759518
   2.2790223   8.7569743 107.5793648  35.4684234  59.0394878 105.2076721
  35.7733417  58.7484360 106.0670567  34.7964835  58.4029198 104.9637222
  31.9687915  29.0297794 102.2959805  32.8396392  29.3542075 102.5253296
  32.0228410  28.0835080 102.4296951   8.6774498  40.8555174   8.7254087
   8.3524418  40.6164551   9.5934240   9.4850159  41.3398790   8.8970605
   6.9695121  18.7480581  77.0711470   6.6444200  19.4140422  77.6769590
   7.7185917  19.1606224  76.6411400  22.4760127  41.7749786   6.3281003
  23.2230854  42.0550489   6.8569413  22.3377466  42.4925661   5.7098810
  94.0767450  64.8239040  95.2002907  93.2465739  65.1955318  94.9020672
  93.9039320  63.8859177  95.2812481 123.1953853  40.3665543  64.7959518
 122.3196021  40.0596046  64.5613956 123.6288994  39.5961046  65.1629686
 111.0640282  29.9463654  21.4088384 110.4585249  30.1064873  20.6849901
 111.4373214  30.8060217  21.6034643  20.7989407  30.3691792  93.2822514
  20.7392287  30.4848003  94.2305565  19.9278450  30.5975628  92.9577923
   4.0689683   4.0739658  69.0580511   3.1875601   3.7843981  68.8224602
   4.6507850   3.5017797  68.5577297  33.4442377  45.3126955   3.3360616
  33.5323429  44.3777037   3.1509630  34.0952349  45.7308102   2.7724878
  46.3612938  33.7544513  89.4577122  45.6666899  33.4376884  90.0351429
  45.9317160  34.4025779  88.8994789  16.3335252   6.1349297  25.4819727
  16.4384019   6.2388873  24.5362329  15.9406698   5.2682298  25.5855513
  71.7887134  43.0794573  81.2673569  70.9072132  42.7777576  81.4868355
  72.3433704  42.7239370  81.9617558  41.8188524 132.4854154  57.1830893
  42.2167397 133.1441815  57.7522516  42.5161171 132.2425635  56.5739250
 120.2623282  15.9682834 104.1403961 120.3758938  16.2329781 105.0532341
 120.5337212  15.0505567 104.1215897  11.2789047  44.7382355  32.7022592
  10.9017372  45.1296473  33.4901563  12.0710111  44.2973232  33.0095044
  39.1883516  35.9049916  91.0643291  39.8423338  35.6824613  91.7269135
  38.9068794  35.0604653  90.7125092   2.7864379  12.4057424  85.7741642
   2.7019370  12.3453379  84.8226166   3.4928095  11.7972577  85.9909916
  16.6026378  23.4238744  62.0780230  15.8245480  22.8889394  61.9210052
  16.8479097  23.2301235  62.9827547  49.9007225  15.2229321  83.9881992
  49.2196846  15.8203793  83.6792088  49.4636154  14.6803951  84.6445751
  17.8289890  38.0598521  72.9262400  18.0254149  37.1449184  73.1276035
  16.9228876  38.0480385  72.6179028  21.5976310  10.4604745  59.4530344
  20.9673691   9.9858898  58.9110279  21.5339565  10.0456190  60.3133106
   9.8778772  32.2473693  86.5386486   9.4296479  32.0479655  87.3605728
   9.2390323  32.7500844  86.0332966 118.3721322  16.9681680  95.8956623
 118.1057281  17.2510147  96.7704582 118.4209133  17.7774239  95.3867912
 116.1858178 140.6415565  87.4603462 116.4392239 141.3373948  88.0668259
 115.3921241 140.9695656  87.0376205  58.9805126  30.3172803  12.7186147
  59.0139627  30.7926846  13.5487405  58.3867645  30.8317113  12.1717588
  29.6749282  41.6929626  44.1303158  29.3775678  42.4577522  44.6231699
  29.4096255  40.9450865  44.6655989  27.5902700  30.4728103  93.9809799
  27.7690578  31.3177252  93.5682011  26.6651082  30.3082037  93.7987423
  15.6368911  28.5598207 100.6327248  15.7938778  29.4275689 100.2604294
  15.9546077  27.9517627  99.9652290  37.8445649   8.5277331  80.3319454
  38.7654185   8.5643935  80.0732517  37.6211572   7.5978643  80.2911472
  28.9407444  33.2230997   1.4526120  28.6831951  32.3514366   1.7527906
  28.1710196  33.7689090   1.6133825 108.4359986  24.4024396  98.0931473
 107.5842912  24.3404770  98.5255718 108.7915737  23.5147715  98.1361198
  26.3350606  52.9934072  74.5715952  25.7533312  53.0425644  75.3301525
  26.9715500  52.3164082  74.8013496  22.1438193  36.8059850  72.2615719
  23.0640292  36.8139982  71.9981670  21.6698146  36.5561366  71.4683962
 123.2532778  47.0891333  72.2041988 123.0595598  48.0149031  72.3513508
 122.4608212  46.7405748  71.7958450  24.0710497  10.1809418  90.1748562
  24.1847110  10.0850856  89.2292786  24.4513369  11.0359359  90.3763485
  31.8812895  52.8724146  83.3091545  30.9802175  53.1440210  83.4838867
  31.9878316  52.9891205  82.3650932   5.3610891  55.2854204  28.7043897
   4.7433040  54.5673132  28.5669271   5.9431320  55.2492428  27.9453412
  19.6809196  11.6173983  82.0547962  19.5558417  12.4973309  82.4101925
  18.7976897  11.3189006  81.8379211  34.9116826  36.7023063 100.7715607
  35.6883669  37.0134974 100.3066349  34.2482710  37.3717952 100.6045151
  21.2003374  49.2208052  92.4321747  20.8929586  49.2196894  93.3386803
  20.7057834  48.5179424  92.0107079  18.8908648  24.2645121 104.2871380
  19.4975507  24.6687984 104.9073887  19.2140281  23.3693314 104.1849041
 124.8674225   8.7762660  79.2619467 125.1472541   8.7315565  78.3476543
 123.9838236   8.4081864  79.2602587 106.4258737  10.5209458  84.0275669
 106.4052803   9.9091810  83.2916737 106.5247077   9.9637282  84.7995663
  47.0605087  43.8486814  84.2053032  46.9423866  44.7881413  84.3456745
  46.5321398  43.4361267  84.8885727  14.6262288   0.5650139  68.9415073
  14.5825720   0.7739193  69.8746109  13.8036001   0.1109198  68.7589836
   9.2655766 123.6644454 106.6961765   8.9481878 124.5350117 106.9361973
   8.4706753 123.1509227 106.5524387   5.4533380  47.7488470  75.5612612
   6.2235272  47.5156450  76.0795832   5.4523003  47.1215534  74.8382616
 115.8068377 137.7079822  69.5477819 115.8373500 136.7814220  69.3094826
 114.9384565 137.8279597  69.9321651  11.9967186  47.6124048  67.2799349
  12.1545577  48.2770252  67.9504538  12.8412700  47.1747589  67.1730042
   9.4839370  67.0706987  98.9897823   9.9038357  66.2362385  98.7809944
  10.0529981  67.7308178  98.5939884  25.5861568 135.3829379   0.1629201
  25.8171487 135.7345349   1.0227243  24.7367239 135.7765586  -0.0364836
 123.8030707   1.6797425  85.4176903 123.3573522   0.8719642  85.6727600
 123.0945343   2.2972679  85.2363873  11.5949893  31.2919974   2.6992837
  11.8055761  32.1686292   2.3777143  10.9513199  30.9562540   2.0754281
   9.5919299  44.8015165  87.9536724   9.2526537  45.6155729  88.3257389
   9.0515006  44.6489477  87.1784973 112.1182925  41.5589380  82.2257614
 111.4651579  41.4925957  81.5291691 111.9582147  40.7935667  82.7778625
  14.2632389  27.4573064  80.0486279  13.4371221  27.2835279  80.4998016
  14.8477578  27.7793765  80.7348061 118.0306012   6.3360822  69.1085100
 118.6079443   6.8730652  69.6512413 118.1942952   6.6366351  68.2145882
  22.0198679  54.4123173  99.9787426  21.0931778  54.6457338  99.9240112
  22.2989297  54.3243408  99.0673637  27.3394728  33.8071656 107.0379066
  28.0282688  33.5103703 107.6326370  27.6938748  34.6015310 106.6383839
 114.4216556  10.1244354  71.0708761 114.8274786   9.3898916  71.5312910
 115.1539124  10.6953800  70.8383799  11.9587827  23.0384064  40.1474524
  11.5087259  22.4399781  40.7437420  11.3769948  23.1045389  39.3902326
 105.7882757   4.1874123  63.4175539 104.8987550   3.8363823  63.3755636
 105.8643670   4.5417151  64.3035078   7.3195934  25.3081036   8.0124227
   6.6059530  25.4919314   8.6232797   6.9023585  24.8361874   7.2916929
  17.3630536  36.6237330  54.5625210  18.2440913  36.9124889  54.8004818
  16.9755971  36.3319182  55.3877211  15.7963204   6.6205025  71.6662073
  16.5800381   6.5744758  72.2138357  15.0904500   6.8357605  72.2758293
   2.4136609  47.7680588  89.8512459   2.9246676  48.3819294  89.3237400
   1.8678296  47.3036814  89.2166996   1.6483304  10.0276148  72.5658798
   1.8567088  10.2986729  73.4599400   2.4940062  10.0094962  72.1178436
  15.8209944  23.6726046  89.2536831  15.9407032  23.8407779  90.1883602
  16.6746736  23.3586216  88.9555645  19.5988739  14.5846331  91.2026119
  20.1572108  14.8130000  90.4594135  18.9743114  13.9521253  90.8475304
  34.9800348  12.0583844 108.6925411  35.3638768  12.9121256 108.4924889
  35.2433658  11.8831456 109.5959663  35.6146646  31.1226821 100.7243156
  36.2168288  31.4143300 101.4088440  35.1861143  31.9244623 100.4247856
  89.6450180 122.0084829  82.8691673  89.6027226 121.5782637  82.0151520
  88.7338585 122.2123141  83.0800629   2.4174215  51.8070412  80.4627705
   2.9952148  52.1942902  81.1203671   2.9625458  51.7316008  79.6795845
   0.8720499  19.3220747  76.6784525   1.2370688  19.3604243  75.7944155
   1.2785356  18.5500550  77.0721340   1.0037688  53.1137228  67.2667742
   1.9045427  53.2661963  67.5524092   0.5867901  53.9736748  67.3200560
  11.8900001  11.9009304  82.1118164  12.1265912  11.2479877  82.7705383
  10.9731221  12.1053004  82.2956657  20.6453609  51.4236975 104.0091324
  21.4939690  51.3653040 103.5701752  20.1650381  50.6534958 103.7053013
  21.2326550  53.3236408  93.1399059  20.3210592  53.0586481  93.0174065
  21.1904502  54.2697668  93.2788372  37.3671436  20.8715820  75.1422071
  37.8706932  21.5278530  74.6605682  37.8535867  20.0568247  75.0166082
  16.0352600  37.1310639  86.6201687  15.6811237  37.3765540  87.4748898
  16.5293121  36.3284111  86.7871666  26.7319369   5.4861653  49.1977930
  26.2185907   4.6794873  49.2422485  27.6390243   5.1891476  49.1256428
  18.7838852  40.4348135  85.9612846  19.4580066  39.8498082  85.6155109
  19.1520786  41.3122606  85.8576298 104.0002698  13.6138296  93.1316471
 104.4393463  12.7866423  92.9336452 103.4265370  13.4096730  93.8701439
 118.8897223  23.5631227  32.8701154 118.7530745  22.6339006  32.6854364
 119.0780730  23.5957408  33.8080350 116.8781812  24.6041846  92.6118469
 117.0639313  25.0727868  93.4255695 117.6854677  24.1266632  92.4208164
  37.9087329  40.3575373  59.5011663  37.8055596  39.5080590  59.0722418
  38.8557649  40.4737234  59.5777607  43.9482546  21.8727851  96.6136837
  44.1130829  22.7920938  96.8233013  44.8059130  21.4536023  96.6839695
   9.4473749  29.2639136  46.5707731  10.0287986  28.7757659  47.1537781
  10.0318933  29.8363471  46.0738945  29.8118639  44.6085596  86.8829441
  30.0759840  43.7745762  87.2714615  30.3434277  45.2629566  87.3361969
  47.6464033   7.9286736  68.9468813  47.7700758   8.7985802  68.5671425
  47.7225304   7.3299795  68.2039118  10.4693604  31.6906929  21.9356751
   9.7315031  32.1235347  22.3651481  11.1729753  32.3393106  21.9570017
  25.5379891  46.8889189  87.0610523  25.8223295  47.8017855  87.0156670
  26.1955833  46.4601803  87.6087570  49.9492788  49.9584293 101.9078732
  49.4967508  49.1884136 101.5635967  50.8571434  49.6746731 102.0151234
   0.3131973  26.5085816  72.6490164   0.4447248  26.5944290  71.7047930
   1.1964896  26.4185333  73.0066729 117.1687383  24.5496011  97.4437904
 117.6094837  23.8222766  97.0044994 117.5470788  24.5630860  98.3229446
   4.2910117  26.3766623  78.7969303   4.4128054  26.9833136  79.5272541
   3.3413875  26.3089442  78.6976290  26.3849616  38.0295157  60.2596331
  27.1530390  38.0930686  59.6919632  26.1207581  37.1112323  60.2032137
 124.1417652  10.2111673  63.1387472 124.7459838  10.7585359  62.6372099
 124.6683420   9.8759586  63.8644075   2.2470841 142.9212213  72.1850872
   2.5044456 142.6131643  71.3161230   2.1626815 143.8697038  72.0876741
 100.1890630 146.4419451  77.3983717 100.1889510 145.5628893  77.7771759
  99.8168511 146.9978127  78.0829859  11.2526643  66.1286259  88.4907341
  11.8696535  65.9272861  87.7871609  11.8011606  66.2296629  89.2686653
 111.4806873   4.3149370  49.7260380 112.1213872   5.0258517  49.7443628
 110.6763465   4.7255260  49.4087315  10.9774578  47.7875566  54.5475149
  11.3990068  48.5588741  54.1685677  11.3148820  47.7455139  55.4422855
  29.6449566  36.1230922 106.1150169  30.4242229  35.6057572 105.9116840
  29.8954034  36.6434741 106.8783665 111.3943989  45.9363794  37.6248407
 112.0032412  45.4931927  38.2157111 110.8210713  45.2397537  37.3050904
 120.8563620  35.1898122  84.8356533 120.6560380  34.9681187  85.7450199
 121.7253969  34.8181581  84.6843719 116.0205568  28.7702489  13.6605970
 115.4142392  28.4285879  13.0034200 116.8785716  28.7313366  13.2380716
   9.5548946  45.9431219  76.4836216  10.0251782  46.4765835  75.8429337
   9.3623751  45.1275301  76.0210514   4.1935712  37.9653955  89.7864246
   4.2396429  38.0358505  90.7399178   5.0137979  38.3504534  89.4779015
  14.4987130  46.3710546  66.4527702  14.7827756  45.6672621  67.0360470
  14.9687696  47.1445751  66.7641306  13.9824760  64.9876165  87.4670506
  13.9804828  65.3421450  88.3561707  13.7921989  65.7411575  86.9083023
  11.1630476  34.4142485  59.6588898  11.1108470  35.3688169  59.7069407
  11.0707438  34.1233587  60.5661345 119.7920883  33.0080748   1.3875047
 120.3365666  33.3106875   0.6607381 119.1115851  32.4780846   0.9724656
 121.3462994  61.5265274  47.6933146 121.8949065  60.9981203  48.2730103
 121.9588516  62.1206474  47.2596836  10.7258952  45.0414753   4.4171850
  11.3122010  44.5420551   3.8488046  11.2978911  45.3993034   5.0961629
  18.6965787  17.9317939  99.0321827  18.1035519  17.4392438  99.5995903
  18.4050703  17.7252448  98.1441593 100.9980292   5.4729962   4.6975938
 100.4719204   5.3750306   5.4912225 101.1779851   6.4115924   4.6438733
  15.9856224  52.7027941  86.6401768  15.0970888  53.0179214  86.4745522
  15.9006274  51.7497587  86.6670799  38.1682992  33.6139274  85.1237965
  38.3047843  34.5398140  85.3246498  38.2357407  33.1726909  85.9705448
  27.6658392   2.7898043 106.1576462  26.9886518   2.2108610 106.5076065
  28.0233169   3.2328287 106.9271755 115.8297736  32.4376988  93.7308407
 115.0286675  31.9141150  93.7129498 115.9696782  32.6926661  92.8188896
 107.0356829  56.8974781  62.3096800 106.8120832  57.7936840  62.0585775
 106.8133110  56.8466520  63.2393026  22.2697210  25.2513361  62.6604319
  22.3274851  26.1916232  62.8299999  21.4228749  25.1373339  62.2290564
   2.2964467  15.1391494  87.2178841   2.8814724  15.8245516  87.5406837
   2.8071821  14.6840382  86.5483665 122.3296390  44.2724133  73.7015057
 122.3914481  44.8742342  74.4432783 123.2389415  44.0768290  73.4753513
   0.4943192 142.5696168  88.7382126  -0.3250598 142.1721933  89.0330029
   0.8297793 141.9643254  88.0769062   8.8333887  28.2841468  65.2330971
   9.3161815  28.8186336  65.8635426   8.9308381  27.3878646  65.5546761
   8.3817261  65.5856848  88.0454063   7.6761502  65.3342056  88.6413574
   9.1571158  65.6445265  88.6035633  30.2247643  40.4411364  75.8630037
  29.8263431  41.0034323  76.5273190  30.5953670  41.0503769  75.2244806
 112.4247164  62.7072477 101.6096973 113.0324346  61.9884443 101.7835617
 112.7341432  63.0891323 100.7883263   8.5275203  38.0684972  60.4596901
   8.2309717  37.9718375  61.3646507   7.9003930  38.6748338  60.0656128
 122.1376902  44.6297026  61.1894751 121.4240784  44.4626665  61.8051767
 121.9713507  45.5144978  60.8643627  20.2674055 109.0066142  80.0585270
  19.8343563 108.1573505  80.1448631  21.1820388 108.8327903  80.2809334
 118.1058747 132.1155972  74.1216755 118.6451275 132.7717085  73.6801386
 117.6647932 131.6503567  73.4108829  12.1078551  38.4533215   0.6954423
  11.7083311  38.2339835  -0.1462802  12.8771210  37.8863645   0.7504216
  20.3541613  41.7919016  72.4724054  20.9164786  41.0346937  72.3090935
  20.6064558  42.0938349  73.3449984  15.3717363   3.7481624   0.7197515
  15.6506646   3.9153624   1.6200105  16.0325229   3.1495467   0.3715364
  15.4859173  60.1799917  87.5961018  15.3626990  59.8545790  86.7043877
  15.8871651  61.0416794  87.4833012   9.4398677  39.2668176  85.3110790
   8.6027664  38.8331366  85.1455116   9.2429572  40.2011395  85.2440166
  13.4141564  43.4502411  81.4037609  13.3629501  43.2285452  82.3335266
  14.1830182  42.9764605  81.0865593   2.9846737  20.6429195  96.3138390
   2.5777009  20.9694719  97.1163177   2.3834598  19.9685168  95.9976768
  19.0140378 125.9077305   7.7003995  18.4530389 125.4110355   7.1047441
  19.1092336 125.3424687   8.4669820  14.5940340 141.4984266  47.4511242
  13.8549256 141.3373799  46.8645954  15.3392780 141.6334919  46.8658018
  29.9456573  37.2776484  85.7507420  29.4885182  37.0491004  84.9414062
  30.7035303  37.7862477  85.4623127  85.1252217  22.7334833  87.8651619
  85.7888002  23.3328485  87.5236130  85.2433819  21.9307590  87.3573208
 118.2086683   5.9143150  35.3852677 117.6031858   5.7113075  34.6722364
 118.1172890   5.1806825  35.9932685   4.4060251  56.0223913 105.3483677
   3.4859931  56.2444496 105.4914093   4.8150665  56.1316776 106.2068367
  80.5419559  27.0623136  77.2981596  81.3051433  26.5366030  77.5377464
  80.1606197  26.6036415  76.5495348  28.9253736  38.7817740  73.9212656
  29.5302558  39.2408276  74.5040321  29.4572639  38.5467076  73.1609583
 122.3976374   6.2975788 105.8812618 122.4389294   7.2234225 105.6417942
 123.3123664   6.0370457 105.9890747  22.2069359   5.4868060  99.1035461
  22.6168132   6.1324263  98.5278702  21.4350677   5.9327024  99.4522953
  36.3911057  12.6366508   3.4163133  35.6545639  12.4933994   2.8219930
  36.7311001  11.7593205   3.5921804  24.4463706 137.1542675 101.0509777
  23.9459300 136.8402482 101.8040943  25.3168941 137.3405797 101.4027119
 108.7813277   6.3021624  93.7765217 108.1987686   6.4449650  93.0305576
 109.6250398   6.0804701  93.3825302  29.7961807 131.2373061  97.3959160
  30.6594968 131.6335554  97.5138378  29.9800754 130.3266043  97.1656227
  22.5612187  10.0450361   6.2793962  21.9761419   9.8560953   7.0130292
  22.6440120   9.2104793   5.8179990  30.3439689  37.5603533 108.7323093
  29.4321680  37.4510217 109.0023136  30.4551888  38.5067725 108.6420250
  19.2846501  54.3127012  65.9923506  20.1193810  54.4250154  65.5375576
  19.4061637  54.7598791  66.8299103   0.3487298  49.4186592 109.3190384
   1.0228293  49.8155880 108.7674236   0.1241316  50.1012611 109.9513721
  94.0726156 138.6011351  96.8174934  94.2597503 138.3389992  95.9161091
  94.7514529 139.2429162  97.0261288 107.6054854 134.9280448  79.7626543
 108.1410021 135.7212038  79.7814417 108.0328984 134.3357677  80.3813362
   7.7325350  26.7367220  68.6165237   7.7730650  27.3776340  69.3263292
   8.6481345  26.5635490  68.3976221  35.5436850  37.8000426  72.3741102
  36.2669158  38.3927774  72.1695805  35.1965070  38.1236982  73.2053423
  11.2366009  41.7089081  72.8650475  11.1720765  42.0430899  73.7596941
  11.9891322  41.1176634  72.8839111  31.9155693  31.7312741  45.5355167
  30.9812784  31.9152045  45.4380178  32.3477602  32.3957419  44.9989271
 111.1141557   1.8854180  72.9180336 110.5372459   1.3415495  73.4543276
 110.5208368   2.4641028  72.4391460  23.2450080  20.7945395  97.6839066
  23.3099723  21.3239169  96.8890667  22.6825333  21.3050270  98.2663631
   0.0299527  67.5267315  98.9281750   0.3627989  68.2087851  99.5114803
   0.2466614  67.8368139  98.0489063   1.8637863  56.6000414 105.5520916
   1.6043313  56.2944508 104.6828842   1.8705295  57.5543737 105.4783154
   9.5829451  25.7643223  47.9566813   8.6852688  26.0783482  47.8480673
  10.0834787  26.5459800  48.1905794 122.4953509  10.5179417  84.8371887
 121.9999567  10.7989109  85.6065178 122.8261541   9.6501809  85.0691128
  13.6902213  13.0910134  60.0057840  13.1824076  13.8235056  59.6567678
  13.1059873  12.6750505  60.6397200 111.2692661  35.7838869  64.8671961
 110.5525166  35.1668644  65.0147867 110.8382613  36.5846515  64.5684576
 102.7480621 140.5441678  80.1571178 102.1561236 141.0847027  80.6802464
 103.2614083 140.0578404  80.8022404  31.2222600  22.3889828  53.8016081
  31.9704866  22.0372987  54.2840052  30.4576230  22.0171642  54.2412853
 118.2851208   3.4372517  89.0806293 118.4137458   2.4988794  89.2189980
 118.3281720   3.5474092  88.1307697  39.6451902  32.4895573  65.8666039
  40.4882765  32.8909612  66.0771084  39.8388886  31.5559983  65.7818890
  17.4063373  44.8556423  84.4707298  17.3810446  45.5010509  83.7643051
  16.7267370  44.2220259  84.2407131  39.3662024  55.3226376  77.5828886
  38.9437008  55.5700827  78.4053850  40.1989126  55.7946301  77.5899029
  10.1492155  56.1877203  92.6654720  10.4396033  56.6499233  93.4517765
   9.6690488  56.8466043  92.1639347  17.8130436  34.0704703  65.2439356
  17.5341570  34.0424609  64.3286896  17.0581579  33.7451744  65.7344055
  21.8250728  18.6967635 101.9976997  21.0448003  19.2240083 101.8261719
  21.8614984  18.0784309 101.2679195  36.8442917 144.4519357 102.1092319
  36.6583252 143.7619818 102.7461052  36.4982486 145.2486722 102.5113487
  41.2336683  50.6834316  73.3866262  40.3512144  50.3271961  73.4895706
  41.1364365  51.6190529  73.5637999  17.9686511   5.6330031  46.4135647
  18.7640309   5.1217395  46.2645292  17.2870123   5.1602006  45.9360075
   3.0201900  41.4392948  21.1230159   2.5379398  40.8633423  20.5297709
   3.5714394  40.8479261  21.6354942 116.0377747  98.1483459  79.8245573
 116.1170930  99.0996552  79.8949862 115.6109644  97.8826427  80.6390858
  11.3400984  27.9567742  94.0981483  10.6612563  28.0887938  94.7599506
  11.2113357  27.0566106  93.7992191  79.0521354  57.1173143  78.5279560
  78.9412326  57.7956533  77.8617811  79.9630041  56.8378830  78.4359312
   6.9420189  39.7968531   0.3525678   7.4606115  40.4314327   0.8471528
   7.5896251  39.2791510  -0.1257762 115.4575962   5.4794109  50.9218550
 115.6229121   4.6085200  50.5606747 114.6020908   5.7260233  50.5703926
   3.4249577  43.5575962  99.9114990   3.9343995  44.3004417 100.2353477
   2.6618117  43.5209513 100.4881287  34.2280316  17.0789647  33.3380437
  34.4502401  17.6474810  34.0753675  34.7349548  16.2812495  33.4894156
 105.6356604 146.4675571  60.7163286 104.8994691 145.8889016  60.9148502
 105.3321618 146.9968460  59.9787855   8.4008759 136.3959391  49.9028397
   8.7464738 136.7519779  50.7213926   7.6655459 135.8456905  50.1725578
 122.6046511 126.6491623  77.2230625 123.2803223 126.2280745  76.6916656
 122.1117718 125.9222836  77.6037884  11.8015695  19.9294174  59.5821285
  11.4795935  20.8308291  59.5862675  12.6129520  19.9672270  59.0757084
 119.6873862  45.5903625  39.7498417 119.6941376  46.3584948  39.1787410
 119.5183701  45.9429646  40.6235313 113.4040648  23.8477635  93.6081505
 113.7026567  24.5832443  93.0732346 112.9083998  24.2542815  94.3189907
 113.2710440 121.6144151  89.1179657 113.2869656 122.4117655  88.5886192
 112.7687377 121.8539567  89.8967743   8.5701698  42.9576921  78.5807753
   8.2249469  43.5668325  79.2334652   9.4769627  43.2350588  78.4502888
  27.8330851  28.3029056  65.3591204  27.8628302  29.1576195  65.7890177
  27.7831697  28.5062027  64.4250917  11.8548906 145.4083534   8.2641069
  12.4712420 145.0839348   7.6075212  11.2956631 144.6565511   8.4597818
  26.8469429  69.6680546  50.7472420  27.4141669  69.2805529  50.0806618
  27.0684266  69.1995335  51.5520191  21.4561009  29.2574215  88.9720535
  20.6768608  29.7655344  89.1975307  21.1641955  28.6666346  88.2777977
 121.9841710  28.3190751  86.6200066 121.9771892  29.1336894  86.1174297
 122.8098712  27.8976321  86.3816071   4.8756108  32.2941351  36.1025524
   4.0524602  31.8603897  35.8777857   4.7404969  33.2083440  35.8531618
  17.8043079  31.1087966  86.1480427  17.0577359  31.4725208  86.6240311
  17.9967749  30.2857327  86.5972137  11.5691102  28.0474877  73.6551428
  11.9423306  27.1748185  73.5310984  11.1960542  28.0253887  74.5363760
 120.7254896  12.4928105  70.5208302 121.1179263  12.7585542  71.3524580
 121.3798261  12.7253926  69.8620558   1.2928151 129.5604236 104.1346455
   1.2088968 129.0023310 103.3615208   0.4280322 129.9574144 104.2384815
   4.5877007  48.2732344  72.3387814   4.0791866  48.8933086  71.8161392
   4.9075630  47.6314163  71.7047501  36.0745621  48.2939148   3.5319272
  36.4676070  48.6733103   2.7459184  35.5781651  49.0131140   3.9225332
  96.9697780  22.3416686  43.8032246  97.1140189  22.0943904  42.8898382
  96.7876524  21.5146136  44.2493677 106.3657708  27.0965910  56.3314676
 106.0073728  26.2100840  56.2879848 106.6670234  27.2770882  55.4410219
 108.3732826  44.7864962  45.3047037 108.6928887  44.0077543  45.7603884
 108.0156512  45.3402424  45.9987497 121.8757398  36.9920707  73.8336945
 121.2558515  36.2757635  73.9710855 121.3277901  37.7744865  73.7719774
   1.0948882  39.2493153  90.4055405   0.4069797  39.4895673  89.7848225
   1.7696321  38.8358092  89.8670578 121.5274123  29.5838571  62.7674055
 120.8242369  30.1654029  62.4782991 122.0702103  29.4589591  61.9889402
 116.4630294  20.4682660  53.6920071 117.0639516  20.6681156  52.9742432
 116.0006351  21.2907076  53.8532877  10.2091372  54.3984175  95.9879398
  10.1042712  53.6255646  96.5428543  11.1421585  54.6057844  96.0399246
  33.8562822  58.9581013 110.0165749  34.3073797  59.4481707 109.3291378
  32.9260921  59.0987539 109.8399544 106.4947886  23.9853644  78.7560272
 106.1749381  24.7236729  79.2745161 107.2821874  23.6933875  79.2153597
 109.7290344  10.5388784 101.3015747 109.4220240  11.0773504 102.0309734
 109.2612047  10.8793092 100.5390263  14.8366106  28.2637596  62.6876593
  15.1385462  27.5525141  62.1226835  13.9723814  27.9814148  62.9870272
  22.2368860  62.1350098  72.0103168  22.0945668  61.2287521  72.2835875
  21.4159131  62.5801945  72.2201920  35.1296377  54.6992779  78.6734581
  35.4636669  55.5696774  78.8903904  34.5114923  54.8512697  77.9585981
 112.0876462  24.5627260  64.9096918 111.9520599  24.7805357  63.9875174
 112.2951717  23.6282969  64.9070835 124.2759298  49.1074181  55.3088140
 123.6048984  48.8609886  55.9453821 124.3717535  50.0537586  55.4160213
  29.5152354  11.9393694  45.0741816  28.6674833  12.3631501  44.9401855
  30.1574183  12.6252627  44.8914719  32.0149398   8.9329541  37.0677447
  31.9184232   9.6592075  37.6837587  32.6879120   8.3754486  37.4582934
   0.7787338  13.6819756 103.2834053   1.0570160  14.5787573 103.4693432
   1.1186282  13.1688583 104.0164852 110.4555339  26.8681693  43.2225895
 110.3416008  27.5411510  43.8936663 111.2158794  27.1585631  42.7188253
  15.4640448  42.2143602  60.7131386  15.9461343  41.8373299  61.4491224
  14.7381747  41.6078806  60.5664158  34.4612741 136.0515792  59.1919470
  34.5382190 136.0868663  60.1453972  34.1184783 135.1762612  59.0115547
  99.7224206  37.5901604  96.4238548  99.4361419  38.4611511  96.6988945
  99.2198390  36.9883657  96.9729328   7.0636493  32.4917006  64.5390320
   6.5202069  31.8513227  64.0798855   6.7857522  33.3375525  64.1875505
 117.7578319  14.8050141  68.1413651 117.4113334  14.8286951  67.2493935
 117.7695305  13.8753891  68.3691645   2.7097312  45.6132603  46.3155079
   1.9135106  45.8751774  46.7777443   3.1436491  45.0036192  46.9124031
  31.6499686  45.8658600  43.8884544  31.7927718  46.2936497  44.7327471
  31.6128826  46.5855980  43.2585049  34.9583054  16.0941720  71.2033653
  34.5840788  15.2250552  71.3476658  35.9049273  15.9548354  71.2303162
  18.8853967  28.9142299  66.0275936  18.9939749  28.1345415  66.5721369
  19.1820908  29.6363783  66.5814018 112.2454173   6.5982282  55.1239824
 112.6750786   5.7713103  54.9052811 112.4425656   6.7327547  56.0509491
  18.0106413  18.3998466  54.7648907  17.4363947  19.1604149  54.6754122
  18.5672271  18.4270883  53.9866209   2.5098622   7.7706575  80.4964924
   1.7445420   8.1047702  80.0286388   3.1657687   8.4620857  80.4073524
 116.8689293  15.1247740  42.5457239 115.9964300  14.8411250  42.8187084
 117.4199570  14.3509173  42.6629686 113.3874459   6.8371463  64.9530411
 114.1784996   6.3605708  65.2047157 112.7058310   6.1662400  64.9140835
  14.3602538  49.4320107  57.2751474  13.7094355  48.8743544  56.8489027
  14.4218922  50.2026224  56.7107010  20.7845354  16.5461028  44.5603704
  21.4315653  16.5090954  45.2647924  19.9456024  16.4011335  44.9978733
 107.0816225 142.2236861  76.1212730 106.2186188 141.8096195  76.1186409
 107.4667556 141.9693373  76.9598484  14.9176538  40.0440216  58.0287886
  14.7614932  39.8740697  58.9577436  14.7244918  39.2117381  57.5972557
   4.8982686  20.3566313  65.3034496   4.5317334  20.0055122  64.4919062
   5.0077337  21.2919402  65.1318407 116.1736388  55.8782005  95.0878716
 115.5776585  56.0032129  94.3493557 116.6031278  56.7268562  95.1953697
  31.7843008  74.4839811  68.9460468  31.6704297  75.3492022  68.5527849
  32.0530653  73.9235210  68.2181120  36.5562487  16.7221153  45.8672857
  36.0128331  17.1707571  45.2194786  36.2939358  17.1032906  46.7052174
 111.1912019  58.2052183 105.3119373 110.5247516  57.5233173 105.3961182
 111.1729760  58.6629963 106.1523724 121.0126159   2.6758537  63.5707617
 120.6591440   3.3145741  64.1898966 120.3171313   2.0252502  63.4745932
  85.0682277  22.3387551  78.3269930  85.7282943  22.9761600  78.5994911
  84.6792573  22.7186632  77.5392056  12.0946097   3.2695502  36.9303656
  12.8461182   2.7039707  37.1080947  11.9839120   3.7799028  37.7325606
  29.8665500  57.5413704  23.7253833  30.2699995  57.4008131  22.8688192
  30.5483651  57.9683065  24.2441177  19.8227966  80.2777004  45.5687523
  19.0432525  79.7238445  45.6110430  20.0852990  80.2519131  44.6486139
  46.5838766  23.5248017  19.2536914  46.6609859  22.5719881  19.3029630
  47.4808455  23.8432479  19.3550169  39.8296785 138.0104137  89.1201496
  38.9471793 138.0706472  89.4859314  40.2780581 138.7905128  89.4466972
   1.6792049  19.2783260  91.5435028   1.7498934  18.3468091  91.3349056
   0.8963188  19.5696890  91.0761452  27.1798086   7.8495705  50.1308489
  26.3200808   8.1330293  50.4418993  27.0912004   6.9041121  50.0104761
  21.6466761  60.7722044  42.0528316  21.7620564  61.7094517  42.2093201
  21.5397716  60.3949594  42.9260349 104.3530316  41.5439177  73.8482666
 104.0342159  42.3523760  73.4470463 103.8807291  41.4862776  74.6788311
  10.0969839  29.4069791  98.2528400   9.7102803  30.1839995  97.8491879
   9.5875126  29.2736006  99.0521431   9.3569762  26.3187671  37.1932960
  10.3099465  26.3025236  37.1048903   9.1801292  27.0846486  37.7395368
 121.4359022   9.2736256  62.7882147 122.3140121   9.4879013  63.1032372
 121.5472121   9.1289788  61.8485737   7.8997380  39.0094066  48.6026430
   8.7135965  38.5135698  48.6921453   7.5125647  38.6892104  47.7879000
 109.1672773  62.7129126  59.3480635 109.3055052  62.4302912  58.4440422
 110.0347776  62.9819727  59.6501923  16.6970181  37.8657413  60.0164175
  16.8515623  38.7788796  59.7744942  15.8006215  37.8552818  60.3519726
  30.5448341  30.7705307  76.6617584  30.8433437  30.3721595  75.8441877
  29.6619415  30.4233360  76.7889929   3.7252891  30.2167940  46.2322092
   3.1844684  30.4680967  46.9809389   3.7133959  29.2596912  46.2386560
  23.2833481  39.9478722  63.2814598  23.0099320  39.6558952  64.1510725
  24.2017937  40.1948690  63.3895254   9.6702528  14.6935356  35.7513881
  10.5235374  14.3326676  35.5107403   9.3808460  15.1653183  34.9704289
 112.9343671   9.1835576  24.9845457 113.0599327   9.2722374  25.9293222
 112.0303840   8.8833094  24.8902130  17.2582138   7.9983246  66.9927597
  17.1516836   7.0643508  67.1732521  17.1881568   8.4175253  67.8504324
  34.0272570  22.6159167  97.4963760  34.9338889  22.4402380  97.2446060
  33.6219430  21.7505074  97.5512791  20.8135104  10.7707489  51.7591619
  20.2495646  10.3839839  52.4289465  20.5980706  10.2917886  50.9589052
 105.7884986  40.9201050  64.9175310 106.5519578  40.3820562  65.1269770
 105.6716365  40.8129215  63.9735556  36.2273431  29.8094440  73.4349918
  35.3298283  30.0822353  73.6254787  36.1344624  28.9490080  73.0260229
   5.7503664   5.2082437  19.5886270   4.9891475   5.5864531  19.1484681
   5.4899514   5.1475608  20.5077211   5.6314719  33.5335112  50.5807400
   5.7144922  32.8073931  49.9626064   6.5199608  33.6712742  50.9091282
 113.7697143  51.4294910  24.8530269 112.8295869  51.6007996  24.7978401
 114.1572232  52.0055103  24.1940355 117.6152629  47.3933649  62.1020937
 117.5876946  46.5047598  62.4568510 118.4148968  47.7722836  62.4671125
  -0.0369243  42.1058941  61.5361404   0.0816413  42.6914167  60.7882500
   0.8491290  41.9559813  61.8657875 107.3125071  30.3412008  31.0381365
 107.6294286  29.4418573  31.1216331 108.0880958  30.8829522  31.1837482
   5.9428096  18.3145487  62.5674200   4.9962622  18.3076811  62.7096605
   6.2863433  17.6957095  63.2118225   0.3926755   9.1578507  41.7064619
  -0.4570148   9.5977783  41.7333269   0.8458986   9.4641173  42.4919701
  16.7011201  24.4219017  74.2357635  16.5045190  24.2378521  73.3172274
  17.4267459  25.0454068  74.2051125 108.5985560 102.2562809 100.5659676
 107.7340240 102.1195335 100.9534168 108.4244627 102.3962946  99.6352005
 121.0180581  34.2605567 106.2477493 120.6910161  33.6265755 105.6095123
 121.7426062  34.6982646 105.8009052  91.0984964  12.5774384  98.8294983
  90.5697960  11.9169939  98.3817005  91.8508429  12.0924139  99.1685581
   0.8027145  19.7615278 104.0856552   0.4587355  20.0707483 103.2476234
   0.6845678  20.5017948 104.6808624 124.0086407  23.4511662  50.0003099
 123.1673612  23.4828329  49.5448160 124.0059679  22.6060796  50.4498148
  44.8830175   0.5665533  70.8430195  44.9110508   0.6852648  69.8936272
  45.8004475   0.5924791  71.1148310 124.2904414  12.4606776  84.2436123
 125.0013512  12.0812023  83.7270451 123.6865369  11.7328048  84.3910217
  32.2378325  80.4848289  62.6531410  32.0504951  81.3957787  62.8796577
  31.4043164  80.0308704  62.7772713  50.8623743  27.8617334  45.0131369
  49.9356842  27.8857040  45.2516747  51.3148785  28.2274914  45.7731962
   6.8844599  26.6906524  63.6586809   6.3943410  26.1762643  64.3001032
   7.5975668  27.0840406  64.1616297 123.6766808  12.1244776  70.6765938
 124.5525155  12.2694230  70.3186321 123.2698538  12.9909110  70.6724977
  12.7098966  49.6615839  53.1990767  13.5732508  49.8853350  53.5466242
  12.8722107  48.9238739  52.6111412  22.6604772 142.4997277  98.6251163
  22.5507283 141.5765757  98.3971310  23.5972810 142.5941271  98.7975121
 113.6715693  16.9786215  70.4337454 113.1213743  17.5081110  69.8565483
 114.5570940  17.0879829  70.0871658  20.8456516  50.8793402   5.6323568
  21.3924837  51.3045883   6.2929384  20.7943368  51.5150261   4.9185602
  13.0375421   6.3569486  55.9204817  13.9831662   6.3929462  55.7765007
  12.8626740   7.0643449  56.5411615 120.6450907  27.5087118  51.1785460
 121.2699691  27.4065161  50.4606915 121.1113424  27.1860170  51.9497204
 107.5123388   3.8498306  48.4280729 107.8819222   4.5059025  49.0190125
 106.6908843   3.5883930  48.8441181  89.1090102  35.3568196  30.5468035
  88.4649677  35.2070045  31.2388992  89.2086310  36.3082623  30.5142045
  31.9307160 141.2321795  60.7860041  31.3997412 142.0275346  60.8273363
  32.7960563 141.5058185  61.0902071  97.8263397   1.9477917  83.9658451
  96.8978352   1.9419709  83.7333012  98.2553548   2.3809394  83.2279015
 122.1725143  26.0452962  39.8917985 122.5522318  25.1666594  39.8852181
 122.6916782  26.5257597  40.5366659  30.3063679  30.6936884  34.9964499
  30.6622458  31.5467119  34.7475839  29.3983006  30.7156801  34.6945190
 115.9565527 141.5893481  83.9368153 115.3174538 141.5198387  84.6460056
 116.4926053 140.8006317  84.0193081 115.0579054  36.5056872  75.2156353
 114.9869562  35.7627821  74.6162271 115.8898605  36.3691330  75.6688833
  22.5428534  62.1244621  64.5254421  23.3401656  62.0507526  65.0499344
  21.8330812  62.1270323  65.1676607   4.9705663  13.3188951  61.4406395
   4.5237815  13.5968709  60.6410503   4.3062872  12.8333652  61.9297457
  15.0781965  44.9518681  60.8606863  14.1503727  45.0299931  61.0826588
  15.2082574  44.0171814  60.7004547  21.3746142  16.1037362  56.7444229
  21.9671845  15.3826821  56.5318823  20.5053663  15.7031846  56.7584848
   8.3666056  51.5077114  48.7473774   8.2728964  52.3685551  48.3394670
   7.7849573  51.5380144  49.5069838  31.5217185   4.2187870  83.5542870
  31.9605064   5.0174034  83.8473892  31.0124803   4.4916114  82.7910805
  24.4571519  23.3671045   4.7053281  25.2884603  23.1576085   5.1310865
  24.5238543  22.9655123   3.8390104  83.7895841   3.1073201  47.1082592
  83.2803363   2.3266250  46.8905115  84.5308322   2.7760559  47.6152611
  38.4240341  25.3120804  72.2532892  39.0720415  24.6451116  72.4801588
  37.6319385  25.0448370  72.7195501  -0.1693838  27.6061320  86.2504196
   0.5118519  27.0275283  86.5930080   0.2898625  28.4197164  86.0420895
  15.0228631  42.7329111  31.8270254  15.2085853  42.3554754  30.9672117
  15.6072783  42.2665024  32.4246454   9.5594949 146.2372415 105.0184727
   9.0212369 146.3858159 105.7959270   9.5504165 145.2875977 104.8987770
   7.5780970   6.3081604  79.1861629   7.6575762   6.1760354  80.1308632
   8.4741271   6.4695406  78.8906670  17.5851071  43.1731653  94.6676254
  17.7632201  42.4455070  95.2634621  16.6301012  43.2120275  94.6157932
   5.8358020  42.0834112  30.3341365   6.7114341  41.7847967  30.0885177
   5.2657765  41.3393641  30.1399851  30.3725600  16.5625548  24.6455836
  31.1496115  16.0742354  24.9175525  30.5056524  17.4415016  25.0005078
  31.1733890  25.5783486  77.1047735  31.8840003  25.5399990  77.7449226
  30.3844380  25.7107902  77.6303625   0.8876657  11.7122912  35.0115561
  -0.0364340  11.8569016  35.2149272   1.3560328  12.0404351  35.7791424
   5.1277971  10.6553352  69.4282675   4.5669350   9.9061525  69.2272902
   5.5937743  10.8317518  68.6109686   7.8714067 120.2818269  36.3267088
   8.7137681 120.1329012  36.7562199   7.7337587 119.5000453  35.7918239
  15.2692342  53.3501101  42.2861814  15.7082224  53.6292267  43.0896854
  15.9779119  53.2381535  41.6525650  14.0672863  45.7358599   2.5111429
  14.9417400  45.3479815   2.4777643  13.4717166  44.9874258   2.4740545
   3.0975851  65.6989098  21.3195133   2.4760789  66.3400078  21.6644096
   2.7146921  64.8503447  21.5421391 117.2239745  40.6565619  78.7447596
 117.5432861  39.7833228  78.9721966 116.6156579  40.8801270  79.4491768
  88.4669680  45.5456686  63.8607168  87.5138826  45.5892849  63.7835360
  88.7733883  45.4009724  62.9655075  23.1375003  64.5059109  41.6591597
  22.3587298  64.6946144  42.1827459  23.5551500  63.7705421  42.1075296
  93.0958146   4.5256659  61.2740469  92.4606985   5.1467985  60.9176016
  92.5893111   3.9880189  61.8828344 110.0806136  54.4378901  63.2513523
 110.4897994  53.6766577  62.8398561 110.1629729  55.1350689  62.6006699
   7.8842485  33.6150646  54.8675680   7.3746723  34.4251585  54.8852682
   7.9130447  33.3302188  55.7809496 118.4227920 138.9517070  51.5979242
 118.0275262 139.0585251  52.4631357 118.2271177 139.7705455  51.1424637
 122.1684614  52.7796936  67.5047159 121.6517762  52.0921135  67.9248428
 122.9286068  52.8908157  68.0757332   7.1696240  54.2533398 109.3775845
   7.0373219  55.0337219 109.9158573   7.0906484  53.5229349 109.9911880
  18.0975103  92.0861053  69.4314814  18.0879188  92.4377632  70.3216934
  18.8544595  92.5012779  69.0180969  83.2098884  33.8005877  40.0739956
  82.4506683  33.6379361  40.6337833  83.5858936  32.9334712  39.9224615
 118.6042298  27.2864151  72.7278280 119.0377725  27.3546100  73.5784864
 118.9705277  26.4940333  72.3351574   5.4229492   8.3249640 100.2043915
   4.7639680   8.3508635 100.8981514   6.2184435   8.0202299 100.6409264
   4.4322762  14.6736848  85.4796219   5.2317369  15.2000797  85.4778767
   3.9450324  14.9756169  84.7130299 120.0290350   5.4094994  71.9851208
 120.8528221   4.9818096  71.7512655 119.3510926   4.8273301  71.6420364
  12.2480607 137.6609124  45.8304071  12.9238784 137.0549519  45.5265760
  11.4384198 137.3321743  45.4397106   3.8701627  34.6139884   6.2825632
   4.5115367  35.3218222   6.3445479   4.2654797  33.9847302   5.6792474
 121.3909105  32.7867484  47.1538687 121.6773832  33.2048607  46.3418627
 121.8671179  33.2501841  47.8428411   4.0641615  35.7391596  58.1460381
   3.9319518  36.3851595  57.4521828   3.1925815  35.3769040  58.3052540
  11.3362098  47.8251839  35.9046245  11.8795991  47.3269081  36.5151000
  11.1517298  48.6452198  36.3626051   3.3513516  30.0118065  94.8755074
   3.6496568  30.8082819  95.3146744   3.7346286  29.2987657  95.3862953
  85.6236309  64.0777826  40.4574347  84.9243445  64.4010067  41.0255527
  86.3651103  63.9376020  41.0463190  83.1766624  81.9325733  36.5902662
  83.6052150  81.1231327  36.8684435  82.5361938  82.1131706  37.2783208
 110.2694995  46.3791704  44.3321800 109.4892127  45.9446192  44.6764898
 110.9793431  45.7564974  44.4891262  43.8802719  11.2618327  62.7096415
  43.4387732  10.6363153  62.1351528  43.2760334  11.3820016  63.4422302
   2.6844391  15.8799028  20.3447938   3.4694439  15.3448534  20.4619336
   2.7919406  16.6017175  20.9641981  16.8374884  38.2539558  63.9431906
  16.0408998  37.7554417  63.7610865  16.5230477  39.0971637  64.2693186
  99.7884793   3.9729682  11.4063478 100.1857633   4.2319226  12.2378159
  99.8046417   3.0160159  11.4209306   7.2419536 140.5508668  57.3908520
   6.6715103 140.9001470  58.0755663   7.0351130 139.6167851  57.3601913
  14.2083108  48.9761305  41.5387297  13.3645773  49.4011164  41.6927814
  14.4010067  48.5219145  42.3589659  19.6641922  50.1608229  40.0695324
  19.2831194  49.8454189  40.8890057  20.6090260  50.1413965  40.2216578
 119.6159334  38.4406662  62.7953577 119.3798036  39.2994070  63.1461287
 119.0478451  38.3288336  62.0331240 123.8469305  20.5204964  66.9411802
 123.9381026  20.8321309  67.8416252 122.9298682  20.2552938  66.8712139
 121.3973207  49.9143791  64.2238998 121.9164515  49.5376062  64.9343777
 122.0457933  50.2234983  63.5913181 106.9585640 135.8710880  47.1353340
 107.3675794 135.6032426  47.9582548 106.4805800 135.0954396  46.8418503
 117.3598874   5.6042731  61.6182613 117.1636427   4.9668804  60.9316397
 117.4060137   5.0849825  62.4210358 123.9344007  36.5956402  58.4785604
 123.0518789  36.5651965  58.8479662 123.9594126  37.4155617  57.9852724
  21.6856861  58.1970882  25.5886483  21.3484550  59.0631437  25.3596067
  21.1970997  57.9497433  26.3737178   3.9383483  59.3447447  35.7545090
   3.6838630  58.4223175  35.7788992   4.1087866  59.5704460  36.6689730
 121.6956777  56.7835379  39.7660851 122.4960025  57.0637989  39.3220520
 120.9985841  56.9515371  39.1319966 100.9963650 129.0351481  65.1984215
 100.2665061 128.9009912  65.8030224 100.6983561 128.6504991  64.3741226
  84.7045249 139.6167631  55.8094358  84.2759580 138.8576955  55.4139900
  84.0128774 140.0476963  56.3115788 119.7494943   3.1927535  56.4754581
 120.2219907   2.4481647  56.1032104 120.0436611   3.2323787  57.3854733
 112.0230956 125.9119982  72.6195240 112.9634196 125.7431359  72.5603008
 111.9202835 126.4135022  73.4283209 101.9523305   7.0283496  47.0599937
 102.8771896   7.0528746  47.3054886 101.6082496   6.2510490  47.5000429
  41.2454796  30.8902836  18.0310678  41.0922909  30.0625801  18.4867764
  42.1832705  31.0511661  18.1354415   7.1866453  41.7537355  49.3303013
   6.4448535  41.4970255  48.7825108   7.7757680  40.9997463  49.3043947
  22.8444362  15.1106596  15.8157110  22.8717780  14.6562147  14.9737108
  21.9118285  15.1823270  16.0190296  69.4831848  17.4486089  13.0177009
  69.7692823  17.7219045  13.8893032  68.5287952  17.5158322  13.0468595
 110.8308906  42.0511866  35.9163904 110.4438288  42.0725012  35.0411987
 110.7208008  41.1451912  36.2049723  12.5999904  21.1509299  18.3391070
  12.2111201  21.9846845  18.0747879  13.3125496  21.3954973  18.9295959
  17.4445570 107.1785259  35.0502801  17.9195476 106.3515472  35.1323175
  18.1141686 107.8156853  34.8015189  28.1924200  40.8861160  57.8446150
  27.6467299  41.3963747  58.4430265  28.5695767  41.5358257  57.2514343
  40.6234884 142.3753856  54.5427465  40.3040695 141.9493119  55.3381491
  41.5426540 142.5686578  54.7271633 109.4244594  35.2403569  73.2954121
 108.5192389  35.1593494  72.9949999 109.3609447  35.2383494  74.2505026
  10.2080917  47.2233820  46.2430716   9.7638428  46.3791800  46.3218260
  10.0159264  47.6728535  47.0660400  15.2952194  30.9050584  63.0559635
  15.2263272  29.9503398  63.0550480  14.9453151  31.1712575  62.2057056
  35.8566523  35.7088375  68.2875824  36.4160848  35.7126427  69.0642786
  35.1009035  35.1780939  68.5393524 117.9902542  38.6778045  34.6358681
 117.5809587  37.8460789  34.8744965 118.8679934  38.4365845  34.3398643
   9.9828589  35.8516002  24.4726539  10.4437470  35.4202032  25.1921749
   9.1061515  36.0213089  24.8173499 118.1363786  38.1712365  60.4515839
 118.5376537  38.2059336  59.5832491 117.5854082  37.3888135  60.4297256
  41.9440746  38.5678887  46.8436003  41.3081503  37.9162669  47.1389294
  41.4336872  39.3710709  46.7404747 124.1500162  55.7346916  46.8974400
 123.3077956  55.4630375  47.2622681 123.9277673  56.4171648  46.2641382
  41.5552521 107.1457309  28.4082651  41.2399054 106.9176907  29.2827868
  40.9358406 107.8046388  28.0945730 120.4631207  11.4028132  44.1840172
 120.0856627  10.5438793  44.3737268 121.1806957  11.2203956  43.5773516
  -0.0616783  16.7801392  56.7837572   0.3226181  17.5411844  57.2189093
   0.6499133  16.4236176  56.2520027   3.8062164  19.0603530  51.6478491
   4.0909296  18.2787645  52.1214390   3.6537227  19.7125077  52.3317146
  -0.0854460  29.5852542  43.0956936  -0.0007565  29.1240454  43.9301682
   0.7965601  29.9070525  42.9092979 118.7661929  51.8518877  25.7425690
 117.8679836  52.0031786  26.0367846 118.9491684  52.5792980  25.1479030
  28.8121223  33.7281728  51.4883614  29.2190576  33.4126210  50.6814766
  28.4627581  32.9401255  51.9044828  19.1801274  56.3742542  41.6214037
  19.9599957  56.6711235  42.0903444  18.7643623  55.7518053  42.2180033
  17.5061154  43.6317396  15.0481892  18.4549892  43.7143040  15.1433372
  17.2509813  44.3910170  14.5241344 108.7897760  22.9819417  43.9350843
 109.5656425  22.5024247  44.2254734 108.9853627  23.2291818  43.0312824
   8.9490008  36.8186140  37.9538918   9.7340953  37.3459601  37.8063679
   8.5761708  36.6947412  37.0810318  90.5303878 136.4066286  51.6927910
  90.4640359 136.4642865  50.7396364  91.4520640 136.2072618  51.8570995
 114.6661086  42.0935822  69.6199656 114.0860123  41.9493151  70.3675699
 114.9673105  42.9964924  69.7212553  38.3179855  41.5718031  56.1206627
  39.1978002  41.7374659  56.4593506  38.1047511  42.3556137  55.6142950
  17.1541631  32.7583551  42.8168583  16.3985181  32.2185040  43.0487919
  17.8899860  32.1463490  42.8011990 122.2606919  42.2829676  46.0838032
 121.3535160  42.3566055  46.3801813 122.4387032  43.1164312  45.6480503
  16.3826180  30.1509094  83.8050270  17.1488452  30.4766679  84.2772675
  16.4741373  30.5108070  82.9228020  29.0392566  51.7736340  64.3996906
  28.6641407  51.0802317  64.9425697  29.8477554  52.0190525  64.8495054
 122.2616627  35.7526302  29.5198584 122.9349703  36.2248969  29.0301108
 122.2521970  34.8778462  29.1314054  36.5708876 145.7401360  27.5287342
  36.8377876 145.4245939  28.3921146  35.6723475 146.0458952  27.6527119
 119.0791900 140.9907509  71.8943691 118.3799166 140.4364611  72.2407913
 119.4871838 141.3747139  72.6704741  36.7206240  44.5541906  41.0844469
  35.8015847  44.3471098  40.9149885  37.2096205  43.9269686  40.5518007
 118.0712635  31.5483594  41.7260790 118.4561486  31.7751384  42.5726414
 117.6800675  30.6857371  41.8641996  84.8141593  52.1758127  14.4537425
  84.3826789  51.3217878  14.4273424  84.7578544  52.4443579  15.3707731
  16.7279243  19.2648160  24.6164989  17.2794211  18.8994551  23.9246917
  16.4048624  18.5006630  25.0939226   9.1767353   1.2148767  46.9322586
   8.7089133   1.8942918  46.4466953  10.0631464   1.5612157  47.0349979
  27.4154043  28.2390857  57.3804998  28.3142138  28.5579658  57.4622726
  27.2044373  28.3524299  56.4537430  57.0063925   7.9635471  82.6367092
  57.9535913   7.8272158  82.6581478  56.7008018   7.6562452  83.4901810
  41.1121607  50.9235096  46.7474937  41.1777925  50.6364870  47.6582861
  42.0072269  50.8659887  46.4131546 108.8362307  20.7418823  41.3046169
 109.4236094  20.7969880  40.5508375 108.0315072  21.1703920  41.0130119
 113.8948411  33.4393406  19.3482339 114.3404991  34.1884089  18.9526081
 114.6006281  32.9079342  19.7166133   6.7369145  16.2270820  20.9756184
   7.2496259  16.9518006  20.6176472   7.3786759  15.6809831  21.4296556
 105.7012743  12.3086715  25.0417972 105.3410108  11.6487777  24.4493604
 106.5504772  12.5336945  24.6617270  18.5929012  15.1079524  28.6708832
  18.8131213  15.8971298  28.1759763  18.5312235  14.4194412  28.0087805
   9.9827248 140.9492815  57.0555496   9.0350401 141.0794414  57.0899725
  10.1892388 140.4780568  57.8627253  31.6673756 133.4863395  95.0122436
  31.0471034 134.2082209  94.9103543  31.2950301 132.7752192  94.4908031
  26.4823461  39.8890781  34.4735837  25.6437349  40.2906418  34.2461848
  26.5647507  39.1493893  33.8716698  11.1663258  42.3584080   8.7607080
  11.5440261  42.2377539   7.8894919  11.5569472  43.1716299   9.0805829
 120.4813442  69.9907494  50.7928038 119.7749642  69.5108891  51.2252235
 120.0659952  70.3920603  50.0294781 123.2204658  33.5794950  84.6960601
 123.5183880  34.0038109  85.5006894 123.9990625  33.1394625  84.3548974
  16.3458335 136.1592753  80.8520794  16.5805197 135.4321749  81.4286900
  17.1838021 136.5550388  80.6124783 124.2783092 138.3116783  48.7705469
 123.5496750 137.6921732  48.7313366 124.4745421 138.3918709  49.7039795
 102.6364345   8.5666931  58.1849670 101.9943828   9.2406148  58.4081936
 102.8206725   8.7095392  57.2565889 114.0204448  32.6738286  52.6226711
 113.7107868  32.0026541  52.0145082 114.9330909  32.4404550  52.7925062
  14.1970015  37.5181484  63.4074020  13.7271821  37.3087907  62.6001406
  14.1645086  36.7103100  63.9198208 100.0439782  47.3089647  35.2188659
  99.2385072  47.8104496  35.3451991 100.6911201  47.9597282  34.9469376
 123.4098787  40.4760647  35.9703994 122.8346347  40.4940224  36.7352557
 123.5520916  41.3980341  35.7559657  29.4621921  36.8731427  79.6857309
  29.3424082  36.8247437  78.7372875  30.3430057  37.2306442  79.7979641
  38.1875968 114.6993918  66.2287712  39.0647364 114.8053975  65.8605003
  37.5993514 115.0046320  65.5381012  24.8114562  57.9467535  62.5236940
  25.0009012  57.3388720  63.2384109  24.5312715  58.7507820  62.9610348
  30.5261993  48.0316687  30.3210235  30.9178042  47.3220253  30.8302283
  29.8517179  47.6039457  29.7934222 114.5989878 129.3016882  54.2637396
 114.9299020 129.9912769  53.6882448 115.0428498 129.4526763  55.0982571
  16.2670755  16.8645895  25.9199858  16.0582471  15.9767377  25.6295681
  15.9486723  16.9026923  26.8218708 122.7594844  35.1062107  36.2954116
 122.1200437  35.8171034  36.3399005 123.0693901  35.0061440  37.1955109
  11.3842809  75.3767157  72.0574808  10.9648418  74.8875332  71.3496685
  10.6573367  75.6898069  72.5957775   4.9751329  14.3799281  20.2950788
   5.2837187  13.8151860  19.5865071   5.6929439  14.9963677  20.4399300
   5.3297246  40.3993559  52.7407217   4.4605672  40.0018358  52.6880550
   5.7954288  40.0590515  51.9768190 118.1401581  20.1621342  76.8984699
 118.4576947  19.2719400  77.0499802 117.5600094  20.3387809  77.6390457
  29.0741396  23.1370926  33.1587529  29.5694613  23.5419631  32.4467373
  28.7517881  23.8750887  33.6761355  28.9558220  43.9859629  46.3638639
  29.9067450  43.8815165  46.3965893  28.6208439  43.3189440  46.9631195
 105.8362991  48.5721350  52.8031874 105.7507831  48.4489489  51.8578100
 105.5495030  49.4727755  52.9542828 123.5822032  13.7326014  37.5013137
 123.4753416  12.9137850  37.9854131 123.8503229  13.4589863  36.6241145
   3.2966834   8.9618301  37.4655008   3.0230746   8.4008014  36.7398167
   3.0357978   8.4813917  38.2512164  28.8067555 125.3686781  45.7274437
  29.6643066 125.0127000  45.4948139  28.4893107 124.7932095  46.4233589
   0.6161658  27.2919536  49.0501404  -0.2912660  27.0278311  48.8983583
   0.6619794  27.4618602  49.9910259  23.4494901  64.4348526  26.2592435
  23.3853793  63.7516975  25.5918455  22.5410318  64.6377134  26.4823723
  93.0804557  61.9890451  71.1659479  92.6507658  62.7297068  70.7381439
  93.9943237  62.0488977  70.8875751 107.6834566  79.4217205  64.8196030
 107.5863654  80.3732967  64.8557997 107.0433015  79.1403437  64.1659498
  11.6066086  74.7586441  52.7399635  11.6599834  75.6431532  53.1019449
  12.5034618  74.5534277  52.4758196 121.0471446  46.1984062  70.6489420
 120.2456830  46.1484671  70.1279831 121.2591145  45.2869463  70.8502913
  47.2299576  53.9432669   5.5169564  47.9788637  53.6327648   6.0258323
  46.5501213  53.2861090   5.6659567 118.3323390  94.7127151   3.2599342
 117.5693328  95.0967216   2.8279647 118.2401473  93.7708664   3.1162471
   4.6783668  28.3704782  29.5736384   4.0355980  27.7133846  29.8406792
   4.2196885  29.2055440  29.6658778   7.6548374  25.6389880  78.5636711
   8.5660893  25.6566119  78.2711983   7.3908061  26.5588999  78.5803413
  23.2914186  46.2888575  11.0107613  24.0675545  46.2644577  10.4510760
  23.5968733  45.9648895  11.8580961  16.3189793  26.8001413  64.8139191
  15.8132434  27.4728990  64.3580008  15.6840587  26.1085773  65.0005913
   7.2795749  43.6987543  22.0167708   8.1070065  44.1726828  21.9332409
   6.6492391  44.2297029  21.5299439  33.4124446  36.4909863  33.8609171
  33.0286956  37.3146653  33.5600495  33.8647771  36.1427355  33.0925775
  11.6730177  28.8230157  88.1341362  11.1514926  28.6765623  88.9233017
  11.0294104  29.0315533  87.4569988 114.1652591 140.2432365  73.8884306
 114.0082104 141.1836506  73.9732170 113.3149487 139.8413897  74.0665388
  18.7629604  45.0610304  60.3701305  18.6589289  45.0125742  61.3204288
  19.4450212  44.4196939  60.1708460  28.1628323  34.0602160  42.5195503
  28.2760334  34.1532016  43.4654713  28.8406348  33.4372854  42.2572994
  94.1196603  51.1994076  37.8658962  93.3454914  51.2803173  38.4229875
  93.8646931  50.5698061  37.1914887   8.6346030 135.5524344  42.7618504
   7.7555752 135.8770604  42.5665092   8.7511492 134.8071868  42.1725702
   8.6100143  23.2086515  48.7257671   9.3465501  23.0163622  49.3060875
   8.5963404  24.1637921  48.6645508   0.7177793  38.4939718  63.4263325
  -0.2110329  38.6605859  63.2657719   0.9964591  37.9568243  62.6846838
  24.9798942   8.1276870  81.3358593  24.0755510   7.8141391  81.3448334
  25.3257751   7.8371096  80.4919529 109.1997010  15.6988335   6.7397088
 109.4653053  16.0028279   5.8717960 108.5703856  14.9987984   6.5660799
  14.2608881 143.8888989  56.2940407  13.9789224 143.8043059  57.2048473
  14.2217076 144.8288617  56.1175013  23.6051464  26.6647720  52.1076059
  24.1801381  27.2183228  51.5792131  22.9975915  26.2791753  51.4763975
  35.1508188  16.5967858  80.9969997  35.4627800  16.7334187  81.8915558
  35.8726382  16.8948150  80.4434776  19.5815372  31.3614893  40.9914732
  20.1222777  31.5662718  40.2286482  18.6861873  31.3465047  40.6533051
   2.2114779 142.7214674  35.3572154   1.6177496 142.2750277  34.7535515
   1.6415384 143.0579073  36.0487413 107.9372746  45.4393053  70.1693583
 107.9588181  44.6981668  69.5639801 107.7360935  45.0483084  71.0195827
  16.5438402 125.4485936  57.7617121  16.8765998 125.6337137  58.6399078
  16.1485636 126.2724800  57.4767590  27.9024124  46.8264341  29.2058468
  28.1464458  47.2340965  28.3748913  27.5098705  45.9899187  28.9560747
   0.7171328  53.4312296  46.2438011   1.4537105  53.3790016  46.8528652
   0.2047759  54.1790724  46.5511370   2.7745256  19.6944106  29.0656972
   2.8669661  20.5207705  29.5398426   3.3516988  19.7872996  28.3077550
 116.2768424  29.1744494  67.8194571 115.3582979  29.0584922  68.0624819
 116.5544367  28.3110476  67.5133324  35.3090215  59.8204231  53.0081844
  35.4336882  60.2875328  53.8343191  35.2327442  60.5122089  52.3510361
  60.3527784  42.2081804  10.8152127  59.4888163  42.6104259  10.7257593
  60.2687454  41.3606071  10.3784156 113.9592845  12.3876524  19.0636384
 114.2108268  11.4953399  18.8254440 113.4033842  12.2817922  19.8356497
  39.0778160  32.4764442  48.5660267  39.1246629  33.4141707  48.3797312
  39.9283338  32.1346807  48.2902527  45.5281210  19.1319978  47.1170902
  44.5790815  19.2216921  47.2037458  45.6465292  18.3506966  46.5769243
   4.1659838 138.5677112  23.6693907   4.4238070 139.4873715  23.6062765
   3.2510173 138.5556502  23.3884573  48.6317539 134.3726093  63.4821415
  47.7754593 134.2162556  63.0839634  49.1243649 134.8468418  62.8123140
 100.9645481  21.4167571  30.0470710 101.3459296  20.5847812  29.7667193
 101.2059707  22.0353127  29.3576264  11.9853246 144.7531551  66.1687613
  11.3028705 145.1058263  65.5977011  12.2666681 143.9469842  65.7361317
  19.1704750   5.8861583  29.6187615  19.3240178   5.7230061  28.6881495
  19.6028733   6.7228293  29.7897744   4.0413222  10.8929551  62.9957199
   4.4308868  11.1462235  63.8325787   4.7439519  10.4366231  62.5327921
  27.2993588   5.0875747  61.9957399  27.8056860   5.0210321  61.1861467
  26.9541597   5.9803420  61.9896507  53.5801220 143.8254307  85.9317493
  52.7284956 144.2099115  86.1394501  54.1309500 144.5736238  85.7014656
  18.5326755  37.4223757  51.8091059  18.2339454  37.4565506  52.7178526
  19.1546345  38.1460929  51.7340612 101.9394512  19.5781958  48.3463144
 101.7080898  20.1608658  49.0696383 102.3695940  18.8335907  48.7667561
  16.2825906 144.7459380  48.9432049  15.7268071 144.9482400  49.6958113
  15.7095528 144.8593455  48.1849194 119.8489422  47.6228285  55.7530212
 120.2296916  48.4841442  55.5815840 120.0115100  47.4700642  56.6838646
 121.0659144  26.5922427  34.7269678 120.4431177  26.3855624  35.4238462
 121.8460790  26.0818052  34.9438286  -0.1860636  29.8078036  47.1352291
  -0.0172604  28.8689637  47.0557642   0.5715491  30.1479268  47.6112270
   0.9049046   7.5867224  31.3712168   1.0823826   8.4785604  31.6701460
   1.5209220   7.0426208  31.8618369  11.4943814   8.5240924  43.1330585
  10.7448006   7.9741371  42.9052210  12.0931447   7.9348046  43.5918140
 118.0624664  29.2643452  84.1181660 118.2593537  29.0851402  83.1987286
 118.4982157  28.5600591  84.5980930  12.2053087   0.5841943  15.6031024
  11.3570142   1.0256769  15.6445849  12.4073124   0.3675158  16.5133095
 114.4067580  14.0133476  39.8561716 115.0664694  13.3859682  40.1518250
 114.7731782  14.3862140  39.0543365   3.2712176  30.9072423  63.0945778
   3.7406376  30.9131074  62.2604036   3.1039488  31.8309331  63.2817793
 121.0774267   0.8601879  42.0216322 121.4911435   0.5576766  42.8300571
 120.3811217   0.2244812  41.8564987  25.9939909  19.4280338  11.8753624
  25.5804873  18.7387455  12.3951006  26.6708779  19.7871363  12.4490356
 103.4127540 124.1999907  40.6398916 102.4762554 124.0040035  40.6679821
 103.4554333 125.1437587  40.4859114  32.8030205  53.9014721  29.9012852
  33.4695554  53.8564873  29.2157626  33.1958175  54.4481850  30.5817580
   9.4812417  30.5709434  67.4482822   9.5605177  31.2602663  66.7889071
  10.3772545  30.2608180  67.5794935 100.9321470  26.4100957  62.1987200
 101.4154977  27.1807957  61.9010210 101.4594263  26.0591507  62.9163885
  20.5641365  25.0369668  41.3421822  20.7565761  25.9639311  41.2009859
  21.3291216  24.5779848  40.9952450 124.4142973  58.6471081  56.6745329
 124.9227426  57.8372908  56.6307735 124.0089473  58.7223864  55.8106709
   8.0275458 136.8246050  37.4093747   7.4940002 137.2567118  38.0763412
   7.8646481 135.8905251  37.5404882 118.8764269  37.7050042  31.7409635
 118.0096287  37.8704524  31.3701272 119.4561309  38.3051658  31.2719417
 101.0171790   6.5616733  39.3690991 101.6713924   6.6095978  40.0661945
 101.4878101   6.1875814  38.6242557 106.4030201  22.5222850  45.4530430
 107.1770222  22.5098991  44.8900127 106.2594671  23.4495020  45.6424904
 106.0174853  18.5015595  43.2170725 105.5586857  19.0521991  42.5826216
 106.0779924  17.6459944  42.7921295   9.2224526  34.7414207  28.3131337
   9.2339879  35.6985331  28.3189106   9.1921502  34.4966698  29.2380166
 110.1841528   8.2679337  15.7210350 111.0935814   8.2555598  15.4226756
 109.6715111   8.3891827  14.9218297  14.0755415  29.1264176  34.1489768
  13.8785458  29.6331501  33.3611655  15.0093484  29.2724061  34.3003845
 113.3710999  24.0270758  18.9540029 114.0296740  24.7177172  19.0283406
 112.6068122  24.4643283  18.5786259 124.4640640  27.6743817  65.4365444
 123.7873316  28.3509970  65.4579544 125.1431734  28.0328584  64.8651123
  12.2247505  21.3730240  34.2899585  11.2696660  21.3338804  34.2398238
  12.4662519  22.0893955  33.7028289  17.8583932 132.8811867   0.8989234
  18.3570135 132.1376140   1.2376133  17.9463971 132.8154082  -0.0519503
  90.8940596  31.7799926  19.8997831  91.4933533  32.0089722  20.6101680
  90.6715984  30.8629489  20.0603199   7.5118542  55.3122663  26.4695573
   7.3532999  54.5298624  25.9414101   7.4155509  56.0397053  25.8549118
  43.9302635 129.4960601  29.3609595  43.8266706 129.4143207  28.4129000
  43.0386353 129.6084292  29.6905160 110.1875872  29.5334840  53.5825396
 110.9632606  29.3777871  54.1213512 109.4980819  29.7467709  54.2112827
  18.1710625  29.5440769   5.7902527  17.3970342  30.0794888   5.6157643
  18.0689275  29.2647338   6.7000705  44.5629311  70.8265209  90.9948250
  43.8656092  70.6751728  91.6328462  44.5632076  71.7742634  90.8606096
  13.5439706  34.1500306  19.5161021  14.3401957  34.5436883  19.1593242
  13.7002397  33.2069564  19.4668806  13.4501445  44.6667671  19.6605909
  13.7422311  43.7552834  19.6714520  12.5138676  44.6159649  19.4681406
  50.5203438  21.8642545  34.0406179  49.8430204  21.7902517  33.3683181
  50.1777887  22.5131178  34.6553230 120.5879966  30.6255531  37.7804613
 121.2498621  31.0429811  37.2291708 120.8806566  29.7176909  37.8602695
 101.9584555  32.8149128   8.7758505 102.2042889  32.9489827   7.8605241
 102.7061076  33.1433511   9.2752272  31.4832520  51.7000055   5.9362334
  30.7618332  52.1634817   5.5108190  32.0672083  51.4553595   5.2183372
   5.3363103  51.2228584  11.2276900   5.3539693  52.1325779  10.9304857
   4.5973077  50.8326960  10.7609141   4.4622302  22.6243734  14.0830064
   4.0934503  23.4043145  14.4976437   3.9517689  21.8984032  14.4416487
  26.9137096  59.9393320  33.2139230  26.4923310  60.6247425  32.6953769
  26.8034363  59.1434574  32.6936769   7.8000408  22.5401878  29.0912938
   8.4448481  23.0849218  28.6399388   7.0837826  23.1399536  29.2998314
   0.2143961  18.0106723  23.3233619   0.3452158  17.4474430  22.5605440
   0.3179757  18.9000583  22.9849887 100.3859896  34.3065333  24.0875649
  99.7821421  34.4631791  24.8135543  99.9053211  33.7263536  23.4971595
  46.1063766  46.8556881  38.1296563  46.6749191  46.4950609  37.4492598
  46.0056734  47.7778625  37.8936815  11.1471629 134.9206371  35.0385952
  10.2210236 134.6885390  35.1066375  11.3227618 135.4381091  35.8244824
 119.0555835  36.8825936  16.1231291 118.8664020  37.2856712  15.2757978
 118.3441348  36.2558198  16.2543821 113.9707822  33.1260753  34.9615431
 114.2991919  32.8698444  34.0997291 113.5618240  33.9795232  34.8179817
  22.7221394  40.2815151  40.4609728  22.0037723  39.7128153  40.7380199
  22.2922015  41.0848951  40.1677656 118.2960994  11.0410476  32.8217244
 117.7325720  10.8357954  32.0757079 118.4490121  10.1966703  33.2458448
  17.2426152  46.3082600  24.3529415  16.7826819  46.3768911  25.1895928
  17.9288042  46.9738531  24.4015384  10.6837225   7.4467367  22.9267693
  10.7584333   8.2184917  23.4880567  11.3675237   6.8550950  23.2407856
  26.0481834  53.9392042 101.2909158  26.0414791  54.7022772 100.7130685
  25.8638144  53.1991386 100.7125183  41.2127876  56.0571337  14.5175552
  40.8501101  55.9802437  15.4000437  42.0406866  55.5782700  14.5562840
  94.4598789  30.8400249 102.6894876  94.2315335  31.2054372 103.5442182
  93.9222116  30.0516415 102.6146688 101.9326705  18.9776289  29.0564013
 101.0680026  18.6722338  28.7819600 102.4718971  18.1869340  29.0727353
 105.9687669   5.8678490  17.4559295 106.5405697   6.5837985  17.1789980
 106.5064616   5.3499037  18.0549693  16.0576653   2.3856473  27.2815776
  16.0801196   1.8710768  26.4747643  15.6075287   1.8232396  27.9118991
   4.7472900  52.8844786  96.2037202   3.9724445  52.3643589  96.4166173
   4.4409353  53.5147810  95.5517253  20.6413937  47.9966497   5.5584043
  20.7442093  48.7543726   4.9826294  20.9169936  48.3109999   6.4194846
 111.1898441  28.6215281  14.5482790 110.4100723  28.1881285  14.2013633
 110.9671254  29.5524549  14.5467424 123.8926322  56.1017418  17.5413704
 123.2608997  56.3950396  16.8847704 124.4658598  55.4978037  17.0692432
  33.1447506  56.7788076  19.2275584  33.9792562  57.1933413  19.0084839
  33.3430552  55.8428860  19.2584872 122.7974937  30.7248569   6.2378019
 122.3455160  30.4345512   7.0300579 123.0765038  31.6189551   6.4352238
  92.7470273  10.9118795   0.0226403  93.2198138  10.7003009   0.8275873
  92.1216888  11.5882289   0.2828961  21.6571474  60.1668215  14.5053315
  22.5177741  59.9805307  14.1300309  21.7929220  60.1183510  15.4516137
  29.5514393  17.7649224   9.3950057  29.5534682  16.9047058   8.9751786
  28.6269498  17.9470193   9.5635104  14.0716255  43.3935833  37.5953078
  13.9076972  42.8683090  36.8120790  14.6340406  44.1063833  37.2922683
  20.0352454   9.3294626  19.9878621  20.5534720   8.5306484  19.8900461
  19.8367953   9.5975840  19.0906668  13.5999465  50.5610418  22.2383404
  13.9513862  49.7022820  22.4733973  13.1758201  50.8732224  23.0376482
 112.7963347  66.6267920   0.7601058 111.9720561  67.1042490   0.6661244
 112.9037005  66.5179729   1.7050198 107.8184051  60.8564520  29.0222192
 107.8012306  61.2291574  29.9037099 108.6012692  61.2314653  28.6188293
 119.9412695  63.8340139  31.2348175 119.9301786  63.8293171  30.2776933
 119.0683687  64.1384745  31.4829707 122.0551634 130.7819123   0.1515980
 122.2144667 131.4878363   0.7781161 121.8089486 130.0320453   0.6931798
 107.8907294  31.0425782  36.2916374 107.5968952  31.6114020  35.5800676
 108.3954043  31.6185808  36.8658829  15.6308472  48.4054375  32.8916335
  15.2691019  47.8631163  32.1907353  15.1142740  48.1748295  33.6637759
  93.7330145 128.6783666  35.5954218  93.3680529 129.3252344  34.9916029
  94.6672935 128.6576695  35.3882337 116.5588415  12.5957608  21.2700748
 116.0039467  12.7340400  20.5024791 117.4405528  12.8186440  20.9715104
  16.3885391  74.9100733  45.1872635  16.7547941  75.6853962  44.7618723
  17.1521103  74.4271851  45.5035067  13.7549961  46.7260313  34.1626096
  14.3574369  46.1372328  33.7080574  13.5033977  46.2479544  34.9527836
  17.5439298  23.2005501  21.0086679  18.4262252  23.5707283  21.0361457
  17.6814282  22.2641063  20.8658385 107.9816694  30.0338840  22.5727439
 107.9527683  30.9727645  22.3886275 108.1990356  29.9788761  23.5033131
  14.6839607  66.5484762  41.6810560  15.2232671  67.2890854  41.4037848
  14.8559606  66.4648008  42.6189518  51.6061926  29.6125984  72.6115799
  50.8577347  29.7019267  73.2015467  51.7800760  28.6716723  72.5860453
  18.6118472  37.0865560  15.5115473  17.9777777  37.1520591  14.7974753
  19.2305660  36.4161706  15.2217114   3.6177924  38.6390877  34.1785049
   3.9568409  39.3271065  34.7511363   2.7640253  38.9642859  33.8929200
  23.3488297  32.7728510  69.6509695  23.5389233  32.5867939  68.7314701
  22.3932528  32.8054833  69.6961451 119.5314754  50.6105995  36.9367266
 119.2012418  51.1950636  36.2543941 120.0792558  49.9808216  36.4681602
   8.8823020  37.9956102   1.9647798   9.3112844  38.8499784   2.0123222
   8.2797384  37.9884362   2.7084851  94.8747558  33.5051918  43.1811237
  95.0182027  34.3333054  43.6392498  94.9437279  32.8383970  43.8643932
 119.5321865 135.0330109  45.9933805 118.8814492 134.6001775  46.5460348
 120.0863422 135.5141754  46.6078949  13.1386971  15.7856369   7.3598093
  12.4108982  15.1884484   7.1868742  12.7836692  16.4226806   7.9797786
  11.4131379 132.0617420  44.9518490  11.5966523 131.1654384  45.2332640
  12.2747970 132.4734730  44.8866415  94.6630973  36.3674188  50.3019953
  94.0614194  35.8326888  49.7840357  94.1168231  37.0705724  50.6532669
   4.9107662  56.6312885  53.3030844   5.1767242  57.2286415  52.6040363
   4.0383482  56.9326544  53.5566521 111.9344074  46.7235947  50.9109735
 112.1066970  46.4437151  51.8099833 112.0094079  45.9226465  50.3922367
  21.6778922  64.3285704  53.3761072  20.8690763  64.4943094  53.8604403
  21.3946199  63.8637018  52.5887775  16.7613769  22.4270535  36.6684747
  17.3538852  22.5518465  37.4098206  15.8908165  22.6030469  37.0253801
 109.3411011  21.2225342  38.3404565 108.7929649  21.6285276  37.6689291
 110.1870412  21.6626835  38.2574630  29.4525456  47.8981352  89.8785802
  29.4688702  48.8472843  90.0013860  28.5233021  47.6696205  89.9014195
  16.6421413  40.7224464  65.1884699  16.0418582  41.4640617  65.2652836
  16.9880033  40.6016684  66.0727882  79.2168826  27.3577261  28.3946109
  80.1285715  27.4058747  28.6822438  78.7636251  26.9102120  29.1091204
  23.5477543  11.0089684  99.1860541  23.7346530  11.9472659  99.2160448
  22.8920078  10.9173429  98.4948012 118.9385749  34.0212083  16.9654179
 118.7986184  33.4700894  17.7354240 118.2051385  33.8142300  16.3862264
  53.8993359  34.5272088  85.6691655  54.2197180  34.6042824  84.7704753
  52.9633617  34.7177649  85.6069359  22.4642015  38.0232596  16.4609849
  21.7341161  37.8357625  17.0509434  22.8909063  37.1763062  16.3312674
  29.8956108  55.8748579  45.0889015  29.4877601  56.5536690  44.5512152
  30.0348687  56.2936020  45.9383059   2.6069304   3.8127938 108.8747226
   2.8334311   3.4411249 108.0222019   1.9472301   4.4779813 108.6783739
  87.6049203  16.3558018  20.4939079  86.6600341  16.5088511  20.4950857
  87.7070088  15.4911840  20.0961065  27.2801328  41.6005564  17.0606756
  27.1298456  40.6844664  17.2939718  27.5080490  42.0241737  17.8882229
  41.1050034  58.0187511  18.0681181  41.0323668  57.0975018  17.8186226
  40.2193689  58.3661222  17.9622114 120.0448451  22.5336814 104.2330291
 120.0559989  23.4275126 104.5753344 120.7760704  22.0997262 104.6725997
  42.6440668 112.8419203  38.0599499  42.4868441 113.7850113  38.0142164
  42.1527624 112.5542373  38.8294268  80.1731128  28.4662437  33.8583374
  79.6464176  28.8447261  33.1543636  80.1642246  29.1302991  34.5476723
  20.1337361  34.8566675  53.1761837  20.3060102  35.3247643  53.9931536
  19.2949760  34.4194341  53.3229494   2.5485271  59.3822622  96.7193683
   3.4842423  59.5833826  96.7045172   2.4793461  58.5321188  96.2849685
   8.6064208   5.5998772  68.9845085   8.0624855   6.0432637  68.3335304
   8.9600211   6.3076317  69.5232868 119.7168047  20.7725072  39.6938300
 119.3830723  20.6211329  40.5781031 120.6549276  20.9199834  39.8138666
 114.4846923  68.5966587  15.1822507 114.8582775  68.6545086  14.3028653
 115.1778025  68.2019615  15.7114422 109.1696078  13.8764203  33.6965990
 109.4881792  13.0482316  34.0555525 109.5378501  14.5451570  34.2740250
 101.5329332   2.4633855  24.9859071 102.3968048   2.8387141  25.1564431
 100.9323711   2.9996052  25.5036187 107.4913830  18.5420036  23.3778691
 108.2786054  18.0186605  23.2274508 107.6052291  18.8980520  24.2590594
   5.1511180   9.4019973  10.8412600   4.5966285  10.1660430  10.6831241
   5.5158591   9.1888636   9.9823242 119.9371008   6.3440353  27.5775671
 119.6057851   7.2112882  27.3444700 120.8596671   6.4886332  27.7877927
   1.3156042  27.9736567  27.8727698   0.6605136  28.5739732  27.5168109
   1.3585033  28.1907678  28.8040352  50.4639482  51.9080019  34.7945523
  50.4613924  52.5902653  34.1231775  49.5391035  51.7694473  34.9987531
 116.5389157  16.9115114  20.8659220 117.1618558  16.2011588  20.7123756
 116.7052407  17.1851265  21.7679763   2.7783725  18.1756508  18.4677875
   3.7065935  18.1570494  18.2347834   2.6745710  17.4603403  19.0953135
  49.7736168  58.4936094  35.8129811  50.6400967  58.0869102  35.8197188
  49.6489620  58.8065815  36.7089367  16.1197114  24.3846297  13.6984313
  16.4821351  24.8615766  12.9518366  15.8551681  25.0683570  14.3138719
   6.8222135  50.6174755  37.0857239   6.8222356  51.3653135  37.6831913
   7.2489399  50.9438324  36.2934947  92.8431959  42.6915836  99.0267881
  92.3293561  43.0046749  98.2823583  92.2076864  42.6060867  99.7374555
  26.6192722  33.8629556   8.0735624  26.7684221  34.7557378   8.3848923
  25.7898808  33.6045527   8.4755188 109.0638370  31.8593001  49.7368193
 108.5391886  31.3395667  49.1278410 108.4278221  32.4158168  50.1862717
   7.9106092  35.7081175   0.7670523   7.4239045  35.9773707  -0.0119558
   8.1591481  36.5299821   1.1901351  35.3010535 141.5253598   7.4377316
  35.0340080 142.3253305   7.8904629  34.8329377 141.5547279   6.6033232
 123.5397695  22.5648165  28.5484171 123.7037425  23.5073423  28.5798597
 123.8765699  22.2914457  27.6951504  25.1885056  28.2164550  34.4995141
  24.9570608  28.7646461  35.2492809  24.7158790  28.6052990  33.7635422
   9.8655766  70.8920622  37.4701858   9.9150854  70.1114798  36.9183946
   9.4414151  70.5908728  38.2736826  27.4583602  17.2150540  14.5553982
  26.6032743  16.8709087  14.8135149  27.8166103  17.5933492  15.3583813
 115.1004428  14.4291937   6.1489457 116.0435457  14.5218396   6.0140193
 114.9405385  14.8280442   7.0042711   2.4930467   2.3883252  44.9632072
   3.4338343   2.2883637  44.8177481   2.3249057   3.3185264  44.8125887
  25.9996796  45.9210110  52.7663517  25.5246735  46.7442656  52.6529980
  25.6286979  45.5379248  53.5612392 121.5093858  26.3100386  66.0860968
 122.2956482  26.4802980  66.6047812 120.8407626  26.0827494  66.7322493
  34.6873593  14.3590820  19.1809821  33.8376069  14.0246618  18.8940692
  35.2518082  14.2691159  18.4131706  28.7954688   0.8732753  12.4947035
  28.4450459   0.6317065  13.3520722  28.0640769   0.7418939  11.8913507
 120.5544991  14.0805554  36.7154694 121.4755148  14.1229153  36.9727015
 120.5011234  13.3166897  36.1411095   7.4887842  40.8221245  63.9492750
   7.6383269  40.8188677  64.8947144   6.5370733  40.7774734  63.8571644
  37.2494864  17.5726974  34.7508192  37.7022696  17.1869946  34.0008521
  37.8862453  17.5277185  35.4640841 117.0739788  17.8016925  41.9581318
 117.8417415  18.0793428  42.4578142 116.9871736  16.8682301  42.1513748
 121.3060123  28.6363506  12.9468739 121.9028840  28.1505394  13.5160518
 121.6648475  29.5234752  12.9249740 104.1409702  12.9271770  54.5363903
 103.7438793  12.1411920  54.9115944 105.0645668  12.8690016  54.7809649
  33.2584977  16.3312209  12.8649616  32.7782416  16.7909539  12.1763158
  33.0477977  16.8116939  13.6655760  13.1844974  15.5281532  48.2623959
  13.5893035  16.3549733  48.5245657  12.9285681  15.1147366  49.0869045
   4.2494419  11.2339938  36.4445996   4.9805737  11.3517678  37.0510721
   3.8324368  10.4201186  36.7273474 101.3765306  26.7112279  33.9092612
 101.1734075  27.3023200  34.6342349 100.6376142  26.1033893  33.8815880
  39.1329026  46.1521959  57.0080614  38.3076859  45.7515860  57.2814846
  39.3368530  46.7784262  57.7026653 121.8275893  26.3575029  88.4885796
 121.6483576  26.7409754  87.6300582 122.3132614  27.0361733  88.9573654
  16.1789227  52.1119308  31.2334704  16.3272214  53.0244207  30.9852672
  16.6179299  51.6037941  30.5513430  33.4311676  55.9285402  14.9792826
  33.3500791  56.7134762  15.5210721  34.1490555  55.4360151  15.3771365
   9.2518544  24.4359183  61.1281395   9.0198404  24.4494915  60.1995850
   9.6538746  25.2899408  61.2870741   7.9502833  48.2934523  29.9213958
   8.0435425  47.5757027  30.5477905   7.4482369  48.9586067  30.3923011
  10.7740676  10.6494880 106.6617777  10.1529348  10.0724411 107.1061223
  10.7092118  11.4798462 107.1335097  29.9557304  24.6830797   4.5635986
  30.8685732  24.4941854   4.3461940  29.4694638  23.9280248   4.2324340
 118.7347586  41.6963005  10.5246186 119.4894583  42.0512009  10.0548220
 119.1034830  41.3306093  11.3286984  21.3655210  33.2122660  44.3447542
  21.8144417  32.7837038  43.6160326  21.3098168  32.5378132  45.0216913
  20.1891613 126.4035387   4.5132706  19.7099447 125.5903310   4.3542936
  20.5449438 126.6430897   3.6575451  21.1003184  17.1245539  22.9151607
  21.5848017  17.1207094  23.7406874  20.1798177  17.1246624  23.1776690
  33.8349080  41.6174078  17.9316962  34.1326356  41.0088682  18.6079121
  33.0877423  41.1777163  17.5259352  10.4811907  68.4414673   4.7567597
  10.7156324  69.3457699   4.9653450  11.1388493  67.9131222   5.2090508
  25.9393096  41.4222193  98.3774122  25.0464702  41.0941410  98.4843227
  25.8604097  42.1258259  97.7332481  21.7770910  24.7064543  25.3386045
  22.0225000  25.3798914  25.9730244  21.3117504  24.0487313  25.8554101
  45.0272369  27.9577756  33.8740993  44.5803881  28.7173557  34.2477298
  45.6947756  28.3315992  33.2988787   4.3925145  39.4756746  22.5382519
   5.1453227  39.1848707  23.0529785   4.1290134  38.7014794  22.0408344
  16.0654688 139.6489883  18.0208230  15.9639192 140.2335162  18.7719870
  16.4734709 138.8624144  18.3828568  30.8846211  29.3193150  74.2284298
  30.5435300  29.5364594  73.3608246  30.4170179  28.5219288  74.4769382
 120.0920937  29.7449398  34.6625042 120.8750311  30.2953315  34.6800923
 120.4213063  28.8558722  34.7944617 101.4639873  15.4442811  50.7728052
 100.9092373  15.6556571  51.5236712 100.9233779  15.6500220  50.0101471
 121.2569249  45.3005886  26.1770844 120.9587438  45.9184361  25.5095625
 121.0603974  45.7327032  27.0082784  10.0008070  59.6978474  27.0648170
   9.5230949  59.1159964  27.6559782  10.3848457  60.3602171  27.6392817
  10.0233221  22.8343630  37.6920223   9.2077851  23.3297253  37.7678227
   9.7891337  22.0655560  37.1720934   9.3868953   4.0862012  56.9757795
   9.5563728   4.9354586  56.5680170   8.8894224   3.5998598  56.3183403
  11.2557101  31.9654179  29.0304804  11.9413853  32.5633121  28.7328196
  10.5733502  32.5385237  29.3800068  93.4931607   0.6580396  11.6623008
  92.6703591   0.4413395  11.2238145  93.5684199   0.0110195  12.3636806
 112.5364835  40.7139874  29.7287726 112.3270840  40.6916904  28.7950230
 113.3673067  41.1869240  29.7766900  91.1116523  24.5445704  41.3435555
  90.4497666  24.0950561  40.8181238  91.7085142  23.8500524  41.6221809
 109.1898031  13.3130097  56.3337183 109.9760956  13.6075628  56.7932987
 108.8022358  14.1152406  55.9837914 104.8535532 146.3998754  39.2874694
 105.2261764 145.6032562  39.6653342 103.9995140 146.1285668  38.9509583
  20.1720810  22.1796155  30.8507991  19.6382463  21.6482162  31.4414477
  19.6175218  22.3139143  30.0822568  38.6230922  43.8982201  55.1592779
  38.8132858  43.9849758  54.2251873  39.2149472  44.5198584  55.5829620
   0.1501554  26.2204480  38.2938552   0.7588552  25.5133843  38.5078073
  -0.6686010  25.7743406  38.0773926  93.1731386  37.1203470  31.2294006
  92.7813119  36.2540793  31.1185765  94.1108365  36.9495749  31.3176537
 100.8626599  14.4803560   1.1263750 101.7308206  14.8693669   1.2321980
 100.4896063  14.4837618   2.0078808  36.8730235  49.5424080  17.5547326
  36.8417954  48.8370562  16.9084096  36.7251825  50.3398418  17.0463276
 119.1963763 142.9802144  10.8118415 118.2407064 142.9268531  10.8207512
 119.4808508 142.2798751  11.3990641  38.5158968  49.4924545  24.8450184
  38.7287354  48.9957571  24.0549397  37.5607347  49.5545530  24.8388433
 109.4870443  43.8799810  52.7201080 108.8661987  43.6569166  53.4136677
 109.1751272  44.7186136  52.3800611  30.2246451  42.7281857  35.0639987
  29.5195413  43.2680416  34.7067690  30.1053095  41.8735504  34.6497679
  97.5352306  16.9318056  33.1668162  97.0944733  16.3390386  32.5580525
  98.4667749  16.7442501  33.0515885 110.0510950  31.7728066  19.1615057
 110.7000966  32.4706221  19.0715981 109.2713005  32.2130752  19.4996119
   8.0893499  56.1581230   9.1479766   7.8960997  56.3678360   8.2342440
   8.7162161  56.8283510   9.4201273   8.0949605  30.1274633  19.8967087
   8.0301821  29.1725755  19.9116123   7.1929580  30.4269719  19.7830498
   3.1625092  60.2767277   8.1721824   3.4694088  60.3634739   9.0746897
   2.9486731  61.1706495   7.9049528 111.1472268  40.1928663  52.1882153
 111.2187273  39.3673873  52.6674891 112.0508272  40.4237700  51.9727612
  87.5342578 132.5418193  34.3898273  87.3309106 131.9861574  35.1422381
  86.7114038 132.9897029  34.1935062  17.7247608  41.3935423   7.5574124
  18.2774305  40.7420254   7.9890549  17.4645364  40.9795237   6.7345500
 114.6787352  31.5636134  13.9102983 114.6868343  31.8289280  12.9906392
 115.3041900  30.8404899  13.9564788   9.9039608   8.2817423  30.3289676
   9.2898804   8.9020979  30.7217741  10.2196610   7.7582854  31.0655546
 119.9178297  38.3758712  19.4286370 120.2607746  37.5175190  19.1799319
 120.6433988  38.9792848  19.2684078 116.3440556  11.4033008  96.6939696
 116.1610491  10.5532908  97.0942494 115.9303070  11.3562298  95.8320948
 107.1397633  41.0658693   5.0805312 107.9232163  41.5487766   5.3436565
 106.9183368  40.5338907   5.8448601 123.5549634  66.2992620  17.8590214
 122.7160523  66.3621521  18.3156455 124.2104905  66.3443708  18.5550690
  94.9662346   1.8598056  94.5508202  94.8826761   1.1562368  93.9072045
  95.1352353   1.4088495  95.3780492   4.0588996  24.2718148  40.7188082
   4.0928844  23.7827706  41.5409470   4.9757868  24.4435692  40.5042171
 104.4032497  33.4631824  10.2573133 104.0068836  33.1982589  11.0873389
 105.3193826  33.6364532  10.4738927   4.0315872  42.6209021 104.5714214
   4.3780875  42.0777988 105.2793839   4.3538690  43.5011530 104.7651246
  13.1589377  39.7223210  72.7009543  12.7850342  39.2149472  71.9805368
  13.3775139  39.0692115  73.3657130  21.7596555  26.5069294  70.5525621
  22.5784445  26.6743684  71.0192331  21.4794922  25.6455135  70.8619221
 122.2592197  14.1767216  28.2077646 122.7940800  13.6851931  27.5844216
 121.5801043  13.5593748  28.4796429   8.9064389  12.2575676  80.1271900
   9.4653398  12.9347396  79.7460064   9.5052779  11.5388656  80.3298935
 123.5198171  25.3551459  99.9334570 122.7684951  25.9456015  99.8777046
 124.2713775  25.9348679 100.0571903 124.3438969  33.3515120  31.3265204
 123.8395702  33.6005306  32.1010375 123.8063309  32.6882219  30.8937383
  17.5405383   2.5269207  13.3203816  17.4564135   1.6070181  13.5712481
  16.7347133   2.7190599  12.8408396 115.3243763 143.4628318  12.7009797
 115.7804943 143.3806390  11.8634641 114.4495851 143.7736339  12.4677992
  15.9803021 142.2320850  90.9652587  16.6091347 142.6743192  91.5355476
  15.5286920 141.6143150  91.5402731   5.7501251  36.6834641  79.8808654
   5.9756917  35.8142042  80.2121409   5.7933861  36.5955591  78.9286932
   5.8367956  59.5578671 105.9232696   6.7675567  59.4189739 105.7482701
   5.6933111  59.1631937 106.7834314 122.2537716   8.6731368 104.9807697
 123.0069480   9.0982932 105.3908902 121.5201387   9.2615396 105.1590853
   2.5019312  41.2070179  28.4819531   2.5905889  40.3733921  28.9439416
   1.5638833  41.3959360  28.5066104  44.3401194  15.9142709   8.9185715
  43.9358902  16.5939367   8.3792329  43.7453032  15.8128405   9.6616340
  26.7770863  14.3799400  34.6931410  26.2838840  14.5083058  33.8828921
  26.2511802  13.7595844  35.1979327  27.7274299 143.1245227 108.0219249
  26.8748236 143.2523475 108.4378042  28.2793236 143.8145629 108.3900162
 117.8089852   0.6452633   0.6334595 118.5603589   0.0672403   0.7659662
 118.1810177   1.4359257   0.2427210  18.6972868  53.3548880  15.3095567
  19.1552210  54.0127993  14.7864127  19.3251789  52.6375008  15.3952241
  98.9070625  18.9945662  38.5539675  98.1494994  19.3769658  38.1111383
  98.5790128  18.7458515  39.4181180 115.5615700   3.8603958   3.4109718
 115.5798191   2.9463696   3.1273258 114.6583743   4.0057817   3.6926329
 107.7065451  18.0851781  28.9895129 108.6326713  18.3244658  28.9539742
 107.6570744  17.4205959  29.6766186  29.9932194  23.7354231   0.9909993
  30.4695582  24.0127635   1.7735696  30.3265524  22.8573465   0.8063322
  30.1374722  34.8688459  37.8096509  29.7715569  35.6956053  38.1239891
  30.4533386  35.0665665  36.9279671   2.7730650   9.4386351   1.2322323
   2.6285192   9.8427856   2.0878027   2.1191326   8.7413567   1.1831675
  67.0397491  18.3429050  21.8637609  67.5847358  17.5575376  21.9129467
  67.2355480  18.7168872  21.0046721  97.9325241  15.7337332  36.0779095
  97.8997750  14.9832273  35.4846954  97.7836055  16.4920950  35.5131578
 120.5208678  31.8103886  14.6878922 120.8547858  31.9242477  15.5777049
 121.2912054  31.5734911  14.1714716   9.4681245  22.4706006 105.7594999
   9.4147676  23.1306124 106.4507078   8.7812334  21.8403125 105.9766372
  75.6917209  33.0693436  88.1209334  75.6093044  33.8436818  87.5642999
  75.4361743  33.3723783  88.9921960  58.3026218  29.7888565  23.2447171
  59.1968060  30.1295829  23.2685256  58.0536079  29.7051811  24.1651654
  32.3112655 140.1620335   3.1390426  32.5748587 139.2665548   2.9272211
  31.3550162 140.1459182   3.0995321  19.6912026  20.0323582  92.2975632
  18.7770534  19.7487783  92.3095914  20.0710249  19.6499705  93.0886050
 109.2838652  36.1480927 103.0511173 109.1033263  36.9634128 102.5832602
 108.7265236  36.1894155 103.8282242   7.7169663 143.6465276 107.1884903
   7.5907665 142.7475349 107.4919994   7.7043772 143.5809413 106.2336230
  23.6183572  16.2738800 106.1689507  24.4816852  16.4115071 105.7791322
  23.7252903  16.5311193 107.0847153 111.2238044   1.6516651  83.7520965
 111.8465824   1.3903317  84.4303902 111.2328345   0.9271157  83.1266531
 118.4839559  17.6571190  50.5678320 119.4399816  17.6139915  50.5481768
 118.2689733  17.7864516  51.4915657  10.4763317   4.9647933  94.9991854
  11.0897136   4.2378640  94.8916289   9.7906077   4.6171889  95.5694350
   6.1696327  27.6274562 102.3330166   5.2920675  27.9850364 102.1979364
   6.1541122  27.2859693 103.2270964  14.6464062  20.7688689   5.0976914
  14.9871671  21.4200807   4.4844708  14.7941482  19.9293911   4.6621680
  24.7059369  25.8200002 108.1205394  24.0544701  26.0154486 107.4470254
  24.2905307  25.1552033 108.6698239  13.1072581  45.8692741  39.9731326
  13.9579844  45.8971310  40.4109955  12.4696767  45.9320593  40.6843138
  26.6711831  22.8079438  17.4118078  27.0705605  23.0077720  16.5651679
  27.0516825  23.4481025  18.0131805   1.7358184 144.4935503  31.7077255
   2.0510934 144.4880108  30.8039546   2.5319207 144.4872417  32.2391510
   5.3405315  13.2858682  89.1927489   6.0451758  12.7270579  89.5205291
   5.7229304  14.1629755  89.1665729 100.9612936  46.6545391  40.2656603
 101.2315363  47.5727987  40.2683210 101.7216629  46.1820745  39.9267673
  13.8145435  29.2914128  41.9765759  14.6365809  28.9223838  42.2995424
  13.9288104  29.3364072  41.0272884   5.8051020  72.8562498  14.4435906
   5.0907487  72.4264050  14.9138749   5.6892169  73.7876606  14.6313894
  53.7930679 138.0405248  13.6586940  53.2677031 138.3483286  12.9201293
  53.5399580 137.1237827  13.7670934  78.2493705  29.4689345  22.5832057
  77.9842061  29.8112273  23.4368777  77.4667568  29.5517874  22.0383334
  11.5824366  43.4372807  38.7255573  12.5019908  43.5825348  38.5029507
  11.3102162  44.2462444  39.1588044 123.1354713  67.6205873   2.7930060
 122.2866083  67.7156925   2.3610131 123.3612839  68.5069513   3.0751365
  15.4582691 132.6477141  35.5946660  15.9170187 131.9007415  35.2102017
  14.6168518 132.6724155  35.1389909 118.5472561   1.8355741 106.0751458
 117.6785321   1.9945160 105.7059731 118.4074754   1.1525486 106.7310187
  16.1295533  33.9434981  59.5970917  16.9413924  34.3641305  59.8803186
  16.2185097  33.8664031  58.6471558  27.9736304  25.3685141   7.4242228
  27.4004745  24.7248459   7.8406543  27.6282549  25.4575515   6.5359551
  17.7313673  47.4638796 103.0006882  17.1714032  48.1373644 102.6145693
  17.3059082  47.2450304 103.8297363  21.0666513  36.0067701   5.6008458
  21.6120124  35.2202082   5.6124800  21.5302944  36.6280127   6.1623836
 119.1299272 145.5935823  41.2164354 119.1119683 144.6868049  40.9103870
 119.1922194 146.1152352  40.4162931   4.1676629 127.8403778  84.9513253
   4.0747890 126.8888516  84.9043831   4.4008827 128.1024904  84.0607413
 114.7706885  21.6695094  39.0445113 114.8347760  21.1081815  39.8171926
 115.1484496  21.1471081  38.3369637  46.1831045  47.0902967   0.9675013
  45.8497715  46.9399261   1.8520978  46.8475389  46.4125204   0.8434860
   9.0440565  22.4028158  89.4700011   8.9607942  21.5967989  89.9795469
   8.6901647  22.1795678  88.6090978   3.8716060  47.7370167  15.1248121
   4.6869373  48.2128143  15.2831852   3.1832248  48.3852768  15.2735579
   7.2656542  31.5121388  15.0599909   7.3660040  32.2282767  15.6871319
   6.7648953  31.8936300  14.3389237 123.7308556  15.5332172  30.4885125
 123.0611674  15.0500917  30.0044274 123.3560596  16.4055741  30.6099772
  30.2155089 133.8272674 108.6599877  30.7139397 133.7203653 107.8498197
  29.3094063 133.9358921 108.3711832 123.0328867  25.8499956 104.0395226
 123.6918330  25.1660943 104.1591152 123.4930511  26.5467596 103.5715511
 111.1855084  65.9577894  92.6619335 111.2912638  65.6114817  91.7758652
 110.5778427  66.6905499  92.5617560  91.4398808   8.7050647   3.8580701
  91.4011568   8.5821491   4.8065552  90.5236883   8.7265640   3.5817388
  21.0636020  13.4298670   7.7788556  20.5532908  13.5846031   6.9839519
  21.9227171  13.1515300   7.4615544  97.2393078  19.7996914   2.1400541
  97.2517437  19.1305745   2.8244227  97.3598046  19.3115091   1.3255662
 121.1291016  39.6443200   5.9523875 121.2846092  40.5876350   5.9994084
 121.0664619  39.3660641   6.8661058  33.3404589  18.7918556  71.1190780
  32.5088429  18.3288264  71.0178312  33.9961505  18.0968487  71.1762055
   9.9978036  10.3932703  24.2453384   9.7100133  11.2200308  23.8582015
   9.8946369  10.5215943  25.1882720 124.2515037  11.7081904   3.8446143
 123.5404225  12.2707939   3.5379022 124.5902529  11.2956774   3.0500621
  28.1706500  49.6890116   1.3959019  29.0155935  49.8968172   0.9970029
  28.3930588  49.1891956   2.1813628   2.7030578  44.6786070  35.1592016
   3.1325427  44.7338867  34.3055511   3.1000784  45.3818607  35.6730533
 121.8698607  20.3606510  92.7249178 122.0409257  20.9586191  91.9973167
 120.9952266  20.0136924  92.5492307  32.0105457  30.7045388  37.8500724
  31.0957289  30.7255721  37.5691867  32.0994329  31.4583683  38.4332299
 120.4582921  43.0171871   8.8024366 121.1949412  43.4839582   9.1970336
 120.7884181  42.7225780   7.9536414  11.3097417  47.8264666  18.9512491
  11.2735856  48.4751034  19.6542370  12.1176660  48.0291653  18.4796524
 119.6618122  24.9443698  11.1867094 119.9491618  25.2789021  10.3371501
 118.7897957  25.3195691  11.3093650  45.5272770  14.9982607  90.4496821
  45.2526522  14.0968227  90.6176814  44.7142744  15.5032420  90.4656311
  50.8205128 140.5266816 107.7793590  50.3151369 141.1667199 107.2781842
  51.3387680 140.0627721 107.1217605  15.0888157  10.2883899  26.4148092
  15.1725674  10.7486582  27.2498965  15.6853461   9.5436805  26.4909053
 106.8604869   6.3739347   8.4336734 106.2590308   5.6944293   8.7382305
 107.1718699   6.7948604   9.2349809   9.8989081  24.3712664  12.4270964
   9.9700713  24.0767169  13.3350658  10.7887924  24.3000460  12.0817471
   7.3372447   4.1660148 107.8249864   6.6272211   3.9421967 108.4266538
   8.0009830   4.5758820 108.3796864  49.1138554  24.7918272 109.3577352
  48.4435654  24.9286747 110.0272235  48.7680006  25.2290845 108.5796455
   6.9127655  39.2430401  24.4523787   6.8326533  40.1779175  24.6416283
   7.7150708  38.9757800  24.9008322 101.8274302  63.5910702  31.8538189
 101.3856596  63.7621355  32.6855707 102.3061795  64.3984795  31.6664052
 116.4914126  38.4871006  30.4664493 116.3948715  39.3918991  30.7635260
 116.3334853  38.5265708  29.5231938  20.4864216 139.8734857 108.9258640
  20.1381063 140.2977700 109.7100137  20.1255465 140.3807254 108.1987410
   5.4571658  25.5799294  10.5887866   6.2534046  25.7770300  11.0821295
   5.0858361  24.8152971  11.0288787  55.3818178  30.6656456  94.5482167
  56.2488031  31.0541868  94.4315799  54.9104023  30.8863640  93.7449237
 111.0071320  25.7816720  89.2290267 111.6922528  25.1137257  89.2027768
 110.9583694  26.0387015  90.1497813  15.4297507  20.1764607   7.7961272
  14.8060465  20.1585627   7.0702457  16.0483789  20.8688092   7.5633442
   5.0011230  27.8286767  23.7445378   4.7169361  27.2227407  23.0602050
   5.1794803  27.2694540  24.5006394  96.3794441  12.2958958  91.8950339
  95.9072608  12.4980974  92.7027401  97.2071452  11.9163108  92.1900889
   4.0144402  48.6748505 102.4729266   3.3392674  49.3407011 102.3424854
   3.5401613  47.8439236 102.4438294  24.7230673   7.4947965 107.8534583
  24.8022985   8.4463090 107.7857912  24.1505146   7.2498339 107.1265414
  28.3721995  13.3802509  28.3504891  29.3085742  13.5706639  28.4068584
  27.9463196  14.1766071  28.6677814   2.4804927  51.1873341  17.9531848
   2.1314931  51.4519691  18.8043010   3.2786345  50.7019567  18.1620145
  27.2665691   7.8902572   4.4172084  26.9220972   8.2930636   5.2142769
  26.5961170   7.2575188   4.1595888 120.0534034  27.6413393  16.9159651
 119.6231175  28.0382848  16.1586523 120.9558547  27.9573178  16.8715620
 107.6414806  28.3307767  36.0706663 107.7323980  29.2235661  36.4036679
 107.3284692  28.4407544  35.1728010   9.5118147  43.7215137  50.3001499
   9.0709376  44.4779205  50.6870699   8.8968378  43.3962822  49.6426868
  34.7040391  45.6243658  10.9450710  35.3899455  46.1178589  11.3947678
  35.1758361  44.9523067  10.4531562   6.7476398   2.4223520 105.6114947
   7.1514541   1.6423467 105.9919649   7.3077345   3.1447625 105.8954822
  28.0698943  29.1708589 100.6294908  27.4904418  28.4173059 100.7418551
  27.5430536  29.9212241 100.9044822  11.2206912  19.7717953   2.2718064
  11.8001544  19.1182768   2.6634279  11.7658496  20.5537343   2.1846098
 117.6827795  45.6586170  25.5751133 117.5886363  46.5151739  25.1583719
 117.8443427  45.8574343  26.4973927   6.7680222  26.5644073  34.1572428
   6.5148872  26.9509220  33.3189344   7.6420271  26.2064028  34.0017462
   0.1581493   5.3419465 105.4774355   0.6472317   4.6029377 105.8392309
   0.4493633   5.3993875 104.5674207  28.8635564  50.1749086  30.7438254
  29.6134329  50.6798649  31.0583687  29.2440772  49.5212173  30.1572037
   3.6926094  44.0953684   4.3935394   3.7057763  43.5185099   3.6298054
   3.5880497  44.9739552   4.0283126  13.5372102  13.0222380  15.4628897
  13.4860539  13.3167744  16.3722098  14.4745898  13.0014932  15.2702212
  16.9000268  48.5999823  86.8303164  17.3599601  49.2615461  86.3135728
  17.5969589  48.1081295  87.2645982 115.2262653  37.5262547  32.7213836
 115.4856867  37.7143764  31.8194175 115.6956202  36.7219472  32.9428029
  14.3603790  25.1239300 107.5888356  14.8551977  25.4918671 106.8567091
  13.4489477  25.3445220 107.3968368  12.3698592  31.8965673  39.5411897
  11.7414200  31.2951779  39.9407244  12.2274888  31.8009305  38.5994792
   4.7237331  37.1442986  32.0565510   5.4960215  37.6723671  31.8542051
   4.2481649  37.6563144  32.7106977 107.9546935   0.9982184  27.3408008
 107.7007861   1.8311459  27.7382851 108.8739497   0.8873671  27.5835180
   8.4131801   4.9747095  19.8380101   8.7338805   5.6201220  19.2080688
   7.4636960   4.9729165  19.7167349  46.6445303  37.1295357  49.8745394
  47.4151611  36.5634894  49.9187326  46.1345339  36.7830729  49.1423464
 111.1684269  51.1214495  40.1916218 111.0449809  50.2045202  39.9462032
 110.3919119  51.5667677  39.8525810  39.2761326   4.3649361  25.6632948
  38.8873982   4.1089776  24.8268723  39.9980831   3.7493816  25.7902312
   6.2053823  18.7755775  13.3103919   5.9903270  18.8110006  12.3783362
   5.7046807  18.0309248  13.6435926   9.0993428   1.6790406  12.7651346
   9.1019112   1.7096701  13.7218404   8.3494204   2.2165436  12.5103033
  28.1330347   4.3607914   8.2594168  28.6435604   4.0721187   7.5029367
  28.6853480   5.0166047   8.6849630 109.2083961  29.1917133   3.4325013
 108.6497421  29.9510670   3.5983929 110.0155742  29.5617294   3.0750319
 103.2332725  12.9693735  30.0593472 102.9246492  12.4503589  29.3166447
 104.0668125  12.5667846  30.3029966 123.4940399  17.0880806  39.2131639
 124.0684643  17.5526118  38.6044931 123.7664591  16.1727560  39.1483450
  17.6834095 141.1436726  32.3485255  17.5081611 140.4005212  31.7712522
  17.6658177 140.7714350  33.2302070 117.8726698   4.9661091  41.9499922
 117.1723271   4.3437862  42.1461201 118.3529586   5.0534886  42.7733517
  98.5423107  13.6754632  34.2389464  98.5948414  13.5565293  33.2906175
  99.4545073  13.7160385  34.5261407   2.1751085  63.2508659  21.9844556
   2.0214497  62.6494455  21.2558198   1.4115942  63.1406021  22.5511312
  11.8541932  61.5391970  28.3047247  12.7725101  61.7443275  28.4803557
  11.7935884  61.5104055  27.3498774  24.0710449  36.9015384  26.7941427
  23.3287644  37.3844934  27.1574712  23.7365794  36.5252280  25.9800458
 114.1225213  49.7301722 108.4232885 114.7764779  50.4211044 108.5290346
 113.3038623  50.1278305 108.7197658 110.8897430  23.6129546  23.9292717
 111.5527505  23.4331584  24.5958495 110.0865573  23.7685347  24.4261813
   7.6190460  65.6828070  31.9736552   7.7261722  65.4131317  31.0614967
   6.6717750  65.7490396  32.0941615  16.9924009  28.7285137  34.0850019
  17.8923416  28.4024286  34.0877414  16.4598453  27.9636478  34.3031740
  25.3356624   5.0855982  97.9103693  25.5834007   4.9195251  98.8199171
  24.4283414   4.7865021  97.8508290  36.9692588 117.3831839   2.6366162
  36.3160086 116.7019696   2.7961311  36.5672445 117.9513735   1.9795182
   3.0690935  26.0058093  48.2243538   2.2819926  26.5358758  48.3497858
   3.5513034  26.0948110  49.0464163  18.9147532  31.5319514  31.1151886
  18.7726259  31.4015937  32.0527601  18.4097302  30.8345175  30.6971359
   2.2687033  23.1478596  17.1421444   2.6296011  22.2967649  17.3903775
   1.5826452  22.9411983  16.5074420 109.9298174  11.4893341  13.0233371
 110.1712365  11.0543382  12.2055793 109.6503717  12.3647821  12.7555084
  10.8170617  21.1150670  31.6154337  10.4971254  20.2664185  31.3093805
  10.4009497  21.7516875  31.0342312  27.0858526  31.5403175  14.4391620
  27.4523950  32.4180269  14.5464242  27.2660446  31.3154125  13.5263753
 116.9420028  42.3715115  28.2955050 116.1400927  42.0781565  27.8629375
 117.5136954  41.6038418  28.2862854  18.3876026  16.2284136   3.3580664
  19.2120063  15.8446038   3.0592674  18.4148157  17.1311247   3.0408865
 118.6832882  39.6345997 101.7397954 119.2149819  40.4101038 101.9190463
 119.1544337  39.1768765 101.0435601  12.1953583  17.8952503  96.6869637
  11.5137339  17.2258067  96.6281041  12.1075511  18.3983040  95.8773597
   4.6855956   7.3952430  16.5178072   5.2896434   8.1028253  16.2926733
   5.0270563   7.0409787  17.3388636  16.8137836  60.1430750   6.3563061
  16.9854629  59.4986629   7.0429564  16.4323306  60.8895588   6.8183589
 109.4073016   8.4668207  90.4691887 109.0648562   8.3961082  89.5781517
 108.6384005   8.3647561  91.0300922   2.3692653  10.6073844  91.0772896
   3.3100814  10.4859686  90.9494114   2.1711472  11.4306211  90.6309032
   0.7281314  26.7901397   7.5794355   1.3591620  26.1128879   7.8230802
   0.8627479  26.9161844   6.6401712 117.8919364  20.5745864  98.3952713
 118.5507876  20.3033447  99.0344620 117.0565260  20.4550338  98.8469601
  13.1722295   0.5097347  19.2055742  13.0361354  -0.2151332  19.8157159
  12.6949894   1.2427995  19.5942727 120.2238519  10.0484860  40.3912640
 119.4922597   9.8248082  40.9665680 119.8828331   9.9144256  39.5069766
 101.3418931 127.6408930   1.5505639 100.5830569 128.0266936   1.1128942
 101.0925192 126.7294616   1.7033330  14.5065808   1.0350766 102.0917225
  13.6107731   0.7146609 101.9863987  15.0184798   0.5260358 101.4631748
   5.6194270  29.5228219  92.0152473   4.9090064  29.1315532  91.5068722
   5.6879061  28.9715838  92.7947903 122.3163789   4.4422713   1.9630281
 122.7713878   4.9972367   2.5964490 121.4106650   4.4192472   2.2718755
 113.0478007   5.0801718   3.9333574 112.1156210   5.2149707   4.1039506
 113.4658188   5.8859885   4.2369214  10.4088366  25.8549070   4.3668882
   9.9633354  26.1755586   3.5827009   9.9342287  26.2581754   5.0937692
  98.2483453   3.8625202  87.4252701  98.8433904   4.1418234  86.7294693
  98.2531757   2.9066432  87.3751926  77.7851314  11.9675207   3.1122915
  77.5649757  12.2044468   4.0131990  78.4038371  12.6418269   2.8316823
  10.9782863  -0.1074750  99.3062115  10.8454037   0.6481968  99.8785210
  11.8416488  -0.4424355  99.5483685 115.7429445  11.4955854  86.1966991
 116.2275834  11.0309696  85.5144310 116.3378913  11.5086663  86.9464302
  10.3617930   7.3783690 100.6674767  10.9739399   7.9909533 100.2597427
  10.9209991   6.7397964 101.1099052  45.0330925 142.7454496  12.9341832
  44.6918726 143.1104911  12.1177617  44.5769596 143.2299397  13.6222593
   5.8718348  19.5160437 102.0222378   5.3179634  19.6405399 101.2515450
   6.2210202  18.6300576 101.9256401  23.5868645  27.0202756   6.0118142
  23.3171082  27.3203015   5.1437990  24.3658137  26.4880610   5.8498994
  11.3281977 136.2250859  75.3604650  12.2761905 136.1034543  75.4128838
  11.1740613 136.5221334  74.4636726 114.1908080 140.9631039  14.3292848
 114.4004673 141.5973381  13.6437074 115.0351316 140.7549090  14.7292939
 101.2759823  45.3410435 104.1237068 101.9886894  45.3025198 104.7615147
 101.5987558  45.9268475 103.4389591 123.6942267  30.8409905  91.1937141
 123.9586785  31.7365313  91.4041996 123.1412520  30.5755639  91.9285583
  44.8747253  19.3363070  69.5256901  45.0659704  18.4957719  69.9418116
  44.2623854  19.1213989  68.8220692  56.2046289  20.0609207  95.1600933
  56.0347509  20.0461984  94.2181969  55.8832884  19.2159259  95.4746628
 122.3533804  38.0381155  11.3888780 123.3012629  38.0344605  11.2556974
 122.0847124  38.9312625  11.1736242 117.9466558  10.5565345 103.7714958
 118.0872656  11.4161277 104.1684341 118.0282140  10.7110691 102.8303719
  29.2160630 145.4460265 100.6382942  28.7558603 146.2721478 100.4900742
  28.8735294 145.1275385 101.4734364  13.2988858  49.5036650  91.5163898
  12.6027811  49.0642071  92.0048046  13.2811213  49.0928364  90.6520176
  98.5244316  24.3690801 108.4715557  97.5722713  24.4656610 108.4887600
  98.8265318  25.0753522 107.9004574   8.7577164 145.2636241  47.7978373
   7.8096312 145.3571401  47.8906870   9.0462959 146.1001265  47.4328470
   5.8537465 131.9632370   2.0298711   5.7314503 132.5284094   2.7926675
   6.7620015 132.1103508   1.7659322  15.7829964  18.2977939   4.6396676
  16.5698886  18.7179303   4.9868242  15.9074926  17.3667634   4.8238317
 123.1275608 140.0991369   7.3987619 122.2910971 140.2765245   7.8289930
 122.8902515 139.6356035   6.5956155   7.8771800  14.0012825 103.8243103
   8.3663464  13.2093406 104.0474129   7.8043610  13.9770043 102.8701878
  33.0501127  16.2242126   1.5585367  33.9692330  16.0311604   1.3736574
  33.0680585  16.7044091   2.3863832   8.3731920  26.6648269 104.5366096
   8.2476658  26.8413496 103.6042404   9.2942536  26.4152098 104.6112347
   7.1356499  21.6526461 107.9511070   7.5806212  22.4821234 108.1248951
   6.4069706  21.6371512 108.5716057   8.8468671  32.9623437 107.7849388
   9.5210248  33.5794044 107.5003719   8.2666951  33.4814835 108.3418274
 105.8995456   6.7474419  73.4331560 106.7023105   6.2282211  73.3861494
 105.2886564   6.2973189  72.8496885 120.8959410   9.7425133  79.9905348
 120.0146738  10.0617278  80.1847076 121.4564288  10.5122900  80.0881577
  27.5991726 140.6092782  86.6734219  27.8281212 140.4338128  87.5861263
  27.2965860 141.5173931  86.6727161 112.5605721  10.3883708 102.3793602
 112.5413556  10.3048110 101.4260101 113.2194025  11.0620916 102.5475121
 111.4406890   8.1350815  92.3364258 110.7190174   8.4207577  91.7762375
 111.9983835   8.9083600  92.4215698  23.5859895  48.3747196  90.8455276
  24.0812349  49.0310812  90.3554630  23.5116601  48.7398243  91.7272282
  63.5783386  40.6574440  94.9041271  64.2325926  40.0136328  94.6326828
  64.0754032  41.4657974  95.0295353 108.7900025   8.0329943  88.0389309
 108.7398297   8.5445577  87.2314548 107.9667730   7.5453037  88.0650425
  39.5841622   6.8512338 102.9160595  39.7905588   7.5336343 103.5547829
  39.5416689   6.0457420 103.4314346  21.6567063  23.9433050  14.9383489
  20.7900763  23.8373208  14.5459787  21.7591143  23.1774402  15.5033246
  38.5872483   1.1090240  11.7573015  38.6525917   0.2276269  11.3897458
  38.1651044   1.6244514  11.0700170  12.6534820  29.4202518 101.2897682
  12.7464926  29.5243788 100.3428078  13.2134783  28.6743474 101.5048599
 109.8907728  21.8624735  15.1306287 109.6468598  21.4706397  14.2920629
 110.6418330  21.3478160  15.4260484  85.7154078 127.2822554  90.6869030
  86.2398452 127.0433695  89.9226093  85.9308309 126.6185565  91.3421345
  20.9990668  11.2848210  74.7723007  21.4612699  12.0694971  74.4775391
  20.9868383  10.7118523  74.0056229   0.9715327  23.7132406  11.4399091
   1.4245895  24.5559907  11.4126626   0.5194145  23.7115383  12.2836057
  37.5053573   7.3483199 101.1246872  37.2160292   7.8180277 101.9069290
  38.3435273   6.9596672 101.3749981   5.7039922  18.3457589  87.1055222
   5.8725739  17.4775219  86.7394924   5.8317649  18.9447379  86.3699055
 110.7402069  26.2053967  94.5935822 111.2311394  25.8304286  95.3247643
 109.9159831  26.4972258  94.9831009 101.9801468  13.0951309  94.7597218
 101.1462778  13.4753549  94.4834518 101.8965477  12.9980755  95.7083130
  11.9859827  23.6409044  99.1984367  11.9984818  22.8508329  99.7386837
  12.8143418  24.0784860  99.3948460  21.8964863  22.0135832  64.1564560
  20.9675717  21.8658948  63.9788675  21.9057918  22.5768113  64.9303532
  21.2788892 138.2707007  49.2265797  21.5614820 137.5512875  49.7912169
  20.4289722 137.9895593  48.8877106  32.2229743  21.5207052 107.3881721
  32.4470091  21.4872050 108.3181858  31.3706827  21.0887194 107.3314095
  21.7593622 127.8217954  11.0810033  21.7352438 128.1105907  10.1687280
  21.1631536 127.0735604  11.1112062 109.3818099  27.9016185  92.7920723
 108.5480899  28.3137608  93.0185318 110.0438530  28.4626055  93.1960773
  92.2797889  26.3966203 100.3433323  91.9424958  25.9252334  99.5815754
  92.3910326  25.7215667 101.0127735  21.4523435  26.0680962  90.4375172
  20.6132913  26.1916900  89.9937248  21.7413473  26.9544411  90.6545448
   5.7295543   4.8921278 103.8499165   5.5150598   3.9825404 103.6428547
   6.6379791   4.8616385 104.1500187 119.6345747 145.6123273  80.0180435
 119.4457418 144.7542253  80.3978252 119.5142317 146.2265178  80.7422829
  95.7900495  19.9805772  97.9368782  95.9997506  19.8684287  98.8640690
  95.3376979  19.1726673  97.6942062 101.2754673  22.6858974  23.5948316
 100.3876442  22.4979210  23.2904188 101.3180656  22.2927308  24.4665185
  24.3342161  15.6016946  91.8700123  24.2401505  16.1967504  92.6138496
  24.7512579  16.1315715  91.1906433 120.3195537  29.5426846   1.0705892
 119.5042718  30.0114584   1.2489168 120.8627907  30.1765633   0.6022683
  39.1183257  21.0234642  81.2596035  38.6146355  21.4853239  81.9298458
  39.8997426  21.5617943  81.1338329  52.3849392  14.9412167   4.3629876
  51.9840431  15.0801837   5.2210084  51.7978907  15.3835762   3.7498514
  95.0789017  34.0152836  81.6025162  95.8514137  33.4907794  81.3919163
  94.7638459  33.6554289  82.4316597  13.1781292  26.9981241  97.4987125
  12.2268450  26.9532990  97.4023724  13.3250773  26.9627571  98.4438992
 112.3126358  21.9688511  85.1492405 112.7161188  21.3050818  85.7085609
 111.3861675  21.7296052  85.1237583  21.3200641   3.6659238   1.4879838
  20.7405543   3.2705793   2.1392099  22.1341920   3.8340747   1.9624845
 103.4557242  21.7787290  94.5685005 104.1949243  22.3220491  94.2953396
 102.7222962  22.0870280  94.0362740 118.4549583 142.5219379   2.4995748
 118.8882381 142.6028756   3.3492509 117.5508226 142.2910557   2.7127973
 107.6545376 130.6343991  93.9920330 107.6688976 129.8755188  93.4088326
 107.1887786 131.3082523  93.4968376 121.7626164 145.7196693  83.7172222
 122.3028413 145.3453425  84.4131184 122.3283883 145.7133249  82.9451561
  30.4016137  13.0573034  14.2330209  30.3057694  13.9859486  14.4443551
  31.3258553  12.9577589  14.0047685  16.5692413  24.5663381   4.1142217
  15.9720826  24.2873287   3.4201089  17.4420500  24.4636893   3.7348787
   2.1530056   5.0284362  44.4364214   2.5917989   5.8791363  44.4352102
   1.2259796   5.2372664  44.5515060  32.0662212 139.8476113  22.5991479
  31.2123251 139.4951088  22.8498212  32.4331999 139.1893596  22.0090047
  36.9483900  10.2959180   7.2808114  36.7225981  11.2115717   7.4446050
  37.8536296  10.2150297   7.5811902  19.8977828  43.4796619  93.2118988
  18.9731646  43.6805296  93.3566952  20.0311136  42.6379204  93.6477184
  13.1390846  37.5435424  81.6749287  12.5773239  37.8836274  82.3713493
  12.5361204  37.3341179  80.9616184  13.7593400  13.7600458  97.3200512
  14.2856908  13.2105649  97.9007816  13.1330383  14.1915727  97.9012203
  10.4427695 127.6040752 108.7898064   9.5850432 127.8498382 109.1364193
  11.0031903 127.5368256 109.5628738 123.7894867 125.2023334  71.0100985
 124.6468850 124.9028320  71.3124180 123.2886060 124.3978567  70.8753157
  26.2925315 137.7320249  78.2833672  27.0615339 137.2015346  78.4918118
  26.4002466 137.9572506  77.3592997  16.7042327  27.5800419  77.0888853
  16.2631440  27.3720121  76.2652349  16.3935971  28.4575224  77.3119593
  18.7506008  26.2002826  66.8216228  18.4613073  25.9450126  67.6976252
  17.9496121  26.4753580  66.3755512 111.2032599  22.4986100  97.3893261
 111.3795025  21.7317724  96.8442249 110.3519256  22.3184633  97.7880859
 123.5777222  11.7417300  18.4678212 123.5099438  12.5139272  17.9062597
 124.2164993  11.1808848  18.0277673  30.8970332  35.0454736   1.3793317
  30.3325725  34.3000484   1.5841619  30.3565288  35.8133364   1.5650026
  14.0508211  23.0609035   6.8112890  13.7634373  22.4212766   6.1597387
  13.4659278  23.8084078   6.6873208  96.0301108   4.0323418  89.2063713
  96.8260617   4.0792719  88.6767578  95.6388158   3.1895617  88.9764977
  11.5780067 144.5947216  45.4560224  11.0967386 145.0004948  44.7349397
  11.9620061 143.8056869  45.0736562  28.8131952  31.8570709  69.0104914
  29.0831470  32.7697110  69.1127062  28.0737400  31.7574358  69.6100855
 119.7739587  46.5354586  93.6042595 119.5128471  47.3805952  93.9700413
 120.4538036  46.2171793  94.1981792  26.9290996  17.9873359  34.3881170
  27.7560234  17.5402820  34.5685903  27.1182179  18.9127100  34.5435182
 103.4369988  20.5324006  63.2703400 103.1199402  20.0534010  62.5046635
 103.5137696  21.4384055  62.9711866  92.1075792  33.0536151  42.1031324
  92.5743431  32.2272849  41.9784776  92.7764720  33.7273264  41.9809476
  35.1378846  36.8145895  96.3202190  34.7666717  36.0772872  96.8048000
  36.0848355  36.6890335  96.3814831   7.7010989  11.5181696 107.9186440
   8.3643436  11.6866636 108.5879326   7.2343934  10.7440293 108.2334805
   1.0732578  26.0301495 105.9004498   1.1700132  26.9430995 106.1713505
   1.4133541  26.0084081 105.0059700   1.2189743  13.0079985   5.9917299
   1.4078969  13.8995349   5.6989805   0.3624201  12.8083229   5.6140081
   8.6441880 144.8183250  71.1891937   9.3970233 144.4367733  71.6407347
   8.6670357 144.4295062  70.3148174   7.9699004   0.8985293  90.7568932
   8.3885705   1.1450921  89.9321747   7.3537868   0.2069436  90.5153465
  14.6878564   8.2090127  81.8486977  15.5911124   8.5150504  81.7668343
  14.2681110   8.4803617  81.0323620 115.2168787   8.3963192  57.6357222
 115.7307822   8.0239010  58.3522701 115.8692390   8.6790305  56.9948387
  54.5772219 139.5046211   5.3577939  54.8301649 140.4164065   5.5023710
  55.4075813 139.0373797   5.2660219 106.9204730 137.0094151   1.2650720
 106.4737660 137.7631737   0.8796731 107.8511388 137.2236032   1.2001268
  15.5054247 146.1988379  90.7585144  15.0874448 145.8447649  91.5434742
  14.9146092 145.9602215  90.0442123  34.4197321 127.4036891  79.1132641
  34.6306062 128.3053333  79.3557549  33.9587927 127.0523460  79.8750544
  20.7497907  25.3474474 106.1384392  20.3943586  26.2341976 106.0786247
  21.6985416  25.4711103 106.1669159   5.9091681 144.7648337   1.4464704
   5.8432329 145.4842276   2.0744458   5.3181255 145.0126176   0.7354776
  11.7087412 100.2802343  91.7118168  12.1636260  99.4896812  91.4214134
  11.2527037 100.0144977  92.5103378 121.7628715  12.6599610  91.0989761
 122.5318015  12.5879431  90.5334759 121.0844342  13.0307877  90.5346680
 105.7929332  18.0383134 105.7432652 105.8289976  18.2752705 104.8165607
 106.6735191  17.7211833 105.9438324 116.7503524 146.3804473  22.8288976
 116.6769052 146.8832329  22.0177022 115.8716787 146.0293581  22.9734651
 113.8118333   7.4952894   8.6329595 114.5729167   7.2120261   8.1262533
 113.7973625   6.9104898   9.3906061  24.5710182  44.9338484 104.0511703
  23.8324809  45.2531004 103.5326385  24.2627144  44.9729681 104.9565125
   6.8409497  23.0597329  92.4841404   6.0600835  22.6019049  92.7953815
   7.4775124  22.3637748  92.3208618  41.8980503  14.9672413   6.9775621
  42.2797441  15.7390714   7.3956720  40.9614372  15.1589692   6.9303457
 114.3541343  15.3903198  68.1126738 114.7068519  14.5407689  67.8479338
 113.5817892  15.5116165  67.5604010   1.1976629 146.2355774  82.1026802
   0.3018035 146.2423398  81.7656040   1.4883783 145.3303313  81.9920254
   9.2534918 131.7057128 103.1783676   8.9325571 131.5604181 102.2883606
   8.4713155 131.9337840 103.6807823 116.6217763  20.2715087  88.8304901
 116.3837118  20.5655766  89.7097397 116.0007841  20.7155824  88.2530785
  92.1585268 143.7925149 102.0750046  91.2298245 143.5610695 102.0883083
  92.3830814 143.9349092 102.9945278  27.8572845  26.1119962  66.9216728
  27.9515958  26.9652319  66.4982033  28.4700775  25.5438662  66.4548302
  19.0110123  11.4418375 109.6586990  19.7485065  11.7582119 109.1369343
  18.4598172  12.2138047 109.7870827 107.7119691  12.2872722  17.0221464
 107.4520118  11.7677760  17.7829210 108.5439808  11.9045424  16.7437402
 119.4355900 134.7968895  26.0883085 119.8803694 135.5468697  26.4831964
 120.0913078 134.0995807  26.0935155  51.5194559  17.0884299   2.0658819
  51.9005394  17.9303598   2.3152009  50.7495260  17.3186219   1.5458337
  11.2262845  26.3974738  90.3815746  10.7586837  26.2098050  91.1954308
  10.8081734  25.8347011  89.7298813   1.2551200   1.6212046   9.1861574
   0.3711851   1.4953098   9.5311776   1.1428380   1.6254726   8.2355729
  12.7771211 141.4168311  86.7329025  13.3181405 140.6667984  86.9798470
  12.0708132 141.4257021  87.3788738  24.3187690 144.8039235  84.9925709
  24.6406746 145.1990167  84.1823196  24.3319988 143.8622124  84.8215771
 109.6575100  21.3167167  85.3287601 109.7206182  20.5457473  85.8925533
 109.0482242  21.8974876  85.7845116  15.5789566  18.7511432  10.1910440
  15.0858617  17.9425395  10.3297845  15.4636800  18.9453673   9.2608682
 118.7059200  13.1911647 104.1337013 118.4321994  13.6733603 104.9139595
 119.6621001  13.1872833 104.1777134   1.0175316 144.0979735 108.1346607
   0.4697416 144.8809531 108.0789757   1.2893264 143.9311312 107.2321510
  21.2751293  22.1191287   8.1966249  20.5391741  22.6048493   8.5690156
  21.0490274  21.1992168   8.3340112  40.5158377 119.8782606   5.5259649
  40.2145576 118.9738674   5.4391614  40.0641394 120.2076573   6.3029424
  17.8615606  15.2770865  69.7997618  18.5954058  15.8605528  69.9928188
  17.2357702  15.4375362  70.5060720  39.6980190  33.1729460  95.5393600
  39.3842602  33.8869762  94.9844360  39.5191503  32.3802018  95.0336075
  97.3507137  27.6552844  94.8405361  96.8720550  27.1655726  95.5093384
  97.2053379  28.5740209  95.0664139  17.6498032  37.8058362 100.2638435
  17.5206971  38.7041926 100.5680084  18.3225167  37.4506140 100.8447933
  19.3843567  31.5083694  72.2351980  18.9194238  30.7065654  71.9960690
  19.8647630  31.2785244  73.0305672 111.5504975   7.6553130   7.4643937
 110.9956819   7.8833967   8.2103101 112.4280495   7.5678122   7.8365270
  29.8775935   5.5836391  81.6274261  29.5826006   6.4919972  81.6914272
  30.2459216   5.5129117  80.7467651  21.2834620  40.1617956  92.2746372
  21.5037036  40.3303623  91.3584995  21.5818238  39.2659616  92.4317837
  62.6258707  27.1281290 104.2973900  61.8673325  27.7071643 104.2227650
  63.3516073  27.6361895 103.9348793 115.8885188  40.1106596 101.6721153
 116.8308145  39.9540257 101.7335796 115.7517112  40.3969908 100.7690525
  65.1251602 118.8693900   1.4915506  64.4720030 118.2908196   1.8850938
  64.6409655 119.6670050   1.2780134  43.8244724 139.8127908 109.9959278
  43.3506584 140.4054780 109.4124508  44.7419691 139.9076004 109.7401047
 120.6406400   7.9988557  54.0610600 119.8583571   8.4546918  54.3716717
 120.8635930   8.4378660  53.2402134  75.2950191  49.4649792 105.4009247
  74.5152044  49.9955177 105.5641556  75.3551674  48.8871861 106.1616898
 124.3973123  41.5395689  79.2652893 123.8987519  40.7917023  78.9360952
 124.1570240  41.5993118  80.1899147  36.5669799  19.6116030  78.5753107
  36.4735246  18.6766136  78.3928442  36.3661194  19.6949673  79.5074797
  97.5362534  33.6578679  59.5922422  97.2974367  33.0889344  60.3240299
  98.4732456  33.5071182  59.4675350 101.2198586  16.9534457  80.4123783
 101.9842667  16.8363428  79.8482895 101.5743870  17.3170781  81.2237453
 110.4037697 137.3312355  52.6987743 110.1455063 137.6725716  51.8426085
 109.6410138 136.8374355  52.9997683  95.5879230  23.2253289 107.8614330
  95.6360120  22.9701638 106.9401264  95.9423537  22.4739552 108.3368778
   0.1365675 130.7434637  96.6301346   0.2503008 130.0318272  97.2601128
  -0.2868071 131.4409847  97.1305847   0.3755996  16.4382863  93.0337429
  -0.3533683  15.8824289  93.3091736   0.2082582  16.6111171  92.1072674
  11.8142843 128.3318920  89.0704918  11.6117620 127.8477139  89.8709774
  12.1772945 127.6737089  88.4778214 123.9197956  16.2506425   3.4845296
 124.0362011  15.7242084   2.6936094 123.0147005  16.0874057   3.7498323
 109.3137557   4.5956081  54.0648174 109.6122891   5.4447424  54.3905163
 110.0534458   4.2597365  53.5585737  17.2020125  25.7896209   6.2002508
  16.8848109  25.4723573   5.3546945  18.1493425  25.6569171   6.1657945
  12.2609484  21.5263462  83.1706905  12.2317863  21.2823129  84.0958023
  12.2156692  22.4824715  83.1736565  20.2906847  12.9747617  78.8129711
  19.4560432  12.8131938  79.2528629  20.0967407  13.6629570  78.1765747
  99.3760104  45.3209352  63.9216042 100.2255792  45.7034111  63.7021160
  99.3978877  44.4479656  63.5295916   5.6857127  14.1905856  53.0773973
   6.4253092  14.1137874  53.6801672   5.9955221  13.7887943  52.2657251
  65.5871505 142.2159899 100.2417755  65.4352016 142.7940858 100.9894085
  65.5733795 141.3342781 100.6140995 119.4732315 143.0460856  99.6781254
 119.3555606 143.5359753 100.4920006 119.5862175 143.7195668  99.0073872
 123.3117258  17.3053396  67.2863531 122.7629731  18.0761695  67.1417046
 124.1996563  17.6544714  67.3632812  48.5056067 141.2829227   5.7752649
  48.6459732 140.6121833   6.4435712  48.0825472 140.8173496   5.0538102
  10.8452809  41.5326786 100.0473404  11.4747250  41.5897274  99.3284702
  11.0676837  42.2672844 100.6192875 111.0206599  61.0223341  40.3258562
 111.5574688  61.7958546  40.1534081 111.2941236  60.3883648  39.6628857
  11.7264462 144.2005517  77.1632099  11.4254546 144.9321249  77.7021313
  11.1758208 144.2367935  76.3810778   9.0193868  13.8158393  41.4495325
   9.0217179  14.2596972  40.6014681   8.2064098  13.3105803  41.4531898
 115.6073690  23.9714599  69.9024200 115.2691061  24.3075609  69.0724516
 114.8548729  23.5453224  70.3127670  16.3191760 145.8665779  45.8372116
  15.4148626 145.8907609  45.5243778  16.4866507 146.7539816  46.1545420
   5.4418850  20.5843377  73.8262701   5.6562853  21.0583305  73.0227757
   4.9015409  21.1949801  74.3276405 104.9608213 131.7882044  70.3409147
 104.3429727 132.1465296  69.7036552 104.4685597 131.1026115  70.7924366
   0.4315323 145.1636355  19.7368300  -0.4673842 145.4379184  19.9183512
   0.3389377 144.3324157  19.2712855 105.3351921   4.1753709  86.9127655
 106.1379129   3.7021515  86.6938210 104.6471519   3.7150559  86.4321995
  77.4605817  35.2779293  72.0787907  78.2694168  35.7790542  71.9744158
  77.6032705  34.4830966  71.5648746  32.3969650  32.8497481  77.1763706
  32.2197628  33.4065056  77.9345608  31.6775918  32.2183299  77.1695280
   9.1928798   0.4859731  67.4726629   8.3621132   0.4763626  66.9973040
   8.9404410   0.4965704  68.3959150  87.6773805  33.8169599  71.9314003
  87.8052992  33.7227583  70.9874773  86.8464918  34.2847919  72.0149946
 109.4638700 131.4804847  14.6707288 109.6683402 132.3738999  14.9468366
 109.9385995 130.9243292  15.2884332 113.3980376 146.3419392   4.8778478
 114.1108639 145.7886016   4.5585862 113.4232408 147.1144863   4.3132535
  16.1515689  26.4189243  88.4712696  15.2020967  26.5116405  88.3929253
  16.3167214  25.4919481  88.2990170  44.3586922   2.1159981   5.3746549
  44.8341274   1.5026206   5.9349767  43.9145231   2.7037558   5.9857885
  27.5137115 116.2232680  70.4191971  28.0766892 115.7318992  71.0173988
  28.1069112 116.8296857  69.9757957 105.3202183  33.1673121  64.8072243
 104.7281677  33.5583162  64.1647100 104.9168140  33.3607006  65.6534481
 123.3391435 140.3811474  52.1070862 122.6859347 139.7320552  51.8458796
 123.7340622 140.6682433  51.2837744 109.2396540 137.3727674  85.9912586
 110.1485640 137.6631529  86.0673618 109.0600855 136.9281889  86.8197155
 122.1806932   1.8406036  80.7214832 121.3090817   2.2362323  80.7232761
 122.6453493   2.2815812  81.4327240  12.9944408  33.4307194  32.0648289
  12.2415733  33.6752510  31.5266609  12.6737392  33.4868169  32.9649615
  92.3146600 142.5680674  88.2578468  92.2629995 142.2586010  89.1621685
  93.2510323 142.6862950  88.0982780  30.7918215  35.6197238  67.0264053
  30.0784922  35.7732558  67.6459408  31.4090228  36.3327718  67.1902895
  14.2030609  13.3092642  53.5410976  14.0643096  14.2555130  53.5810184
  13.4344840  12.9737508  53.0796289  23.9763403 143.4565050  58.6971140
  24.3386149 143.3003581  59.5692444  24.6472239 143.9703650  58.2475615
 104.5562381   8.1359559 107.9398823 105.1407403   8.6039573 108.5361767
 104.1979427   8.8177335 107.3715210   1.8248270 126.4706225 107.6263523
   1.6094813 127.3622710 107.3528194   0.9788655 126.0262103 107.6818275
  46.6838026  10.9930038  75.5904102  47.4854040  11.5126133  75.5297709
  46.0817766  11.4084828  74.9730206 115.5480529   8.6980808  73.7759399
 115.0899232   7.8778541  73.9591837 115.9842325   8.9178741  74.5991468
   0.6257792 136.4012999  85.3315735   0.5178325 136.1094732  86.2367821
   1.1080854 135.6917793  84.9070835  80.8001823   3.2567713  62.8321409
  79.8639984   3.4243965  62.7239990  81.1301965   4.0287814  63.2918358
  23.4652472  39.7080112  83.1115913  23.5939455  40.1035404  82.2494793
  24.3237138  39.7638440  83.5312843   2.9435158  12.5243509  77.6542187
   3.6556253  12.3093331  77.0518064   3.3661941  13.0143380  78.3595467
  25.4228759  33.1409502  11.0167352  24.8759484  32.5092554  10.5497590
  26.0003209  32.6032901  11.5586892   9.6850830   9.7568262  79.8928070
  10.0600910   9.1691101  80.5486965   8.7911284   9.9150676  80.1961803
  28.8702273  23.1019402 100.0825882  29.5432448  23.3724022 100.7071972
  28.9673805  22.1515894 100.0223732  91.6333455   2.2924121  45.9022665
  91.9309706   1.5131634  45.4327774  90.7466287   2.0747872  46.1896753
  25.2331066  24.5794034  79.7611523  25.4362559  23.8967180  79.1216993
  26.0159230  24.6348286  80.3092003 103.3344287  13.6730087  69.5720291
 103.6904759  13.2880914  70.3728437 104.0730113  14.1406941  69.1821623
  12.7373481  35.9828401  49.5088482  12.5136554  36.1608076  50.4223680
  13.5873306  36.4048862  49.3837976  37.0535755   6.3589144  97.8955555
  37.9695368   6.2249196  98.1390572  36.5557647   5.9173721  98.5836315
  39.0853763 145.3670133  36.1339831  38.2437038 145.7245349  36.4168167
  39.4605732 146.0493870  35.5773616  23.4248972   4.5263535 102.1743965
  23.3303833   3.6082888 102.4282837  22.7436805   4.6641979 101.5162373
  10.3756964 138.3604217  87.3900890   9.9896908 137.8576834  86.6728115
  10.7426882 137.6985318  87.9761410   4.2856714  39.4380999  76.4711618
   3.8167888  39.8756361  77.1817589   3.8605511  38.5839701  76.3939333
  31.5991807 137.7962960  54.5374680  30.9882903 138.5101814  54.3546772
  31.2381744 137.3644752  55.3117037  38.8093877 131.1548383  58.9877987
  38.7728190 130.2553684  59.3131447  39.1546822 131.0740943  58.0987072
   6.4916188  24.8062944  99.8415470   6.4185214  24.6287084 100.7792854
   7.2182745  24.2559290  99.5494843   5.7719088 141.8706063  80.1665878
   5.6870317 141.1651535  79.5252085   5.8305991 142.6675753  79.6396828
   0.4882556   8.3993620  49.7652340   1.2085266   8.4047657  49.1348267
  -0.2895477   8.5926419  49.2418814   2.3063315  33.1652522  41.7078686
   2.2024086  32.3991656  42.2722673   2.3570719  32.8052711  40.8223867
   8.5809594 142.5259311  85.0210667   8.7415206 142.7274207  84.0991879
   8.8122106 141.6011537  85.1079082  58.6542034  20.8718371  85.3809261
  59.1365767  20.9614158  86.2028313  58.2487774  21.7284632  85.2465630
  19.6751368  19.6346819  86.6604328  20.1431799  20.2432132  86.0887241
  19.7765911  20.0040483  87.5376511  29.6403956   1.7158285  87.7570152
  29.6182394   2.6698092  87.6817703  28.7231708   1.4492884  87.6946640
  14.3293667  47.7227640  75.9521103  14.1263878  46.8246651  75.6904936
  13.8221586  47.8595829  76.7522717  97.3472328   6.6273159  60.8775949
  96.3976926   6.7252028  60.8067274  97.5658316   5.9456480  60.2421618
 108.0211276  21.0193586  73.0936050 108.5179347  21.4411879  73.7946558
 107.2028059  20.7482362  73.5096264  89.8452038   4.1907915 109.0696907
  90.0505776   5.1249397 109.0320015  89.0693707   4.0936598 108.5175323
 120.5606545   3.7402499  38.4794879 120.8246291   3.4615320  37.6026368
 120.3217883   4.6613982  38.3762383  41.8504524 128.4493882  66.5893173
  42.5645733 128.0624623  67.0958281  41.2113953 128.7235267  67.2470999
  94.6359128  25.6893897  59.9752760  93.9364952  25.7286477  60.6275845
  95.3108949  25.1448059  60.3803158  32.4312401  14.8251641  34.9577904
  31.8661141  14.2621851  34.4287157  33.3156300  14.6433210  34.6399570
 103.7477893  18.0767739  73.9191151 104.2993183  17.5089681  73.3809280
 104.0825862  17.9626822  74.8085690 116.1174614  11.7970753  40.4637289
 115.8749855  10.8711123  40.4692602 116.9871760  11.8193042  40.8628941
  39.0374780  40.8134604  92.4504375  38.4769678  41.5393972  92.1764374
  38.5990477  40.0320339  92.1137142  21.4446163  17.4883413  98.8105965
  20.5117011  17.6040792  98.9908791  21.4918804  16.6775644  98.3040047
  72.1171999  19.6757102  15.6594888  71.8434286  20.1919532  16.4176217
  72.7495861  20.2330399  15.2059404   7.3291487 129.0522368  70.2710199
   7.2535938 129.0373988  71.2251186   6.4305544 129.1656120  69.9613333
  96.7172164  14.4163525  55.8065557  96.2073869  14.9778545  55.2225876
  97.1341724  13.7811697  55.2243853   5.6214726  31.3602638  48.5674477
   5.1746225  30.5145335  48.5314035   6.5527737  31.1391330  48.5709000
   5.1447201 142.8070856  77.6680946   4.4056427 142.2190351  77.5125551
   5.6290007 142.8066821  76.8424416 117.3024768  12.6096880  73.7424612
 117.6768870  12.7971017  72.8816938 116.5039927  13.1364870  73.7761879
  20.2239966 125.9411997  85.9264851  20.4278731 125.2570600  86.5641594
  20.9133530 125.8666653  85.2665901  22.0412779  36.3519287  59.8580456
  21.7518830  35.5799174  59.3717480  21.4714646  36.3783050  60.6267118
  14.0003788  15.4798353  82.4997520  14.2518604  14.8140967  81.8596077
  14.6105838  16.2013733  82.3472214  40.2644587  10.3506505  83.3280563
  41.0498953  10.1595080  83.8406849  39.6309900  10.6702101  83.9705849
  18.5779035 145.5506443  89.0341949  18.7805450 144.6527965  89.2969418
  18.5484588 146.0399441  89.8563576   1.5753335 136.8083359  92.7828693
   1.6395850 137.7555604  92.9048061   1.8830419 136.4388806  93.6105442
  12.9049885  48.7216139  89.1532326  12.0453238  49.1141748  89.0012360
  13.2798183  48.6197042  88.2783890   7.0731246  32.0708060  59.0304852
   7.5100815  32.7183533  58.4773254   7.6370245  31.9936752  59.8000956
 108.0574638  22.6938295  58.5814428 107.9076178  21.9386506  58.0126905
 108.2110495  22.3150587  59.4469929  42.7094507  33.3868432  83.4274387
  42.0057297  33.7951779  82.9231930  42.6558733  32.4575496  83.2043457
 118.0477012 117.1043939  76.3637257 118.6383427 117.6695556  75.8657646
 118.5291047 116.9025702  77.1660662  23.5261607 138.9036203  78.8851738
  24.3071556 138.3511294  78.8530064  23.5591984 139.3150003  79.7488308
 115.3508998 135.6190474  79.5895863 114.5230455 135.2988226  79.9478388
 115.5622429 135.0034256  78.8877487 105.8696575  45.1358891  94.1366005
 105.8990521  44.8213625  95.0401688 105.9034640  44.3406296  93.6049461
 123.6289173  10.4858375  98.4140778 123.8490060  11.0646904  97.6842022
 123.3329736   9.6766174  97.9971695 123.8363391   4.6784705  47.0944500
 123.5465642   3.8429773  46.7281008 124.1896365   4.4529936  47.9550171
   6.5556073  41.3252640  79.5655870   7.1785605  41.5112448  78.8630390
   5.8593804  41.9710875  79.4455290 117.1351791  58.6279631  95.6786346
 117.4869955  58.2031679  96.4609432 116.4426786  59.2008114  96.0080624
 113.2142550  24.6441674  34.0236211 112.4456281  24.7990799  33.4745812
 113.8811595  25.2353406  33.6743593 111.0627205  14.1593683   0.2182618
 111.1049992  14.0245855   1.1649839 111.9414968  13.9435887  -0.0938662
 117.9018367  12.7373230  89.8202515 118.0867583  13.2538939  90.6045914
 117.8905237  13.3776772  89.1088772  13.6818767 145.4265975  63.6631346
  12.9654157 144.8020376  63.5498190  14.4561911 144.9633967  63.3435822
 120.4345519   9.3808514  77.3227930 119.4924319   9.5493549  77.3070383
 120.6623695   9.3809599  78.2524872 119.3032104  38.6971736  95.0788116
 118.6592115  38.2685518  94.5150852 119.5380378  38.0304193  95.7242012
  16.1277950  20.2748704  73.8530684  16.0647941  19.3199658  73.8735819
  15.2197993  20.5738091  73.8039780 102.2323841 146.0146649  85.2831650
 102.3218507 146.2858233  84.3695450 103.1307239 145.9802294  85.6118488
  27.1772122 143.2317085  87.1676731  27.3284078 143.7921239  86.4065552
  26.7999578 143.8167194  87.8246975  17.4540043  20.6090713  82.5452328
  18.2520962  20.0987458  82.6825142  17.1002579  20.2825284  81.7179108
 113.3817632 133.7751896  53.0838537 113.3941788 134.2792089  52.2701931
 112.8480894 133.0067689  52.8814793  48.1840324  10.7822096  67.9105568
  48.4310389  11.1221409  67.0505190  48.7405729  11.2597704  68.5257244
 109.7262127  12.0954835  76.8978405 110.0346298  12.8842068  76.4517164
 108.9697666  12.3881221  77.4061537  24.4690490  13.1350589  67.3052359
  23.8194633  13.1362474  66.6021919  25.2798724  13.4182799  66.8826389
  26.9185019  35.8106780  86.6303158  27.2647858  36.3968158  87.3031902
  26.4392281  36.3865638  86.0345936  21.7343879   5.3055120  86.0345650
  22.1378112   6.1018395  85.6891060  22.4723697   4.7705305  86.3268089
  46.2112761   3.7955618  85.5875778  46.6787672   4.6108010  85.7694244
  45.5724049   3.7225360  86.2966251  11.1504984  29.2859483  61.4629173
  10.3538442  28.7959576  61.2592459  11.2650454  29.8769403  60.7187128
  13.6943448   7.5424749  73.0577183  13.4615242   8.3961928  73.4226704
  12.9663122   6.9710040  73.3018923  25.8358192 133.3517356  93.3460522
  25.8346844 134.1342325  93.8973522  25.7554698 132.6241226  93.9627743
  42.3413849  45.2145100  88.5860252  41.7846251  45.9839630  88.4669018
  41.8856478  44.5144415  88.1186485  23.7607598   5.5172628   6.8822328
  23.0419946   4.9461463   7.1532193  24.3319178   4.9527240   6.3613645
  12.0573568  25.5067086   2.4751607  11.6104984  25.7451725   3.2873670
  12.4493146  26.3243556   2.1684781 109.0778107  10.0471687  72.7808571
 108.6805458   9.5593297  72.0594501 109.9995739   9.7895998  72.7652311
  29.3959999  37.4391317  76.9375467  28.4797692  37.6750016  76.7922258
  29.8140407  38.2569933  77.2069454  33.6919689 117.7896161  75.4661655
  34.4719505 117.2628731  75.6405210  33.0162835 117.4103589  76.0281610
  25.1117229  42.7494240  74.9813747  25.4649973  43.5959101  75.2550507
  25.8625889  42.1563959  75.0086737  61.8275547 115.5879135  67.8408670
  61.0398674 116.1025066  67.6648712  62.5068045 115.9993620  67.3064852
   7.7096570  32.5058818  69.2676258   7.9163468  31.6681886  68.8531590
   6.8683237  32.7597046  68.8882017  13.4341192 134.4584400   7.1341935
  13.4420693 134.4287581   6.1774865  14.1260540 135.0800008   7.3602907
  21.2949491  37.9104185  21.4907590  21.1451554  38.8172126  21.2233297
  21.9512463  37.9707313  22.1849195   3.6564207 129.7164054  74.8069048
   3.2180542 130.1485712  75.5399132   4.5891440 129.8591609  74.9677753
  29.5074964   8.6669278  85.2657223  29.3950939   8.5582417  84.3213749
  29.6891427   9.5998210  85.3795052  37.9373360 144.2965039  68.4148550
  38.6617661 144.6512216  67.8994846  37.1908283 144.3043474  67.8157759
  14.8899853 136.1701090 104.9378681  14.7492039 136.9518227 105.4720402
  14.0129852 135.8110912 104.8029423 118.1855667 122.4946518 104.8365307
 117.5436450 122.9142327 104.2637157 117.6602108 122.0722551 105.5160999
   3.2661498  15.3087425  48.2786751   4.2009509  15.4964530  48.1941557
   2.9524750  15.9407473  48.9255238 122.8738231  26.7895222  63.0380678
 122.1576888  27.4144316  62.9246235 123.1082614  26.8593121  63.9634848
  35.9865880  26.0564566  93.4224987  36.0187387  25.1153946  93.5945415
  36.6515923  26.4286828  94.0016747 102.9105968 144.0346553  73.6990833
 102.7093214 144.9010874  74.0526581 102.1835298 143.8428549  73.1067848
 124.5619238  29.6767664  94.1536427 124.0955902  30.4933381  94.3324661
 125.3393316  29.7180104  94.7105694   7.5149059 145.1463803  54.6340704
   7.0870453 144.4103930  55.0716639   7.3453015 145.0028976  53.7030077
 123.1473827 133.8922043  80.3684807 124.0384451 134.2311568  80.2827454
 122.6322681 134.4144458  79.7535372 114.3630285  19.6860862  68.6306429
 114.8190600  19.2601657  69.3564939 113.6041982  19.1270864  68.4635305
  14.5329106   3.5969102  73.2977390  15.1701415   3.8477498  73.9665031
  14.2931736   2.6974475  73.5207272  38.4279108   4.4757336  91.4441776
  38.0952668   5.1368892  92.0511818  37.6684499   3.9272249  91.2477398
  40.2820969  26.3672495  83.5231209  39.3397069  26.4364123  83.3703136
  40.6490898  26.1562014  82.6646328 124.1834511 140.8887959  83.2524300
 123.6227365 140.4349584  82.6232529 124.3132232 140.2552635  83.9581394
   9.7735381  35.5710101  71.4465761  10.6493366  35.5845761  71.0605383
   9.9100989  35.8253336  72.3592138   2.7330408  48.1534624  96.7705154
   2.9277301  48.5401392  97.6242161   3.5903829  48.0245781  96.3648224
  30.2469945  13.0183280   3.4040300  29.4361734  12.5407636   3.2287160
  30.3563046  13.5913849   2.6451532 118.8796664  17.1676767  73.4467316
 119.5548154  16.7605627  73.9895630 119.2468066  18.0181420  73.2055902
  19.2729366   5.2599412  70.1307249  18.9457548   4.5488614  69.5797729
  19.5041668   4.8357195  70.9570408  62.2399950 123.0875272  11.0985318
  62.0911026 123.7363166  10.4106847  61.6332483 123.3347673  11.7963640
  58.5949898 141.9531170  46.8724012  57.8885603 142.5968088  46.8190289
  59.3171740 142.4240086  47.2882605  35.8343768  50.5726910  85.7573509
  36.6411638  50.7182980  85.2632618  35.4592943  51.4465570  85.8664322
   6.1445296  20.1233482  85.0465107   6.0187942  21.0637689  84.9198914
   7.0946646  20.0099230  85.0712109  99.5710415  35.7340932  72.2296095
 100.3289098  35.5396724  72.7810335  99.0700716  36.3785195  72.7295828
  78.1363029  27.3193836  86.0279083  78.0593366  26.4216208  85.7049084
  78.8783950  27.2938013  86.6319656 124.2023747  13.7915599  57.8719664
 125.0306429  14.1287863  58.2132626 123.8060411  14.5387459  57.4237871
  87.2258992  10.9440815  67.9830885  86.9755001  11.7397285  67.5135422
  88.1014795  10.7382476  67.6556396 106.5235180  12.7466071  55.3900433
 106.9569392  12.0912921  55.9367990 107.2319562  13.3184779  55.0945616
  21.0254884   9.8363757  80.3458691  20.2056813   9.4573998  80.0288105
  20.7581115  10.6254947  80.8170700 117.2438837  24.8241758  53.4859419
 117.1369637  24.7268605  52.5397205 116.5336830  24.3041277  53.8619661
  15.2674925 129.8809452  79.3107080  16.1845064 129.6276779  79.2050076
  15.1982105 130.7230336  78.8609076  21.7157626 143.2613254  69.5814228
  21.9651151 142.8915844  70.4283905  20.9624481 143.8189209  69.7759390
 112.6466555  34.9054480  67.2153759 112.6404757  33.9969969  66.9138622
 112.3802239  35.4138589  66.4493704  31.3774991 141.8247996  48.3564949
  31.9087124 142.1647404  49.0765524  30.5527139 141.5670762  48.7682486
 115.9603257  41.4251423  59.8011160 115.5603827  41.4758062  60.6692839
 115.7690788  42.2726965  59.3994808  33.2264972   8.6583525  68.8576317
  33.8955069   9.1398710  69.3442488  32.8405452   8.0661786  69.5030785
  97.9815382   5.8014953  74.3569851  98.7245888   5.7245713  74.9554729
  97.3258180   6.2933940  74.8512506   4.0354571 139.9071372  70.8545732
   3.6217475 140.7363767  70.6149101   4.1653216 139.4545878  70.0211668
 124.4693803   7.9713196  67.3860407 123.5198273   7.8712308  67.4535942
 124.7360252   8.3092314  68.2410002  20.2593017  18.3164048  76.3483715
  19.3131101  18.4442830  76.2805605  20.6141329  18.7324190  75.5627155
   1.8653436  29.8736978  87.1808243   1.8175563  29.1762376  87.8346634
   1.2334440  30.5270457  87.4809456  75.0193614  26.2310028  81.4016247
  74.6860904  26.4360023  82.2752094  74.9330587  27.0501709  80.9140301
  34.6361494  20.0866318  64.6146965  34.4427061  19.6273470  65.4319286
  34.5502257  19.4161272  63.9370012   7.6434851   4.4774050  82.1196270
   7.4997783   4.3550938  83.0580330   8.1189436   3.6930305  81.8458939
   1.7173703  30.9180570  68.4358692   1.7400612  29.9611282  68.4371948
   1.5349048  31.1545730  69.3452597  11.3901091  14.4510889  27.5383806
  11.6551101  13.8507533  26.8415284  10.5569184  14.8140168  27.2378659
 118.5102547  15.3142691  19.8113024 118.8128532  14.4688654  20.1429009
 119.0675831  15.4873395  19.0525782  18.9350724 136.8827064  80.3941250
  19.4687963 136.9999928  81.1800098  19.5518768 136.9811995  79.6688080
   7.5054830  17.6466417  67.8225183   7.2562444  16.8682003  67.3243809
   8.4586400  17.5919521  67.8913164  11.7506146  31.4717627  70.5960798
  11.7296803  32.3171353  70.1475954  12.0844531  30.8604932  69.9394751
  20.1954079  29.8997545  54.8318911  20.9257507  29.3654370  54.5199013
  19.8224640  30.2827024  54.0378523  20.7846117 134.7624762  44.7302198
  21.0251522 135.2540798  45.5155230  20.7565665 135.4200620  44.0352201
 104.9363238  11.9807553  67.4718142 104.5152134  12.6699090  67.9855871
 105.6642682  11.6852438  68.0186224  24.2202091 133.4115333  38.1766844
  23.2690859 133.3041317  38.1686211  24.5584726 132.5744397  37.8587461
  26.9541168   0.2740913  46.2266874  27.8667021   0.4888626  46.0335732
  26.5004182   1.1167073  46.2069702   3.9479649  11.6191578  41.4608097
   3.5664612  11.8513680  42.3074293   3.2030925  11.5986013  40.8599997
  23.8365579 108.2714672  68.0600309  23.7038207 108.5851187  68.9545870
  24.4320345 108.9102597  67.6681280   2.9768801 141.8584580   7.1477258
   2.3160464 142.5152747   6.9283569   3.8072494 142.2587285   6.8898451
 119.4681705  28.4159303  88.3344364 120.2682257  28.2611489  87.8322601
 119.7384072  29.0029430  89.0405750  12.7079725   3.9219776  39.4572401
  13.5624564   4.3151346  39.6347690  12.7248180   3.0892435  39.9289417
   8.9100391  38.7898707 104.7285938   8.4402519  38.0654430 104.3153954
   9.1281426  39.3775272 104.0051842   8.3872849   8.7709802  48.9694071
   8.9169580   9.1022933  48.2442093   8.4525913   7.8186715  48.8981676
  22.8517032 124.1936989  63.9899397  22.0464706 124.7094173  64.0331268
  22.5631261 123.2886905  64.1079092  44.3639517  30.0511360  86.5745735
  44.6558237  30.0170994  85.6635952  44.4241047  30.9767437  86.8109322
 115.0602592  10.4696381  62.7862978 114.9564851   9.5181251  62.7770424
 114.4546241  10.7700408  63.4639406   6.8826568 116.8223710  48.9934778
   7.0484477 116.1051054  49.6052551   6.8521744 116.4019532  48.1340837
 106.4594013  21.7997265  89.1591549 105.8792061  21.0476279  89.2772770
 105.9214539  22.4482036  88.7049294  15.5389166 140.4857601  60.4951286
  15.4354203 140.4394073  61.4455843  16.3081563 141.0402853  60.3647232
  13.5883701  19.3274558  31.0829830  12.7965307  19.8618984  31.1429238
  13.3543813  18.6190677  30.4832578   4.8758346   4.2662129  56.1459827
   4.7155613   3.6843112  56.8889046   4.0025863   4.5266119  55.8529615
 116.7238957  18.2196736  62.9460764 116.4909644  17.2919333  62.9103851
 116.6923249  18.5097897  62.0344448 116.6502280  16.4270377  74.9900532
 116.3324065  15.6255007  74.5744085 117.4657375  16.6278231  74.5308590
 123.4969562  44.8249340  37.0531893 123.7923141  44.2091894  36.3824797
 122.7234707  44.4101572  37.4351764  12.1637249  27.7010107  63.4700632
  11.9094956  28.2788730  62.7505684  11.7158246  26.8757486  63.2841587
  51.7562246  11.2904596  62.8332186  51.4251566  10.4353666  63.1078911
  52.4872446  11.0880101  62.2493982  11.4454019  36.6444755  80.0723267
  10.7599878  36.9424152  79.4742680  11.5950477  35.7308865  79.8290348
 107.2454566 144.6857584  57.2987747 107.5071020 145.1366379  56.4959764
 107.6963133 145.1597884  57.9975271  21.8922639  21.5678477  76.8370676
  21.2759161  21.3766956  76.1300945  22.3948789  22.3183346  76.5202475
   7.4784786  19.7202659 105.8071327   8.2583731  19.3853295 106.2496376
   7.2322476  20.4963470 106.3104248 123.7868746  19.0575171  72.1362591
 123.2197607  19.7064328  72.5528145 124.3010002  19.5594895  71.5038586
  14.9003518  36.3842344  47.9405499  14.4059134  36.7639542  47.2142029
  15.0370371  35.4716635  47.6860619 112.9920287  66.8187428  48.9833450
 113.6160535  67.3388624  48.4770870 112.4381859  66.4006805  48.3240175
  43.4223652   7.4849284  67.1330261  43.0460548   6.8542516  67.7469206
  42.7571964   8.1687349  67.0543337  17.3194289  24.1958857  49.5159674
  16.7934966  23.5095334  49.9265146  18.0684447  23.7320805  49.1416788
  29.4398189   7.3171729  33.7806344  29.0681815   8.1883526  33.6422038
  29.6616507   7.2965664  34.7115469 101.8844981  11.9638991  81.1710644
 102.7516694  12.2694576  80.9048367 101.3983507  11.8787074  80.3509235
   8.4028846  22.8398180  56.6699743   8.8493407  23.6846137  56.6131258
   8.9315546  22.2526860  56.1295891   7.4619520   2.9323244  73.4074450
   6.8272012   3.6349601  73.5475349   8.1237650   3.3183154  72.8336430
  14.2357337  17.7129197  58.8339329  15.1734281  17.5672865  58.7084246
  14.0400553  17.3016608  59.6758413   8.9197642  12.6057124  85.5945492
   8.1478995  13.0604482  85.9317017   9.2581725  12.1188283  86.3459873
  14.6548593  31.7416978  43.3740902  14.1850281  32.2583032  44.0287733
  14.0739751  31.0036588  43.1894159   8.0537248  12.1785629  67.9016590
   7.3172241  12.4255300  67.3423672   8.1460929  12.9095316  68.5127115
   3.2758260 141.6343574  55.4026127   2.5765628 141.5882103  56.0546350
   4.0711546 141.7818914  55.9143925 109.7835845  32.3562503  38.1270838
 110.1650006  31.8404222  38.8374877 109.2627651  33.0259848  38.5702920
  98.5719628   2.0134999  67.7607059  98.4242124   2.4650295  66.9297314
  97.8795165   1.3538754  67.8012991 109.7233827 133.8311941  52.2555304
 108.7787849 133.7685473  52.3971081 110.1096291 133.4710748  53.0538797
 114.0298469  29.6437168  77.2268009 114.8616630  29.4520187  76.7937136
 113.4282846  28.9766812  76.8960142  22.0100045  18.8530505  71.6569233
  22.1655941  19.6149588  71.0987806  21.1478949  19.0102839  72.0419884
   2.0845416 125.3809113  68.8940239   1.8068250 124.7602362  69.5677185
   2.4446216 126.1204834  69.3835211  14.9070513   9.6392721  79.4544315
  14.9928558   9.0462649  78.7079668  14.1679013  10.2037883  79.2281342
 121.3942502  14.0233254  72.9674149 122.2016606  13.6642671  73.3353806
 121.6473613  14.3438208  72.1017075  15.2412724 141.0588545  52.3647356
  15.3470826 140.1276679  52.5594854  15.4960227 141.5031312  53.1734085
  21.0625529 136.1887641  87.1186066  20.5564260 136.7237074  86.5071297
  21.4734840 136.8218774  87.7072811 119.7874195 131.6934712  45.2252388
 119.0514953 132.2190351  44.9115038 119.5331950 130.7897551  45.0384235
 115.2425570 127.5620432  94.5102596 114.6250123 128.2887954  94.4283962
 115.4171169 127.2933132  93.6082935  29.0368748   6.3980162  41.6240072
  28.9009070   6.3268620  42.5688219  29.1921329   7.3305416  41.4739275
   2.1652344 120.7879705   1.0623399   1.5720396 120.3055567   0.4864637
   2.9744643 120.8704514   0.5577794 116.4174700   2.4485049  46.0422754
 115.6122041   1.9965240  45.7903004 116.1183847   3.2232746  46.5182114
  96.9097299 145.2391978  69.4687414  97.0956964 144.8180682  70.3079700
  96.5033478 146.0732643  69.7041559   7.8814894 141.1336667  82.1012497
   8.6609614 141.0091651  81.5598106   7.1891582 141.3527120  81.4776039
   0.9482295   7.6440179  61.8466330   0.3665343   8.3922142  61.9810390
   0.4992908   6.9124568  62.2703123  16.4858961  16.6261411  50.2864838
  16.6790986  16.6930079  49.3513727  16.7464292  17.4740911  50.6461143
  11.0594189  12.4308276  11.8132472  10.2449870  12.8418708  12.1030319
  10.7864857  11.5882659  11.4501619 103.6511130  24.0874720  50.8875179
 103.9908308  23.5943484  50.1407576 103.7154431  23.4803247  51.6247177
  29.9849439 134.3317551  47.1830082  30.7490730 134.7842533  47.5401974
  29.3370414 135.0237841  47.0505190   5.0030541 139.3775726  75.2531958
   4.4658226 139.3606294  76.0452366   4.6207735 140.0740595  74.7193432
 108.9581103  26.2061071  70.3686333 108.2038767  26.5584421  70.8410978
 108.8395590  26.5088773  69.4683504 110.6285364  16.5814364  75.9114027
 111.1362667  17.0318758  75.2364635 110.5067570  17.2377312  76.5974617
  15.4438043  14.3459427  84.5310020  16.1188900  15.0219500  84.5902061
  14.8223436  14.6838832  83.8861656  92.9096264  26.7847443  66.1417961
  93.1436843  27.6556635  65.8209372  92.0733685  26.5903306  65.7185841
 123.1950258  18.1675863  45.4142618 122.7554548  18.9906645  45.2008343
 122.4973003  17.5124681  45.3990221  13.9032936 126.6947431  45.4574060
  13.7079084 127.1716017  46.2640429  14.7644043 126.3061804  45.6114721
   0.4488033  32.5038862  45.9744310  -0.3151617  32.2478104  46.4911652
   0.8477330  31.6750026  45.7097864 111.9301910  58.8313913  80.5496788
 112.4045224  59.2707586  81.2555027 112.4355454  58.0363321  80.3801727
  27.0633221   8.1727606  61.1752510  27.7189851   8.6703759  60.6866646
  27.4641705   8.0248922  62.0318031  27.4313498   9.2328733 107.2123909
  26.5761328   9.5618016 107.4892330  28.0524731   9.8944187 107.5170135
  14.4160438  12.3276019  63.6159372  15.0602436  11.8623471  63.0822945
  13.7757397  11.6579652  63.8564110  11.0740387  20.7029629  52.5715446
  10.2787447  20.1709604  52.5448799  10.9693408  21.3264370  51.8528318
 113.3612198  25.5146360  78.3435678 113.0306107  24.9933934  79.0751648
 114.3116588  25.5109429  78.4570694  14.4942272   4.3532646  70.6582546
  14.3630481   3.9131147  71.4980698  15.0409091   5.1105988  70.8675766
   3.4895587  16.9159877  29.5995235   3.1087229  17.7447891  29.8898411
   3.0566138  16.7324758  28.7657881  11.5349555  13.9500678  92.6554012
  12.0027614  13.6181521  93.4217072  10.7035661  13.4757113  92.6583004
   9.4443762  15.4180765  38.6085391   9.0082008  15.4403305  37.7567840
   8.9844841  16.0756493  39.1303897 114.0065855   6.0308808  93.6964130
 114.8456187   6.3927001  93.4112072 113.6256999   6.7147434  94.2473125
  25.1761937  37.5801468  85.6700420  24.4862247  37.1820712  85.1392746
  25.4369998  38.3591270  85.1787090  19.9929309  21.1083269  89.6376514
  19.7263253  21.0342360  90.5539894  20.7947969  21.6304398  89.6629810
   3.5655212   8.6366415  68.3873940   3.0509168   8.1532019  67.7410984
   3.9869341   7.9577440  68.9144039   2.6212579 145.9483528  72.6175594
   3.5281822 145.9433621  72.3114634   2.6823932 146.1816712  73.5438728
   3.8957605  13.4419143  34.9873495   3.0789933  13.9224529  34.8524213
   3.6538535  12.7146685  35.5607843 119.9014044  52.2049618  78.6232376
 120.2899540  52.3276043  77.7570820 120.6493661  52.1810913  79.2200756
  45.3309393 137.1252854 103.5819149  46.1531544 136.7673475 103.2471371
  44.6769762 136.8733818 102.9299164   3.6160272   5.5396116  61.3437176
   4.4073379   5.0231212  61.4963531   3.9234185   6.3163149  60.8763075
  13.6154711  42.4663925  70.2177477  14.5547009  42.3592710  70.0674009
  13.4223652  41.8832064  70.9518003  21.6642928   0.4644758  45.2136946
  21.9503427   1.1253999  45.8442402  20.7897544   0.7491700  44.9484348
  10.0622118  15.7843602  53.3580780   9.9735969  15.4681623  54.2571878
  10.9974229  15.7086730  53.1686497  30.0348401   0.4490318   5.7053319
  29.9570155  -0.5022716   5.7774202  30.4107761   0.7226773   6.5419999
  19.3487799  25.2947140  54.9564123  19.3568516  25.9659290  54.2740345
  20.2673721  25.1970315  55.2071667 106.6302342   2.5259945  68.9450693
 106.1871654   2.1219623  69.6911764 107.2728152   1.8736753  68.6661386
  23.5988259 140.7033331 101.0711575  23.0754161 140.1476593 100.4936600
  24.2503214 141.1019046 100.4941559  15.2396321  22.6443887  79.5102549
  15.1626813  23.2069254  78.7396336  15.9314036  23.0487609  80.0338650
 101.8734426  16.4849997  58.5313511 101.2201518  17.1206450  58.8235807
 102.0666665  16.7379332  57.6286221   8.8972723  10.2601528  83.4428978
   8.5189337  10.7904553  84.1442299   9.2526841   9.4914383  83.8889885
  23.9578652  12.9310787  48.6409044  24.8935580  12.9095852  48.8415289
  23.9180517  13.1274045  47.7049017 124.2306617  33.7944317  41.4562130
 123.8690845  34.3331552  42.1599674 125.1789080  33.8922834  41.5427303
  25.6321239  33.9062953 103.2303524  26.2942362  33.9974093 102.5451183
  25.9170985  33.1474113 103.7393856  78.3504886 124.0375800  52.8914928
  78.5593147 123.3710212  52.2370338  78.5315198 124.8688931  52.4528837
  12.4842751   3.5888305  68.3244658  12.2240651   2.7377146  67.9721498
  13.4015512   3.4748223  68.5731363 119.3984897  22.4415898  56.9219446
 119.3812144  22.9137802  56.0894918 119.4730819  23.1278419  57.5850630
 119.8690856  25.9842801  37.6087737 119.6405829  26.2348390  38.5038924
 119.0584106  25.6278324  37.2454786  28.7787604  41.3541317  68.3676195
  28.5415912  40.7134056  69.0380335  28.5145926  42.1965933  68.7373495
 107.3937601  43.8897896  58.7923336 107.9562599  44.1237259  58.0540276
 107.0735747  44.7284079  59.1246414  15.1499856   2.8090838  89.4297314
  15.6585574   3.4398505  88.9200974  15.8076274   2.2822416  89.8837948
  44.8951960   5.9106040  53.7859488  45.2150488   5.0097394  53.8346100
  45.5828619   6.4316434  54.2005157  24.4156218  18.4354520  60.6713247
  24.0715408  18.1496990  59.8250484  23.9592314  19.2576158  60.8501768
 112.8424174 140.3396738  63.8808870 112.8601164 139.3934638  63.7373447
 112.7465434 140.4364378  64.8283482 121.1493061  10.0181556  48.5904503
 120.2252371  10.1055193  48.8243246 121.1392666   9.6307111  47.7152252
   4.2643622  27.9402447  76.3026762   4.4449607  27.5008559  77.1336746
   4.9840072  27.6748276  75.7300520 122.2507823  19.8808718  40.7940292
 123.1175861  19.6445715  40.4638100 121.7713518  19.0528750  40.8223248
   6.4746916  35.8135176  55.2676630   5.8062667  36.4260721  55.5746078
   7.2363508  36.3630056  55.0828123 106.3974947  15.8322430  57.0166111
 106.9534535  16.4277303  56.5140772 105.8305008  15.4242992  56.3621378
  14.9100041  16.5091693  97.8777885  14.0116143  16.5688145  98.2027054
  15.3880584  16.0619068  98.5761070  46.0737324  21.4085889  45.5668020
  45.9370089  20.6675577  46.1570644  47.0181656  21.5625811  45.5904865
 112.5103993 136.1253173  77.9568195 112.5012977 136.0646004  78.9120483
 111.6151661 135.9107179  77.6946449  15.9087431  11.4437628  69.3076086
  15.1793015  11.8972278  69.7301245  15.7755303  10.5211854  69.5251799
   0.9295323  46.2254477  43.8253021   1.3866541  45.8978462  43.0507374
   1.4503102  45.9078360  44.5629644  25.1095319  33.5425878  76.8204784
  25.9804654  33.3483791  77.1668720  24.6647286  32.6952171  76.8019009
  29.8147988 141.9911132   8.5791818  30.5061936 141.4126564   8.9010373
  29.4603062 141.5380595   7.8141252 116.5408564 141.2878097  26.9420791
 117.0392270 142.1048112  26.9612575 116.6398538 140.9678573  26.0453844
  18.8712215  35.1112819  46.7665339  18.3143365  35.6521726  46.2065840
  19.4683421  35.7329893  47.1826601  14.3073595  14.8579097  69.0861607
  14.1043091  14.0391207  69.5384693  14.3751454  15.5076051  69.7858286
   4.3983173   6.8879384 102.6293087   4.5837426   7.6897436 103.1181431
   4.9533367   6.2241173 103.0386066  12.2179377 137.1928258  33.6929631
  13.1253886 136.9456769  33.5149670  11.8305993 136.4125557  34.0896749
   4.6852395 143.4533767  91.1022282   4.1985956 143.9578853  91.7540550
   5.2417517 142.8696574  91.6177750  99.6805972  13.2046378  56.5575886
 100.5492563  12.8037393  56.5883446  99.2057056  12.8033555  57.2853804
 117.8789867  31.3580990  78.1583929 116.9281305  31.2761855  78.2318401
 118.0731482  31.0961509  77.2584391   8.6058980  48.9669037  68.5892296
   7.7320975  49.1978264  68.9044714   9.1341621  48.8885784  69.3836069
  20.1652694  24.3222213  74.9412107  20.3156185  25.0784492  74.3739843
  21.0259056  24.1253614  75.3110552  27.8622222 144.8330543  68.4377766
  27.6383018 143.9026342  68.4175491  28.7987208 144.8583447  68.2414007
  11.2264717   2.1175508  58.2029486  10.8136845   2.8757375  57.7894354
  10.5952203   1.4076000  58.0857992 106.7333955  37.6584220  85.0594044
 106.2694175  36.8477106  84.8503494 106.6988379  37.7147532  86.0143185
  44.2617702 122.8205628  68.9293861  44.9513006 122.4156375  68.4032488
  43.5647392 122.1650715  68.9561176   2.2519520  39.4173789  57.2717810
   3.0811068  39.1905427  56.8507338   2.4586019  39.4496489  58.2058525
 120.3627122  30.6059289  66.9832706 119.6826322  30.9932804  67.5343466
 121.0408408  31.2794352  66.9307137   4.7474828  39.3611288  71.1149693
   5.5865514  39.0861273  71.4845228   4.1797462  39.4847631  71.8756437
   8.9611501  19.1219556  41.5045691   8.4510022  18.6820102  40.8245516
   9.4241583  18.4139407  41.9524193   2.5458348  14.6355128  98.8171577
   1.8505572  15.2888322  98.7397385   2.5195664  14.3654227  99.7350883
  13.7381339  29.5329213  38.9076447  14.6705389  29.3958068  38.7401533
  13.4111655  29.9531698  38.1122112  15.1381421  61.2024212  73.6903715
  15.4098809  61.3502741  74.5962000  15.5782914  60.3908443  73.4377050
  33.7467527  21.6847491  67.9425430  32.8793573  21.9353080  67.6246166
  33.8373661  20.7654047  67.6918983  27.8441858  28.8458681  77.2099590
  27.0285225  28.9698625  76.7246246  27.7462459  29.3956327  77.9873896
  14.1596270 137.9102940  89.7167683  14.1094100 138.8540889  89.8682976
  14.1697419 137.5270976  90.5938625  37.8330827  20.8289933  91.3554001
  37.5928497  20.5413747  92.2361851  38.1664276  20.0398588  90.9283352
  16.8810618 129.0513296  61.0718441  17.6003420 129.5661790  60.7060575
  16.1853313 129.1130049  60.4173326  21.0978198 127.2699041  60.2185392
  20.8124900 127.7224679  61.0122681  22.0535874 127.3124213  60.2490377
   3.2150829 126.4224786  71.2220097   2.9069671 125.5554194  71.4856434
   3.7649503 126.7127652  71.9497538  53.1842422   8.8529629  11.5639126
  53.5402393   8.9317292  12.4489522  52.9249811   7.9344398  11.4909041
  26.9846797  22.7451301  53.3512783  27.6323962  23.0563688  52.7189589
  26.1821795  23.2141280  53.1226540 119.5313848 129.3845434  66.3191843
 119.9108256 128.6293323  66.7685318 118.7911934 129.0252049  65.8300781
 116.1433089 139.7493518  56.5029192 116.2145448 139.7176052  57.4569368
 115.2795941 139.3821044  56.3148785 111.1061091  14.0554023  61.5410900
 111.3233179  13.3766496  60.9020710 111.8446571  14.6632624  61.5052414
  21.0619426 144.0744794  54.0363216  20.4915309 143.4385846  53.6044645
  20.5547523 144.8862431  54.0418148  13.4732270 144.5817582  59.1306543
  12.7108407 144.1409917  59.5057869  13.6615276 145.2951688  59.7404242
   9.9756104  18.2974279  54.9203014  10.2968907  17.9210508  54.1009426
   9.6451366  17.5475538  55.4149818   6.6523421   1.3998288  32.7451110
   7.2952849   1.9454892  33.1980038   5.9269941   1.3201775  33.3645940
  49.3026304 140.6961823  47.1959782  49.9988747 140.8661492  46.5614748
  49.2760372 141.4839060  47.7391291 123.6198100   6.1051565  42.9410982
 124.2285030   6.3767105  42.2540903 123.6154204   5.1491731  42.8930473
  12.0398057  17.8789568  50.1365614  11.1033952  17.7262425  50.0098944
  12.2344172  17.4825096  50.9857893  21.5774417  19.7167897  50.0412226
  21.0027432  19.3145239  49.3899679  21.5296292  19.1313863  50.7970333
   6.5346545 140.1705099  35.1209950   6.8505025 140.7873649  35.7812667
   5.7334065 140.5706764  34.7832060 124.2807104   8.1018901  57.6016808
 124.4058633   7.2195375  57.2523642 125.1412428   8.3500230  57.9395390
 114.5123488 139.4395513  30.1647687 114.2042763 138.5356838  30.2306938
 115.4665995 139.3666399  30.1468086   7.4975502  34.3763065  71.4182615
   8.3991140  34.6895075  71.4911985   7.5388455  33.6774635  70.7654619
  30.7588935   0.1053570  43.0729389  31.6815567   0.0137319  43.3106995
  30.7454085   0.0025060  42.1213770 109.7068185 133.5043902  21.5346670
 109.0303344 134.1806264  21.4985561 109.5730276 132.9890473  20.7392097
 124.7201576 146.4366881  30.8746600 123.8866949 145.9719027  30.9491348
 125.3784146 145.7905311  31.1304140  11.7223454 137.0802433  97.4157282
  12.4478400 137.2302259  96.8095967  12.1379805 137.0161725  98.2755967
   2.7468184 131.5175421  44.5206642   3.0730084 132.0148153  43.7706280
   1.9444524 131.9714648  44.7783327  13.8216639  10.7643676  34.1641760
  14.1681671  10.0351477  33.6499739  14.5472360  11.3864720  34.2167306
 122.2106356  34.8246813   6.2446558 121.7540026  34.2249393   6.8345958
 122.9325870  35.1723170   6.7682654  14.8685980  32.6215386  40.6577206
  15.0922573  32.5092864  41.5816307  13.9867449  32.2577405  40.5788565
  21.1277032  32.0686698  48.8242102  21.5874648  32.8214145  49.1960001
  21.7654848  31.3559008  48.8619804 120.3194953   0.7572190   7.0484900
 120.5976234   0.3807680   7.8834522 119.3663008   0.6698179   7.0520204
 103.7266201  25.8994818  74.6002722 104.3961400  25.3231716  74.9688387
 102.9113311  25.4054642  74.6867847   4.0619037 145.0718484   8.2638121
   4.9251160 145.0141626   8.6734080   3.5463363 145.6081309   8.8661605
 106.3802344  46.7711115  57.9067326 105.9974725  47.1116638  58.7152815
 107.1144468  47.3573780  57.7238274  15.6426549  11.1357701  19.0383232
  14.9584877  10.5097699  18.8011098  16.1878252  10.6667924  19.6700513
   2.4517044   2.7370626  12.4390638   2.8002888   3.5042340  11.9850063
   3.1352091   2.4982220  13.0651700 108.2223434  45.9237146  34.5527744
 108.6629540  46.5881586  34.0230513 107.4567170  46.3724089  34.9115491
   1.7651506 105.3084869  64.9144316   1.8573511 104.9362726  65.7914686
   1.6038924 104.5529241  64.3493176   8.2622838  12.2185385  77.0875454
   8.6556476  13.0906689  77.0578051   7.4040180  12.3564386  77.4882889
  11.1390221   3.0853423  11.7389441  11.5219986   3.5368314  12.4910867
  10.4068708   2.5890508  12.1048415 109.5583827   4.7462526  40.3326511
 108.9387280   5.4743528  40.2864933 109.3319518   4.2900541  41.1431122
  17.3186481 144.1628333  52.9910803  17.9911399 143.5540394  52.6855373
  17.5084412 144.9802091  52.5305319  24.5090747  17.6226401  67.9005194
  24.0204525  16.8356419  68.1415844  23.9545083  18.0604565  67.2547579
   4.8460069  25.0219059  45.5017185   5.2629972  25.1150489  46.3582659
   4.8783010  25.9003282  45.1228189   3.2649979  93.5976476   2.8768629
   3.7993506  93.8424272   3.6323640   2.4530411  94.0923566   2.9874063
  33.9847589  32.9346371  51.1020422  33.4489441  32.2177315  51.4414263
  34.4352055  32.5595355  50.3453207  45.3928375  19.1568196  15.5129588
  45.8624077  18.3322370  15.3872669  44.4886208  18.8937807  15.6845117
 123.3608668  37.6645708  52.1541595 124.1015288  37.0692515  52.0390749
 123.0406678  37.8229761  51.2661219 113.6389048  24.2818332  28.5749984
 113.2035047  24.5320249  29.3898988 113.1864483  23.4856725  28.2963538
  95.6092686   3.5182413  30.7629013  95.2381820   4.0287822  30.0432682
  96.4556879   3.2178366  30.4318953  21.9429183 120.4542107  56.0074711
  22.1992850 119.7772712  55.3811646  21.1411309 120.8277268  55.6416082
 110.8449239 139.0855796  61.6079712 110.2815957 139.2375410  60.8491564
 111.2548799 139.9341304  61.7756891   7.4160570   0.8431274  41.7424345
   7.1162730   1.6864043  42.0819139   6.8433970   0.6683256  40.9956169
 110.2660031  18.7551367  29.6786308 110.5038709  19.5994675  30.0617194
 111.0303730  18.1993508  29.8305225  25.9478307  10.8813584  61.2354279
  26.0858035   9.9804628  61.5279722  26.5231299  11.4050424  61.7931223
  31.2125826  69.8194742  27.9512167  31.3532114  70.0374317  27.0298314
  31.7619610  70.4396486  28.4305906   1.8637954  96.4782781  34.6732330
   2.6218596  96.4931221  34.0889812   2.2240263  96.2381334  35.5269289
  15.7537270  30.3285599  78.2430983  16.2673104  30.2506924  79.0470886
  14.8879981  29.9950099  78.4786606  39.5622802 135.6204731  42.2196960
  39.6275187 134.7706730  41.7840195  40.4458094 135.9849698  42.1672487
  85.4755635  43.1425095  81.9211483  84.9046320  42.6313686  81.3475609
  85.3868765  42.7273655  82.7790642 124.3744847  23.0864859  56.3751364
 124.4979118  22.9479980  57.3141861 123.7729763  22.3916245  56.1075783
  29.1350031  44.4347954  59.6661329  29.9612999  44.3165922  60.1346350
  29.1202784  43.7253094  59.0237570 117.2941822  16.6372848  58.1752920
 117.8625513  15.9717226  57.7877188 117.4846757  17.4333656  57.6791048
  30.9229469  19.9059260  57.3931408  30.5236459  20.7277250  57.1077728
  31.8177605  20.1454735  57.6343060 124.5573527   9.3379843  45.8227491
 124.7321020   9.8954135  46.5810108 124.8521199   8.4680182  46.0920095
  10.9804296 138.9395137  48.0899668  11.2280464 139.8592717  48.1846476
  11.3510323 138.6772198  47.2473001 110.1824934  10.8572102  22.6663327
 110.9559662  10.9798408  22.1159410 109.4516224  10.8267117  22.0489764
   8.0088812  33.4457302  51.8460035   8.2845306  32.5319862  51.9189644
   8.0476719  33.7798929  52.7421379 100.5586237 143.6458937  31.7452288
 100.5449051 143.7781126  30.7973051 101.4702386 143.7969620  31.9949651
  10.2261221  37.7074265  45.8511782   9.8250532  38.5652232  45.7113171
  10.3251708  37.6413274  46.8009424  33.5325503 145.4494532  27.0507264
  33.4016466 144.9667338  26.2345910  32.8221965 146.0908493  27.0662093
   9.2406005  25.3637505  56.0680485   8.9154863  25.9750581  55.4071140
  10.1772857  25.5515623  56.1278772 120.3406415 130.4219753  47.6136971
 120.0999264 130.7565756  46.7497921 119.8222745 130.9443135  48.2258177
  34.9589515   9.8897076  70.6122971  34.2643476  10.2436888  71.1676836
  35.6175208  10.5836320  70.5808735  13.0019271   5.9933817  31.2243938
  12.8459024   6.1086410  30.2870560  12.7708077   5.0803387  31.3951802
 100.1966185  59.9656105  77.2679663  99.6320457  60.2942228  77.9676151
 100.9725518  60.5249739  77.3036957   1.7254226   7.9491460  39.6444511
   1.3383749   8.4275788  40.3776169   1.3777253   7.0612156  39.7276235
   8.2267100  31.2809849  28.8182855   8.5549361  30.7688618  29.5573592
   8.6430311  30.8882332  28.0510473  20.4866600 121.6324324  49.7900009
  21.2289953 121.7951317  49.2080212  19.7668898 121.4037342  49.2019033
  24.7863722   5.0512528  41.7654037  24.7526646   5.6488639  41.0184383
  25.7100797   5.0325722  42.0156956  14.7945571 132.6690001  27.6501203
  15.4074299 132.8672797  28.3581495  14.5662284 133.5236926  27.2846079
 120.6121132 139.2851467  54.8274612 119.8782057 138.8954783  55.3026104
 121.0759688 138.5382951  54.4489336   3.4763741  15.9293246  45.0767040
   4.2358744  16.5031147  44.9759245   3.0578220  16.2257397  45.8849049
  10.9978700 136.6319002  72.4139977  10.5245054 136.8805463  71.6200638
  11.4100993 135.7961697  72.1952486 109.8561294   4.0687901  97.3929691
 108.9867312   3.7447780  97.1576023 109.6883864   4.8877168  97.8592873
  13.3833134  43.3200312  34.4508290  13.4603310  42.4558020  34.8550630
  14.1684175  43.4020376  33.9094257   7.0622540 145.0277203 102.2456618
   6.3651794 144.8856927 101.6052344   7.8157336 144.5583622 101.8876060
 102.2237558  21.5746474  66.5433121 102.6250238  22.3644757  66.1808395
 102.5986022  21.4965487  67.4205923 122.2541060  18.1546760   4.6311879
 121.6497839  18.3522010   3.9156386 122.3581495  18.9864445   5.0933230
   5.7204932   6.4590889  57.4292040   6.3138503   6.0928369  58.0849600
   5.5254543   5.7253492  56.8462610  18.7390161   0.3154061   2.2907735
  19.2618883  -0.1081515   1.6100125  17.8982663   0.4951245   1.8699726
  38.8312268 131.0739941  62.5601768  39.2194438 130.6703646  61.7839003
  38.5740924 130.3347976  63.1112671  38.0545378   8.5070801  48.3636093
  38.0074215   9.4012237  48.0252028  37.3342896   8.0488443  47.9306030
  27.4840927  17.6637769  49.6574259  28.0584526  17.5164568  48.9060020
  28.0714846  17.6553571  50.4131603  83.5899353  16.4374745  48.3082676
  84.3502903  16.2233770  47.7676535  82.8374577  16.1761367  47.7775097
  10.1064587  44.6230507  53.3494568  10.0676274  45.5000257  53.7310791
   9.2495638  44.5016384  52.9405260 113.5367424  47.6390886  69.0693426
 112.6562316  47.7476788  68.7099791 113.5559661  48.2144547  69.8340750
 100.6345195   9.6350950  40.0636578 100.3316111   8.7553906  39.8387170
 100.9186143   9.5648479  40.9750223  15.6444359   7.4699539  53.5127592
  16.5234172   7.3374242  53.8678074  15.7637405   8.1090748  52.8102493
  11.4730477  26.5722632  31.6126680  11.1852098  27.1943736  32.2807693
  12.3843515  26.3842583  31.8371940  40.3695917 139.7750259  50.4288483
  40.7154560 140.2503950  49.6734428  40.0676298 140.4601414  51.0252237
  16.6747141  26.5102839  17.8944504  16.7649162  25.7449484  17.3266864
  17.4112320  27.0733476  17.6562607  21.0380912 111.6325087  15.7804608
  21.1193419 111.9021411  16.6952991  21.8540192 111.9218845  15.3721046
 114.4920654  30.1023293 106.4912959 114.1447610  30.4261088 105.6601652
 115.1692534  29.4744182 106.2395492  24.1942668  39.7769094  60.5727720
  23.9730692  39.7162700  61.5020895  24.9499798  39.1988087  60.4682302
  29.4860268  46.9597101  52.1796560  29.1512060  47.1139431  51.2962914
  29.8623323  47.7994633  52.4431753  16.6185868 141.1295743  44.7446489
  16.3301539 141.1257351  43.8319492  16.7931092 142.0509041  44.9368095
  12.8978014 138.7784005  43.2077026  12.1039546 139.1552586  42.8282070
  12.6918042 137.8505630  43.3213520  34.9323201  13.6865842  80.8574677
  35.7622576  13.2250071  80.7375431  35.1708293  14.6135771  80.8518791
  47.1519899  42.7364159  49.0252590  47.7520609  42.2373629  49.5794153
  46.2805748  42.4411964  49.2892981 116.4277071  52.1925879  31.4495063
 117.2705335  52.6055193  31.2614560 115.8302826  52.5601721  30.7982016
 108.9465589  28.1094694  59.9878073 109.7709138  28.2262397  60.4600763
 109.1218109  27.3974943  59.3724966  21.4261436 141.6082794  55.5893373
  20.6153846 141.5077026  55.0905561  21.3492584 142.4693311  56.0003281
  18.4799671 139.2683555  61.0792303  18.5885882 139.9340398  60.4000425
  19.2457759 139.3747587  61.6435432  16.5446901  46.2521791  54.9412680
  16.6402936  46.7050886  55.7790995  16.6614699  46.9378471  54.2836523
  39.3349075 112.2697825  35.5681515  38.6394501 112.9135651  35.4335666
  39.4276190 112.2126240  36.5191340  35.3350139  49.3800306  20.0346708
  35.6294513  49.5415783  19.1383219  36.0986328  49.5777416  20.5769134
   9.3737525 139.8348994  64.1617537   8.5867280 139.3055851  64.2907953
   9.1051042 140.5175919  63.5469484  35.4988837  18.5917854  47.6103115
  35.0013041  19.3498302  47.3036957  35.6400585  18.7589371  48.5421705
   5.0959009  45.7220364  67.4541855   5.9973973  46.0223007  67.3385286
   5.1701301  44.7725344  67.5499487  47.7864456  25.7381368  94.7720051
  47.3722124  25.3413630  94.0057087  47.1168470  25.6964302  95.4547405
 118.7429298 125.2049727  74.6390390 117.9504991 124.8058982  74.2798376
 118.4524894 126.0522289  74.9767256  32.8646326  41.2962675  26.9889927
  32.0066023  41.0310555  26.6578174  33.4899378  40.8223867  26.4406610
  11.3443327  28.2326221  34.6093965  12.2045839  28.6450982  34.5315218
  11.2868655  27.9701090  35.5280995  17.8877425  28.9886642  29.8487449
  17.2708547  28.2686615  29.9801946  18.6895549  28.6996365  30.2843928
   1.8470994   7.7962470  47.2787714   2.6122418   7.4170083  47.7111673
   1.7074846   7.2429031  46.5102959 117.6179344  59.7508049  58.4695625
 117.0155770  59.2389774  59.0094042 117.5390411  60.6442356  58.8039207
   6.3127178   9.2419893  36.7214322   6.4852530   8.3053440  36.8171334
   5.5930704   9.4161761  37.3280621   7.7188754   4.5699844  84.8893070
   7.5775295   4.8585787  85.7909584   8.6695367   4.5863628  84.7788239
 110.6192882   1.2423364  18.3000362 110.4987926   2.0270422  17.7652943
 111.5552921   1.0517870  18.2382321   9.7776020 143.6063243  55.8161402
  10.1316524 142.7417866  56.0245991   9.2020088 143.4550209  55.0664520
  92.4009675  31.7474365  96.8742847  93.1578392  31.5997624  96.3072205
  92.4934120  31.0977626  97.5711441  17.2917914  48.7650490  53.4911203
  17.7381313  48.6743212  52.6492262  17.8381002  49.3745518  53.9873838
  65.8418655  41.4294052  18.8613808  65.3680134  40.6065130  18.9819622
  66.3597393  41.2935305  18.0679238  26.1147308  49.9213219  76.6848612
  26.5070271  50.3146601  77.4643612  25.8605194  49.0413237  76.9627333
 107.0344049  34.6665716  23.4405255 107.4743194  34.9017525  24.2574692
 106.1879081  34.3153811  23.7168241 119.5022506 130.4109473  42.0948219
 120.0680224 130.3532810  41.3248777 120.1055641 130.3883369  42.8376055
  14.8277414  32.1736813  72.6680231  15.4033828  32.1795678  73.4327650
  14.6563578  33.0984569  72.4901199  36.5255642   7.8010398  16.3878763
  37.2837639   7.8790486  16.9669068  35.7839322   7.6757729  16.9799268
  32.1752524  34.1747212  84.5876122  32.2398973  35.1060319  84.3761539
  32.9169273  34.0092230  85.1696396  23.6053467  40.4605198  98.8554764
  22.7647281  40.6613302  99.2669010  23.5372710  39.5379925  98.6094189
  17.8586996  18.7782252  51.2524557  17.3142874  19.5653808  51.2371826
  18.6783957  19.0617466  51.6573572  22.3660326  37.5383329   7.2460771
  21.8737388  38.0633140   7.8771639  22.8458905  38.1804514   6.7229611
 114.1702396   6.2023759  13.3318830 115.0881726   6.2541366  13.5982490
 113.8982112   5.3189075  13.5803092  22.6429296  16.3852179  96.2827301
  22.9778934  15.5192077  96.5152359  23.3898783  16.9714010  96.4039230
   7.9439193 143.9611790  80.2853489   8.2035112 143.3007274  79.6429729
   7.7588636 144.7424547  79.7641993  19.8985958  28.5949612  34.2744732
  19.7303438  27.8055859  33.7598801  19.9516106  29.2969179  33.6258745
   5.0393546  23.2202196  55.7388496   5.3126699  23.9536858  56.2898159
   4.2383465  23.5258818  55.3131866   9.7266746   5.6031477  45.4044437
   9.8963010   4.9185258  44.7573328   8.9720601   6.0789841  45.0574970
  42.0436239 121.7392106  27.4433613  41.5362835 121.5455503  28.2316065
  41.4751339 121.4722414  26.7210197 116.5169454 132.0916242  48.6142588
 116.5754837 131.1386044  48.5467529 116.1358327 132.3678155  47.7807713
 120.9581647  27.3170090  27.6674485 120.7709775  28.2508516  27.7629995
 120.1380799  26.9396901  27.3491335 121.1286000 142.8873787  66.8337917
 120.1982129 142.9351951  66.6139603 121.1794276 143.2131211  67.7324247
  52.2260427  32.5160551  52.8045034  51.9773340  32.4785829  51.8809414
  52.8924465  31.8357277  52.9008865  98.2822651 119.0251727  62.0969057
  98.9882821 119.6715159  62.0934439  98.3371252 118.6151666  62.9601097
 114.8910911  32.9907823  23.4330606 114.5701415  32.4348450  24.1430998
 115.6106193  33.4866834  23.8236904   4.3616280  49.9208260  52.6354694
   4.4233048  49.1410971  53.1872463   3.7230885  49.6874952  51.9616318
 113.6106152 133.9865751  76.4922476 113.0271060 134.5630617  76.9856119
 113.5019988 134.2587931  75.5810213 122.7047441  46.9192123  32.5001550
 122.3523017  47.7273989  32.1275258 121.9545621  46.5050554  32.9266882
 118.3110750 115.0127906  78.9204073 119.2140467 115.0831504  79.2301226
 117.7873284 115.4079432  79.6173811  41.2148714  11.3864613  59.7263908
  40.6498766  11.1190152  59.0014887  40.6258821  11.8263710  60.3394175
  22.3149228  33.8771725  56.2154531  21.9011235  33.1419635  55.7632732
  23.1397986  33.5214353  56.5460062 120.2077974   9.2942953  72.5149870
 120.9664852   8.9149642  72.9585314 119.6878791   9.6819812  73.2189846
 115.9116084  26.3195229  58.1817436 115.9851856  27.2296596  58.4689188
 116.3038475  25.8117843  58.8920832  22.9804373 102.5395078  68.3845997
  22.8003645 101.6670723  68.0343771  23.7583780 102.8322763  67.9099131
 100.0140113  24.5830202  52.6939154  99.6518464  24.1044474  51.9482374
  99.3468422  24.5045114  53.3757925   6.2643409  22.5195265  23.0625463
   6.4249468  22.9911232  23.8798785   6.5604937  23.1192493  22.3778152
  20.7846737  25.6345415  44.1406584  21.5457726  25.1153755  44.4003248
  20.6898785  25.4680943  43.2028198   1.0887464  34.9212456  25.0814009
   0.4003617  34.7185397  24.4479442   1.5602782  35.6590962  24.6947908
 107.2134406   6.0072613  21.0941219 107.4464280   5.1303893  21.3991547
 107.6127309   6.0730511  20.2266717  12.2745371  34.4687271  47.2363710
  12.3347342  35.0497890  47.9946423  11.3742959  34.1439581  47.2543621
  24.3565226  17.9046547  31.4765906  23.8718796  18.5908151  31.9354343
  25.0126457  17.6112258  32.1087551  28.5288906  47.7435875  43.0629396
  27.9690409  47.7593374  42.2866964  28.7044024  46.8146324  43.2128525
 101.3407607  11.3444424  89.8280525 102.1494216  11.1002493  90.2782440
 101.1149640  10.5741763  89.3065739 102.2023553  34.9899626  57.7375984
 101.6505904  34.7849083  56.9827843 101.7385287  35.6953287  58.1887674
  16.9776881  14.6450889  52.1695566  16.7711139  15.3935707  51.6097975
  17.9234231  14.5302927  52.0766163   8.5698640 134.1554124  37.8063655
   8.6143959 133.9493794  36.8726659   9.2312646 133.5918326  38.2078123
   4.1167021  24.1482306  36.6123414   3.6838850  23.5510254  36.0022211
   5.0419849  23.9072251  36.5676165  13.3993280  31.1818314  65.1084471
  12.7364957  30.5871177  64.7574472  14.1856766  30.9931874  64.5962954
  65.9737730  43.4876108 106.4204612  66.1000013  42.6192570 106.0380115
  66.8222666  43.7049198 106.8065494 117.8203297 130.7707460  23.8249278
 117.1332157 131.3475926  24.1586256 118.0371130 131.1293740  22.9643321
 107.2636802  49.8527765  18.0177867 106.8945069  49.1495943  17.4834836
 107.6621086  50.4503965  17.3850667   7.7556849  34.8032999  18.2744110
   8.5715485  34.3851256  18.5495996   7.7226186  34.6641898  17.3279500
  20.5854988  14.2750061  96.0487171  21.1786914  14.9869335  95.8088967
  20.4223752  13.8120711  95.2269431  13.1743360  39.7047925  38.2311797
  12.7973592  40.2439976  38.9264321  13.6099184  38.9884877  38.6931396
   7.1390939  10.8517528  25.6414318   7.4296016  10.7060826  26.5417767
   6.5757084  10.1026392  25.4473782  32.1721148  11.5798187  51.4879608
  31.6971183  10.7904291  51.2282085  32.4638367  11.9663930  50.6623173
   8.1057501 127.9694218  55.5385399   8.6998254 127.8761906  54.7938156
   8.6454928 127.7659495  56.3024187 117.1979297  45.5631018  28.8014245
 116.9530035  44.6382093  28.8300276 116.3764334  46.0231972  28.6291242
  13.7830877  59.2460823 108.9655099  13.5704899  58.4588623 108.4641916
  12.9328883  59.6059704 109.2182475  20.0042558  50.6286383  18.1748748
  20.0854540  50.8332396  19.1064191  20.8171320  50.1719999  17.9582059
  15.1528585  45.5372715  48.5939455  14.9023986  46.4460659  48.4278154
  14.3746185  45.0288200  48.3658028  46.6158915  34.9268627   5.5302918
  47.5724411  34.9175477   5.4962730  46.3997364  35.7513213   5.9659255
  21.2608600  25.5537939 102.4861016  20.8161807  26.3944149 102.5949463
  21.1026931  25.3156805 101.5725830  13.7003613  45.8973789 104.4912740
  13.3960199  46.4245224 103.7525376  14.3576431  46.4445019 104.9212407
 107.7022261  28.0579877  20.4962015 108.0937535  28.6278915  21.1581302
 106.9563205  28.5562110  20.1620913   2.3314072 126.3429947  60.8771706
   2.4286585 125.9465594  60.0113678   2.9983762 125.9140749  61.4132786
   8.3993870 131.9338305  41.0005951   8.9343935 131.5288014  40.3179884
   9.0317971 132.3589487  41.5798712 121.7938919   6.5349233  16.1118627
 122.0400569   6.8913740  15.2582943 121.3438401   7.2561127  16.5518296
 113.2428796  28.5497022  59.1857910 113.9947194  28.7990427  59.7231865
 112.5898213  28.2433271  59.8149824   5.8790433  11.2083578  30.5259609
   5.1166958  10.6569111  30.3499937   5.6116015  11.7590165  31.2618160
   7.2013032   3.3901781  12.0892084   7.8881657   4.0560424  12.0564032
   6.5239727   3.7720662  12.6474345  11.9582319   8.5183334  28.5100150
  12.7879250   8.8702857  28.8324594  11.3423681   8.6601323  29.2289281
   6.7805320 136.7658455   2.4192393   5.8359623 136.7631877   2.5741988
   7.0223641 135.8399422   2.3979811 106.1313743 145.3828918  48.5851765
 105.6296653 144.6005689  48.3560705 105.5341477 146.1101806  48.4102392
 114.2122788  56.5438795  89.8830815 114.0350849  57.2067642  90.5504807
 113.3546979  56.1670351  89.6861776 116.7768199 135.0860006  24.6802807
 117.0844019 135.9037537  25.0713110 117.5724483 134.5716030  24.5438933
  92.2018403 135.3884620  38.8953257  93.1219906 135.1486046  38.7856746
  91.7610664 134.5624096  39.0942931  99.8182125  34.9701214  29.8840547
 100.0115032  35.6165504  29.2050838 100.6428785  34.5006299  30.0094914
   3.7514356  13.8784528  12.3381555   4.6387601  13.5530686  12.1864569
   3.2240051  13.4627211  11.6560888  20.0990367  30.9910369  27.6693106
  20.3432846  31.8594456  27.3492503  19.1737378  30.9029961  27.4406195
 118.8310594  14.7765839  50.5935478 119.4707025  15.3622842  50.9985733
 118.0769414  15.3364348  50.4088688  38.6920333  28.6676788  51.0879803
  37.7658510  28.4260201  51.0921288  39.1415548  27.8995967  51.4404202
 105.7574207  41.3012075   2.3574147 106.3584048  41.1129475   1.6365755
 106.1571867  40.8805180   3.1186262 122.8452612  12.5431418  35.2371001
 122.1675903  11.8706584  35.1681066 122.6972780  13.1107843  34.4807172
  26.2574649  19.3065751  58.6454058  27.1780944  19.0821528  58.5100985
  26.1458063  19.2969382  59.5960236   8.5486835 132.1807964   8.5979927
   8.7183499 131.5845246   9.3273097   9.4150448 132.4942071   8.3383316
  27.7870083 142.3097519  51.6997051  26.8792033 142.6015896  51.7830896
  28.2841849 143.1137309  51.5491486  69.1694755  25.4214501  24.3790102
  69.6365423  24.9794221  23.6700034  69.1638774  26.3439202  24.1235662
 111.8706328  14.3239248   2.7993762 111.8299741  14.5765936   3.7217307
 112.7854998  14.4611263   2.5535595 123.5943052  48.4446096   7.3092020
 123.4189931  47.5381804   7.5619525 123.7317131  48.4070253   6.3626623
 108.2659001  25.6398630  36.4002037 107.9864413  26.5455365  36.5339470
 109.1541917  25.7123804  36.0510421 114.9385274  62.7293825  39.8812270
 114.0315313  62.9534101  39.6728945 115.3179932  62.4634409  39.0436625
  31.1991906 118.2336278  36.9967484  31.6663480 118.7270732  36.3225770
  31.6878605 117.4143691  37.0757866   9.4261783  46.4284277  34.7911215
  10.3030562  46.8004751  34.8854494   8.8957065  46.8995762  35.4336572
  36.7149472  23.5300159  64.7479105  36.8285537  22.6584792  65.1270533
  36.3179135  23.3689523  63.8919592  24.0928268   7.3477590  22.6195717
  24.9289489   7.8113252  22.5722647  23.7097597   7.6289284  23.4504962
 106.3592178  34.6178007  73.8139725 105.7392222  34.1054034  73.2950449
 105.8189017  35.2753758  74.2520189  46.5850735 144.5173171 101.5257403
  46.1813259 144.9379017 102.2849038  45.8643293 144.0576098 101.0951194
  12.5514615 142.9056300  43.8075399  13.0647886 143.1722088  43.0448723
  11.7808676 142.4739964  43.4386110  13.2516885  17.0812345  56.4336395
  13.7982571  17.4484086  55.7388878  13.6142719  17.4452543  57.2412634
 116.3843948  13.0913162 108.1150621 116.1873770  13.4844542 108.9652725
 115.6145341  12.5596619 107.9128491 113.9497644  48.2553911  17.6257348
 114.0864605  47.4016142  18.0363548 113.8241441  48.8568163  18.3597255
  27.8688645  30.6397247   2.2470038  28.1920290  30.3106117   1.4082664
  26.9157958  30.6226802   2.1598166  27.5784469  36.8221951  24.5353270
  28.2744193  36.5789342  23.9248514  27.7109790  36.2489891  25.2903771
  26.6656828  33.4024143  33.8608432  27.1942306  33.8211846  34.5401812
  26.9631004  33.8039708  33.0444312  43.1239796   6.7278731  16.7049289
  43.6011648   5.9031761  16.6132724  43.7419510   7.3963171  16.4090788
   1.4153951  23.9503789  21.4831614   1.9863346  24.3075109  22.1633935
   1.5694319  24.5107961  20.7226133   3.4150878  46.4047575   7.5281072
   2.8425044  46.9757271   7.0158815   3.7348440  46.9610882   8.2383794
  14.7676253 143.4013388  41.6687059  14.9369526 142.5901238  42.1477556
  15.6365490 143.7655873  41.4998102   4.0912113 125.0328917  37.3395181
   3.2922840 125.5483646  37.2289014   4.2156386 124.5997615  36.4950395
  45.6106186  15.7191432  40.8452272  46.4884186  15.8399773  41.2073088
  45.2874660  16.6081655  40.6987906  27.0632553  18.3512843  22.6865268
  26.3734341  18.3112442  22.0241261  27.5234175  17.5160277  22.6039100
  35.3476667  25.5489230  42.4718952  34.5953965  26.0630131  42.1785831
  35.2164650  24.6863580  42.0781946  93.4765167  28.9485931  26.5697384
  93.7421483  28.2390141  27.1546888  94.0757532  29.6659756  26.7759132
  21.4484453  16.5403283  34.8161840  22.3865652  16.6371751  34.6525288
  21.0780025  16.3180399  33.9620209   0.6948084  22.1766615  41.2143993
   0.6923983  21.2663102  40.9186125   1.2347405  22.1702695  42.0047569
  49.1066313  19.1142178  20.8399773  49.9369144  19.3161178  20.4085851
  48.9977074  18.1708026  20.7202506 118.7042732  33.7702084  57.9886866
 117.8885383  33.5023952  58.4118652 118.4332652  34.4073534  57.3277521
 123.8257871  45.3935003  30.6734228 123.3937893  45.9134293  31.3511276
 123.9156102  45.9928894  29.9325466  19.0801787  32.4807096  47.0970488
  19.8792362  32.3842144  47.6151514  19.0213764  33.4195733  46.9200993
 113.8773412  29.9649167  61.7046118 113.9594228  30.0235343  62.6564837
 114.0079696  30.8619666  61.3972569   5.8847779  69.2065239  17.7701592
   6.2148768  70.0595856  18.0522037   6.3340336  68.5773325  18.3345377
  31.5900493  14.7708035  85.0646782  31.3497162  15.3292060  84.3253136
  30.8121085  14.2363262  85.2239609  27.6946855  15.5181301  31.4291668
  28.5548425  15.3455102  31.0463309  27.7076244  16.4526951  31.6356921
 102.0379610  43.4889984  22.4883103 101.8924374  43.4389544  21.5435600
 101.2956638  43.9951563  22.8185058  41.1394596   5.8323240  14.5784140
  41.8924904   5.9704590  15.1529527  40.7029581   5.0597095  14.9372482
 114.0280480 140.6084479  27.6186681 114.2655081 140.3719903  28.5152912
 114.8587096 140.8428586  27.2048020 113.6359066 143.1743426  25.5041361
 114.0583403 143.0942599  26.3593364 112.7182288 142.9577891  25.6690741
  14.4195378  30.0834656  29.7917366  13.9203036  29.6408701  29.1053653
  15.0683212  29.4372678  30.0705528 113.3274455 144.8850087  41.3237524
 114.1893739 144.9323585  40.9101486 113.4231204 145.3845710  42.1346283
  43.4641552   2.8889820  42.3375607  43.8518906   2.4328557  41.5906715
  42.7808332   3.4387273  41.9540501 104.8161859 138.6776430  15.5390596
 104.7625322 139.3875785  14.8992586 104.7724122 137.8783799  15.0141847
  30.5652714 145.0289350  33.7077308  30.9969664 144.6905206  32.9232907
  30.3799510 144.2509238  34.2336464   5.7921153  31.6115928  54.9988890
   5.5024189  32.0842433  55.7792139   6.4809865  32.1624970  54.6271420
 109.6888716  35.2569938  46.0826921 110.2372033  34.4809484  45.9672928
 109.0506060  35.0023508  46.7490292 123.7229697 113.1233139   7.8513926
 124.6447748 113.2055039   8.0958354 123.5035107 112.2124524   8.0473506
   6.0351408 132.7880985  54.8396969   5.2512383 132.4233098  55.2503777
   6.4963943 132.0274706  54.4862556   9.4217056  53.8366032  57.4288797
   9.0167665  53.0646563  57.0334625   8.6847317  54.3533897  57.7545071
  14.2080426   1.6625383  38.2063460  13.4621251   1.1230211  38.4685683
  14.8882484   1.0320257  37.9696918   8.3855170  24.2887306 107.6255990
   8.5969788  24.5319343 108.5269135   7.9503614  25.0612330 107.2648855
   8.3107442  30.0143147   3.6804321   7.6806325  29.8111606   4.3717492
   8.8807523  30.6806970   4.0641728   1.2758914  49.9795723  15.9278429
   1.6360219  50.2245617  16.7802024   1.4350100  50.7426548  15.3723121
  21.5694070  22.6017213   5.4484367  22.4691534  22.3588705   5.2300078
  21.4246058  22.2275972   6.3175148 123.9860748  27.7667856  41.1348104
 123.6993542  28.4766054  41.7094231 124.5957008  28.1832314  40.5255795
   3.3329010 137.9956783  13.6900771   2.6439825 138.6428744  13.5392118
   3.2324585 137.7488292  14.6094286 121.1583505 130.5739386  27.8566861
 122.0063201 130.1365454  27.9332805 120.7252604 130.4049916  28.6934185
  22.0343590  31.3636374 104.4521543  22.4465847  32.0246506 105.0083592
  22.7676153  30.8943319 104.0542599 123.9141185  38.4048533  16.1349988
 124.7705720  38.8288355  16.0806167 123.3898895  38.8365483  15.4604208
   1.0280062 137.6452626  61.0842514   0.8360851 138.5558815  61.3082409
   0.3283081 137.3943765  60.4811668 120.3619144  30.5144382  25.2761102
 120.0775949  31.1592460  25.9238887 119.6985484  29.8255777  25.3167319
  14.9804831   3.1267259  12.6799607  14.3827569   2.3915610  12.5439906
  14.4086647   3.8638955  12.8940558 117.6728762  12.4427509  42.8103781
 118.5306204  12.2855055  43.2050705 117.0715392  11.8996823  43.3199883
  12.3872995  35.2190709  38.4774232  12.4329066  35.6023979  39.3533301
  13.2595718  34.8533845  38.3303022   7.1160692  39.8735142  11.0196972
   6.5707141  40.6510687  11.1389649   6.7701143  39.2396498  11.6479993
 123.6673190  22.0133233  52.6046228 124.5209084  22.4381304  52.6892090
 123.0692660  22.5778103  53.0944347  15.8553970  22.1520066  28.1880093
  15.3015566  21.3734651  28.2460070  16.4337742  21.9796872  27.4450302
  48.8078880  58.5326147  95.3995534  48.3421850  59.3608189  95.5154499
  49.5930433  58.7665653  94.9045523   5.7627273  18.2544553  17.9046834
   6.0737616  17.3541152  17.8104663   6.4002621  18.6684656  18.4863853
  20.3210354   4.0706620 103.9903154  19.8661685   3.9138067 103.1628349
  20.8114433   4.8796451 103.8444468 119.5917792  24.3805504  47.0242977
 118.8869268  24.9827552  47.2625494 119.1413564  23.5863066  46.7370224
  96.4716167 112.5739546  66.3757849  95.9886355 112.5638623  65.5494308
  96.4926071 113.4966273  66.6296864 114.8308165 112.1700616  17.2526324
 115.0622023 112.0056004  16.3384974 113.9040703 112.4081082  17.2260237
   8.3675098 144.7218248  33.3670664   9.0745884 144.0810578  33.4424973
   7.5931442 144.2002627  33.1559658  17.3623252  24.0474987  52.9455233
  16.7349553  24.3604970  53.5971928  18.0600286  24.7027969  52.9506636
  13.2191968 132.1004493  69.9585152  13.3741271 131.2992878  70.4588842
  12.2829115 132.0818085  69.7603893 120.6609646  11.6985071  17.5725532
 120.4533563  10.8181417  17.2593653 121.5385852  11.6189992  17.9463077
 115.5531103  16.5576804  50.6394672 115.5687625  17.4648166  50.9445763
 115.6300086  16.6237605  49.6876526  32.1732712 130.8408601 105.8117908
  32.1061754 130.7237370 104.8641556  31.4489460 130.3267462 106.1685460
  93.1362266  20.1178098  90.8299442  92.3009152  20.5849314  90.8131298
  93.3821530  20.1000738  91.7548426  86.9086403  54.4800138 104.1681733
  86.1252589  54.4225836 104.7152075  87.6157755  54.6771955 104.7824302
 112.1173961  55.6367588  32.7824402 112.6833910  55.9213209  32.0648718
 111.2751669  56.0548925  32.6034307 121.1022854 143.1095318  56.1838579
 120.5455650 142.3962862  56.4962244 121.3735241 142.8355486  55.3077316
  36.8409538  29.2485523  16.1801088  36.9824767  28.8141179  17.0212209
  37.5339866  29.9069786  16.1310089  24.8879623  15.7892787 102.2931340
  25.2040029  16.6920388 102.3302158  25.4255581  15.3208899 102.9317542
  23.0482173  48.9805651  22.1894002  23.0764866  48.0926228  22.5457549
  22.3722196  49.4231892  22.7025723  13.6641276  29.3124127  27.0636106
  13.1211805  28.6971307  26.5707970  13.8679731  30.0068760  26.4371920
  18.3260655  36.8333101  35.3381944  17.5090420  36.9262433  35.8281612
  18.3300626  35.9205055  35.0500846  34.9194312  29.8391199  40.1334524
  35.8474278  29.6912646  39.9512601  34.5929790  30.2959800  39.3582487
  45.3696966  37.4673414  31.5298247  45.5354643  38.4100699  31.5339255
  46.2309933  37.0721149  31.6647148   1.9558157  11.3582754  25.7431221
   2.6507545  11.8328381  25.2869606   1.4421308  10.9548295  25.0434136
 116.7400021  16.2640655  36.1439228 115.8013797  16.4454663  36.0958314
 116.9409574  15.8214283  35.3193498  29.9422383  20.4278326  98.9678844
  30.5845118  20.8774996  98.4187778  29.9046612  19.5393133  98.6138352
   0.5743188 139.9143709 100.3991547   0.9227538 139.0739484 100.6966683
   1.3009174 140.3213722  99.9273112  21.0311723 122.4228115  17.3977244
  20.6719398 121.5479822  17.5455511  21.5927339 122.3243565  16.6288364
 118.7643099 128.4111304  28.7417293 119.5571542 127.8755219  28.7691784
 118.6281664 128.6841352  29.6490145  29.2305708  25.2496386  11.2260234
  29.8562551  25.0050426  11.9078755  29.6865368  25.0645781  10.4049993
   8.0469203  27.4941492 109.4583647   8.5664248  26.6903448 109.4741058
   7.4433172  27.3748946 108.7251023  39.6340013  39.9550986  27.7912021
  39.2371798  40.7893038  27.5404787  38.9065385  39.4383383  28.1375933
  13.6169994   9.1794175   7.5715196  14.2683411   9.1312236   6.8717599
  14.0908504   9.5532143   8.3144683 121.0734967 121.4717097  12.9849064
 121.7410762 120.9371943  12.5549495 120.7539195 120.9244508  13.7022698
 117.7817822 141.5305091  33.9294410 118.2859165 141.1529494  33.2086563
 118.2405079 141.2431402  34.7188830  41.0110569  10.8583093  13.0119419
  41.6513014  10.7770014  13.7188458  40.7497406   9.9575478  12.8206956
   2.7092782   3.6564782  22.8558969   3.6166877   3.5189143  22.5840211
   2.7126950   3.4845859  23.7975311  14.7721338   7.9090339  19.1023314
  14.7800469   8.0534947  18.1561279  14.0629983   8.4658766  19.4237125
 105.1633424   7.1203864  47.4600077 105.9529693   6.6340679  47.2229099
 105.4018897   7.5892627  48.2596827  33.7481999 140.0233645  88.5851058
  32.9765439 140.4126085  88.9965280  33.9587498 139.2694570  89.1360339
  20.3936100  16.8458939  18.0601537  19.8948646  17.4557161  17.5164616
  19.8285818  16.0771763  18.1379259 104.3088121  26.4912987  39.9857283
 105.1651747  26.5895057  39.5695162 104.5015425  26.1140847  40.8440971
 119.8666609  15.6125653   3.2844391 119.5298476  15.1790321   2.5003234
 119.4450707  16.4719200   3.2827798  10.5958867  10.6251347  27.2028017
  11.0709977   9.9713910  27.7157545  10.0507605  11.0821772  27.8432560
  23.9583993  56.8240690  24.9061108  23.1449914  57.3033381  25.0639176
  24.6064639  57.2645998  25.4558134  35.7932043  13.3615124  98.4974965
  35.4695654  14.2398822  98.6973878  36.5479708  13.2471836  99.0749808
 123.7581275  28.7537622  14.9937165 123.6118825  27.8186989  14.8505366
 123.3843308  28.9250493  15.8581054 115.1244075   3.9623359  55.0463104
 114.8898203   3.3230922  54.3735790 116.0601396   3.8236371  55.1925993
  28.6652756  81.5975494  80.3478432  29.3297577  81.1116953  80.8363533
  28.7471271  81.2779159  79.4493055   5.6247717  28.4432125  60.2009726
   5.6550789  29.3936515  60.0915384   5.3705084  28.3153319  61.1148834
 104.1711683 125.2295823  64.5809984 104.5552010 124.3879170  64.8266602
 104.5566744 125.8565063  65.1930332   2.7613199 143.9957913  24.7031331
   2.6422566 143.0582572  24.5511961   1.8962298 144.3070092  24.9695826
   6.7878479 117.5421376  15.5383706   7.4219668 118.2272978  15.7497466
   6.1601245 117.5656719  16.2606180 115.1631928   3.6564305  43.1591415
 114.6022553   3.3905712  42.4305105 115.3574855   2.8412262  43.6216593
  92.1926612  21.2250447  14.6533167  92.6690502  21.8369293  14.0921724
  92.0426959  21.7108655  15.4643154  24.5631313 141.9744004  49.5812559
  24.1135001 141.9093860  48.7387371  25.2126908 141.2716270  49.5609474
   4.1539156 114.2446870  33.6805224   3.2771739 114.4152851  33.3363557
   4.3280008 113.3319277  33.4507465  26.7170501  27.5393367 108.8963611
  25.8424783  27.2181344 108.6768428  27.2416568  26.7468429 109.0102660
   3.4502086 137.7812392  54.5015717   3.5949007 136.8351407  54.4876766
   2.8791961 137.9251487  55.2562046  12.7850759  10.4348207  61.7636871
  12.6840484   9.5612699  62.1417522  13.6510992  10.4207587  61.3562107
   9.5143449 146.0573532  21.4051437   9.8312020 145.8588035  22.2862864
   9.9120373 146.9015801  21.1921811 108.6541373 132.1721084  61.6100550
 109.2938787 132.0521445  62.3118925 108.7237746 133.0981929  61.3782167
  48.5157633  12.0038033  30.3274941  49.1503239  11.5417731  30.8753037
  47.7466536  12.1079350  30.8877230  14.3659651  50.9901094  76.4407873
  14.2093515  50.3145838  75.7809639  14.2345953  51.8155670  75.9743214
  13.2023990   8.8918358  24.6443939  13.8790333   9.5631260  24.7325253
  13.4224665   8.2409912  25.3108788  89.9277944   2.6162431  14.0816355
  90.8689827   2.4570866  14.1528213  89.5661635   1.7830601  13.7795401
  48.9878130  28.7607908  16.3684964  49.0181923  27.8869963  15.9788883
  48.8022852  29.3446493  15.6330240  21.1224031   9.5860523  36.8572831
  20.6845856   8.7381691  36.7821741  21.9711304   9.3833375  37.2507334
  35.4291201  16.1994350  99.6209654  34.4781089  16.2208176  99.7275170
  35.6507683  17.0636404  99.2741915 101.0567278  43.3065796  10.6623602
 101.7584724  43.5518169  10.0593293 100.7213563  42.4796677  10.3159893
   0.4775288  10.3787637  28.5413241  -0.3688366  10.2240539  28.9608026
   0.6381340  11.3143981  28.6639071  39.9643755  12.0329678 100.4791143
  39.2022371  12.6074934 100.4063370  40.3055286  11.9734430  99.5867559
   4.0914837  57.5254631  73.8702440   3.9404365  58.0860901  74.6312380
   4.4904160  56.7338324  74.2313576   2.6576486   2.2007176   1.7077671
   2.8362867   2.8925014   1.0707776   1.8906546   2.5107336   2.1892671
 120.8943856  28.2572865  21.9709897 120.3584457  27.5486207  21.6149139
 120.2882046  28.9921260  22.0647383   5.8306336  11.6699159  38.7224293
   5.6863660  12.5580919  39.0488672   6.3338125  11.2394786  39.4136381
 118.4379584   5.3413433  21.8001103 117.6375771   5.3328544  21.2751818
 118.3601183   6.1259466  22.3428535  32.8244829  17.3183453  89.9652311
  32.5530672  18.2360125  89.9439391  32.5746441  16.9747198  89.1074809
 120.3955940  26.5246868 103.1294539 121.2775589  26.3235784 103.4423848
 120.3292877  26.0685301 102.2905525  36.5229344  24.3483329   6.6087037
  37.1137834  24.6432924   5.9157920  36.2004185  25.1560807   7.0084035
  14.6203959  36.1092496  43.7231445  14.6066105  37.0596027  43.6097050
  14.8452234  35.7679558  42.8575802  98.9766855  40.9401751  23.4832144
  98.9226050  41.1153269  24.4226980  98.1085581  41.1636114  23.1475568
  42.1297216   9.5375848  29.0226126  42.5053549   8.9664340  28.3525991
  42.8771734   9.8006487  29.5595884  20.0679040  22.8518820 107.5543778
  20.2479672  23.5424066 106.9164249  19.2217755  22.4932122 107.2866999
  19.9248993  18.4801066  42.6914215  20.2321982  18.0621421  43.4958506
  20.2150035  19.3890762  42.7678823  36.5349340   6.5602660   0.6747053
  36.6236329   6.0592347  -0.1360548  37.2349763   6.2302864   1.2379852
 123.5218633  38.0608225  24.7940040 124.0951875  38.7256575  24.4125295
 122.6466379  38.4459853  24.7508669  27.1523070   7.1292412  94.9292751
  27.8326011   7.5724649  95.4362103  26.8844318   6.3934577  95.4798182
  26.1428642  10.9896421  15.1678014  25.3349662  10.4772162  15.1986432
  26.6404080  10.6986070  15.9319890   2.1937610  21.0135269   5.8691972
   1.5092829  20.7698369   6.4923644   2.9458877  21.2403011   6.4161068
  42.9825068  18.7659740  94.6911880  43.2244539  19.6352899  94.3718382
  43.1031752  18.8169909  95.6393810  26.8185329   5.3536481  35.8945632
  27.6996136   5.6530404  35.6703019  26.8793941   4.3984839  35.8808064
  50.3904676  27.6339602  18.8359857  49.9267530  28.0417609  18.1046188
  50.7501459  26.8256187  18.4706819  31.8748236 130.4644317  84.2960080
  32.5167036 130.2144618  83.6313757  32.1496987 131.3367684  84.5783290
 108.3802671   9.7004873  19.1092944 108.1201977   9.6030116  20.0253153
 109.2995436   9.4343042  19.0916836 122.5731882  11.7080450   8.3949906
 123.2557484  11.3556695   8.9661080 122.7910148  12.6358426   8.3056778
 123.5859521  15.0721824  79.4837626 123.6670968  14.2754269  80.0080022
 123.2022572  14.7774255  78.6578520 104.3712396  35.9366035  18.7190866
 103.9301843  36.2393427  19.5128453 104.3776960  34.9826574  18.7976778
  97.8360671  64.2871618  14.9774170  98.7199993  64.1114569  15.2999485
  97.2794194  63.6749601  15.4586518  23.9730334 129.5053560  99.3599364
  24.8588538 129.2331798  99.1202041  23.4463906 129.3181080  98.5828801
  26.2316251  13.3054829  20.7748985  26.9101930  13.9487612  20.9797645
  26.7144322  12.5036788  20.5743051  23.6415505  35.3549147  16.3165903
  23.9040637  34.8092771  15.5752420  24.3449545  35.2443409  16.9562995
 113.4824044  21.9838119  79.3601164 113.8967795  21.9014144  80.2190312
 112.5963969  21.6449404  79.4881352 119.6190376 145.2749383   9.3295515
 119.4755853 144.5204503   9.9008667 119.0585590 145.9605345   9.6929431
  47.6190901  47.7307272  11.5734160  46.7410517  47.6067209  11.9338310
  47.7225018  48.6805916  11.5160429   5.5184436  41.1478662  47.0506001
   4.7375503  41.1339426  47.6039934   5.3098732  40.5568266  46.3271332
  19.4501734  12.6626682  19.8939371  20.3957152  12.6935542  19.7482431
  19.1691399  11.8509758  19.4715524   1.0276640   7.2293997  10.8912969
   1.2808713   7.5034720  11.7727745   0.2910490   6.6336387  11.0280418
  23.9929461 144.5758692 104.8264089  24.0038872 144.0321536 105.6141179
  23.7482142 143.9741115 104.1233971   8.0944598  28.4089065 106.5677264
   8.2937104  28.9587069 105.8099326   8.0603111  27.5193667 106.2158983
   6.9518250 137.6293475  34.9011374   7.0029676 137.1640719  35.7360840
   6.6235536 138.4986038  35.1310587  92.9883880  11.1371124 103.4468361
  93.5814852  10.4973841 103.8408103  92.3521180  10.6087911 102.9648914
  22.3061848   7.3031181   5.2705872  21.5546250   7.4646252   5.8409405
  22.8562808   6.6958761   5.7654440   5.1163369  10.4936981   0.0947336
   5.1890910  11.1011994   0.8308588   4.2035523  10.2059603   0.1109652
  31.5091538 134.8725695  10.1421142  31.7972612 134.6499712   9.2568582
  32.1108913 135.5616886  10.4236460  11.3890457   0.7599459 103.2356151
  10.7194841   0.4388288 103.8396045  10.9069681   1.2980875 102.6077321
  13.7855589  20.5019259  23.6545706  14.0710461  19.8864222  22.9793787
  14.5945680  20.7751966  24.0870762  15.9582031  19.7135627  32.1884370
  15.1387823  19.7515547  31.6951466  15.7222199  20.0086212  33.0679178
  41.3940287   0.3924368  26.5918207  40.9581852  -0.0866290  27.2966385
  42.3058748   0.1044574  26.6346645  47.7658749  37.3098922  40.8030081
  48.6404514  37.0804930  40.4887915  47.9234791  37.8923345  41.5460777
  30.8803821 144.5392866  22.3282480  30.3595328 144.9157883  21.6188860
  31.3954091 143.8506688  21.9077921  29.9380541  11.0044241   5.9076118
  29.9444127  11.2399375   6.8353647  30.8402991  10.7455945   5.7200181
 111.1434287   1.6694073   8.8396627 112.0680661   1.7011115   8.5941583
 111.0557324   0.8570670   9.3383050 110.4206104 130.3687818 104.0460690
 110.5375750 131.3031275 104.2179676 110.0681610 130.0171251 104.8635950
  29.5812559 127.8321917  43.6975813  29.4424820 128.2882328  44.5276403
  28.7767291 127.9861004  43.2023239   2.5032836  36.3292718  53.7603045
   2.0064791  36.3707185  52.9431772   2.4560833  35.4100180  54.0229416
  18.2439494 143.2044605 101.8538388  17.6154315 143.3517797 101.1470904
  19.0502441 142.9461039 101.4073273 112.5101656  12.9053760  94.5433887
 112.4501676  12.1167290  94.0042528 112.8822178  12.6017272  95.3714009
  49.0973282   8.1356150  12.2554910  49.5210123   8.7202829  11.6270924
  48.5567760   8.7137747  12.7937913  91.7600889 140.8541150  32.9116344
  92.6451654 141.2186278  32.9112172  91.2137050 141.5514303  32.5490761
 110.0656218  20.7253504  44.7801208 110.7398493  20.4278779  45.3909874
 109.8907144  19.9639177  44.2270708 122.3381089  16.2856817  86.9368609
 122.2860207  16.1238670  87.8788456 122.8198976  15.5343306  86.5910538
  40.2845621   9.2953926  23.6445928  41.2300253   9.2791766  23.4960389
  40.0239134   8.3744878  23.6295056  24.6328616  27.9717731  39.0639806
  24.6317124  27.0462203  39.3080711  25.2764297  28.0325007  38.3580351
  10.9436738   8.1097108  81.7575940  11.4182949   7.4056679  81.3156780
  10.1862073   7.6772368  82.1518573   1.1872831  26.8659115  35.1527953
   1.6946433  27.4107337  35.7544470   1.8447420  26.3588428  34.6764946
  29.3689322  36.5626836  17.4873149  29.0049005  35.9171724  18.0931437
  29.4302106  36.0993147  16.6519916 108.7630827  34.5509171  39.8438144
 109.5116097  35.1187038  39.6606255 108.1233353  34.7721863  39.1670632
  15.5712390 136.6004682  29.8973680  14.7398376 136.1323423  29.9739289
  15.4220819 137.2414333  29.2022800  14.4001913   6.1012238  83.5808333
  14.5049632   6.8919843  83.0517276  15.0054157   5.4703259  83.1910857
   8.3756548  16.4325893   9.0163076   8.5337824  15.5414486   9.3279099
   8.9844209  16.9737005   9.5191348   7.7431846   2.3182999  37.5566912
   7.2587287   1.6043611  37.1421742   8.5558617   1.9126157  37.8587008
   5.9051144  19.1974223  10.3681362   4.9678224  19.2807102  10.1926982
   6.2032777  20.0960898  10.5085969  13.1479812  12.7809608   5.2536774
  12.8098249  11.9413817   4.9422443  12.7976871  12.8661978   6.1403906
  92.3991484   8.2456642  26.6733336  92.3185296   7.3993814  26.2334037
  93.3362860   8.3380550  26.8449998   7.3111427   3.6699623  42.8598499
   7.2338748   4.2454213  42.0988560   6.4067620   3.4843966  43.1126165
  29.5741963   4.9871281  16.3387704  30.5295730   5.0200534  16.3878381
  29.3471599   5.6230098  15.6602871  15.6538785  31.4883614   1.0078469
  14.9380946  31.1682153   0.4588547  15.9526527  30.7152891   1.4867234
  16.9709706  38.7607694  29.5367694  16.5537405  37.9162788  29.7070312
  16.6877055  38.9939523  28.6526775  26.0114145  29.5205855  15.8651316
  26.3641286  30.2981544  15.4324508  26.2924290  28.7909865  15.3129137
   3.2345745  18.6795044  21.5543747   3.0192307  19.5815361  21.7914343
   4.1900295  18.6683393  21.4976883  75.2390099  28.1913996  86.1801346
  76.1225843  28.1473446  86.5456303  74.9136877  29.0523529  86.4431056
  37.3272419 127.1043641   4.4849652  37.2280145 127.3105509   5.4144132
  37.2774792 127.9528768   4.0447575 116.8132425 140.0271887  14.7102046
 116.8909032 139.2206175  15.2197564 117.6507331 140.1032091  14.2529714
  98.3003301  13.5950851  98.2049187  98.2213826  12.6426256  98.2580134
  98.7145276  13.8474572  99.0301355 104.1544146   9.0659833  45.7756948
 104.2601270   8.3621693  46.4157772 103.3290262   8.8661242  45.3340816
  19.0880847   4.4989324   9.0256816  18.7572968   5.2734214   8.5707325
  18.4004009   4.2782062   9.6538562   9.8486066  44.4344759  92.1106621
   8.9240420  44.2089415  92.0079621  10.2583623  44.1419315  91.2965676
 113.5286612  33.9368463 105.0586119 113.8455111  34.6347928 105.6319433
 112.9741532  33.3972049 105.6221183  16.5906179  33.1173372  12.7621746
  16.3327277  32.2302175  12.5116873  16.4351165  33.1544971  13.7059283
  28.3288836 135.8147843  18.9904284  27.5957751 135.9278602  19.5954072
  29.0497541 135.5106539  19.5418620 114.5865137  12.5502622  23.0879998
 115.0054122  12.8552091  23.8928390 115.2383900  12.7064180  22.4046969
   6.2947458 119.4756908   3.9664027   6.8178427 118.6908240   4.1294521
   6.8534017 120.0261206   3.4176195 114.8217554   9.4942689  91.9168695
 114.3924231   8.9884126  91.2269314 114.5365889  10.3954434  91.7658814
  24.3949032 135.9063370  19.1568136  25.0771475 136.0655064  19.8090720
  24.5777321 136.5368671  18.4602237   8.0931932  28.9908981  14.7949624
   7.4503332  29.6136475  15.1342964   8.1765634  28.3328032  15.4850292
  27.0221806  39.3567872 105.3909891  27.3420143  38.4688258 105.2314182
  26.7867470  39.6860504 104.5235857  35.9566545   5.6930757   4.2879817
  36.2279534   6.2495506   5.0180256  35.0032139   5.6500930   4.3610257
   6.6230947  13.5643768  11.3834703   6.5583283  13.6196446  10.4300642
   6.7487824  14.4696665  11.6678751  15.9098411 133.6237747  12.5262105
  15.9801316 133.1522662  13.3562529  15.1064944 134.1374595  12.6098371
  12.8496635  14.0450549  10.7361615  12.2271621  13.4601557  11.1681533
  13.6499262  13.9691186  11.2558198  29.3225551  61.0174751  22.4152637
  30.0193334  61.5911388  22.7340746  29.1146588  60.4555035  23.1617212
 104.0348286  29.6808100  30.9324050 104.7208423  29.0488839  30.7172561
 103.9588255  29.6365809  31.8855572 110.3158397  20.0077152  26.9222927
 111.0104377  19.3635213  27.0593333 110.6438000  20.8055019  27.3372722
   9.2345971 108.1281538  15.9748089   9.1851592 107.2412939  16.3315535
   8.9786375 108.6939425  16.7032313   1.8589616   4.8660275  27.6955152
   1.7378035   5.8134109  27.7588964   2.7815574   4.7276872  27.9097819
  41.9675922  26.7723107  39.3011618  42.7297211  26.2263989  39.1078448
  41.7025518  26.5100670  40.1827621  10.3468239  15.3220332   0.3861386
  10.4249811  15.9406126  -0.3401416   9.7319824  15.7383335   0.9902045
  33.4518313  62.3534250  25.8884501  33.4292769  63.1930494  26.3475347
  34.1708565  62.4417734  25.2628088 119.2110783   8.8994098   4.1010338
 119.8263124   9.5061183   3.6891794 118.5340936   8.7587041   3.4391236
  33.3508611  10.4431534  21.8156481  33.4749079  10.4890907  22.7636647
  34.1123438   9.9581021  21.4976811   9.5713520   3.2064205  98.6328574
   8.7021643   3.6068541  98.6527845   9.7644711   3.0994275  97.7014657
  41.6820812  22.3949957 108.0700626  41.9435740  23.1541348 108.5911770
  41.3264799  22.7689075 107.2638577  26.7929983  31.3555789  28.0207443
  26.4438128  30.6738591  28.5948181  26.0183954  31.8119097  27.6921296
   0.2770469  28.0802751  10.3701496   0.6388979  28.8048911   9.8600233
   1.0400397  27.6681995  10.7754469  90.7231397  48.8787174  20.5471110
  91.2458891  48.1256294  20.2717447  91.2708373  49.6372509  20.3449178
  18.8564515  26.1484480  89.4167169  18.2512832  26.2861681  88.6879929
  18.4453058  26.5946054  90.1570769   7.1496779  16.5256429  96.8065962
   6.5826064  15.7619834  96.9137677   7.1069968  16.7263401  95.8716472
  89.9911184  27.7171874  96.1703881  89.9941844  27.7062869  95.2132555
  90.6348843  28.3858085  96.4043637   4.8591882   8.8861597  21.2070584
   5.4916167   8.7340832  20.5048203   4.4007078   8.0512226  21.3014412
  32.3985457 133.4399361 106.9804006  32.2915053 132.5418348 106.6670527
  33.3000994 133.4762664 107.2999536  99.5268053 139.2197473  23.7091112
  99.2823858 138.4637828  24.2429733  99.4610614 139.9654962  24.3055725
   2.8284171  28.5801554 109.1852154   3.6189950  28.1501102 109.5112193
   3.1139866  29.0396214 108.3955487  22.2924495  33.4394550 106.8786692
  21.8266344  34.1138291 107.3731040  23.0908585  33.8724780 106.5765669
  32.6805854  16.3641524 103.7905648  33.0508304  17.2261512 103.9805856
  32.1949434  16.1322808 104.5821580  32.5653172   0.9321933  99.2114600
  31.7827964   1.0836229  99.7415181  32.4360919   1.4743724  98.4332737
 120.4747803  20.0510907   9.7252011 119.7188688  19.6790063   9.2709076
 120.2080745  20.0875521  10.6437707 121.1945388  35.2971530  15.1309717
 120.5743609  34.7529316  15.6161869 120.6837357  36.0606575  14.8619473
   5.3045458 141.1040456  15.6042588   5.8287030 140.9371752  14.8209035
   4.5906091 141.6642911  15.2998722  24.2563987   5.0914216  81.0286840
  23.6183667   4.8817176  80.3466471  24.8134017   4.3148401  81.0825332
  33.2522488   3.7685660 100.2135392  33.5326719   2.8544962 100.1680221
  34.0630913   4.2619687 100.3373202   6.5814483  13.4577668  22.5170541
   6.4584625  12.5162220  22.6378846   5.9301877  13.7019348  21.8594265
  26.4005852   7.0660514  20.2198005  25.7041907   6.6479117  19.7134149
  27.2105122   6.7567229  19.8141336  50.3872585  18.6871612   8.2489902
  50.2164555  18.3211064   7.3811984  50.1147795  19.6022236   8.1808138
  14.9207568  27.0940590  14.5208251  15.6112432  27.6152396  14.9304998
  14.3599963  27.7375960  14.0876520  15.4393244  27.8345466  11.3117695
  15.2267742  28.7172222  11.6149843  14.5915496  27.3965693  11.2363708
 119.5647425 135.5238290  11.5051913 118.8400776 135.3704257  12.1114588
 119.1670740 135.9895975  10.7695627 108.0040092  19.5574427  25.9178662
 108.8588840  19.6901512  26.3275146 107.4648268  20.2747393  26.2510347
  11.6724992  35.1758862  26.8374968  12.1820343  34.6664762  27.4676609
  10.8277524  35.3118348  27.2666264 123.8852052  14.5358336  85.8594450
 124.8017725  14.6952593  86.0846552 123.9220507  13.9209986  85.1267441
   3.8343677   6.2157047   4.5888880   3.7848297   5.3014344   4.8679712
   4.7690988   6.4211434   4.6063402 123.2493318  46.5073109  97.0559403
 123.9808134  46.0903549  97.5112566 123.4366067  47.4444675  97.1097621
   6.2273097   0.0787201  95.5336615   6.0451531   0.9231031  95.1212689
   5.7068408  -0.5495641  95.0330599  19.6408653  34.1109753  41.8734455
  19.5094562  33.2301617  41.5225458  19.6893370  33.9864302  42.8212690
  25.1217103 145.2265162   4.3854573  24.9349380 145.0821702   3.4578195
  25.8375692 145.8619383   4.3895939 116.1033101 120.0271792  84.5981129
 116.6170699 120.7503147  84.2384514 115.6839628 120.3949637  85.3760012
 113.3574647   7.6153171  17.3277736 113.0152959   7.4564987  16.4480412
 113.6943395   6.7652375  17.6108158   4.7558481  19.6659577  99.5635911
   4.0364319  19.0621436  99.7482022   4.3509594  20.5331469  99.5802613
 124.1494091 114.3676395   2.9250610 123.9379377 115.2816028   3.1152800
 123.4059439 113.8730235   3.2698047  11.8671441   8.7393373 103.4236952
  12.1523476   8.8520092 102.5169452  10.9174848   8.8550442 103.3922120
   8.1029022  32.3735094  38.8312364   8.0091912  31.9431806  37.9813719
   8.7513477  33.0614257  38.6811686  10.3389895   9.4549423  21.0202861
  10.2244520   8.7913424  21.7005420  11.2454212   9.7459906  21.1198044
   2.9175165  25.7481837  27.2860837   3.2012460  25.9748459  26.4004469
   2.5617972  26.5634680  27.6396465   8.2016140  21.7600155  33.2995296
   8.8674593  22.2154665  32.7843142   7.6860225  21.2785387  32.6525545
  19.9733341  23.5315752  35.3561783  19.2648768  24.0769029  35.6981373
  19.5442617  22.9434514  34.7346973 111.5130836  33.6110139  17.2644210
 112.3128278  33.8545966  17.7305830 111.8066413  33.4039450  16.3771892
 124.7275228 146.4903278 109.7855052  90.0000000  90.0000000  90.0000000
