
64265  0.0000000e+00
  54.7372675  64.0278530  28.1521010  54.6451521  64.3631649  27.2038507
  55.1648378  64.7894907  28.6592436  53.8336611  63.7739325  28.5250974
  55.7611656  62.9437208  28.1267571  55.1953268  62.2287321  27.5295043
  56.9835806  63.1967831  27.1654344  57.5163984  64.0808058  27.5157309
  57.6352882  62.3230982  27.1726751  56.6188908  63.5358715  25.7212543
  55.6872416  64.3422461  25.5640459  57.4515057  63.1889105  24.7747684
  57.2951174  63.4220695  23.8045716  58.2394218  62.5828695  24.9536538
  56.1936712  62.3215151  29.4585705  56.3368034  63.0768347  30.3780198
  56.4310980  60.9927940  29.5206738  56.2594271  60.4267454  28.7020063
  57.1402836  60.3455734  30.6276369  56.7419481  60.6497145  31.5955901
  56.9434690  58.8173676  30.4260397  57.5325775  58.5619354  29.5452404
  57.2048855  58.3040428  31.3513851  55.5438280  58.2648993  30.2508879
  55.1318932  58.6980534  29.3394065  55.6589270  56.7682314  30.1984596
  54.6491909  56.3608646  30.2493262  56.0941601  56.4688969  29.2450047
  56.3486528  56.3105774  30.9076381  54.7125912  58.6458635  31.5430713
  53.8077211  58.0492830  31.6588378  55.2869511  58.5104799  32.4595237
  54.3080139  59.6511030  31.4251018  58.6723518  60.6321383  30.5810380
  59.3200207  60.9801197  29.6053767  59.2653465  60.4541445  31.7598963
  58.6788940  60.1147509  32.5088882  60.7246017  60.4537487  32.0493579
  61.1214018  61.3053989  31.4967823  60.9662008  60.6696129  33.5231256
  61.6664028  61.4922762  33.6681914  60.0372505  61.0618687  33.9369869
  61.3654757  59.5363903  34.3089795  61.3081884  59.8368597  35.2189445
  61.2872696  59.1504288  31.4995050  60.4949951  58.2364368  31.1170912
  62.6284361  58.9744759  31.4780593  63.6818647  59.9777651  31.2179351
  64.2813396  60.1463509  32.1125317  63.3102274  60.9151697  30.8040977
  64.6748877  59.2761040  30.2941513  65.6571817  59.7420597  30.3722239
  64.3414307  59.3397427  29.2583632  64.7341394  57.8581142  30.8514309
  65.2252388  57.7778006  31.8212128  65.0590372  57.1981859  30.0470448
  63.2253695  57.6573038  31.0464692  62.7485323  57.2525787  30.1537609
  62.9401493  56.6084957  32.1601629  62.5387573  55.5317354  31.7440987
  63.1167412  56.8409729  33.4974074  63.4988594  57.7504826  33.7139320
  62.6812124  55.9129858  34.5553756  63.2572985  54.9960899  34.4307065
  63.0021477  56.4592123  35.9506226  64.0710115  56.6656828  35.8958530
  62.4526072  57.3941469  36.0601735  62.6841068  55.5015898  37.0836782
  61.6018248  55.3751373  37.1115971  63.4127569  54.2057037  36.8943667
  63.2661009  53.5449648  37.7487779  62.9894400  53.6063862  36.0883093
  64.4555950  54.3714809  36.6239738  63.0928850  56.1571932  38.3904266
  64.1704321  56.2503767  38.2551503  62.5946426  57.1226931  38.4779406
  62.9522324  55.4857540  39.2374682  61.2040472  55.5737829  34.4309163
  60.9089708  54.3635130  34.4577146  60.3220987  56.5559196  34.1739726
  60.6523705  57.5060034  34.2654347  58.8634729  56.3473082  34.0427089
  58.4793949  55.7979918  34.9022651  58.0860472  57.6653576  34.0455723
  58.4654140  58.3484507  33.2855964  57.0488119  57.4618864  33.7794018
  58.0866957  58.3543587  35.4248333  57.1842194  58.0193853  35.9361458
  59.0781593  58.3755064  35.8772206  57.7487516  59.8337078  35.3461576
  57.2702694  60.3397036  34.3172264  57.7986431  60.4726934  36.4233136
  58.5619402  55.6143761  32.6796818  57.5904322  54.9268436  32.5960660
  59.4391441  55.7359505  31.6934443  60.1504707  56.4480543  31.7772722
  59.2409229  54.9558020  30.4322624  58.1948090  54.8846817  30.1344657
  59.9694490  55.4932690  29.2562699  61.0343027  55.5502605  29.4819736
  59.8198175  54.7917509  28.4355521  59.3833590  56.7634058  28.8762951
  59.5784903  57.3365736  29.6212792  59.7070980  53.4361029  30.5167818
  59.0316772  52.5226355  30.0689459  60.7818890  53.1811714  31.3300157
  61.3345146  53.9589977  31.6612124  61.3656902  51.8809605  31.6236639
  61.3787651  51.2899160  30.7079148  62.8355455  52.0404863  32.1263933
  63.4388304  52.2298002  31.2385249  62.8247547  52.9147530  32.7772689
  63.3202410  50.8049774  32.8507280  62.6312780  50.6018448  33.6705852
  63.3059883  49.5375252  31.9978189  63.8027716  48.6934805  32.4762511
  62.2765112  49.2478037  31.7872572  63.9349699  49.6701384  31.1175346
  64.7030258  51.1184597  33.4912491  65.4810190  51.3749218  32.7721810
  64.6392870  51.8810558  34.2674494  65.0572634  50.2083445  33.9752913
  60.4219437  51.2003565  32.5519705  60.0220633  50.1241446  32.2743583
  59.8453999  51.9029903  33.4776807  60.3624487  52.7547693  33.6427379
  58.7240553  51.4759111  34.3396401  59.0243769  50.6238508  34.9494743
  58.3894157  52.5760555  35.3889871  58.1244087  53.4856081  34.8499179
  57.6303005  52.3065901  36.1233163  59.3383074  52.7225399  35.9049726
  57.4635983  51.1018276  33.5416913  56.6896486  50.1895714  33.8531184
  57.2631836  51.9130325  32.5050521  57.8360128  52.7431345  32.4511790
  56.0358000  51.7817068  31.5910053  55.2035522  51.5605354  32.2592473
  55.6543064  53.1217575  30.8184481  55.3905821  53.9448738  31.4825487
  56.5505838  53.3529329  30.2428269  54.5877314  52.8964329  29.7928238
  54.7069788  52.5473547  28.4999800  55.6094503  52.4448299  27.9156494
  53.4331560  52.4718142  27.9605293  53.2332850  52.1376228  27.0286131
  52.5167656  52.4881697  28.9578938  51.1556387  52.1368694  29.0170169
  50.6354856  51.6862249  28.1846952  50.3962278  52.4054337  30.1215386
  49.3291521  52.2744417  30.0185919  51.0456753  52.8644323  31.3213873
  50.4777861  53.0614519  32.2186542  52.4490023  52.9894257  31.3435006
  53.0256748  53.2431936  32.2206855  53.2060671  52.8418922  30.1480722
  56.1737585  50.5174923  30.7101989  55.2159119  49.6898746  30.5897641
  57.3661900  50.2807522  30.1458955  58.0894423  50.9591055  30.3378558
  57.7698851  49.0326738  29.4956636  57.0877743  48.8880730  28.6578608
  59.1945028  49.3123007  28.9424300  59.1574812  50.0229406  28.1167626
  59.8151731  49.7929668  29.6986222  60.0224400  48.0272198  28.6239243
  60.3705168  47.5333309  29.5311284  59.5365000  47.2575665  28.0242610
  61.3717031  48.3151770  27.8868008  61.7715120  49.4307470  27.5496554
  62.1543407  47.3257017  27.6210928  63.0036783  47.5402355  27.1184015
  61.8694401  46.3572073  27.6518345  57.8136921  47.7944136  30.4159164
  57.2617006  46.7494535  30.1278090  58.3759022  47.9179335  31.6500998
  58.7499571  48.8123608  31.9332695  58.2683706  46.8834591  32.6501751
  58.7877131  45.9400845  32.4815726  58.8792849  47.3827076  34.0004230
  58.6355877  48.4450388  33.9870453  58.4596109  46.7790031  35.2639794
  58.5343027  45.7111359  35.0586057  59.1268444  46.9212961  36.1140656
  57.4608898  47.0238686  35.6255198  60.4321909  47.2185707  34.1273284
  60.8390617  46.2902069  33.7264633  60.9147882  47.9378843  33.4656692
  60.8569860  47.4329853  35.1079774  56.7781830  46.4360285  32.8606391
  56.4130926  45.2627754  32.7419972  55.9160280  47.4043846  33.0696750
  56.2180138  48.3510303  33.2507133  54.4029951  47.1929979  33.2209229
  54.3048573  46.5160608  34.0695858  53.8942528  48.5697556  33.6426640
  54.3088484  48.7490368  34.6346664  54.2358303  49.3770218  32.9947782
  52.3966932  48.5549545  33.8413763  51.8268013  48.2278299  32.9717135
  52.1924496  47.8842592  34.6759725  51.8280363  49.8951340  34.3428588
  52.0515203  50.0115919  35.4033256  52.2475100  50.7261181  33.7757540
  50.2803946  49.8368979  34.2194319  50.0100565  49.9807835  33.1733370
  49.8334503  48.9236879  34.6123481  49.6022224  50.9035873  34.9212766
  50.0162745  51.7985678  34.7029352  48.6355543  50.9327507  34.6300673
  49.5520830  50.7797432  35.9224057  53.6924791  46.5460634  32.0354247
  52.8201008  45.7056856  32.1161199  54.0599060  46.9811058  30.7685184
  54.4929314  47.8913498  30.7049131  53.6041355  46.3583040  29.5424175
  52.5199556  46.4199638  29.4483662  54.2294121  47.0708370  28.2911825
  54.0837431  48.1434441  28.4192419  55.2886820  46.8184614  28.2427049
  53.5737991  46.4500618  26.7298913  52.4781847  47.2146034  26.7297435
  53.8617468  44.8870277  29.5192814  52.9582548  44.0330839  29.3713665
  55.1473093  44.6055889  29.6665335  55.7322311  45.4184818  29.7975540
  55.7429457  43.2101870  29.6338296  55.3087091  42.6495647  28.8060379
  57.2708702  43.2645655  29.4849777  57.6780701  44.0273714  30.1486158
  57.7383995  42.3129511  29.7378659  57.7075195  43.5589361  28.0509877
  58.7790155  43.7427664  28.1297374  57.5940800  42.2762728  27.2455788
  58.0548382  42.3703623  26.2622428  58.0217743  41.3966751  27.7267146
  56.5356493  42.0806551  27.0736766  57.0353127  44.6594763  27.3293352
  55.9851027  44.5199442  27.0730448  57.1689892  45.5464602  27.9486036
  57.6506948  44.8811626  26.4574051  55.2373457  42.3715925  30.8957911
  54.9286270  41.1709261  30.7903194  55.0932217  43.0050468  32.0106411
  55.3464556  43.9780617  32.1066403  54.5396948  42.2903156  33.2327628
  54.9936056  41.3008881  33.2884836  54.9711037  42.9725122  34.5523334
  54.6426153  44.0110016  34.5939875  54.3605757  42.4541187  35.2916765
  56.4529848  42.8364515  34.9320579  57.0515537  43.2353306  34.1130829
  56.7152023  43.6468744  36.2285781  57.7323961  43.4422684  36.5625882
  56.6001892  44.6938515  35.9480309  55.9611511  43.3855820  36.9710302
  56.8990374  41.4582062  35.2075744  56.2444973  41.0150051  35.9580755
  56.8238783  40.9238195  34.2605281  57.9046392  41.1983967  35.5382752
  53.0426264  41.9663191  33.1107616  52.6417589  40.8799267  33.5727358
  52.2102404  42.8258514  32.5347447  52.5870228  43.7403107  32.3300481
  50.7747269  42.5311041  32.2175932  50.2896452  42.0278358  33.0539680
  49.9026299  43.7656260  31.9421601  50.5740929  44.4306374  31.3990188
  49.0211678  43.4986639  31.3591909  49.3190861  44.3588924  33.2354450
  48.4990644  43.7020779  33.5257339  49.9591970  44.1211796  34.0850592
  48.8986349  45.8602619  33.4015918  48.4699917  45.9395456  34.4006300
  49.8442554  46.3965893  33.3224893  47.9275131  46.2709665  32.2841358
  48.4020185  46.1842251  31.3066792  47.0585632  45.6129837  32.2749805
  47.5280285  47.6809263  32.5537801  47.0310926  47.7091694  33.4326172
  48.3636522  48.2481098  32.5655556  46.8960762  48.0954409  31.8837667
  50.7404232  41.4063025  31.1345840  49.9966526  40.4424238  31.2855506
  51.6209126  41.4799643  30.0914145  52.1638012  42.3256207  29.9902201
  51.7626047  40.4324198  29.0685916  50.7686901  40.3319359  28.6325526
  52.6536989  40.9913445  27.9811454  52.0133305  41.7031717  27.4602532
  53.4571171  41.4862442  28.5267639  53.1088638  40.0785494  26.8279243
  52.1317863  39.3909001  26.0378695  51.0594511  39.4386673  26.1571360
  52.6512146  38.7158298  24.9002409  51.9230890  38.3616400  24.1855407
  54.0079165  38.6224580  24.6117663  54.5301628  38.0059862  23.5153437
  55.4844618  38.0705953  23.4332442  54.9200296  39.2244554  25.4371333
  55.9777689  39.1706419  25.2257299  54.5059156  39.8996353  26.5858221
  55.2967024  40.3692102  27.1519995  52.1390867  38.9609599  29.5651841
  51.6502523  37.8942966  29.0718031  52.9647160  38.8822627  30.6643867
  53.1831264  39.7503090  31.1322498  53.3041906  37.5781345  31.3096118
  53.8158274  36.9383574  30.5905700  54.3205214  37.8638744  32.4294567
  55.2686214  38.1257939  31.9597745  54.0799475  38.6694717  33.1231689
  54.4209814  36.6201973  33.2185698  54.7582579  35.9243608  32.6496577
  52.0089436  36.8696451  31.8357420  51.0938406  37.5139666  32.2580123
  51.9381428  35.5554152  31.9830942  52.7295113  35.0023341  31.6865301
  50.8327198  34.8662448  32.6949239  50.1239395  35.6323767  33.0092096
  50.1723194  33.7961459  31.8270493  49.5324373  33.2413030  32.5131965
  49.4159698  34.4347167  30.6867194  49.1012669  33.6649942  29.9820232
  48.5965538  34.9699402  31.1665034  50.0254726  35.1960850  30.1999664
  51.1004496  32.9885268  31.2765908  50.6031227  32.5365472  30.5910349
  51.2042284  34.2451811  34.0750122  50.3560305  33.5682058  34.6872163
  52.4514341  34.4703007  34.5165706  53.1577253  34.8201323  33.8850045
  52.8829145  34.1218996  35.8998203  52.0325232  33.9107585  36.5481639
  53.9110899  32.9811001  35.8574605  53.9627075  32.6521826  36.8953681
  53.4927940  31.7920160  35.0538754  52.8042412  31.1769295  35.6332421
  53.1164217  31.9908738  34.0504313  54.3766737  31.1876774  34.8498464
  55.1987410  33.3754468  35.3481007  55.4996443  33.0008316  34.5170045
  53.4440851  35.2608895  36.7579627  53.4921217  35.0284195  38.0014420
  53.5205364  36.5150452  36.3010812  53.4488535  36.6281509  35.2999973
  53.4207201  37.7194285  37.1792889  54.2035246  37.7878571  37.9347014
  53.5261011  38.9833260  36.3461995  54.5455837  38.9922595  35.9606171
  52.7708435  38.9602065  35.5606103  53.2861233  40.3183126  37.0626950
  52.2179222  41.1233854  36.8721342  51.4598703  40.8942413  36.1377978
  52.3335981  42.2654486  37.6420045  51.6764021  43.0096483  37.4566293
  53.5206509  42.3064995  38.3727050  53.9736176  43.2439566  39.3329668
  53.4321022  44.1669369  39.4788122  55.2041578  42.9099703  39.9362946
  55.5832338  43.6209345  40.6554937  55.8235502  41.7603779  39.6516275
  56.8305349  41.6215849  40.0164747  55.3298807  40.7953596  38.7807131
  55.8799648  39.8942637  38.5530210  54.1170359  41.0778046  38.0560708
  52.1997547  37.7270770  38.0591249  51.1784410  37.1029067  37.6539159
  52.3100185  38.3903003  39.2285562  53.2230711  38.7833381  39.4073296
  51.2579203  38.4704518  40.2284431  50.3092861  38.4249783  39.6935296
  51.1629248  37.2113180  41.1065340  51.1172342  36.3212490  40.4790068
  52.0284796  37.2174025  41.7690229  49.9240589  37.2047210  42.0093298
  50.1147318  37.9380703  42.7928782  48.9858150  37.4167466  41.4966488
  49.8164082  35.7645631  42.5239563  49.2219782  35.2475452  41.7706680
  50.7526255  35.2067280  42.5035000  49.2741489  35.5576587  43.9796925
  49.1826582  34.5350218  44.3456793  49.8661900  36.1272240  44.6960545
  47.8963232  36.0926104  43.9939260  47.5211382  36.1669278  44.9287081
  47.9177904  37.0859766  43.8126421  47.2254992  35.6910205  43.3545351
  51.3434219  39.7664905  41.0318661  52.3001051  39.9650335  41.8241978
  50.4659605  40.7736683  40.7668781  49.4592237  40.8406591  39.7774458
  48.7581587  40.0082159  39.8378968  49.8468065  40.9283113  38.7624598
  48.7229633  42.1855402  39.9395323  47.9620934  42.0120907  40.7005119
  48.3030510  42.5255489  38.9928746  49.7916889  43.0578613  40.5441761
  49.3176079  43.9287806  40.9967756  50.4281092  43.4781218  39.7654271
  50.5777597  42.1230268  41.4869261  51.6201019  42.4379158  41.5367270
  49.8647594  42.0505857  42.8782082  48.9514351  41.2688637  43.0058002
  50.1030207  43.0550098  43.7528753  50.8116913  43.6866331  43.4080124
  49.3109417  43.4027004  44.9331760  49.3327761  42.4457455  45.4545879
  49.9812317  44.6395588  45.6394053  51.0269451  44.4406509  45.8739662
  49.9474573  45.5453777  45.0340462  49.3019485  45.0011635  47.0254850
  48.2210732  45.0681591  46.9017172  49.5365858  43.9953136  48.0997944
  49.2674971  43.0139494  47.7091455  50.5810738  43.7630701  48.3076668
  49.0463257  44.4030666  48.9838123  49.7085619  46.4216232  47.4816179
  49.5768452  47.1781492  46.7080307  49.0153360  46.7508554  48.2556677
  50.7634020  46.5008020  47.7445650  47.9096699  43.8622332  44.7034359
  47.5927687  44.6601486  43.8252926  46.9322968  43.3369017  45.4481840
  47.0566845  42.6479626  46.1761856  45.5315208  43.6505747  45.2447081
  45.2660036  43.3920670  44.2196369  44.7599459  42.5882912  46.0489941
  45.1659203  41.6699839  45.6247377  44.8474789  42.6265669  47.1348000
  43.2260942  42.7357292  45.8218336  42.6157904  43.5217333  46.4229441
  42.6039839  42.0441532  44.9242020  41.6095352  42.2132254  44.8733711
  43.1007719  41.3561487  44.3765211  45.2155352  45.1630735  45.6189346
  45.7552433  45.6698513  46.5951633  44.3314457  45.8030558  44.8409605
  43.7098742  45.4154110  43.5982609  43.3761501  44.3782473  43.6302805
  44.4044209  45.5193710  42.7646542  42.5762844  46.3730669  43.3488226
  41.7617798  46.2637568  44.0648746  42.2741604  46.2957764  42.3043871
  43.3233309  47.6642275  43.6588669  42.7195692  48.5508680  43.8523674
  44.0250492  47.7839518  42.8334236  44.0913200  47.2616482  44.9650812
  45.0744200  47.7300453  44.9178696  43.3490181  47.6230621  46.2619781
  43.3621740  48.7967157  46.6150284  42.6313639  46.6950130  46.8481493
  42.5205612  45.7775259  46.4406681  41.8141079  46.9299459  48.1019592
  41.1643553  47.8037930  48.0538177  40.9082460  45.6814194  48.1729794
  40.6031275  45.3073359  47.1957016  41.3881302  44.8523855  48.6930943
  39.5572591  45.9264088  48.8986158  38.5020971  45.5853319  48.3486414
  39.4983101  46.6710138  49.9458361  38.6027479  46.7494059  50.4061937
  40.3267050  47.0438957  50.3872204  42.5878096  47.0869446  49.4164038
  42.0314217  47.6292181  50.3585148  43.9073610  46.7974901  49.3901634
  44.2775106  46.2632322  48.6170816  44.7764921  46.8905640  50.4777813
  44.4903088  46.0666656  51.1315346  46.1109781  46.4871168  49.8847437
  46.0251236  45.5185127  49.3922663  46.4991426  47.1855879  49.1434145
  47.0551538  46.4357901  50.8500719  47.2259283  45.5449009  51.1643171
  44.9554586  48.2148504  51.2843370  45.2493954  49.2508602  50.7234192
  45.0562286  48.0757332  52.6339340  44.6593237  47.2060537  52.9598522
  45.2363968  49.1035509  53.7001276  44.3447351  49.6983337  53.8983154
  45.4339933  48.3547831  54.9823952  45.2118683  49.0542936  55.7882786
  44.5669460  47.7337408  55.2074194  46.6984797  47.5777340  55.3543663
  46.8077230  46.2397385  55.1343870  45.9931946  45.6603098  54.7254801
  48.0163574  45.8572340  55.7175684  48.3617020  44.9113894  55.7964230
  48.6867619  46.8832874  56.3594198  49.8646593  46.9313002  57.0754004
  50.3990650  46.0052347  57.2277451  50.3301191  48.1590366  57.5775242
  51.2512636  48.1285000  58.1405210  49.5614910  49.3531370  57.2649622
  49.9867439  50.3068733  57.5405645  48.3885336  49.2428827  56.4851475
  47.8111362  50.1269054  56.2581635  47.9301548  47.9947853  55.9690762
  46.3348007  50.1226521  53.4382057  46.1787128  51.2839746  53.8345003
  47.3816633  49.6973705  52.7363873  47.4304724  48.7317753  52.4442387
  48.4859991  50.5179882  52.2663736  48.8987303  50.9775496  53.1644583
  49.5140266  49.5576477  51.5854359  49.0508461  49.1029310  50.7097673
  50.3862715  50.1806307  51.3874865  49.9752712  48.3845139  52.4240398
  49.1828012  47.8350687  52.9321766  50.6993437  47.4107218  51.5084982
  49.9893713  47.0812941  50.7498693  51.5089178  47.8549004  50.9293652
  51.1026049  46.5306282  52.0094156  51.0024500  48.8686037  53.4701061
  50.4274273  49.5156288  54.1325331  51.2141514  47.9734802  54.0549469
  51.9009924  49.2905569  53.0198956  48.0621195  51.6545677  51.3976097
  48.4864140  52.8018999  51.6166830  47.2203732  51.4064980  50.3604078
  46.7135620  50.5329609  50.3740597  46.7966366  52.3322535  49.3408728
  47.6628590  52.8939152  48.9911699  46.0244370  51.7731142  48.1848907
  45.2552462  51.0870123  48.5394382  45.5992317  52.6289797  47.6606750
  46.7883539  50.9316730  47.1665001  47.4476910  51.5526724  46.0915947
  47.4634790  52.6277685  45.9900141  47.9514694  50.7776690  45.0557566
  48.1817532  51.2605143  44.1175508  47.9353666  49.3618727  45.0767756
  48.3660460  48.5663080  44.0947533  49.1607237  48.0871964  44.3408012
  47.3770189  48.7275934  46.1969233  47.3776150  47.6488018  46.2480021
  46.8015575  49.5286512  47.2613716  46.1867571  49.0326452  47.9978466
  45.8970022  53.3552408  50.0714254  46.2581921  54.4936180  50.1168299
  44.8786354  52.9360676  50.8695364  44.6443701  51.9597769  50.9794569
  44.1070795  53.8459396  51.7431068  43.5925627  54.6187210  51.1719847
  43.0921841  52.9571962  52.4614716  43.6915207  52.3820305  53.1672192
  42.5158882  53.6643791  53.0580235  42.2395039  52.1154690  51.5234613
  41.1434269  52.6027441  50.8141088  40.7841778  51.5976572  50.0487232
  39.8896742  51.6312361  49.4444513  41.5240526  50.5049038  50.2474403
  41.3471937  49.5659733  49.9199772  42.4315548  50.8405972  51.2272215
  43.1485176  50.1992559  51.7181921  44.9777079  54.6861029  52.6879597
  44.7887039  55.9152174  52.8433084  45.9841967  54.0101004  53.3805132
  45.9947157  53.0248213  53.1586552  46.9830561  54.6210384  54.2735195
  46.4490557  55.2433968  54.9915838  47.8849411  53.5523510  54.8586035
  47.2512007  52.8217506  55.3612995  48.4789324  53.0528545  54.0932417
  48.5370779  54.0156412  55.5989933  47.9556513  55.5850124  53.5796976
  48.6487293  56.3417816  54.2532492  48.0837154  55.5279493  52.2445726
  47.7413464  54.7085857  51.7633963  48.6841011  56.4792633  51.3188839
  48.3240986  56.2017012  50.3281975  48.3222008  57.9169226  51.6524792
  48.1720686  58.1240940  52.7120256  49.0767622  58.6343527  51.3299465
  46.9655371  58.3080530  50.9784508  47.0650053  58.0826235  49.9166679
  46.2167263  57.6769447  51.4570951  46.5969181  59.7805595  51.2174368
  46.5942001  59.8835611  52.3025560  47.3751831  60.4170704  50.7964134
  45.1477480  60.0565290  50.8020258  45.0442791  59.7373915  49.7649384
  44.4824505  59.4780111  51.4429665  44.9093199  61.5135241  50.8804750
  45.3425026  62.1244812  50.2028418  43.9151335  61.6628408  50.7835245
  45.3121567  61.9265127  51.7094898  50.1604939  56.3205004  51.1989546
  50.7846165  57.0582867  50.4938602  50.7529593  55.2551794  51.7647552
  50.2055836  54.5788240  52.2776127  52.1569586  54.7883606  51.5846157
  52.7796412  55.6406069  51.8567324  52.2976017  53.5276890  52.5788450
  51.6134787  52.7702761  52.1962214  53.2912350  53.0804586  52.5509834
  51.9226980  53.8491917  54.0506077  50.9699488  54.3626785  54.1798162
  51.7232704  52.5856972  54.9029970  51.3699055  53.0347204  55.8312273
  50.9418249  51.9291544  54.5203733  52.6591063  52.1221018  55.2150726
  53.1070280  54.7048044  54.6142387  53.0681896  55.0023079  55.6621313
  53.9353895  53.9992714  54.5498371  53.3633518  55.5885315  54.0299225
  52.4568939  54.4252968  50.1496363  53.6120653  54.2375660  49.8829794
  51.5214777  54.0425825  49.3110037  50.5872679  54.0575409  49.6945810
  51.7370558  53.6972952  47.8708792  52.7971172  53.6721277  47.6184082
  51.2280416  52.2423601  47.6100731  50.1476717  52.3237419  47.4905586
  51.7190361  51.8985987  46.6996622  51.6020298  51.1790848  48.6831474
  51.2919521  51.4334440  49.6966791  50.8902884  49.9285460  48.2241011
  51.2338400  49.1466284  48.9013577  49.8099709  49.9888277  48.3559656
  50.9918356  49.7690535  47.1506262  53.0952168  50.9369087  48.5663271
  53.4410381  50.0743103  49.1359186  53.3505774  50.8222675  47.5128794
  53.5989380  51.8364668  48.9201069  50.8869219  54.6766281  47.0971680
  49.7126818  54.8958492  47.4682760  51.3826847  55.2011442  46.0012674
  52.2749519  54.8347569  45.7017231  50.5580473  56.0711432  45.0698853
  49.5375919  56.2685823  45.3982115  51.1441183  57.5667000  45.0453186
  51.2741327  57.9964304  46.0385609  52.1024799  57.5149727  44.5286322
  50.3006697  58.5476971  44.1679907  50.8172607  59.6537066  43.9703465
  49.1732073  58.1554127  43.7242651  50.6432009  55.6949997  43.5493469
  51.6425276  55.8562899  42.8089714  49.4659376  55.2192450  43.0325603
  48.2522011  55.0111723  43.7762403  47.8090286  55.8503532  44.3124104
  48.4915972  54.1798687  44.4393587  47.2080851  54.4250154  42.8202391
  46.7722464  55.1558638  42.1390581  46.4256859  53.8450766  43.3097458
  48.0664873  53.5848570  41.9438934  47.6007986  53.3671045  40.9827375
  48.3028269  52.7184439  42.5616074  49.2665529  54.5702362  41.7542982
  50.1654673  53.9812899  41.5720987  49.0969610  55.5863523  40.5930471
  48.5635948  55.2319336  39.5258856  49.4979668  56.8496180  40.7711935
  49.9069834  57.0650864  41.6691828  49.3322134  57.9827452  39.8210073
  48.3627701  57.8646040  39.3369293  49.1711664  59.2448568  40.6162882
  50.1134205  59.3776560  41.1479092  48.9588070  60.0262022  39.8865604
  48.1039190  59.1988802  41.5479183  48.3813572  58.6769342  42.3043585
  50.4278564  58.0711365  38.7602711  50.3923512  58.9298153  37.9151464
  51.3044024  57.1144915  38.7398195  51.2884045  56.4602613  39.5091271
  52.5266171  57.1080875  37.8620911  52.3760843  57.6253748  36.9145393
  53.7487030  57.8161478  38.5395670  53.5604095  58.8749886  38.7170744
  53.9758015  57.2425747  39.9610806  54.6460915  57.8895378  40.5269861
  53.0522490  57.2406149  40.5400038  54.2953062  56.2004566  39.9649715
  54.9389553  57.7202988  37.9002619  55.2597523  58.6251068  37.8969359
  52.9244184  55.6685352  37.6454377  52.7016973  54.7885704  38.5247159
  53.5780573  55.3677940  36.5181208  53.7792921  56.2606812  35.3437638
  54.5617771  56.9882345  35.5593729  52.8024292  56.6011667  35.0003862
  54.3800545  55.3871489  34.2327952  55.0777578  55.9763479  33.6376858
  53.6330652  54.9327803  33.5819030  55.1151371  54.3328714  35.0116253
  56.1204958  54.7055340  35.2077699  55.0890350  53.3904409  34.4645786
  54.2803001  54.1707420  36.2729859  53.5384464  53.4385443  35.9541655
  55.1888657  53.6115503  37.3300123  55.2193785  52.4061966  37.5697970
  55.9615564  54.4838715  38.0373597  55.9721899  55.4607868  37.7811670
  57.0553446  53.9612961  38.8405848  57.5421858  53.1505394  38.2985854
  58.1705236  55.0219297  39.2923975  58.8401031  54.4924879  39.9702263
  58.8781357  55.5203104  38.0459189  59.3870783  54.7637272  37.4487042
  58.1614542  56.0385942  37.4088526  59.5999098  56.2878132  38.3253503
  57.4843788  56.1654139  40.0748253  57.0801640  56.8764830  39.3543458
  56.6951895  55.8527851  40.7586002  58.1919765  56.7652750  40.6471586
  56.6584349  53.0881643  40.0594950  57.4642467  52.3538256  40.5508518
  55.3687239  53.3503914  40.5017519  54.9548531  54.1531897  40.0497246
  54.7598934  52.5306368  41.5401793  54.9659443  53.0853415  42.4555731
  53.2658720  52.5430489  41.1596489  52.9347706  53.5815239  41.1541319
  53.1002569  52.2699356  40.1174974  52.3418856  51.8163776  42.0389843
  51.9820976  52.1343136  43.3060122  51.0962439  51.1578894  43.6650610
  50.5036259  51.0631037  44.5629597  50.9772873  50.1870346  42.7433491
  50.4464149  49.3400288  42.8877640  51.8233776  50.5564308  41.7256975
  52.0203495  50.0740242  40.7797146  55.1028442  50.9946585  41.5309334
  55.4319239  50.3977156  42.5294876  55.0659180  50.3758383  40.3476048
  54.7634745  50.9395981  39.5660686  55.4221106  48.9948082  40.2278423
  54.7480917  48.4696722  40.9046316  55.0066423  48.4632349  38.8027477
  54.0601254  48.9763069  38.6325550  56.0067129  48.9034319  37.7193642
  56.2896395  49.9518871  37.8131795  56.9228601  48.3219481  37.8225708
  55.5873156  48.8097906  36.7176461  54.8137569  46.9272518  38.7435532
  55.8322382  46.5401220  38.7739587  54.2127943  46.6885471  39.6210313
  54.0027094  46.5990686  37.4580359  53.8456011  45.5215311  37.4097371
  53.0157661  47.0614815  37.4432182  54.5831871  46.8531942  36.5711498
  56.8435001  48.6138010  40.6732464  57.0793772  47.6148987  41.3657808
  57.7714252  49.5271778  40.4510927  57.6011086  50.4139996  39.9987268
  59.0877724  49.4078875  41.0458755  59.4834280  48.4361696  40.7503748
  60.0642872  50.4597044  40.4826546  59.7606564  51.4225578  40.8935356
  61.0615635  50.2385283  40.8629465  60.1599836  50.5509138  38.8796043
  59.2045116  50.9961605  38.6022401  61.2624216  51.5254593  38.6227727
  61.2374496  51.6634655  37.5418282  60.9584284  52.5037670  38.9950609
  62.2145844  51.1507750  38.9984107  60.4596710  49.2341280  38.1066012
  60.4970312  49.4601965  37.0409632  61.4772034  48.9516354  38.3766413
  59.6749115  48.4955835  38.2703137  59.1706324  49.3542910  42.5493097
  59.8023844  48.3560562  43.0907106  58.4537983  50.2102518  43.2480335
  57.8226376  50.8757639  42.8251553  58.3799601  50.0761127  44.7311306
  59.3922806  49.8578262  45.0712156  57.9958105  51.4389610  45.2794695
  58.2787895  52.3355436  44.7279596  56.9264936  51.5960884  45.4208136
  58.8093853  51.6813707  46.6239214  58.5989094  50.9018326  47.3561192
  59.8826933  51.6638565  46.4346981  58.4273863  53.0868626  47.2356558
  59.0115166  53.8230228  46.6834164  57.3492765  53.1568909  47.0911741
  58.8944578  53.1155396  48.6316633  59.8864174  53.2252455  48.7868309
  58.0763197  52.9742527  49.6951532  56.7729664  52.8475142  49.5936966
  56.2973070  53.0867147  48.7354231  56.2883806  52.8338861  50.4797506
  58.6026478  52.8238821  50.8427429  59.5826244  52.5972843  50.9344149
  57.9718828  52.6770210  51.6177654  57.5737286  48.9317417  45.2905941
  57.8498602  48.3602381  46.3051081  56.5224409  48.5508108  44.5443106
  56.2492561  49.1703415  43.7948799  55.7243443  47.3377323  44.8964405
  55.3875208  47.4496460  45.9270334  54.4571018  47.1194506  44.0529537
  54.7716904  47.2033739  43.0127144  54.1015911  46.1230659  44.3154955
  53.2826233  48.0472517  44.3537045  53.2605886  48.1035233  45.4420280
  53.4464741  49.0887117  44.0769100  52.0163202  47.4845552  43.6690426
  50.8511305  47.7464342  44.1288471  52.1669817  46.8016052  42.5953865
  56.5775681  46.0665512  44.8924303  56.6709042  45.2315855  45.8152437
  57.2971678  45.8990574  43.7452412  57.1296453  46.5330601  42.9770756
  58.4492636  44.9310350  43.6723042  58.0181503  43.9327669  43.7478495
  59.1543865  44.9332094  42.2874212  59.5280218  45.9431124  42.1183157
  60.3716564  44.0233326  42.2802353  60.8879662  43.9499426  41.3230801
  61.0779858  44.4327402  43.0024433  59.9952698  43.0434942  42.5740910
  58.2048464  44.5469141  41.1681700  58.0549240  43.4678459  41.1330223
  57.3012829  45.1171875  41.3837051  58.6353493  44.9682903  39.7362804
  57.8922319  44.6520329  39.0042567  58.7336779  46.0523510  39.6792817
  59.6213770  44.5452738  39.5441723  59.3689299  45.1338673  44.8398733
  59.5411539  44.1361904  45.6365108  59.9822569  46.3163900  44.9654150
  59.7812748  47.0022154  44.2517233  61.0416031  46.6375542  45.9702969
  61.9153309  46.0355330  45.7207680  61.3504934  47.6681280  45.7953644
  60.6432486  46.3244057  47.4634123  61.4161730  45.8039665  48.2444239
  59.4352961  46.6067457  47.8833580  58.8224077  46.9799519  47.1725941
  58.8325930  46.2665939  49.2125416  59.6069002  46.3509989  49.9750566
  57.7577877  47.2792292  49.4901419  57.0776653  47.1996355  48.6420822
  57.2533607  46.9958448  50.4139090  58.1358099  48.7558556  49.7287989
  58.7475157  49.1224194  48.9044428  56.8401957  49.5881367  49.7574091
  56.0748863  49.2569304  50.4593420  57.1093082  50.5507231  50.1922798
  56.3976288  49.6056461  48.7614536  58.8938761  48.8079691  51.0539722
  59.2234850  49.8372746  51.1953354  58.1579828  48.6461639  51.8416214
  59.7316360  48.1196451  50.9423065  58.3108330  44.7756815  49.2571259
  57.8567886  44.3033314  50.3363609  58.3415794  43.9619875  48.1501913
  58.5573053  44.3556786  47.2454453  57.9269981  42.4983072  48.1012535
  58.3524227  42.1512508  47.1596241  58.6717796  41.5791273  49.0642118
  58.6174393  41.9394636  50.0914907  58.2024479  40.5973864  49.0008974
  60.1665688  41.6171265  48.7444115  60.4340601  41.8719816  47.7189350
  60.6897259  42.4429274  49.2265558  60.7659197  40.2429867  49.1582060
  60.6959581  40.2566004  50.2458763  60.1774549  39.4298935  48.7331343
  62.2030735  40.1376581  48.7329483  62.6861334  40.9748507  48.4399223
  63.0226946  39.1238689  48.8944817  62.6698828  38.0238748  49.4199276
  61.8389654  38.0302763  49.9940681  63.3185816  37.2497392  49.4179678
  64.2415857  39.2327595  48.4665394  64.4577837  39.9619770  47.8020048
  64.8959494  38.4702754  48.5691261  56.4363432  42.2361422  47.9072666
  55.8947897  41.1862564  48.3067703  55.6784821  43.2741928  47.4996758
  56.1471462  44.1099596  47.1803856  54.2333174  43.3658266  47.4641752
  53.7685013  42.8830099  48.3237886  53.8479185  44.8764086  47.5347853
  54.2382956  45.4049540  46.6651058  52.7756977  45.0040388  47.3859406
  54.3441677  45.6043243  48.7879753  55.4228592  45.4633760  48.8562250
  54.0915394  47.1348429  48.7816143  54.5445347  47.5010967  47.8603363
  53.0134869  47.2957993  48.7846088  54.4821644  47.6516294  49.6582222
  53.6107016  45.1469517  50.0539875  53.9379835  44.1615534  50.3856134
  53.8527775  45.8381081  50.8613300  52.5316858  45.1424551  49.8997068
  53.5580587  42.7819347  46.2225294  52.3900700  42.3662138  46.3869762
  54.3740082  42.6331043  45.1956177  55.1468182  43.2706690  45.3235817
  54.0628958  42.1011162  43.8816786  53.1475878  41.5185881  43.9864302
  53.7346315  43.2473803  42.8985596  54.5402288  43.9746952  42.7979708
  53.5677385  42.8753042  41.8877125  52.7221489  44.0628386  43.3669853
  52.8525352  44.9695206  43.0797005  55.2446842  41.2887049  43.3900976
  56.3676596  41.7956781  43.4794474  54.9318027  40.0848913  42.8379297
  54.0291929  39.9038529  42.4224472  55.9291649  39.0455174  42.4499130
  56.8052340  39.6300459  42.1689415  56.3026571  38.2314634  43.7136793
  57.1405697  37.5557184  43.5422802  56.6188526  38.9182234  44.4988441
  55.1112461  37.4270582  44.2037773  54.0709114  37.8965330  44.9978352
  53.0809689  37.0055079  44.9798059  52.1344090  37.0939279  45.4922533
  53.4741545  35.9323502  44.2840815  52.8138304  35.2255964  43.9932632
  54.7384787  36.1668372  43.7963820  55.2879143  35.5156446  43.1326962
  55.6775999  38.1042123  41.2300062  54.5628548  38.0792665  40.7343626
  56.6536236  37.2465372  40.9264135  57.4589300  37.1970129  41.5339708
  56.5562868  36.2117338  39.8981762  55.7107592  36.5033078  39.2751455
  57.8232288  36.2971473  39.1347218  58.7571621  36.2575483  39.6953487
  57.8931141  37.2464561  38.6036563  57.8874063  34.9571276  37.9518676
  56.3020658  34.8143625  40.5290985  57.1771145  34.2477965  41.2044048
  55.1285028  34.2633414  40.2018833  54.5633745  34.7726822  39.5375776
  54.6647501  32.9804826  40.7898569  54.9204969  32.9325008  41.8483448
  53.1868076  32.8503537  40.8145618  52.9643631  31.9303846  41.3551855
  52.7878809  33.6153650  41.4806890  52.6106930  32.9109001  39.4811702
  52.9991579  33.6518526  39.0103388  55.2893209  31.7701864  40.0826263
  55.1905441  30.6025410  40.5625629  56.0214424  31.9395900  38.9802575
  56.2503624  32.8993320  38.7644148  56.8478870  30.8772779  38.4566951
  56.2927198  29.9404716  38.5045576  57.0558167  31.2118578  36.9937158
  56.0760307  31.1218238  36.5246677  57.3901224  32.2476006  36.9338989
  58.0159330  30.3185725  36.2461090  57.8052092  28.9814448  35.8842826
  58.8944340  28.5380507  35.2108455  59.0215349  27.5305080  34.8432803
  59.6514320  29.6125579  34.9881077  60.5867147  29.5325327  34.6153545
  59.1512966  30.7504201  35.6428075  59.6607971  31.6886640  35.8056092
  58.1827593  30.7997298  39.2107558  58.7204313  29.7074723  39.4070816
  58.7041998  31.8523550  39.8109365  58.2248354  32.7402925  39.7676063
  59.9588108  31.8725610  40.5789518  60.5204105  31.0108638  40.2181339
  60.5603361  33.2335043  40.2142668  61.2437725  33.6741996  40.9400797
  59.7274542  33.9196491  40.0606060  61.4176846  33.2329249  38.6195445
  59.7789478  31.5798545  42.0996523  60.2100945  30.5221510  42.5613260
  58.9470387  32.3630071  42.7699423  58.4425497  33.0381894  42.2134161
  58.7708473  32.3013592  44.2841291  58.9105940  31.2656093  44.5936298
  59.9929094  33.0128074  45.0228548  59.6083069  33.3730602  45.9770060
  61.2394714  32.1139932  45.1411581  60.9269381  31.1215639  45.4659700
  61.6932440  32.0016527  44.1564894  61.9572687  32.3813963  45.9166384
  60.5437279  34.2246699  44.2698479  60.8522987  33.9886832  43.2514143
  59.7503090  34.9703002  44.3210602  61.4661837  34.6869588  44.6212339
  57.4075127  32.8989911  44.7004604  57.3149633  34.0498185  45.1661873
  56.3459110  32.0461202  44.6790504  56.3623142  30.6611824  44.1841841
  57.2102118  30.0804281  44.5473576  56.4012909  30.5799842  43.0979109
  55.0455236  30.0595021  44.6740627  55.2548981  29.6211290  45.6498146
  54.8006296  29.2230225  44.0195131  54.1429567  31.2390637  44.6784163
  53.2400417  31.0856438  45.2694416  53.8969183  31.4762926  43.6433887
  54.9979401  32.3872232  45.1049566  54.6942997  33.2762623  44.5522261
  54.9634552  32.7756405  46.5910196  54.1097593  33.6673903  46.8478012
  55.6600332  32.0792937  47.4672651  56.3797331  31.4969683  47.0634937
  55.4143620  32.1821022  48.9520216  54.4207668  32.6022005  49.1081953
  55.5201578  30.7690191  49.5845366  56.3855982  30.2491283  49.1736507
  55.6333590  30.8813691  50.6628084  54.2680788  29.8663378  49.4248962
  53.4122753  30.4372740  49.7850895  54.1392422  29.6430707  48.3658171
  54.3899345  28.4910035  50.1291370  55.4304647  28.1680608  50.0958252
  54.0390635  28.4880805  51.1611176  53.5791063  27.3885846  49.4005728
  53.2346392  27.6365256  48.3965969  54.2008877  26.4937210  49.3737602
  52.4068499  27.0641875  50.2253294  51.9493675  26.2286067  49.8897409
  52.6183796  26.8101287  51.1796951  51.7312002  27.8100371  50.1398563
  56.3025331  33.1903648  49.6828127  56.5104294  33.0368185  50.8937836
  56.6883516  34.2481446  48.9306784  56.4531422  34.1737938  47.9512644
  56.9320059  35.5539989  49.5708227  57.8121424  35.4136181  50.1983213
  57.3946810  36.5290737  48.4997463  56.6082382  36.7328310  47.7730465
  57.4995041  37.5428820  48.8861418  58.6883020  36.1546707  47.7136660
  58.5624552  35.1269841  47.3728943  58.9524126  37.0830464  46.4965391
  58.0126190  37.0516038  45.9452677  59.1999817  38.0439162  46.9476986
  59.6918535  36.7094636  45.7881880  59.9986553  36.2300515  48.5003090
  60.1177502  37.0898700  49.1595697  60.0320435  35.3570318  49.1520929
  60.8340788  36.1789608  47.8020573  55.8705425  35.9258652  50.5748940
  54.7237062  35.5706930  50.3957701  56.2748623  36.5714836  51.6081572
  57.2411394  36.8641901  51.5809965  55.4064989  36.6431260  52.8207636
  54.9825668  35.6772232  53.0953646  56.1573839  37.2277164  54.0224552
  56.5919876  38.1670451  53.6805725  55.5574179  37.3896146  54.9179554
  57.2977114  36.2554097  54.4598246  56.8886328  35.2714300  54.6890354
  57.9389620  36.1468649  53.5851145  58.1739378  36.6983724  55.5531216
  58.1967449  37.8482676  56.0689211  58.9075899  35.8707619  56.2006998
  54.1073513  37.5339055  52.5901508  54.1768265  38.6939836  52.1567965
  52.8804064  36.9896460  52.8938866  52.6025963  35.7743549  53.6637211
  53.0095720  35.7287264  54.6738625  52.9486513  34.9193835  53.0828857
  51.1217737  35.7783246  53.8168573  50.9063339  36.4624882  54.6375942
  50.6731701  34.8004055  53.9916039  50.5872536  36.4788008  52.6125622
  49.6065712  36.9358659  52.7446842  50.5865669  35.7495189  51.8024683
  51.6398239  37.5871491  52.4497700  51.8371344  37.8975630  51.4237070
  51.2325144  38.8475156  53.2451725  51.5438890  39.0445852  54.4336987
  50.6377411  39.8081684  52.5127983  50.7280540  39.6675062  51.5167236
  50.3440142  41.1423063  53.1662273  51.2216520  41.3859177  53.7649822
  50.3197765  42.2101212  52.0974874  49.7103977  41.8892002  51.2526417
  49.8428297  43.6444235  52.5551224  49.6884108  44.3244123  51.7173481
  48.9372063  43.5023642  53.1448364  50.5398178  44.1075134  53.2535887
  51.7765093  42.4413776  51.6180182  51.8640232  43.5102558  51.4232349
  52.4627447  42.1434832  52.4107552  52.2048044  41.6162586  50.3760386
  51.6712952  40.6681061  50.3091097  52.0990801  42.2152948  49.4715595
  53.2774496  41.4259291  50.4121828  49.0080023  41.0129118  53.9887619
  48.0661392  40.4136467  53.4654379  48.9347696  41.5159225  55.2740908
  50.0064564  42.1023798  55.9802914  50.4949903  42.9225349  55.4541874
  50.7562351  41.3216019  56.1080503  49.5107174  42.4124050  57.3304653
  49.8926878  43.3722019  57.6783037  49.9351788  41.6834927  58.0208397
  48.0011702  42.5854778  57.3277235  47.6949024  43.6149359  57.1419191
  47.5576591  42.2507477  58.2654619  47.7143288  41.6930819  56.1236858
  47.5382423  40.7395744  56.6216087  46.5197086  42.3430586  55.3715849
  46.7464972  43.2291746  54.5385551  45.2867842  41.9722509  55.7964563
  45.2670479  41.2416983  56.4935923  44.0703440  42.8049612  55.4907370
  44.0388203  42.9462862  54.4103956  42.8324652  41.9176674  55.7085657
  42.7338886  41.6468477  56.7597771  41.9172239  42.4439764  55.4375744
  42.8382778  40.6214046  54.8653936  43.5449362  39.9503803  55.3537178
  41.9114494  40.0890541  55.0791550  43.1683588  40.8013582  53.4143257
  44.1693783  40.2370501  52.9036808  42.3843908  41.4932680  52.6965523
  43.9508200  44.1678572  56.2284136  43.1872702  45.0503874  55.8667421
  44.7502899  44.3617249  57.2744274  45.3942013  43.6463785  57.5806427
  44.7122478  45.5701351  58.2017422  44.8551321  46.3780355  57.4841213
  43.3195353  45.6261969  58.9137030  42.5232410  45.1433372  58.3472538
  43.3299780  45.0203800  59.8197794  42.7271843  46.9309235  59.3265724
  42.4454784  47.2927809  60.6325865  42.7545309  46.7733002  61.5275860
  41.8102455  48.4908628  60.6079149  41.4538383  48.9418221  61.4384031
  41.6525364  49.0043306  59.3322563  41.1572599  50.2332067  58.8499069
  40.9682846  50.9790611  59.6077919  41.1301184  50.4344130  57.4810362
  40.8107328  51.4335299  57.2238255  41.4763165  49.4025517  56.6060400
  41.4121866  49.5907116  55.5444908  41.9135046  48.1613827  57.1041775
  42.1915388  47.4256277  56.3640738  42.1134567  47.9630566  58.5085249
  45.8203745  45.7318974  59.2048407  46.2900543  44.6450996  59.5601177
  46.2168217  46.9023943  59.7198486  45.7752562  48.2548857  59.3106508
  44.8917055  48.4638166  59.9138069  45.6090212  48.4272194  58.2472754
  46.8767262  49.1684866  59.7642040  46.5087652  50.1872301  59.8861647
  47.6389742  49.2011976  58.9857435  47.2605467  48.4920645  61.1041641
  46.5485716  48.8894796  61.8275213  48.2783461  48.6598539  61.4563465
  47.0919847  46.9795465  60.8732700  48.0586290  46.5537786  60.6041527
  46.5767145  46.1573219  62.1503735  45.3429270  45.8992052  62.2202682
  47.4235153  45.8465290  63.1423378  48.8861609  46.1399078  63.2504654
  48.9079523  47.0941257  63.7768602  49.4378281  46.1150646  62.3107100
  49.3603611  45.1064014  64.1940022  50.3245544  45.3701305  64.6286106
  49.3773413  44.1132545  63.7451410  48.2780218  45.0282764  65.1912689
  48.4184074  45.7549906  65.9914446  48.4008598  43.9986610  65.5272770
  47.0040321  45.2549791  64.3666792  46.5960217  44.2736101  64.1247463
  45.9764194  46.2156343  65.0850010  46.3371229  47.3476648  65.4291201
  44.7159243  45.7411242  65.3074503  44.7199154  44.7315168  65.2795410
  43.5872602  46.4548540  65.9036970  43.4016514  47.2035408  65.1335573
  42.3175240  45.5773926  66.0817099  42.1382427  44.9704695  65.1942348
  42.5744438  44.9437284  66.9305706  41.0772133  46.4044046  66.2552738
  41.1959887  46.9880819  67.1681309  40.7399750  47.3856831  65.1163197
  41.3386869  48.2892323  65.2314472  40.7385302  46.9358301  64.1234779
  39.7081327  47.7050447  65.2626228  39.9241281  45.4229164  66.4058018
  39.9212837  44.8171425  65.4996443  40.1034164  44.8326826  67.3044586
  38.9341640  45.8787346  66.4230394  43.9069128  47.2028780  67.2347832
  43.4847307  48.3697844  67.4301958  44.6814489  46.6117573  68.1088734
  44.9695206  45.6554747  67.9584026  45.0316858  47.2430277  69.3090153
  44.1130686  47.5884867  69.7832537  45.6167746  46.1765242  70.3429174
  46.4754152  45.6884432  69.8818207  45.9942055  46.6136169  71.2673569
  45.0168324  45.2802038  70.5003262  45.8587265  48.5284710  69.1527796
  45.8913660  49.4082069  69.9891710  46.5289021  48.7012625  67.9965496
  46.5120077  47.9300356  67.3446131  47.4668312  49.7959995  67.5654888
  47.4833679  50.5425310  68.3595467  48.8845634  49.1811514  67.2982740
  48.9221811  48.5324717  66.4231205  49.5386314  50.0407743  67.1521854
  49.4162893  48.5569620  68.4807682  49.6343565  47.6682138  68.1906366
  46.9883490  50.5005169  66.3128138  47.7531099  51.0957813  65.5444813
  45.6319523  50.5654812  66.1703348  45.1545906  50.1155901  66.9383335
  44.8184443  51.3020897  65.1753330  45.2814865  52.2566843  64.9254417
  44.7604942  50.4912758  63.8510227  45.6556606  50.0008965  63.4685230
  44.0029287  49.7083664  63.8862848  44.1797781  51.6015673  62.5663090
  45.2386665  52.3601866  62.2693920  43.3860159  51.6987181  65.7357550
  42.9977560  52.8492355  65.4108858  42.7055216  50.8684731  66.5106201
  43.1444597  49.9757481  66.6851997  41.3568401  51.1854362  67.0880032
  41.1115980  50.5535460  67.9416180  41.2677288  52.2090578  67.4518156
  40.2380419  50.8758974  66.0222769  39.2155433  50.2430534  66.3440132
  40.4672337  51.4597321  64.8431683  41.3187647  52.0005989  64.7935820
  39.5210791  51.5975666  63.6944437  38.6440778  52.0404911  64.1664505
  40.0988579  52.5238705  62.5781488  40.9812117  52.0163345  62.1883297
  39.0166736  52.5922585  61.4690399  38.0574083  52.9534435  61.8397951
  39.3940496  53.1828785  60.6342602  38.9212275  51.6270208  60.9717321
  40.4092884  53.9645433  63.0352020  41.3393688  53.8908148  63.5987854
  40.4838800  54.5383215  62.1114540  39.6152258  54.2608643  63.7205887
  39.2045474  50.2310610  63.0409861  40.1364231  49.5382452  62.6441193
  37.9396009  49.7857571  62.8989649  36.7196274  50.2732706  63.5920572
  36.4013982  51.1869526  63.0900478  36.9963789  50.3021669  64.6459436
  35.5767536  49.2480803  63.3599329  34.8374033  49.6088314  62.6448679
  35.1437116  49.0598536  64.3423510  36.2523174  48.0596113  62.7211952
  35.6864619  47.7556944  61.8405485  36.3130927  47.2219944  63.4160328
  37.6498413  48.5172701  62.2920990  38.3983564  47.9126883  62.8042650
  37.8403568  48.5616779  60.8116293  37.8270555  49.6820211  60.2356768
  38.3185172  47.4177694  60.2482128  38.7344170  46.2345552  60.9413862
  38.0000710  45.8830929  61.6661644  39.6509743  46.4874554  61.4743662
  38.9762807  45.1421547  59.9145746  38.0680156  44.5464611  60.0057173
  39.8319459  44.4960213  60.1106739  39.1579223  45.8521271  58.5858440
  38.7146711  45.3602409  57.7200079  40.1991224  45.9123707  58.2690239
  38.6154270  47.2561026  58.7988424  39.4303989  47.9232788  58.5181379
  37.3178720  47.4772644  57.9534531  36.2934113  46.8664742  58.1916714
  37.3858285  48.4148788  56.9728756  38.2857871  48.8641644  56.8816757
  36.3058114  48.7515640  56.0425138  36.6167283  49.6660757  55.5374336
  36.1992645  47.6149368  54.9899292  35.7656789  46.7563105  55.5026293
  35.4557848  47.9217148  54.2542458  37.4862266  47.2731495  54.3061972
  38.0094790  48.2021904  53.3859873  37.4591780  49.0967846  53.1344461
  39.2779398  47.9202700  52.8473949  39.6980357  48.6156702  52.1358252
  40.0741386  46.8391657  53.3639479  41.0206509  46.4840031  52.9839802
  39.5384812  45.9263468  54.2905045  40.0072670  45.0146866  54.6304035
  38.1713939  46.0641909  54.6903181  37.7661848  45.3273249  55.3679895
  34.9238253  49.1908264  56.6968536  33.8539457  49.0111971  56.1476755
  35.0433755  49.8917770  57.8262377  35.9151840  49.9448538  58.3334255
  33.8701868  50.5099440  58.4603548  33.2814193  50.7995987  57.5899792
  33.1388831  49.3316078  59.2093468  32.9404688  48.4016752  58.6764765
  33.7895918  49.0129232  60.0236702  31.8532705  49.6891069  59.9606895
  32.0711112  50.5308151  60.6180859  31.1621904  49.8582697  59.1349220
  31.2538552  48.5756636  60.8142471  31.2734532  48.5188818  62.0513153
  30.5288768  47.6442289  60.2809191  29.9720407  47.1391964  60.9554386
  30.2800107  47.6697731  59.3023920  34.2006755  51.7448807  59.2584467
  35.2951860  51.8390036  59.8189306  33.2176757  52.6652098  59.4340372
  32.3638391  52.4128819  58.9571810  33.4200025  53.9491701  60.1684666
  34.3370247  54.3713093  59.7574091  32.2662377  54.9182987  59.8816490
  32.1012068  55.0326633  58.8103008  31.3555574  54.4262743  60.2232218
  32.2949171  56.3293886  60.6141663  32.1356678  56.2306643  61.6879416
  33.2921648  56.7506933  60.4872799  31.1801744  57.2247410  60.1403046
  31.2787890  57.4981976  59.0897799  30.1980495  56.7693329  60.2673388
  31.1431217  58.4656572  61.0270739  31.0070324  58.1487083  62.0610571
  32.1072340  58.9629078  60.9206200  29.8945165  59.2122316  60.7166386
  30.0814629  60.1510906  61.0386562  29.5598173  59.1652107  59.7648716
  29.1293406  58.7258577  61.1616659  33.6346483  53.5450888  61.6110706
  32.8475404  52.7223015  62.0815945  34.5073342  54.2518425  62.4304152
  35.6043553  55.0985765  61.9970417  35.1962662  55.9619522  61.4715433
  36.2515450  54.5317984  61.3277006  36.4710426  55.5126429  63.2215643
  36.3343048  56.5353584  63.5729170  37.5244951  55.5264759  62.9420233
  36.0257530  54.4608355  64.2449427  36.0989809  54.8871469  65.2454472
  36.5929723  53.5311460  64.1998005  34.5516419  54.1802549  63.8421154
  34.2828035  53.1785536  64.1774082  33.5113525  55.0565958  64.4464064
  33.8022184  56.1378050  64.9488926  32.2873402  54.5668411  64.4518280
  32.2549129  53.7792110  63.8204145  31.0896564  55.1072168  65.0658607
  30.9142303  56.0144663  64.4877434  29.9025249  54.1743660  64.8954487
  29.9683499  53.2538128  65.4754066  28.9878154  54.6670866  65.2250481
  29.6957207  53.8270950  63.4447575  30.6115580  53.6325645  62.8866386
  28.8388014  52.5681019  63.1662035  28.9844894  52.1253490  62.1808863
  29.0441751  51.7632151  63.8719511  27.7872801  52.8530312  63.2012463
  29.0411639  55.0503635  62.7548981  28.0779386  55.3520346  63.1663465
  29.7677469  55.8544493  62.6381826  28.8655257  54.7604752  61.7189360
  31.2374473  55.4889441  66.5217829  30.6381273  56.4757395  66.9205475
  31.9274807  54.7145557  67.2772741  32.2393131  53.8589382  66.8404818
  32.4113035  54.8824358  68.6250401  31.5903807  54.9033594  69.3418074
  33.3093190  53.6532354  68.9894724  32.6949954  52.7582741  68.8907480
  34.5635009  53.5895586  68.0990648  35.1144648  52.6984262  68.3997631
  34.2983127  53.7295341  67.0511198  35.2248192  54.4158983  68.3596945
  33.7060189  53.7056780  70.3400040  32.9182529  53.5899210  70.8763123
  33.1688499  56.1860466  68.8093567  33.1652784  56.7160273  69.9131727
  33.7243056  56.7211199  67.7422857  33.5710907  56.1683702  66.9109631
  34.1943955  58.1362152  67.5567770  33.8717222  58.3501387  66.5378428
  33.3915997  59.1148710  68.5016632  32.3275447  58.8807917  68.4685707
  33.6527634  58.8045216  69.5133829  33.6218882  60.4754877  68.2987928
  33.3295894  60.8928680  69.1124010  35.7352352  58.3594513  67.8450060
  36.2895775  57.7658510  68.8241816  36.4726329  59.0818024  67.0152044
  35.9913254  59.9109459  65.8923769  35.2108097  60.5898571  66.2358522
  35.5964041  59.2001486  65.1664972  37.1817923  60.6654119  65.3883076
  37.2179723  61.6652393  65.8208990  37.2890997  60.7056475  64.3043470
  38.4692264  59.9913216  66.0397959  39.2177629  60.7158089  66.3605928
  38.9212418  59.5030308  65.1764584  37.9480219  59.1099215  67.1212673
  38.4268570  58.1308889  67.1035528  38.3304739  59.7245932  68.4491301
  39.5262027  59.6555138  68.8554811  37.4146914  60.3867292  69.1960192
  36.4913511  60.5284119  68.8119936  37.6907873  60.8285332  70.5781746
  38.6078143  61.4130783  70.6521511  36.5573263  61.7260075  71.0058641
  36.5653729  62.1139288  72.0244646  36.3586760  62.6163006  70.4091930
  35.3610969  60.8990860  70.8588314  34.8506308  61.0492325  71.6578817
  37.8528738  59.6668100  71.5642118  38.7017965  59.7648716  72.4385643
  37.0532918  58.5687685  71.3843632  36.4546418  58.5138702  70.5727577
  37.1940827  57.3536444  72.2076607  37.4345016  57.7550793  73.1921148
  35.8731055  56.5093136  72.3558521  35.4523468  56.2650156  71.3804626
  36.1330366  55.6274796  72.9414272  34.8277211  57.3554468  73.0242109
  35.0626922  57.8197289  73.9819860  34.4888186  58.1644011  72.3770332
  33.6732221  56.2617350  73.2120419  33.3807993  55.8607101  72.2415972
  34.0226746  55.4397488  73.8368082  32.5107217  56.9020081  73.8129759
  32.2890806  56.6741800  74.7716570  31.6876101  57.8250742  73.2917261
  31.5682912  57.9759407  71.9726276  32.1678567  57.5548840  71.2774038
  30.9708476  58.6914158  71.5837097  31.0001397  58.5793972  74.0683794
  31.1547208  58.5339022  75.0654459  30.2308178  59.0717936  73.6373472
  38.3860254  56.4630318  71.8723536  39.0371680  56.0300446  72.8242493
  38.6565208  56.2734318  70.5746126  37.9721928  56.5098667  69.8704147
  40.0078917  55.6838226  70.1381016  40.0861406  54.6148872  70.3364944
  40.1374388  55.9380865  68.6055613  40.1843786  57.0212555  68.4931040
  41.1036968  55.5081654  68.3417225  39.0046430  55.4621744  67.6929665
  38.1449199  56.1307144  67.7379799  39.2968202  55.7220602  66.1758280
  40.1177931  55.0890160  65.8391380  38.4427643  55.4218912  65.5687141
  39.5752215  56.7430782  65.9148264  38.6827588  54.0077114  67.8997278
  38.4514570  53.8164854  68.9476013  37.7162313  53.8097811  67.4363184
  39.5098782  53.3777094  67.5725126  41.2011862  56.4887953  70.7373619
  42.1790886  55.8759594  71.2043524  41.0925961  57.8313589  70.7368755
  40.3309488  58.3657265  70.3438854  42.2099733  58.6789846  71.2801170
  43.1075525  58.6864853  70.6617308  41.7808819  60.1285172  71.0376644
  41.5168905  60.3412151  70.0017262  40.8891916  60.3201056  71.6345596
  42.6909351  61.0711622  71.4465332  42.2297573  61.9065905  71.5512943
  42.5268888  58.4854269  72.7746677  43.7322092  58.6356783  73.1093121
  41.5438509  58.1769323  73.5460615  40.5743074  58.0190516  73.3112001
  41.6618013  58.0187082  74.9887276  42.2857904  58.7988377  75.4247808
  40.2503252  57.9984760  75.5352259  39.7719598  58.8483334  75.0483847
  39.8417926  57.0260906  75.2601528  40.2550411  58.1940269  77.0714712
  40.7294512  57.3025846  77.4818039  40.7587671  59.1283226  77.3193741
  38.7501740  58.2859659  77.5186968  38.0163169  57.6547575  77.0175648
  38.8292360  58.0545092  78.5808992  38.3154106  59.6563292  77.4438286
  39.0114808  60.3863335  77.4956274  37.0330596  60.0557899  77.4005413
  36.0489559  59.2153311  77.4783134  36.3179827  58.3977127  78.0067348
  35.0869775  59.5228815  77.4678087  36.6749668  61.3004589  77.5476217
  37.4089766  61.9898462  77.4696589  35.7287812  61.5672112  77.3159361
  42.3646927  56.6871786  75.2961302  43.2598114  56.6218996  76.1550665
  42.1338320  55.6101894  74.5378542  41.3678122  55.6780291  73.8830996
  42.9551840  54.3497229  74.5397997  43.0330038  53.8703442  75.5156279
  42.2393084  53.3006907  73.6813307  42.1748257  53.7517548  72.6911354
  42.7739143  52.3508072  73.6859179  40.8511829  52.8360510  74.0285349
  40.2994919  51.8878937  73.4248114  40.2708578  53.3347893  75.0265789
  44.3904734  54.5014477  73.9303589  45.3666735  53.8952494  74.4136906
  44.5175314  55.3196287  72.8830290  43.6584759  55.6647110  72.4792480
  45.8410072  55.7606125  72.3577833  46.4030886  54.8418045  72.1905708
  45.6059074  56.6220760  71.0861778  45.1290894  57.5516653  71.3969898
  46.5702009  56.9327688  70.6840324  44.9076319  56.0504913  69.8309803
  44.7407627  56.7469597  68.6472225  44.0285921  56.0086632  67.8220558
  43.8558865  56.3190126  66.8021250  43.9009619  54.8197842  68.4094429
  43.3753252  54.0592432  68.0027580  44.4086599  54.8237705  69.6709347
  44.3473339  54.0103292  70.3787088  46.6296816  56.6051722  73.4291315
  47.8604174  56.6827536  73.2713890  45.9268236  57.1624184  74.4307280
  44.9269772  57.2242832  74.3019915  46.6019773  58.1771612  75.2537870
  47.1429300  58.8613701  74.6000814  45.5956554  58.9269352  76.1054897
  44.8146629  59.3930626  75.5047560  45.1952648  58.3127594  76.9120741
  46.0053444  59.8139095  76.5887356  47.7145052  57.5147629  76.1338806
  48.4488344  58.2611990  76.7933702  47.8036976  56.1547852  76.2431383
  47.1091795  55.5222797  75.8720875  48.9641380  55.5146360  76.9440842
  49.4189882  56.2515783  77.6060009  48.5919952  54.2777395  77.7906322
  49.4470358  53.7161636  78.1669807  47.7460337  54.7339821  78.9977741
  46.8030071  55.1991272  78.7106371  47.6440763  53.8541698  79.6330929
  48.2416630  55.4505062  79.6527958  47.8239250  53.4292698  77.0382929
  47.8657198  52.5233412  77.3531723  50.0941086  55.0512266  76.0995817
  51.1711359  54.7021723  76.6704082  49.9339485  55.1803827  74.7665834
  49.0432405  55.4917049  74.4062853  50.9979057  54.9823761  73.8127947
  51.5055370  54.0488672  74.0556479  50.3608799  54.8499632  72.3587751
  49.7875500  55.7749844  72.2976971  51.0828781  54.7368622  71.5500546
  49.2522144  53.8209152  72.2184658  48.3766937  53.9919615  72.8448153
  48.7719679  53.8477230  70.7196856  49.4962645  53.3162451  70.1024199
  47.8215075  53.3224249  70.6259489  48.4852743  54.8369074  70.3627205
  49.7123957  52.3701525  72.6104403  50.7154846  52.2218847  72.2105265
  49.5751190  52.2661018  73.6867476  48.9766169  51.6308308  72.2940016
  52.1020603  56.0350370  73.8819265  51.9087648  57.3149157  73.9228535
  53.3751869  55.5994129  73.7502813  53.5501242  54.6190262  73.5819340
  54.5203400  56.5011740  73.7157345  54.4156027  56.9361210  74.7096920
  55.7920361  55.6663370  73.5876703  56.6364098  56.2897158  73.8818312
  55.8716679  54.9751616  74.4267368  55.9968519  55.0054216  72.2200060
  56.5729189  55.5378485  71.3180161  55.6120014  53.7428188  72.1145201
  55.8832836  53.2586098  71.2706900  55.3031588  53.1559134  72.8762674
  54.3824530  57.5163841  72.6053047  53.9133501  57.2146606  71.4597893
  54.8290730  58.7591267  72.8520727  55.1495075  58.9820147  73.7836075
  54.5607662  59.9448681  72.0334578  53.5016727  60.1827002  71.9341278
  55.0207758  60.8201027  72.4922180  55.0130939  59.8212624  70.5903339
  54.3900442  60.3829908  69.7121000  56.0223246  58.9505100  70.3495216
  56.5084457  58.5461044  71.1370754  56.1908245  58.4565973  68.9877081
  56.1622381  59.2900467  68.2858181  57.5596285  57.9584980  68.7311792
  57.7181196  57.1052551  69.3906927  57.8939390  57.6035261  67.7563238
  58.3735037  58.6616182  68.9081669  55.1335955  57.5304842  68.3720255
  54.5765257  57.8876543  67.3092556  54.8326874  56.3400459  68.8943195
  55.3051138  56.0638046  69.7431993  53.7957287  55.3905535  68.4518576
  53.9970779  55.1495934  67.4080610  53.8060570  54.0772867  69.2655420
  54.8063803  53.6529541  69.1795158  53.7230396  54.4388103  70.2904844
  52.6216698  53.1619596  68.9953375  51.6117954  53.5718679  68.9800835
  52.9134130  52.4305582  67.6491308  53.7867832  51.7863464  67.7507401
  52.1330547  51.7218637  67.3718166  53.0588293  53.2238150  66.9158554
  52.6025534  52.1816206  70.1103449  52.4170732  52.6918316  71.0555363
  51.6717196  51.6145563  70.1008177  53.4055948  51.4446211  70.1184845
  52.3992968  56.0408258  68.4904528  51.6170454  56.0099554  67.5931787
  52.0496511  56.8251944  69.5593643  52.5927496  56.7401171  70.4066563
  50.8897209  57.6720095  69.5792198  50.0830078  56.9453859  69.6758366
  50.9088945  58.4220076  70.9094810  51.1196280  57.7403593  71.7335224
  51.6544008  59.2138433  70.9823942  49.6939993  59.1636705  71.1981773
  49.3983221  59.8685551  70.4211235  48.9251280  58.4119129  71.3765049
  49.8782158  59.9574804  72.4415445  49.8216057  61.1626148  72.4294043
  49.9076557  59.4123077  73.6516714  50.1213217  60.0357819  74.4169950
  50.1182508  58.4264326  73.7133598  50.7218361  58.5408545  68.3163214
  49.6210575  58.5829353  67.6811457  51.7571068  59.3007994  67.9630470
  52.5095129  59.2041683  68.6298609  51.7758322  60.1972151  66.8090820
  50.9162188  60.8663082  66.8474388  53.0093813  61.0692453  66.8065643
  53.1534672  61.4777088  67.8068113  53.8608265  60.4353571  66.5589190
  52.7975321  62.2352600  65.8068562  52.2143030  63.4194136  66.2867069
  51.9812012  63.6138248  67.3231745  51.9500256  64.5400238  65.4734039
  51.4952660  65.4215288  65.9006548  52.0501137  64.3641376  64.0942192
  51.8271875  65.0804377  63.3172894  52.5300598  63.1290579  63.5682726
  52.5545549  63.0058050  62.4956083  53.0124044  62.1006012  64.3947554
  53.4583330  61.2276649  63.9413977  51.6195726  59.4596672  65.4642344
  50.9584475  60.0096416  64.5805407  52.1486139  58.2380533  65.3014231
  52.7928543  57.8521013  65.9767723  51.9526052  57.3865986  64.1091967
  52.0724440  58.0141973  63.2260990  53.0683136  56.3495541  64.1033936
  54.0658998  56.7848539  64.0448380  52.9901171  55.6825304  64.9619150
  53.0417681  55.8025408  63.1609631  50.5983877  56.6954184  64.1348028
  49.9648952  56.6918230  63.0765772  50.1229906  56.2040138  65.3127813
  50.6826258  56.4008760  66.1301851  48.7667084  55.5983877  65.3983593
  48.8261509  54.8372126  64.6204233  48.5681915  54.9249268  66.8111658
  48.6341667  55.7745981  67.4907303  47.2636127  54.1501093  66.9442892
  47.2916555  53.5256290  67.8372288  46.5339422  54.9524546  67.0534945
  47.0479965  53.6465454  66.0019302  49.6487284  54.1107035  67.1408510
  50.3793430  54.7223186  67.2580051  47.5996304  56.5878153  65.0006342
  46.8683720  56.3087177  64.1608238  47.7367830  57.8251553  65.4847193
  48.4475946  58.0069780  66.1788321  46.8663263  58.9327383  65.1923466
  45.8258486  58.7012625  65.4202223  47.2638178  60.2034950  66.0183573
  48.3344555  60.3615665  65.8885908  46.7441607  61.0871363  65.6478882
  46.9586420  60.0722504  67.5432253  47.3898602  59.1650820  67.9665375
  47.3643827  60.9260798  68.0858660  45.4333115  60.1009274  67.7012634
  45.0334215  60.9794188  67.1948624  45.0525856  59.2118502  67.1985865
  44.8678160  60.0889587  69.1552019  43.8624907  59.6677923  69.1617966
  45.4058075  59.3978310  69.8040533  44.8586082  61.4140511  69.7806835
  44.4901419  61.3866091  70.7206726  45.7583809  61.8641376  69.8697472
  44.2516279  61.9985914  69.2239189  46.9002819  59.3148565  63.7082529
  45.9021282  59.2251587  62.9641581  48.0949831  59.5005941  63.1283426
  48.9313364  59.6288824  63.6798429  48.1476402  59.7412252  61.6746473
  47.5461149  60.6272984  61.4718008  49.5922470  60.0882244  61.2905979
  49.7546864  61.0246658  61.8242550  50.3148746  59.3013191  61.5067005
  49.7408962  60.5654764  59.7852039  48.8129616  61.0267448  59.4471645
  50.5371571  61.3071728  59.7223234  50.2171135  59.3828869  58.9185524
  50.6383991  58.2746744  59.3044233  50.1159239  59.5512867  57.6465750
  50.3212404  58.7700176  57.0403004  50.0788212  60.4540539  57.1952009
  47.7216721  58.5331917  60.8870983  47.0496607  58.7239218  59.8691320
  47.9109430  57.2699165  61.3740444  48.4934759  57.1426630  62.1892500
  47.3486185  56.0500145  60.6801128  47.5292826  56.1526632  59.6100998
  47.9459143  54.7849321  61.2590981  49.0273809  54.8239040  61.1286545
  47.6809025  54.8825932  62.3118687  47.5544119  53.3670998  60.7882071
  46.4770031  53.3052254  60.6350422  48.1511354  52.9771280  59.4765139
  47.3800755  52.5043201  58.8682270  48.5626411  53.8277674  58.9332008
  49.0331554  52.3578167  59.6395969  47.9118586  52.3206472  61.8633223
  48.9191341  52.3375368  62.2795105  47.1236038  52.2794294  62.6150274
  47.7912140  51.4021683  61.2889051  45.8395672  55.9700537  60.7403469
  45.1831675  55.7369614  59.7078800  45.2573824  56.2039757  61.8805790
  45.8801746  56.5740252  62.5843525  43.8379955  55.9399509  62.1297407
  43.5245085  55.0219727  61.6326046  43.6019135  55.7694387  63.6185932
  42.5295210  55.6562662  63.7775517  44.0807629  54.8447609  63.9407396
  44.0748119  56.7830276  64.4259691  45.0313807  56.8466425  64.3756437
  42.9269409  56.9871092  61.5210342  41.7938900  56.6619158  61.1188221
  43.3948374  58.2666492  61.3001490  44.2121553  58.4329510  61.8697405
  42.7331352  59.3426275  60.5969238  41.6843510  59.3813086  60.8913183
  43.5268927  60.6454897  60.7501221  44.5835447  60.4675961  60.5502558
  43.0645800  61.4082003  60.1235151  43.3433819  61.2073898  62.1255541
  42.2976971  61.5046692  62.2047091  43.6418486  60.4120970  62.8085804
  44.3406963  62.3124647  62.3114395  45.3632975  62.0710373  62.0214415
  44.0640640  63.1303644  61.6461468  44.4591188  62.8452349  63.6578560
  43.6684275  62.6401806  64.2518806  45.5151939  63.4318590  64.2359877
  46.5424442  63.6539745  63.4897518  46.6551638  63.3178520  62.5440168
  47.4135113  63.9759922  63.8867950  45.6084728  63.5851908  65.5383158
  44.7753000  63.3912182  66.0752583  46.3747120  64.1451454  65.8838892
  42.7333784  58.8558435  59.1216564  41.6284990  58.6928892  58.5473633
  43.8898611  58.5905552  58.5919142  44.7397947  58.5339308  59.1346121
  44.0581608  58.0979967  57.2186708  43.6582136  58.8785315  56.5714359
  45.5511761  58.0586815  56.8194246  45.9937716  57.1399069  57.2042131
  45.7944918  58.2425070  55.2852821  45.1332474  59.0137863  54.8903370
  46.8465900  58.5213614  55.2266788  45.7068110  57.3154831  54.7186708
  46.2734079  59.1599178  57.3666859  46.5591288  58.8918591  58.2431078
  43.4887695  56.7603493  56.8129969  43.4575605  56.4005709  55.6705284
  43.0381012  55.9460354  57.7757978  43.2246113  56.2281513  58.7274933
  42.3369503  54.6689415  57.5286913  42.3074627  54.4410419  56.4631939
  43.1028223  53.4934282  58.2007694  43.2824087  53.7367105  59.2479897
  42.4385691  52.6293087  58.2138062  44.4344854  53.0764818  57.6777029
  45.1477575  53.8463831  57.9719687  44.9131536  51.7824984  58.2746792
  45.8847952  51.4697695  57.8923035  44.9339437  51.9851685  59.3454695
  44.1867971  50.9752512  58.1805658  44.3734884  53.0389357  56.1646557
  45.1355267  52.3346519  55.8309126  43.4494257  52.6674843  55.7216787
  44.5754528  53.9936686  55.6790733  40.8318043  54.6814632  58.0103588
  40.2191591  53.5911655  57.9525805  40.2662230  55.8086777  58.3909750
  40.6530666  56.6892958  58.0828094  38.9027357  55.8802843  58.9504385
  38.8727331  55.1292515  59.7398376  38.6738610  57.2298431  59.7251463
  37.6766777  57.1814156  60.1626205  39.3757415  57.2178221  60.5590057
  38.8640428  58.3513117  58.9101315  39.7927642  58.5444975  59.0576410
  37.7930665  55.5558062  57.9262447  36.7367220  55.0033188  58.2664585
  38.2103539  55.8258200  56.6441965  39.1251469  56.2507010  56.5919447
  37.2956443  55.8843708  55.5244684  36.2527633  55.6633806  55.7517576
  37.3506951  57.3113680  54.9786854  38.3521962  57.5622511  54.6291876
  36.7097378  57.4683046  54.1111326  36.8073440  58.4062433  55.9782791
  35.7195807  58.4681940  55.9460974  37.1851063  58.3171177  56.9968367
  37.3934197  59.8411465  55.6463766  38.3959055  59.7812271  56.0700846
  37.3867750  60.0770378  54.5822287  36.6467500  60.7795429  56.5283108
  35.6712341  60.5954313  56.7142487  37.2811508  61.9040203  56.9710493
  38.5456443  62.2075081  56.6965961  39.1725707  61.6253471  56.1597919
  38.8845825  63.0624533  57.1140575  36.6013646  62.6939106  57.6710653
  35.7192278  62.3472118  58.0199766  37.1126533  63.4637451  58.0785513
  37.6377392  54.9180365  54.3637276  37.2715735  55.0958633  53.1790400
  38.3464956  53.8296556  54.7632265  38.6423945  53.6687040  55.7154036
  38.9142227  52.9060555  53.8764095  39.4344258  53.4990263  53.1241655
  39.9334526  52.0052576  54.6079111  39.3718314  51.5529156  55.4252720
  40.2957153  51.1820698  53.9920998  40.7248688  52.6843405  54.9250937
  37.8059411  52.0668316  53.0768013  36.7773819  51.7459393  53.6913490
  37.9819655  51.7496872  51.7609596  38.7462616  52.2495604  51.3295937
  36.9040322  51.2424421  50.8343840  36.0301304  51.0535479  51.4578533
  36.5988111  52.3452902  49.8580647  35.9158039  51.9239759  49.1204309
  35.9622550  53.5734844  50.4271650  35.7352710  54.2744732  49.6239328
  35.1094460  53.3387709  51.0641336  36.6739202  54.0903521  51.0709667
  37.8040338  52.8483009  49.2585278  37.8158236  52.3783731  48.4214926
  37.1776080  49.9749804  50.0216913  38.2966352  49.8174191  49.5229149
  36.1334491  49.1614389  49.7197056  34.9410915  49.0105438  50.5306387
  34.1766477  49.7701979  50.3673935  35.1444340  49.1653395  51.5902567
  34.3483901  47.6035738  50.3581905  33.2691932  47.6054192  50.5112553
  34.8917007  46.9239473  51.0147142  34.7876692  47.4075603  48.9501143
  34.1042662  47.9348755  48.2845306  34.6952605  46.3305616  48.8099670
  36.1805272  47.9961491  48.7990379  36.8519211  47.1967888  49.1126490
  36.5020061  48.2144928  47.3324871  36.0600686  49.2176390  46.7722464
  37.3260236  47.4249268  46.6725397  37.8289986  46.7497873  47.2304869
  37.8324986  47.5990152  45.2948380  37.1203613  48.2072306  44.7371340
  39.1431475  48.3429384  45.1213598  39.8657322  47.8148603  45.7435417
  39.5375824  48.3858538  43.5857344  38.7170959  48.7287283  42.9553986
  40.3894949  49.0191793  43.3382559  39.9211168  47.3966169  43.3359146
  39.1647267  49.7923565  45.6313133  38.6393905  50.4675627  44.9558735
  38.4965515  49.9667025  46.4746666  40.5226421  50.4199696  45.9451628
  40.9157944  50.1877499  46.9349146  41.2446260  50.0579500  45.2131844
  40.4045296  51.4864206  45.7532501  37.9841685  46.1867046  44.5557261
  38.6651254  45.2628613  45.0644302  37.3018265  45.9338951  43.4193897
  36.1694717  46.6909218  42.8085232  36.5551305  47.4699926  42.1509314
  35.5997062  47.1169186  43.6343527  35.4053903  45.6263542  42.0026445
  35.0247192  46.0143471  41.0578394  34.6709251  45.1459646  42.6490831
  36.4528513  44.5170975  41.6478395  36.9861817  44.5888901  40.6999493
  35.9107924  43.5718107  41.6213655  37.5060463  44.6163225  42.7957153
  37.2832131  43.8595152  43.5478354  38.9636660  44.1475105  42.3603725
  39.8276949  44.9092865  41.9239521  39.1486526  42.8339529  42.3710680
  38.3853269  42.1944284  42.5397253  40.4149151  42.1096230  41.8969440
  41.2481070  42.3773336  42.5467348  40.2510452  40.6135750  42.0512247
  39.3783808  40.3274107  41.4641476  41.0993004  40.1638937  41.5351343
  40.2137899  40.0853300  43.4650469  41.1777401  40.0604630  43.9732552
  39.6115232  40.7844210  44.0452623  39.5321536  38.7329412  43.5130739
  39.9851537  37.8478432  42.7397013  38.4378314  38.6856079  44.1794491
  40.9271097  42.4071932  40.5342245  40.1769733  42.4178457  39.5426893
  42.2443819  42.5413942  40.4181290  42.8478098  42.5558567  41.2279224
  42.8917456  42.9066992  39.1131496  42.2411680  43.5779047  38.5525012
  44.2831039  43.5203600  39.3311548  44.1902018  44.3004131  40.0867939
  44.9698591  42.7690649  39.7210598  44.8051739  44.2030668  38.0504680
  45.9345818  43.6370850  37.4068642  46.4613867  42.7792025  37.7979136
  46.3614082  44.2231369  36.1908889  47.1723175  43.7986755  35.6175971
  45.6081486  45.3176403  35.6028605  45.8216143  45.8044195  34.3538475
  45.0355148  46.3016081  34.1162443  44.5591259  45.8279800  36.3316107
  43.9047337  46.6060543  35.9672165  44.2359924  45.3956127  37.6077247
  43.4007454  45.8289433  38.1378102  43.0434847  41.7192316  38.0773330
  44.1789579  41.1792946  37.9356551  41.9760513  41.4243984  37.3080397
  41.1473703  41.9661903  37.5076914  42.1136522  40.7402277  36.0520887
  41.0692835  40.5677748  35.7919836  42.6277971  41.6969347  35.0392365
  43.7137604  41.6349077  34.9689674  42.2481632  41.2555313  34.1177511
  42.1158314  43.1250334  34.9636149  42.3528290  43.6769819  35.8731675
  42.7999973  43.7941742  33.7922478  42.5933647  44.8582220  33.6773443
  43.8407850  43.5324669  33.9829636  42.4867344  43.2472277  32.9029679
  40.6196499  43.1960964  34.7885776  40.2910852  44.1019773  34.2791414
  40.2731085  42.4207830  34.1052771  40.1578093  43.1282425  35.7735658
  42.8191185  39.3318081  36.2029481  42.5571775  38.5968351  37.1443462
  43.5425329  38.8616538  35.1798224  43.9045143  39.5180035  34.5028567
  43.9334679  37.4990654  35.0316048  42.9927349  36.9541430  35.1102495
  44.5613575  37.3067594  33.6176753  44.5670557  36.2444329  33.3736873
  44.0346861  37.8365827  32.8239465  46.0182714  37.8033733  33.5540509
  46.0156345  38.8588095  33.8263679  46.7089272  37.2077274  34.1509628
  46.6618872  37.7293062  32.1552992  46.3827705  36.8215728  31.6203070
  46.1333942  38.4732795  31.5592289  48.1891298  38.0671978  32.1820235
  48.3507633  39.0669823  32.5850248  48.6862564  37.3656583  32.8519630
  48.6467552  38.0724812  30.8236432  48.4134293  38.9831138  30.4543138
  49.6563625  38.0443287  30.8224416  48.1313562  37.3945451  30.2806258
  44.8204279  37.0883083  36.1452150  45.5006456  37.9235148  36.7055202
  44.7761393  35.7740235  36.4794803  44.0725851  35.1781726  36.0670853
  45.8428144  35.0131202  37.1893334  46.7983389  35.1877093  36.6947675
  45.9630203  35.4856849  38.6084008  45.9745502  36.5589714  38.7981915
  45.0743580  35.1445079  39.1394186  47.1827126  34.8758411  39.2091131
  47.0733643  34.9997592  40.2865124  47.2240591  33.8140941  38.9660358
  48.4440136  35.5820823  38.7515306  48.6563253  36.7858624  38.7451601
  49.5322323  34.7908258  38.4981990  50.4527807  35.1926827  38.3923459
  49.4435596  33.7902236  38.3931589  45.5547285  33.5147309  37.0438838
  44.7191763  33.0571318  37.8129125  46.0655785  32.8735328  36.0246778
  46.5463066  33.4217334  35.3257632  45.9864950  31.4276981  35.6958294
  44.9510908  31.1072087  35.5803823  46.6955805  31.1057425  34.3368697
  47.7518559  31.3739777  34.3578243  46.6783142  29.5675254  34.0246987
  45.6656408  29.1723394  34.1048074  47.0313025  29.3754029  33.0114913
  47.3796511  29.0902090  34.7090960  46.1952591  32.0342684  33.2230878
  45.1075888  32.0284724  33.1520891  46.3684225  33.0802536  33.4761238
  46.7657661  31.7510176  31.7906475  47.8530216  31.7743421  31.7169333
  46.4604473  30.7267737  31.5766168  46.2615728  32.3695183  31.0481215
  46.6432238  30.4860663  36.7508245  47.7798176  30.7534480  37.1749258
  45.9453917  29.4562459  37.2351074  44.5435476  29.2013049  37.0318747
  44.4158173  28.7881446  36.0313320  43.9182854  30.0625706  37.2671795
  44.1064072  28.1742787  38.0391002  43.3951139  27.5030756  37.5577998
  43.6824083  28.5939288  38.9513612  45.4562521  27.4096084  38.2750535
  45.5957174  26.6501045  37.5057673  45.4265738  26.9384170  39.2575049
  46.5348625  28.5334110  38.2337928  46.5829945  29.0625119  39.1855478
  47.9106808  27.9574394  37.7581334  48.0687809  27.3941922  36.6895032
  48.8655138  28.0417490  38.7022328  48.6286354  28.2827878  39.6540165
  50.2303076  27.4573493  38.5879850  50.6122208  27.8501511  37.6456738
  51.1334896  27.9494715  39.7493720  50.6577492  27.5962448  40.6642532
  52.1163607  27.4782825  39.7431993  51.3193798  29.4429445  39.7450900
  50.6213093  30.1474452  40.4531956  52.2045851  29.9562478  38.9298105
  52.2473764  30.9616303  39.0162706  52.8598642  29.3542957  38.4519434
  50.1953268  25.9026313  38.4286237  51.1515284  25.3162003  37.9304600
  49.0081072  25.2794433  38.6903763  48.2858562  25.7689738  39.1991162
  48.6784363  23.8631701  38.2944560  49.4219732  23.1175089  38.5759544
  47.2935486  23.3325934  38.8496113  46.9753599  22.4344516  38.3202744
  47.4332047  23.2019901  39.9227095  46.3949108  24.2918491  38.4293914
  45.5028486  23.9405656  38.4786963  48.5596228  23.6982346  36.7389488
  48.3860159  22.5570560  36.3800406  48.6292696  24.7134423  35.8827758
  48.6834192  25.6505513  36.2556076  48.4054422  24.6357727  34.4575882
  48.9202595  23.7544537  34.0750432  46.9186544  24.4035792  34.2547178
  46.7753315  24.2430043  33.1861782  46.6013384  23.4483695  34.6730328
  46.0531569  25.9206414  34.8243093  46.1148643  25.4475737  36.0722280
  49.0703726  25.7937217  33.6606288  48.6163807  26.1694336  32.5666857
  50.2591085  26.3189054  34.1055846  50.5015707  26.0437155  35.0466418
  51.0583162  27.3800945  33.3991075  51.3123035  27.0992112  32.3770022
  50.3738070  28.7571120  33.2391024  49.3634558  28.5650206  32.8780079
  50.1796961  29.4042110  34.6210170  49.5113373  30.2651262  34.6059895
  49.9224424  28.7398267  35.4459476  51.0811996  29.9428558  34.9129891
  51.0662842  29.6913290  32.2792125  50.3788805  30.3447700  31.7419910
  51.9063234  30.1660347  32.7862525  51.3851023  29.1699171  31.3766694
  52.3901606  27.5639677  34.1791964  52.5671577  27.4422312  35.3855062
  53.4007740  28.0636358  33.4601092  53.2262373  28.4528279  32.5445938
  54.7932625  28.3010244  33.9128113  54.7765446  28.7816668  34.8909760
  55.4653406  26.9380498  34.2041731  56.4850760  27.1562982  34.5213675
  54.9348927  26.4691591  35.0329471  55.4504967  26.1852646  33.0143213
  54.5547819  26.0820246  32.6847148  55.5551004  29.1319299  32.8842092
  54.9615812  29.4950581  31.8459368  56.7657852  29.6406412  33.1643605
  57.2924185  29.2723680  33.9435506  57.4368477  30.5842066  32.2826600
  58.5117483  30.5060291  32.4456835  57.3231220  30.2297235  31.2582016
  57.0822191  32.0368814  32.5494480  55.8706141  32.3571110  32.7795196
  58.0098438  32.9468584  32.5204420  58.9601755  32.6223969  32.4122858
  57.8320742  34.2334723  33.0883288  56.7868519  34.5396614  33.0451488
  58.3027887  34.0895891  34.6113110  58.0559111  33.1285763  35.0625253
  57.7015257  34.7984481  35.1806116  60.1606703  34.3019986  34.9098802
  58.6189985  35.3032112  32.3657107  59.1175604  35.0906324  31.2648082
  58.9106035  36.4845133  33.0117774  58.4261608  36.5971160  33.8908315
  59.4983292  37.6844978  32.3329830  59.7908401  37.4531198  31.3087726
  58.3440304  38.6953616  32.3255754  57.4710751  38.1468058  31.9718313
  58.3208609  39.3043852  33.2292628  58.8268900  39.9620032  31.0765314
  59.8044443  40.1207161  31.9732451  60.6976795  38.2893038  33.1291342
  61.1742592  39.3795681  32.7517486  61.1787367  37.6155782  34.2050052
  60.7130432  36.7362738  34.3783689  62.1668816  38.2027173  35.0601935
  61.6650963  39.1106749  35.3947496  62.4222326  37.1635842  36.1371851
  63.3539152  37.4458480  36.6274810  62.5203466  36.1690521  35.7020092
  61.0663843  37.2333097  37.3576999  63.4578800  38.5687828  34.4053364
  64.0180254  39.6534538  34.6478057  64.0092134  37.5865865  33.6614347
  63.3342648  36.9783330  33.2203317  65.3494024  37.7148795  33.0177069
  66.0991478  37.9826140  33.7622190  65.6269884  36.7358422  32.6271534
  65.3734875  38.7197328  31.8839860  66.3784409  39.4231844  31.7634225
  64.3431187  38.8243389  31.0368490  63.6274910  38.1183672  31.1347842
  64.2188597  39.7660160  29.9488330  65.0588989  39.7284079  29.2552805
  62.9156876  39.3673158  29.1962409  63.0434418  38.3051443  28.9875054
  62.0878839  39.4939637  29.8939514  62.5305557  40.1581717  28.0635500
  63.2347965  41.1072445  27.4717259  64.1789055  41.5287828  27.7837515
  62.6294422  41.5185642  26.3039780  63.0805397  42.1344662  25.6427073
  61.4689827  40.7821417  26.0859084  60.5923176  40.7706261  25.0189471
  60.8433867  41.3696718  24.1561007  59.5270252  39.8744869  25.0913453
  58.8598871  39.7476864  24.2515540  59.4357872  39.0079594  26.2087321
  58.5288239  38.4409070  26.3579464  60.2558517  39.0723062  27.3174381
  60.1510859  38.4529614  28.1959796  61.3478756  39.9692678  27.2597837
  64.2115831  41.1652136  30.5080271  65.0877905  41.9285488  30.0939894
  63.4218264  41.4431238  31.5720987  62.6677895  40.8405590  31.8695092
  63.3773088  42.7503729  32.2506499  63.3870125  43.4082556  31.3816285
  62.0535040  42.8228283  33.0032182  62.0478725  42.0102978  33.7297559
  62.1060658  43.6491919  33.7120652  60.8030939  42.9834127  32.1503639
  60.6497478  42.1046925  31.5239215  59.6585512  43.1493807  33.1279421
  59.6814919  42.4596310  33.9716363  59.6949959  44.1566181  33.5429645
  58.7359953  42.9425287  32.5855350  60.8632755  44.1388655  31.1264062
  60.9575844  45.0965405  31.6383314  61.7301846  44.1357470  30.4656768
  60.0010777  44.2809057  30.4748368  64.5850229  43.0796242  33.2104683
  65.0758553  44.2126036  33.1997681  65.2705002  42.0791388  33.8003349
  64.8674583  41.1531305  33.7874460  66.6112232  42.2104216  34.4570613
  66.6521406  42.9194260  35.2839470  67.0650339  40.8660603  35.0486708
  66.8584967  40.0683784  34.3351173  68.4718180  40.8368635  35.6515646
  69.1970873  40.7840443  34.8395896  68.6633921  41.7823076  36.1590433
  68.5459185  39.9470115  36.2766838  66.2790871  40.6552792  36.1434674
  65.3642702  40.8615685  35.9381509  67.6778603  42.7509451  33.4663582
  68.2984161  43.7724304  33.7144995  67.8315926  42.0098114  32.3850012
  67.2632074  41.1969614  32.1944451  68.7433672  42.3643875  31.3014698
  69.7946835  42.3881435  31.5882874  68.6881924  41.2521505  30.1714492
  68.6351538  40.2493048  30.5952311  67.7397013  41.3104630  29.6375394
  69.7697401  41.5673113  29.1248465  69.3667746  42.3369598  28.4665442
  70.7163906  41.7449045  29.6351504  69.9347639  40.2817869  28.2826042
  70.4629183  39.5851946  28.9336920  68.9462614  39.9679804  27.9472184
  70.8242035  40.5041456  27.0241880  70.3783369  41.2962198  26.4225864
  71.7600584  40.9120893  27.4061012  70.8468103  39.2291427  26.2752557
  71.4055824  39.4285750  25.4578853  71.2355375  38.4081578  26.7168188
  69.9218512  38.9933038  25.9452033  68.4749269  43.7940454  30.7508206
  69.3881273  44.5695162  30.7424617  67.2084999  44.1998482  30.4832315
  66.5460014  43.4766388  30.7244062  66.7043447  45.5073977  30.1292229
  66.9059610  45.6605101  29.0690279  65.1772022  45.3862238  30.1679158
  64.8171902  44.8191404  31.0263467  64.4352150  46.7048979  30.0111341
  64.8283577  47.2132444  29.1307235  63.4140968  46.4697695  29.7109222
  64.3501043  47.2552395  30.9481382  64.8000002  44.6450186  29.0661120
  64.9085522  43.7018538  29.2084599  67.2453547  46.6579103  30.9580064
  67.7916765  47.5617361  30.3397751  67.1768045  46.5613937  32.3301315
  66.7874479  45.7135391  32.7169681  67.8202677  47.5292063  33.2389498
  67.6032257  48.5681581  32.9908252  67.2794247  47.3248386  34.7175789
  67.5073910  46.3205004  35.0745797  67.8435993  48.4143829  35.7681251
  67.5995016  49.4331503  35.4670548  67.4460983  48.3814907  36.7825294
  68.9203644  48.2805252  35.8718491  65.7668972  47.3712826  34.7791672
  65.3150892  47.9303741  33.9597917  65.4361248  46.3563013  34.5589352
  65.3917217  47.6915836  35.7511497  69.2906618  47.6241636  33.1687522
  69.9395084  48.7286997  33.2045150  69.9117470  46.4380407  33.0832314
  69.3544340  45.5958414  33.0689597  71.3926458  46.3865328  33.0825138
  71.7552090  46.9816828  33.9206386  71.8029165  44.8929358  33.2699132
  71.4228821  44.2997217  32.4381828  72.8848934  44.7651720  33.2366252
  71.3618612  44.1291761  34.6358323  71.2022543  44.9198627  35.3689408
  70.4219961  43.5850000  34.5429754  72.4175930  43.1494522  35.1527929
  72.4419451  42.1924877  34.6315193  73.4183121  43.5812712  35.1668859
  72.0615435  42.8301525  36.6041088  72.3928976  43.6737537  37.2096181
  70.9773207  42.8335762  36.7161846  72.6016617  41.6145754  37.1481681
  72.1972132  40.8311415  36.6554642  73.5908985  41.5462208  36.9562221
  72.3637724  41.6461802  38.1292439  72.0444441  46.9884157  31.8042326
  72.8834820  47.8468466  31.9065523  71.4565992  46.5804911  30.6984997
  70.6588364  45.9839773  30.8653927  71.6956663  47.1132421  29.3729043
  72.7539873  46.8678522  29.2842627  70.9251213  46.3025284  28.3011866
  69.8470449  46.2725401  28.4591460  71.2067509  46.7335796  27.3404622
  71.4292717  44.7915173  28.0663610  72.5143147  44.7720528  27.9643369
  71.0927868  44.1365385  28.8700223  70.8349371  44.1531229  26.7404222
  69.5748949  44.2092037  26.5245509  71.5826225  43.4775209  26.0038781
  71.3937569  48.5747004  29.2939305  72.1340322  49.3383312  28.6766505
  70.2506351  49.0291071  29.8824024  69.6787310  48.3512497  30.3656650
  69.8839903  50.4676247  30.0055504  70.0512218  51.0270500  29.0851212
  68.4298992  50.6058407  30.4258323  68.3136654  50.0074530  31.3294482
  67.9118729  52.0553160  30.7338214  66.8683720  51.9851685  31.0408807
  68.4830236  52.5595808  31.5133142  68.0222034  52.6410151  29.8211980
  67.5600290  50.0895357  29.4431949  67.5258636  49.1370964  29.5584822
  70.8543396  51.1634350  31.0360956  70.9402132  52.4140596  30.9946871
  71.6042280  50.4568195  31.9094563  71.4397860  49.4636250  31.9908595
  72.5319386  51.1311150  32.7537823  72.2117281  52.1584988  32.9271388
  72.4488592  50.5285549  34.1321683  72.6641417  49.4684267  33.9984775
  73.4032249  51.1071348  35.1197958  73.0934381  50.8850098  36.1409664
  74.3816948  50.6350994  35.0310040  73.6308384  52.1697664  35.0354767
  71.1755753  50.6240273  34.7347093  70.6170940  50.0281763  34.2300653
  73.9343119  51.1127329  32.1837401  74.6739674  52.0523405  32.3837042
  74.3138361  50.1203442  31.3262415  73.6553478  49.3595839  31.2382627
  75.6331158  50.0651693  30.7572341  75.9644413  51.0717440  30.5020213
  76.5805244  49.4297743  31.8552256  76.7390203  50.1922083  32.6179028
  76.1977005  48.5005140  32.2771478  77.9434490  49.0537739  31.2183666
  77.8900003  48.1643009  30.5906057  78.3310318  49.8881578  30.6338286
  78.9703035  48.9334202  32.3790359  79.0808916  49.9222469  32.8241038
  78.6773968  48.2781124  33.1993318  80.2600193  48.5779381  31.8256664
  81.0754395  49.1376162  32.0304871  80.6048298  47.3141479  31.5277863
  79.7654343  46.3188982  31.5716553  78.7645674  46.3817549  31.6917300
  80.0680637  45.3588104  31.4894867  81.7931557  47.0951509  31.1122584
  82.4694252  47.7726984  30.7902384  82.0514965  46.1284781  30.9747481
  75.5444098  49.3396187  29.4748998  75.1909304  48.1636620  29.4705915
  75.8167124  50.0254011  28.3416438  76.3244057  50.8932590  28.4374332
  75.4592371  49.6798849  26.9486332  74.5156050  49.1494226  27.0761800
  75.3775883  50.9928703  26.0770822  76.3098621  51.5249729  25.8877826
  74.6396255  50.6450033  24.7296834  73.6378670  50.2799845  24.9562812
  74.5039463  51.5685081  24.1668105  75.1593542  49.9185753  24.1049480
  74.6806240  52.0317793  26.7142749  75.2818727  52.7405119  26.9546819
  76.4785147  48.6609602  26.3949800  77.3596811  48.9734316  25.5711842
  76.3081264  47.3806763  26.8733954  75.7162237  47.2096825  27.6737165
  77.2556305  46.2637138  26.6635203  77.8368807  46.4654112  25.7637596
  78.3107328  46.3453865  27.8647995  77.8763390  46.2353134  28.8584232
  78.9155912  45.4393005  27.8293443  79.2783928  47.5517178  27.7872252
  78.7588358  48.4908962  27.9772258  80.1025105  47.3839855  28.4806275
  80.0745010  47.7294302  26.5125251  80.3544331  48.8653040  26.0902596
  80.5961800  46.6845942  26.0054374  76.5946484  44.8593187  26.5548563
  75.4537916  44.6875906  27.0515680  77.3640394  43.8511610  26.0650325
  78.7024117  44.0099096  25.4602695  79.3932724  44.5111275  26.1382008
  78.5088062  44.6143913  24.5741463  79.2344761  42.5905800  25.0862050
  79.9908876  42.3313284  25.8269691  79.6592236  42.4223948  24.0965581
  77.9842472  41.7116976  25.1725054  78.1565475  40.6683636  25.4368234
  77.5482893  41.6602993  24.1748071  76.9730568  42.4521160  26.0629034
  76.0487604  42.3601341  25.4925370  76.8799257  41.7981625  27.4393201
  77.8703308  41.8097830  28.1830454  75.7712460  41.1624765  27.7839017
  74.9948502  41.2478495  27.1435714  75.4810667  40.4495001  29.0761399
  76.3680029  39.9890471  29.5113778  75.1236248  41.5373087  30.1040363
  76.0665751  42.0768642  30.1925039  73.9041662  42.4080896  29.6969271
  74.0938711  42.8147554  28.7035823  72.9977894  41.8078852  29.7765231
  73.7951231  43.2653332  30.3612638  75.0111675  40.8258629  31.5092826
  74.1521120  40.1550341  31.5200377  75.8726215  40.1909590  31.7163897
  74.8664236  41.6886568  32.7278233  75.2871275  41.2532520  33.6342025
  75.3266001  42.6742363  32.6573300  73.7817478  41.7787027  32.7866459
  74.4687462  39.3195820  28.7713599  73.4995174  39.6041894  28.0213904
  74.6949339  38.0786967  29.2470074  75.5858898  37.9018831  29.6886277
  73.7946415  36.9256067  29.2490172  73.0790281  36.9989538  28.4301043
  74.7126961  35.7922125  28.8981462  75.1253796  36.0650229  27.9268765
  75.4832268  35.6748843  29.6601248  74.0151310  34.4937921  28.6678314
  72.8791904  34.1850495  29.0761137  74.6948528  33.5899377  28.0408072
  74.1704750  32.7281213  27.9917574  75.6102800  33.7075639  27.6306200
  73.1397820  36.7791486  30.6018949  73.7045479  37.1344972  31.6024303
  71.8710041  36.3965750  30.6014037  71.4258432  36.1746573  29.7223783
  71.0196495  36.4410472  31.7911029  71.5960455  36.1221027  32.6595187
  70.4489517  37.8627014  31.9795895  70.1567984  38.2213497  30.9926128
  69.2293310  38.0552411  32.8740382  69.4658566  37.9199934  33.9294410
  68.8710546  39.0564537  32.6346445  68.3929396  37.4291539  32.5632930
  71.4930534  38.6374068  32.4601579  72.3198652  38.3265185  32.0842218
  69.9434662  35.3420901  31.7781973  69.4685745  34.9007177  30.7414937
  69.5203590  34.9123788  32.9636621  69.9111986  35.3240585  33.7990475
  68.4811163  33.8984871  33.1526685  67.9910612  33.6568666  32.2094989
  69.2412758  32.5987029  33.4777236  70.1222515  32.5040102  32.8428936
  69.7001410  32.2532225  34.9025822  68.9195299  32.4853921  35.6270361
  69.9419785  31.1903906  34.9019909  70.6270075  32.8063512  35.0544834
  68.3048201  31.5494990  33.1859541  68.4351444  31.1663795  32.3154140
  67.4879885  34.3603325  34.2037988  67.7065516  35.0825524  35.1094079
  66.2992859  33.7034225  34.0723491  66.2002325  33.0515480  33.3072662
  65.1637173  34.2259789  34.9159813  65.1792336  35.3111792  34.8149943
  63.9560938  33.6400533  34.2565608  63.0989838  34.1363549  34.7116971
  64.0469265  33.9074564  33.2037807  63.8393164  32.1615148  34.3370128
  63.3943272  31.5165353  35.4662442  62.8826666  32.0580649  36.2481356
  63.7574863  30.1507282  35.6448507  63.5840082  29.6183300  36.5683532
  64.3594408  29.3689871  34.6205378  64.8494530  28.0878496  34.8787737
  65.0030041  28.0049801  35.8227849  64.6949339  30.0481462  33.4235024
  65.1390076  29.4738030  32.6239228  64.4874859  31.4413500  33.2846069
  64.7602224  31.9112277  32.3512077  65.2491283  33.8911819  36.4254856
  65.7267189  32.8437114  36.7975211  64.9126768  34.8495841  37.2242594
  64.6850967  35.7808876  36.9064832  64.8496342  34.8797250  38.7489367
  64.2960167  34.0348172  39.1585016  66.1580515  34.7612214  39.4577646
  66.5754795  33.7984633  39.1628861  66.7850637  35.5601907  39.0620279
  66.0740471  34.8201036  40.9059477  66.9600391  34.9956560  41.2312317
  64.1893816  36.1974859  39.2415047  64.8178720  37.2772551  39.0588689
  63.0468559  36.0764074  39.9143815  62.5913620  35.1768899  39.9735379
  62.4175119  37.1922398  40.5423403  62.3383522  37.9408717  39.7540569
  61.1012936  36.9024563  41.0948896  60.4120731  36.9117141  40.2505016
  61.1672115  36.0009933  41.7040873  60.5698872  38.0022764  42.0342875
  59.6630812  38.8758159  41.5267420  59.5326328  38.9821124  40.4599333
  59.1498804  39.9455333  42.3152971  58.4859324  40.6383467  41.8197298
  59.4720793  39.9829721  43.7010431  58.9020967  40.9002161  44.4735050
  58.0678701  41.1957645  44.1015911  60.4289103  39.0919399  44.2299032
  60.7047606  39.1260457  45.2735233  60.8779621  38.0564523  43.3983135
  61.4583397  37.2963166  43.9000702  63.3464813  37.8756356  41.5909100
  63.4902334  39.0728498  41.6549873  63.9991331  37.1022320  42.5131607
  63.8693714  36.1024237  42.5735283  64.6690750  37.7201676  43.5945415
  63.9407730  38.4052920  44.0284491  65.1312971  36.7113495  44.6347427
  65.7965851  35.9746265  44.1844797  65.6871128  37.4386144  45.8900785
  65.5887365  36.7231607  46.7065096  66.7444086  37.6756501  45.7715940
  65.1715469  38.3676648  46.1332941  64.0234566  35.9861422  45.0099277
  63.6217070  35.6559324  44.2029858  65.8596945  38.5517192  43.1797171
  66.0722446  39.6611047  43.6408663  66.6815329  38.0527759  42.1783686
  66.2773752  37.2392654  41.7368221  67.7912283  38.8369489  41.4998579
  68.3583736  39.1887546  42.3616457  68.7367773  37.9523897  40.7215643
  68.2891226  37.6254296  39.7830510  69.6273851  38.5604429  40.5628490
  69.1101551  36.8183184  41.6460609  69.9942255  37.1797276  42.5294018
  68.6342430  35.6963205  41.5472651  67.3482752  40.0844812  40.8333540
  68.0009460  41.0910463  40.7951307  66.1652946  39.9148226  40.1673222
  65.7967472  38.9784527  40.2538013  65.3733492  41.0490370  39.5944238
  65.9600258  41.5635109  38.8333488  64.1008043  40.4507732  38.8304877
  64.3780088  39.5835567  38.2311583  63.3494663  40.0678778  39.5211339
  63.3228827  41.4439583  37.9265332  64.0520859  42.5320244  37.3288989
  65.0829935  42.7876616  37.5245500  63.3773708  43.6082268  36.7292762
  63.8684654  44.5314789  36.4594126  62.0261335  43.5785055  36.7484927
  61.5033627  44.4824362  36.4727783  61.2859774  42.4523735  37.1841931
  60.2080917  42.4835777  37.2441196  61.9460964  41.3352919  37.7004623
  61.4757872  40.4153728  38.0150342  64.9889421  42.0830870  40.6570005
  65.1871586  43.2691288  40.5082369  64.3336916  41.6110373  41.6806650
  64.2080784  40.6094837  41.7154980  63.9396143  42.5186872  42.8033590
  63.1826448  43.1686401  42.3644400  63.1424618  41.6736221  43.7779331
  62.3343086  41.1558533  43.2612991  63.8178205  41.0162020  44.3254614
  62.4688053  42.4749088  44.8806477  62.3000336  43.4843874  44.5057249
  61.4449883  42.1026087  44.9167061  63.0978870  42.5595856  46.3011503
  63.9252806  41.7718172  46.6866636  62.6647949  43.4496880  47.1606445
  63.2354021  43.4344101  47.9938745  61.8558836  44.0454912  47.0568085
  64.9821758  43.3171320  43.5342598  64.7966957  44.4692564  43.8498163
  66.1912251  42.7076006  43.6632395  66.2729263  41.7556667  43.3357525
  67.4050570  43.4305906  44.0324211  67.1233368  44.0133095  44.9094486
  68.5277605  42.4745655  44.5402288  68.1096506  41.7040873  45.1880312
  68.8985825  41.8709421  43.7118387  69.8523998  43.0424118  45.0854063
  70.4032326  42.2059822  45.5156040  70.4478931  43.4725428  44.2801237
  69.6913719  44.0611553  46.1416817  69.2840195  44.9907398  45.7441425
  68.9241982  43.6636019  46.8061304  71.0024023  44.3567944  46.9333076
  71.5377522  43.4105873  47.0119905  71.6004848  45.2042484  46.5983200
  70.6631899  44.6674776  48.3533049  69.8226357  45.2264738  48.3865452
  70.4400110  43.7742758  48.7686157  71.4074278  45.1014137  48.8804722
  67.8735352  44.4355011  43.0003166  68.1132889  45.5360794  43.3936071
  67.8292513  44.0982246  41.6437435  67.6434135  43.1268692  41.4387274
  68.3208799  45.0882053  40.6917858  69.3207073  45.3953028  40.9986067
  68.3530998  44.4456053  39.3169785  68.8935375  45.0540972  38.5918784
  68.9146996  43.5249043  39.4751573  67.3539782  44.1248226  39.0220928
  67.3523474  46.2800741  40.7554245  67.8192043  47.4060822  40.7720280
  66.0198498  46.0557175  40.8225250  65.7368374  45.0867701  40.8563662
  64.8783731  47.1011305  40.8602953  64.9738598  47.7570963  39.9950266
  63.5467911  46.3240957  40.7567644  63.6739492  45.4405451  41.3822794
  62.3551130  47.1326876  41.3131618  62.2443724  47.9683161  40.6221056
  61.5413094  46.4269447  41.1465740  62.5122881  47.4303055  42.3498964
  63.3160543  45.6881285  39.3360925  64.2777205  45.3856611  38.9215899
  62.8413868  44.7126484  39.4420433  62.7573204  46.3103342  38.6369586
  65.0743961  48.1129885  42.0420170  65.0841570  49.3131685  41.7922163
  65.3390217  47.6564932  43.2882500  65.3146839  46.6640854  43.4743834
  65.7488585  48.4771061  44.4087267  64.9679470  49.2228317  44.5576334
  65.8740139  47.5414944  45.7092810  66.3576937  46.6046286  45.4328012
  66.4557219  48.0084419  46.5040636  64.6163321  47.2545958  46.4266729
  63.7313128  48.0927706  46.6346121  64.4364929  46.0673809  46.9806480
  63.6585522  45.8768034  47.5959444  65.0894928  45.3238726  46.7784262
  67.0367050  49.2260027  44.1805840  67.0112562  50.4002190  44.5597553
  68.1235170  48.7840271  43.4882641  68.0250216  47.8668404  43.0769634
  69.2695808  49.6112490  43.1696892  69.6539402  50.0552273  44.0879822
  70.4234314  48.7591171  42.7334023  70.1943874  48.2373190  41.8042278
  71.1529589  49.5526314  42.5714493  70.9934902  47.7194977  43.6538601
  71.5585661  48.2129145  44.4446373  70.1340818  47.1722651  44.0412235
  71.7900229  46.5976381  42.9318190  71.2318420  45.8222723  42.4070883
  72.3881197  47.0293188  42.1292973  72.7223396  45.8913898  43.8653421
  73.5352850  46.5300989  44.2107058  72.0731258  45.6669617  44.7116613
  73.3016157  44.7204351  43.2002783  73.8094044  44.8943567  42.3447084
  73.9547873  44.2604065  43.8182163  72.6373339  44.0205526  42.9019642
  69.0683317  50.7641649  42.1455812  69.7966480  51.7455339  42.2132206
  68.0480719  50.6728125  41.2845707  67.5475788  49.8043156  41.4083624
  67.6343870  51.6387606  40.2955341  68.5246134  52.0322227  39.8048353
  66.7239094  50.8682728  39.3264151  67.3258448  50.0509548  38.9292145
  65.8936453  50.5129766  39.9367619  66.1002541  51.6747618  38.1573749
  65.4638529  52.4993610  38.4785128  67.1296835  52.2187948  37.2103429
  66.7452955  52.4167252  36.2097621  67.6358700  53.0850506  37.6363468
  67.8384495  51.4088631  37.0378566  65.1591778  50.7280016  37.4876237
  64.3118525  50.4355717  38.1077981  64.8176670  51.1855173  36.5591049
  65.6259918  49.8212910  37.1028399  66.9252872  52.8015471  41.0722780
  67.0956516  54.0269852  40.8045769  66.2127924  52.4354553  42.1605873
  66.1634684  51.4411831  42.3311424  65.4464293  53.2960129  43.0212212
  64.9430847  54.0208387  42.3813963  64.3185997  52.5827503  43.8417578
  64.7377396  51.8528748  44.5343733  63.8031483  53.4030008  44.3413544
  63.1971550  51.9244719  42.9404545  63.5296917  51.2630510  42.1404219
  62.3719072  50.9777546  43.8852167  61.9179678  51.5876007  44.6663237
  61.5613508  50.5537653  43.2924843  62.7860928  50.0785446  44.3412542
  62.1785736  52.8675413  42.2526932  61.2612104  53.1181383  42.7853727
  62.7396679  53.7957859  42.1448183  62.0283842  52.4510527  41.2566662
  66.3802958  54.1529179  43.8746262  66.1894274  55.3513908  44.0389681
  67.4957514  53.6509895  44.3337536  67.4823570  52.6415396  44.3642426
  68.5991096  54.3274736  45.0191307  68.1592941  54.8296309  45.8808136
  69.6519852  53.3564568  45.5742359  70.3171349  52.9406834  44.8173904
  70.6834650  54.0451002  46.5216351  71.2431526  54.7642136  45.9235239
  70.2536631  54.5120430  47.4078274  71.3323021  53.3203650  47.0134354
  68.9855576  52.3396587  46.3034487  68.5662174  52.7907658  47.0398331
  69.2374611  55.3299189  44.1240072  69.4512749  56.4491463  44.5031452
  69.6223831  54.9157238  42.9506683  69.4474554  53.9386082  42.7642775
  70.4626131  55.6543541  41.9400358  71.2400913  56.1815739  42.4929142
  71.0401535  54.5224571  41.0296345  70.2079821  53.9685249  40.5951738
  71.5904236  54.8777962  40.1584053  71.7162991  53.9013481  41.6171312
  69.6658230  56.6257238  41.0744381  70.2156067  57.2293186  40.1835871
  68.3546448  56.8291426  41.3722277  67.9776573  56.2492085  42.1082067
  67.4191570  57.5753927  40.4868174  67.8919983  58.1530762  39.6925879
  66.5325117  56.6369295  39.6758056  65.7940483  56.1844063  40.3376150
  65.8741283  57.2331572  39.0440297  67.2670460  55.7264471  38.8849521
  67.5941753  55.0832844  39.5181394  66.5243053  58.5095024  41.3457537
  65.3816271  58.6499882  40.9604311  66.9820023  58.9146471  42.4985170
  67.9772472  58.8585520  42.6611185  66.2591553  59.7740602  43.4347534
  65.2432919  59.3792057  43.4494209  66.8849850  59.6468782  44.7861910
  66.8876934  58.5989189  45.0859880  67.9204845  59.9841595  44.7405005
  66.2702608  60.5279493  45.8545637  66.2296534  61.5680885  45.5312109
  64.8390913  60.0641537  46.1789942  64.8241901  59.0727329  46.6317272
  64.2593384  60.7345247  46.8134928  64.3831062  60.0738049  45.1889992
  67.1306086  60.5138445  47.1940899  66.6283560  60.9857130  48.0385923
  67.3003387  59.4668722  47.4453783  68.0293655  61.1130428  47.0481396
  66.2613869  61.2184000  42.8584623  65.1892138  61.8437958  42.7814198
  67.3441410  61.6477966  42.3406219  60.0979614  34.8966289  37.3208714
  28.8027906  49.2551708  52.0931911  72.2316122  46.2436438  38.5676575
  42.1211243  62.7602291  66.2688732  93.5610897  14.5576426   5.9752544
  35.8331418  63.1067371  62.3195505  41.2162638  52.5293636  33.1027269
  68.0565834  46.6615915  48.9559221  25.9495847  62.5012728  64.1454108
  25.8321301  63.4201476  63.9043697  26.6744105  62.5084063  64.7705539
  65.0712350  66.5104332  24.1408713  64.1788963  66.7571989  23.8978274
  64.9967125  65.6030932  24.4365295  13.6741607   4.6146676  36.2575896
  13.5419814   4.8553368  35.3406222  13.4439198   3.6864135  36.2971671
  29.4679038   4.9529979  43.3306296  29.8681609   5.8179709  43.2420619
  29.9130122   4.4149443  42.6759513  10.0794045  28.7409922  50.2351935
  10.8939855  28.5358235  49.7762855   9.8516099  27.9314563  50.6923469
  86.1678650   6.3957697  64.5706320  85.7465293   6.7044395  65.3727722
  86.5309360   7.1863151  64.1713238  93.8096701  87.4535166  63.8749361
  93.3478032  87.4228223  63.0370998  94.6629559  87.0599563  63.6926079
  80.8770087  53.0887285   3.7008842  80.1320413  53.6158189   3.9897235
  81.1685994  52.6331398   4.4906028  66.0596874  86.8012896  33.4036716
  66.9939569  86.8283835  33.6101611  65.9105900  85.9111777  33.0847724
  11.6949050  16.3951585  23.2492717  11.7667644  17.1223923  22.6310523
  12.0111625  15.6343982  22.7619727  76.6678384  83.0332628   0.3906472
  77.0582536  83.1900731  -0.4691283  77.2736266  83.4442892   1.0073455
  27.0761888  10.7449719   0.9022315  27.8993337  10.2796265   0.7535060
  26.3980357  10.1200768   0.6456264  16.4918010   7.8604647  27.4594958
  16.9725005   8.2693335  26.7397864  16.1929337   7.0238492  27.1031459
   2.2056068  56.8000868  52.8706630   3.0419887  56.7153111  52.4129375
   2.3978008  57.3667636  53.6177714  88.5287431  81.1162224  43.1273349
  89.0691665  81.5736976  43.7714561  88.4497979  81.7329874  42.3996051
  70.8537296  74.4990244   0.9052594  70.4617480  74.9117938   0.1357110
  71.2961272  73.7228980   0.5615361  21.6544832  72.8752461  62.5831683
  21.3346018  72.5342861  63.4184249  21.5905203  73.8261333  62.6723559
  13.9676349   9.4356581  56.0086520  13.5791223   9.7191378  55.1810535
  14.1603677   8.5073182  55.8772071  41.1575699  30.2772951  69.7045326
  40.4426432  30.5330372  70.2873802  41.8365526  30.9348845  69.8554945
  76.5354064  87.4161568   6.6194232  76.8374542  87.8887787   7.3950751
  76.6897681  88.0219880   5.8946021  82.0067933  69.9471059  27.8348716
  81.6130164  70.3278842  28.6198409  81.2915853  69.9151936  27.1995051
  56.3458554  24.2305371  61.9446643  57.0010583  24.9236819  62.0252593
  56.8542306  23.4406134  61.7607959  32.4847047   7.5234839   2.3245700
  31.8836467   8.2657000   2.2607120  33.2711999   7.8116557   1.8613036
   4.6180527  18.9850566  27.1171935   4.7389976  18.2479665  27.7157767
   3.9833157  18.6695477  26.4739307  68.1880334  70.2282920   5.3413089
  67.4341133  70.2619210   4.7524913  68.7508467  69.5482245   4.9711974
  47.1330833  35.7017922  75.9028149  47.0428276  35.2026463  76.7145681
  48.0237150  36.0511160  75.9342146   1.3359989  81.9380465  11.6927035
   1.6044153  81.0547557  11.9456466   2.0742525  82.2769490  11.1863788
  89.8412210  15.3014848  46.4325412  90.6502325  14.9503419  46.8046077
  89.3242246  15.5685517  47.1925529  61.5160635  75.5388322  16.5771468
  61.7495731  75.1419821  15.7379706  62.2421435  75.3137222  17.1588405
  65.1419667  75.3900066   3.9177306  65.8620528  75.9746924   3.6813911
  64.9564031  75.5966917   4.8337348   0.2672876  68.3603564  36.6910537
  -0.1797663  67.5958839  37.0543178   0.9106268  68.6008420  37.3577769
  22.1072207  32.0196605  58.6886501  21.9963847  31.1116552  58.4067392
  22.1629820  31.9690752  59.6428871   1.4743198  77.5286189  24.8132499
   0.8774437  76.7981162  24.6509917   0.9213842  78.2088747  25.1976283
  80.4669189  40.5459213  75.6816721  79.8595142  40.9941387  75.0931168
  79.9223471  40.2590132  76.4147186  53.5416524  12.8060910  13.0788215
  54.3056600  13.1275317  12.6000674  52.8016393  13.2720753  12.6896270
  29.9025202  27.0098138  68.3279371  29.6911764  27.8948307  68.0307674
  29.2744589  26.8362212  69.0291023  52.3331308  28.0422163  76.4988852
  51.9244576  27.1872902  76.6342402  53.2718897  27.8572679  76.4713144
  10.1621024  15.3513190  29.4293388   9.5003144  14.7424933  29.1013129
  10.1410357  16.0830638  28.8126262  18.0488491  60.3110647  62.9786777
  17.2423029  60.6577253  62.5971794  18.7415016  60.6166840  62.3929644
  81.7213681  76.2905732  29.3994315  81.9305614  76.2669721  28.4656699
  80.8097366  76.5804139  29.4333919  83.2809881  59.3581500  29.0031894
  83.3223918  60.0089612  29.7038730  82.9122642  59.8319712  28.2576831
  42.8455353  75.9921741  71.7248583  42.1876478  75.3703022  71.4139223
  43.6511755  75.4787350  71.7844725   3.4462465  68.9124766  13.2490810
   4.3260826  69.2685404  13.3729346   2.8627027  69.5958987  13.5786899
  84.9303106  70.0659695  30.5642398  85.6102279  69.9329248  31.2247260
  84.1260579  70.1859894  31.0692199  12.0839374   5.4427621  29.7185691
  12.5222318   6.0992858  29.1771777  12.0642678   5.8288094  30.5942519
  78.2187846  72.0704022  14.2083629  78.4609988  72.9862848  14.0715297
  77.8979066  72.0396033  15.1096519  29.3193976   0.9331366  45.2389415
  29.6607892   1.0433957  46.1263641  29.9106757   0.3000018  44.8317989
  11.2478988  30.8598515  16.7798503  11.7444674  30.2819869  17.3592647
  10.6657474  30.2727315  16.2975391  15.7378928  31.6555735  26.4715083
  15.5026738  31.1481044  27.2482761  16.6940801  31.6947409  26.4914973
   3.8828008   3.6771628  20.1575740   3.5899584   3.1360623  19.4243034
   3.4375112   3.3081958  20.9203418  69.1555408  67.1096721   9.4324763
  68.7175062  67.1076122  10.2835639  69.4073489  66.1971655   9.2904933
  19.3574823  63.0698028  43.5123618  19.8018469  63.0730536  42.6645644
  20.0611318  62.9555169  44.1511520   3.8459696  63.2409456  38.9289458
   4.1734327  62.7002564  38.2101520   2.9496397  63.4602895  38.6745532
  28.3343188  11.0119101  10.8414157  28.6528460  11.8108317  11.2615283
  28.7989823  10.3045460  11.2885745  86.1828616  34.9668792  51.5267833
  86.9459775  35.5357316  51.4253314  86.1627391  34.7573849  52.4605544
  66.4459756  73.5764709  33.1755336  65.6463602  73.0748930  33.3344825
  66.3668206  74.3406692  33.7464698  30.2242677   5.3037736   8.9330657
  29.3464868   5.0743338   9.2381747  30.3032987   6.2404963   9.1134437
  61.7429399  28.5703111  68.5251713  62.3015404  28.0905604  67.9135895
  62.2063589  29.3939328  68.6772299  77.6502994  79.4535151  16.8794139
  76.9322541  79.8469963  17.3752006  78.4168151  79.5597902  17.4427875
  90.6667859   9.5345971  35.7878097  90.0349433   9.8878714  35.1615508
  90.1829416   8.8567540  36.2596686  72.9186678  45.8414698  58.6319065
  72.9291296  46.6929913  59.0689850  73.1769657  45.2197886  59.3123627
  14.4752945  22.1410337  51.5336211  15.2643360  21.9671145  51.0204013
  14.7422327  22.8100481  52.1640189  81.0417894  72.6164499  30.2689059
  81.2890437  71.8445244  30.7780536  81.3311723  73.3573595  30.8013900
  14.1776149  16.7507645  13.2552512  14.7549741  16.1196038  12.8256877
  13.8920657  17.3323437  12.5506576  41.2839858   3.0171725  21.6436561
  42.0613353   3.5659644  21.5397914  41.2240188   2.5289532  20.8225043
  68.1029442  54.3506625  76.7674239  67.8317598  54.0849325  75.8887466
  68.9916304  54.0067801  76.8580611  80.6806278  28.4296346  75.1291466
  81.2593174  28.2692528  74.3837500  79.8547935  28.7106538  74.7351122
   1.0558523  83.3795991  36.3315757   1.1162485  82.5557175  36.8151076
   0.1198162  83.4920540  36.1659701  87.1586660  78.8952318   7.3848899
  87.3766616  79.7170988   7.8244861  86.5622762  79.1508642   6.6811736
  44.0309016  31.0431811  20.8986171  44.1288297  30.0917384  20.9360393
  43.7370889  31.2884089  21.7759879  82.7529770  29.0114447  46.6162475
  83.0589801  29.8209378  46.2072070  82.3662347  28.5112759  45.8975680
   5.8953870  75.6798902  50.4851516   6.7743028  75.7484785  50.8580287
   5.8251966  76.4321080  49.8973830  51.7985582  30.3267884  66.2279129
  51.3920021  29.7210264  66.8475914  52.7313900  30.1150870  66.2630033
   1.7159809  59.6057954  11.9616016   2.5180591  59.8934975  11.5255626
   1.9495548  59.5631543  12.8888877  85.7173732  85.5570641  19.9927886
  86.6703800  85.4778042  20.0343211  85.4580453  84.9626198  19.2887958
  11.0742582  72.1600976  33.9072307  11.4568676  71.3403144  34.2199596
  11.3658441  72.8170147  34.5394309  91.3020948  80.4936400  25.9572108
  91.1547807  81.1654344  25.2914699  90.5009416  79.9698677  25.9503253
  73.0971864  50.7984289  16.9641669  73.4746030  50.4776105  17.7832301
  72.3841289  51.3749948  17.2386630  62.5918773  86.0062447   7.3879130
  63.2017306  86.0374680   8.1250175  62.7279785  86.8352547   6.9291576
  14.0111367  18.6931321  -0.1671855  14.4447009  18.6193797   0.6830009
  13.1255738  18.9911696   0.0406201  72.9447416  88.2645216  39.3123801
  73.2374862  88.8549366  38.6181625  72.1496537  88.6730042  39.6547492
  21.1742370  24.2971036  43.8223632  21.5717189  25.1369521  43.5923751
  21.2967746  24.2253682  44.7689803  82.8463605  59.0525690  38.5557349
  82.8778413  60.0011816  38.4317287  82.0366290  58.7812427  38.1233485
  38.4099881   6.3847777  70.5410083  38.1397693   6.7025563  69.6794780
  38.3925931   5.4311034  70.4608043  70.2022028  44.0670204  74.7370386
  70.8476114  43.5718107  74.2326117  69.3577480  43.7968826  74.3762684
  12.7196420  70.8809152  10.9612640  13.0027689  70.2061429  11.5783198
  11.9905342  70.4811516  10.4871162  43.8871908  15.1269305  64.0287733
  44.2443228  15.8353162  64.5643806  43.6621761  15.5451226  63.1976795
  87.6325038  70.7608715  25.6105216  87.2653583  71.6333642  25.7526286
  88.0624822  70.8180228  24.7572406  25.2791895  51.4871976  11.0185035
  25.0727094  51.0962131  11.8674644  24.4985689  51.3315007  10.4868873
   5.1755680  30.9081474  10.9993728   5.3848089  31.3692918  11.8116553
   6.0178865  30.8113232  10.5551227  87.0165971  64.2634240  35.3473266
  87.8358367  64.7108283  35.5592521  87.2822431  63.3724966  35.1194842
  61.6765359  87.4060431  30.7191165  61.1647490  86.6352072  30.9643062
  62.5877527  87.1274939  30.8103736  20.5837167  62.5984326   4.8330100
  19.7288049  62.1764543   4.9184116  20.5662073  63.3073142   5.4759868
  21.5579523  79.6945515  38.8880714  22.1693720  79.0140930  38.6063560
  21.7319788  79.8006502  39.8233207  46.8145815  71.5566936   3.6855682
  45.9541312  71.9738498   3.7284453  46.7921081  71.0437861   2.8777011
  18.2004274  81.5239993  39.3266948  18.4083761  82.3852458  39.6889766
  17.9045500  81.7045584  38.4344562   6.4042155  35.7485625  12.1353610
   6.9003884  36.5265223  12.3899444   5.4876606  36.0053298  12.2364982
  14.6428074  73.4537545   9.0772899  14.3176187  73.7505069   9.9272426
  15.0421919  74.2320075   8.6886390  40.1702461  77.2403160  49.6482261
  40.6175915  76.6392532  49.0525420  39.6662811  77.8163519  49.0733989
  80.2122262  41.7258179  11.8861182  79.5658878  41.2177336  11.3958819
  79.7863248  41.9113254  12.7230342  61.3563255  67.3713842  54.8059543
  60.4216913  67.1653452  54.7905334  61.5226153  67.7928677  53.9627917
  33.2837455  17.0741507  34.5299800  32.3609797  16.9713256  34.7627147
  33.2693021  17.5357053  33.6915382   6.4987243  71.4677182  10.0368007
   7.3678554  71.8241659  10.2206119   5.9378732  72.2382155   9.9473079
  91.1338026  21.6613337  39.9283965  90.5592686  21.0793587  39.4309505
  91.1573297  21.2813756  40.8066352  85.2320913  65.6412378  28.4804614
  85.8118108  65.8999196  29.1968711  85.3315547  64.6909490  28.4230979
  31.8435205  18.2341638  19.0072711  31.7943300  19.1824189  18.8863357
  32.5910009  17.9631916  18.4742816  62.8257990  38.3784413  61.2959194
  62.5644112  37.4582005  61.2632895  63.5890770  38.3902931  61.8734121
  35.8274095   7.3578450   5.8672507  35.3543775   8.1635377   6.0754188
  36.3733117   7.5880429   5.1154311   2.5185598  74.0266982  25.7582553
   3.1039966  73.5315886  26.3312801   2.7683033  73.7608161  24.8732837
  15.1582162  13.3912369  21.1684020  15.8956925  12.7916476  21.0550292
  15.2012984  13.9704606  20.4075702  23.5661615  79.5790735  52.8527721
  24.0951551  78.9790311  52.3270877  23.6809362  80.4310742  52.4318774
  69.5296971  20.8735940  17.4883540  69.7218530  21.7131135  17.0706065
  68.6617105  20.9912440  17.8743346  14.0367476  35.6569430  42.6083930
  13.2062022  35.1855466  42.5434859  14.5456283  35.1586386  43.2478889
  72.4140406  52.1539831  70.6151628  72.9854870  52.5811529  71.2532902
  72.0711422  51.3880873  71.0756588  86.5818456  85.7952633  25.5856116
  86.6892818  86.0062733  24.6581634  87.3909715  85.3425684  25.8235438
  19.8505322  11.8052003  64.2415221  20.2680032  12.4864671  64.7686084
  18.9427821  11.7902657  64.5448382  47.0504332  61.8869066  74.8008060
  46.4300394  61.5108442  74.1763639  46.5067816  62.1774197  75.5331182
  13.9605634   6.8045136  46.0759814  13.3778684   6.8895814  46.8306144
  13.3841483   6.8938014  45.3170283   4.1121544  55.8884564  47.6271232
   3.2775415  55.7943705  47.1679957   4.3926347  54.9898901  47.8007300
  67.5228956  72.8462401  29.4135554  67.5653580  72.5130549  28.5172160
  68.3460596  72.5649014  29.8129066  24.2559640  18.2888171  42.8651221
  24.2960231  18.1101605  41.9256003  24.0724961  17.4378440  43.2631381
  64.4868994  59.7903395  73.8540125  64.5638609  59.6644115  72.9082632
  64.4273758  60.7391930  73.9652395  54.6986771  74.4144249  74.6008015
  54.8290157  73.4769058  74.7432756  55.4271269  74.8303127  75.0619173
  69.6559528  72.3931661  40.8552917  69.2700747  71.5180316  40.8936675
  70.5996946  72.2411981  40.9051784  82.0644668  62.8381720   6.1283763
  81.9104865  63.7751451   6.0075267  82.5546649  62.7798202   6.9484599
  64.9123716  32.1319962  69.2793226  65.0528860  33.0326724  68.9873171
  65.0633526  32.1602130  70.2241230  93.1614688  72.5107899   9.5424541
  92.9453662  72.4559322   8.6115821  92.3311332  72.7224818   9.9690326
  89.4996789  58.5924128  43.7225135  89.3766406  57.8875819  43.0866607
  90.0010923  58.1902733  44.4318088  29.9557127  69.0161386  12.8263267
  29.8549951  69.7259083  12.1920379  30.8919729  69.0035930  13.0250629
  53.0512333  38.5529828  60.1946878  52.7946186  38.9380741  61.0325956
  53.7164783  39.1491628  59.8508120   0.1962007  82.2131076   9.1858657
   0.6451811  81.5151158   8.7089427   0.1688589  81.9050255  10.0917228
  22.8626264  64.9289146  23.0479415  23.7126363  64.6715298  22.6909145
  22.5147451  64.1277101  23.4394630  85.8505154  51.3312435  75.3265429
  85.5211067  52.2279453  75.3869152  86.6593647  51.4067936  74.8203039
  13.4130729  81.1321631  41.7883285  13.1452526  81.1513462  42.7070983
  12.6379312  80.8233133  41.3192924  39.4624106  16.2705228   6.8515189
  39.9982802  17.0400759   7.0435126  38.5883681  16.6230103   6.6840823
  57.2606008  36.2190100  17.3798068  58.1184785  35.9122321  17.6733287
  56.8988435  36.6792723  18.1371196  15.9251801  28.7713954   8.2863887
  16.3214414  29.6326634   8.4183868  16.2903516  28.4643647   7.4565681
  77.9935932  87.6891232  58.3243322  77.9872179  87.6999378  57.3672152
  78.4305906  88.5044956  58.5701656  25.8145444   2.2485587  38.3972533
  26.0646502   1.7983386  39.2040809  24.8936574   2.0199630  38.2709964
  35.0768102  78.5774198   9.7657378  35.4089464  77.6820198   9.8303588
  34.1446317  78.4738818   9.5745547  16.1846654  10.8175990   6.9919570
  15.4185168  10.8252427   6.4182075  16.7611520  11.4909455   6.6307052
  72.6995996  76.6148630  32.0975288  73.1745103  76.4956871  32.9200156
  72.6801494  77.5629774  31.9673999  10.5064357  83.1070605  13.1017287
  11.0172189  83.7958517  13.5270579   9.6889270  83.5362783  12.8493770
  84.7652105  88.6332503  40.3552421  83.8265517  88.7821236  40.2412971
  84.9859908  87.9784003  39.6929248  14.3458379  52.9489443  27.5343497
  14.0315355  53.1386688  26.6503509  14.2935241  53.7878379  27.9923423
  16.6966213  57.3760918  22.2571929  17.3621477  58.0280390  22.4769004
  16.9878973  56.5783039  22.6986964  88.5831598  86.2102261  23.2413371
  88.7456229  85.3137675  22.9477294  89.3774942  86.4543286  23.7164004
  17.9444854  21.6187283  32.8034099  17.4963300  21.3367984  33.6008437
  17.2427146  21.9293687  32.2313483  23.1201331   8.8123891  40.5876525
  24.0451781   9.0005824  40.4291900  22.8621261   8.2484433  39.8585208
  70.4658726  82.7009168  27.7422984  69.6027306  82.5552049  28.1295760
  70.2841714  83.1344643  26.9084819  93.3710152  23.1806847  44.5183452
  93.3205825  23.4455153  45.4368003  92.4749524  23.2699391  44.1937907
  48.7086217  20.5361697  22.7287467  49.0107839  20.9921500  21.9432433
  48.3703820  19.7010228  22.4056991  12.7587284  78.3969679  37.2478469
  13.1650270  77.7261272  37.7965911  12.1635545  77.9111829  36.6768630
  74.2900753  40.3859615  74.1852474  74.6685219  39.9272060  74.9352837
  74.8603249  41.1436939  74.0553093  31.2982194  15.5066535   4.7304137
  31.8864982  14.7558448   4.8106750  30.7012383  15.2684304   4.0211185
  71.4863923  45.2690350  16.2872871  70.5487946  45.0966250  16.3734134
  71.6154006  46.1132076  16.7196830  73.6667302  82.3976603  30.2538665
  74.0765146  82.6816359  29.4367583  72.9464057  83.0137434  30.3873141
  21.9694917  21.5490195  47.1555694  22.5512855  20.9359547  47.6049026
  21.9907014  21.2717864  46.2396415  27.9854028   3.5231253   9.9814399
  28.1419293   3.1576249   9.1107257  27.1435706   3.9722201   9.9048884
  93.6117843  68.6154046  11.5843280  93.1685308  68.1255546  10.8916553
  94.0120128  67.9425278  12.1350463  51.1292283  12.8601977  49.1617759
  51.7336575  13.5985276  49.0857490  50.9546773  12.5994679  48.2574638
  30.8752839   3.4909341  20.0547488  30.4035727   4.2755505  20.3342136
  30.4039161   2.7679297  20.4686339  36.6590786  50.8155632  67.4756908
  37.4193192  50.6064081  66.9329977  35.9371209  50.9025812  66.8532467
  69.4037682  14.1635033   2.1856053  69.9320907  14.9607178   2.1461661
  68.9940965  14.1901967   3.0502971  40.7398717   5.5609414  49.7513183
  41.3745324   5.1656100  49.1536887  40.5324952   4.8650834  50.3750213
  19.1978944  71.8278876  13.9679893  19.4849313  72.2641578  14.7701724
  19.8069872  72.1357456  13.2968219   6.9347964  28.9256573  75.1782608
   6.5260516  29.3183851  74.4069433   7.4539862  28.2003260  74.8310423
  78.9115953  39.4309139  39.1359878  79.5828915  39.8053241  39.7064352
  79.2712593  39.5186186  38.2532763  11.3790194   9.4002673  40.7560523
  11.5403716   8.6096093  41.2708839  10.4490916   9.3556258  40.5336269
  22.5419824  27.6128337  57.3652156  23.3426873  27.7540824  56.8600925
  22.3208730  26.6942593  57.2117313  36.0632579  20.6260249  30.6863387
  36.2677447  21.4613959  30.2661403  35.3532283  20.2600858  30.1589187
  81.8866494  64.4909969  55.1824935  81.5004972  64.4236579  56.0557540
  81.8809179  63.5940638  54.8482593  45.4910864  70.4836264  28.4527763
  45.8339418  70.1595989  29.2856582  45.4190172  71.4301935  28.5754378
  84.2502880  59.1050243  70.8330011  84.3096352  59.1998434  71.7836428
  85.0540829  58.6469936  70.5873442  83.8128567  66.2138510  73.4416628
  84.5148849  65.6125212  73.1930876  83.6818123  66.0556602  74.3765640
  80.6860402  88.4949389   0.3300698  80.0959256  88.9534226  -0.2680795
  80.7739356  87.6186839  -0.0450150  73.2455543  72.8280559  22.5565799
  74.1694978  72.8590479  22.8047736  72.8941587  72.0770016  23.0347713
  86.1935616  53.4696531  68.4596252  85.7664871  54.3202591  68.3581209
  86.4578152  53.4425354  69.3792248  40.5374591  29.8525998  24.3211539
  40.1899354  29.7459265  23.4356673  39.7616546  29.8812339  24.8810943
  46.0698144  28.8694569  28.3113464  46.6566627  29.0482375  29.0461143
  45.2297894  29.2417475  28.5796626  49.6034638   8.7690350  40.1561053
  49.3541734   8.2075307  40.8901389  50.3875558   8.3561560  39.7942241
  18.8219465  86.7187539  17.9506477  19.5308317  87.3558751  17.8623756
  18.2755293  86.8597498  17.1774848  63.4793806  67.2239304  58.8907242
  64.0072012  66.7147875  59.5058727  63.4298801  68.0959797  59.2822838
  93.0098346  86.1729804  38.7694820  92.0768216  86.2260189  38.5623630
  93.3197072  87.0768061  38.7119372  88.9635614  49.5783076  50.6776603
  89.3489030  50.4356643  50.8584483  88.7178567  49.6162513  49.7533115
  93.8695386  37.6804212   5.9669955  93.6212781  38.6013397   6.0476573
  94.8141959  37.6726219   6.1212428  29.4242970  26.7638585  45.4761203
  29.8007218  27.2035310  46.2385066  30.1510493  26.2633511  45.1052268
  23.3540074  14.7505709  40.3644641  24.2659013  14.4715115  40.4469760
  22.9516522  14.5035073  41.1971171  80.4183674  64.4273758  57.5566959
  79.7145081  65.0518322  57.7323866  79.9666071  63.6091042  57.3503351
  16.3471858  49.2539927  31.3053496  15.6398074  49.5729491  30.7448848
  17.0925967  49.1493460  30.7140430  87.1589759  78.8232794  16.1691268
  86.7911390  78.8123050  15.2854903  87.7634385  78.0812755  16.1861690
  22.4028413  11.4414355  14.4220908  23.0005710  11.9618270  13.8852962
  22.1412293  10.7161996  13.8547977  40.2860165  43.2839012  70.4334545
  40.2102327  44.2307281  70.5518198  40.0713682  43.1398010  69.5118284
  54.2269564  33.2363081  60.8643246  54.6181250  34.0546274  60.5584240
  54.8814201  32.5677133  60.6621027  10.8014390  78.3480996  70.1187372
  10.4614255  78.5380608  69.2443562  11.5239140  78.9653152  70.2340841
  39.3451087   0.6748101  53.4240420  40.0948970   1.2060591  53.1560405
  39.6453063  -0.2289870  53.3277877  39.0072123  17.9576728  41.4529403
  38.4183804  18.5437676  40.9775527  38.7838523  17.0832965  41.1338695
  35.8122849   9.5684737  32.7073050  35.7064605   8.6329925  32.8802419
  36.2866521   9.6063489  31.8767786  15.7340333  68.3157176  51.6177750
  14.8706815  68.4060687  51.2144232  16.3499305  68.5125130  50.9119606
  16.5919348  60.9336585  56.7631674  17.1392724  60.8697861  57.5458384
  17.1808240  61.2656683  56.0855198  92.9027131  56.5706363   2.8795417
  92.8771261  55.6390539   3.0980189  92.0593551  56.7415824   2.4603112
  55.1779652  33.5633373  68.3116722  54.5808172  33.2042933  67.6553679
  55.9588194  33.8095641  67.8158140  78.8576800   3.1711575  13.8922961
  79.4082850   3.9009663  14.1759189  78.6185164   3.3876750  12.9911025
  83.3276513  82.4212327  17.8686221  83.5009673  81.5057984  18.0881103
  83.7577728  82.5504294  17.0233234  64.8053196  24.8440197  34.9843104
  65.4981092  24.7067144  35.6303962  64.0003160  24.5990875  35.4406150
  17.4535656  19.6735024  61.1149073  18.1651509  19.8963416  60.5147219
  16.7101538  19.4802570  60.5437422  81.0282567  65.4267302  29.4480403
  81.7485002  65.8398738  28.9718135  80.4115728  66.1394849  29.6151240
  25.2609345  77.2212249  64.6398211  25.6219718  77.4863988  63.7939072
  25.8603665  77.5971109  65.2845097  89.9412254  73.8777771  25.1510795
  90.0035146  73.7803879  26.1012729  90.4571298  74.6601358  24.9561675
  40.4022977  73.4313542  67.5802660  41.0158583  74.1014093  67.2789335
  40.9587666  72.6997083  67.8472281  79.8466825   7.5073493  44.9395657
  79.7145462   8.4404272  45.1073074  80.5764103   7.4762052  44.3208933
  73.9655259  76.3570466   4.7371848  73.5221008  76.2289968   5.5757602
  74.5139030  75.5791846   4.6349795  58.2304075  44.3362794  21.1777289
  57.9139355  43.9807461  22.0081981  59.1592434  44.5102800  21.3301166
  85.6490040   7.1079355  67.0725441  86.4980602   6.7343301  67.3086500
  85.1611614   7.1331322  67.8957176  18.8551630  49.2375848  17.4839671
  19.2386926  49.7810909  16.7956813  19.4002260  48.4508842  17.4995502
  64.1398048  33.7043500  53.8683367  64.1576338  34.6288514  54.1157436
  63.8040447  33.7027216  52.9719591   3.4972109  84.0856066  13.3674987
   3.4521879  83.7622061  12.4677165   2.8753914  84.8129168  13.3919986
  71.4623979  47.6204291  22.9372485  71.1796096  47.4678460  23.8388999
  72.2470620  47.0813039  22.8378471  50.7714796  22.1999216  73.5400724
  49.9618196  21.8263602  73.8881159  51.4234447  21.5087724  73.6562204
  36.8650126  29.6916509  61.2536097  37.7631950  29.6160126  61.5757561
  36.4338875  28.8924432  61.5563154  85.9195712  20.1746407  14.3270953
  86.2442020  19.5075598  13.7222369  85.4326108  19.6822110  14.9878581
  90.1930002  58.2449499  26.9334968  90.5423024  57.4177363  27.2650703
  89.3884853  58.3827892  27.4334891  83.6220169  17.9444492  68.6258411
  84.2564392  18.5748410  68.9669418  83.9655876  17.0913768  68.8912868
  60.9081271  72.4890986   4.3778499  60.3130129  72.4298015   3.6304839
  60.3810004  72.8827634   5.0731166  64.7304681  57.2160509   2.0031674
  65.3433994  57.9145387   2.2326549  64.7029832  57.2262826   1.0464175
  32.3622942  44.5852804  73.8049889  32.2736645  44.0052223  74.5612335
  31.6525531  44.3240213  73.2182646  77.0892432  19.3348875  11.9582065
  76.9250730  19.4262376  11.0196193  77.9898694  19.6375504  12.0743926
  72.7614454  56.4262333   2.6327212  72.9597190  56.3263085   1.7016299
  73.3501008  57.1200946   2.9298337  65.4515770  59.1362133  20.0731738
  66.1426810  59.0088621  20.7230838  64.6374563  59.0333751  20.5659850
  91.6777757  61.9536951   9.4701465  92.1959499  62.3458960   8.7673648
  92.3185256  61.7351511  10.1468356  65.6428817  55.8656791  24.1787608
  66.3869193  56.0533765  24.7509559  65.9873322  55.9792712  23.2929404
  91.1290410  73.4934988  21.6583999  91.0787681  73.4453288  20.7037337
  91.2709716  74.4216958  21.8442424  65.7982397   4.2822099  67.3756552
  65.3011179   4.9074748  66.8482637  65.5844164   4.5089260  68.2807016
  63.5968259  74.0436831  27.2331126  63.8485578  73.6752859  28.0799659
  64.2601159  74.7105160  27.0553096   2.1418871  41.9503762  22.7873309
   1.5756906  41.1883762  22.9098399   1.7142547  42.4581247  22.0977290
  54.3548441  41.3185596  62.1367693  54.2445517  40.5222273  62.6563120
  53.7393713  41.9426394  62.5214005  69.4231489  81.7836824   7.3881991
  68.7548283  82.2357097   6.8731769  69.3388036  80.8642211   7.1357997
  77.1642494   2.4562803  72.1830082  77.3408937   3.3339602  71.8443251
  77.0636129   2.5795510  73.1268883  49.0957975  32.5683737  46.3189507
  49.9217558  32.4247503  46.7809057  48.5674906  33.0845952  46.9277525
  80.2129749  45.0360184  35.1239665  80.8854726  44.4316437  34.8097880
  80.6824544  45.8547562  35.2836211  67.2038221  10.4755509  70.0086784
  68.0680561  10.5932295  70.4029942  66.8109846  11.3482165  70.0278187
   9.9299046  72.5097221  76.6503954  10.5824754  72.1536106  76.0474300
  10.4144999  73.1410354  77.1822262  81.2383556   3.9477828  58.7609577
  80.7763195   3.1677142  58.4539557  80.8035374   4.1758418  59.5826387
   4.1192783  75.8206573   4.2611297   4.2886032  76.7239323   4.5288070
   3.7871946  75.3948775   5.0514873   6.5236820  46.0871477  38.6796172
   5.8907999  46.8038131  38.6340030   6.0311235  45.3560028  39.0525039
  69.3592480  59.3969384  30.5765136  68.8535050  60.1068678  30.1809676
  69.4898108  59.6725407  31.4838393   5.3902639  57.0512608  36.9867690
   5.6472171  56.9176629  37.8991111   4.7950758  56.3260439  36.7969211
  93.5941747  67.9509917  16.2453921  94.5054391  68.2291308  16.1534007
  93.6081365  67.3185721  16.9637759  73.6300948  63.9067867  30.1232417
  74.2463449  64.6019688  29.8926147  72.8738883  64.3678060  30.4863437
  57.1577457  55.3379920  15.8069976  56.5879753  55.0645378  16.5258964
  57.9975680  54.9185934  15.9941753  17.3522199  74.1068116   5.0485309
  16.8023647  74.7976866   5.4180987  17.3902429  73.4389725   5.7332023
  18.1181253  69.2698303  13.9965137  17.4857153  69.7793141  14.5031913
  18.7342848  69.9200788  13.6592372  77.9227689  10.9094325  14.8280414
  77.6422408  10.2642336  15.4770835  78.7773326  11.2070814  15.1400645
  60.9510088  13.2742405  66.0057974  60.5359221  13.8818681  66.6179466
  61.8857670  13.4696496  66.0711575  79.3428376  67.2823968  20.8016761
  80.0653222  67.4874750  21.3951285  79.5871309  66.4451399  20.4072745
  65.3097105   0.8082696  32.6312351  64.5057344   1.1368214  32.2288609
  65.7356119   1.5882383  32.9868865  94.1251785  12.5847289   9.0846236
  93.8817579  13.0403277   8.2787593  93.4348613  11.9334933   9.2094501
  51.3580850  71.4982501  29.4220336  51.8303731  71.4351097  30.2522071
  51.3454870  70.6024709  29.0849097  37.8234491  74.8716035  35.8828052
  36.8861023  74.8356834  35.6922229  38.2434485  74.5720377  35.0765212
  12.7162279  68.9876953  29.6193774  13.5508646  68.7555376  29.2122825
  12.9609455  69.4677582  30.4105075  15.0126423  34.6140525   6.8028148
  15.7148327  35.1621726   6.4524921  15.1781048  33.7470749   6.4323981
  68.6124420  41.4340496  58.2796764  68.6342144  41.0869265  57.3879004
  67.7078962  41.7220163  58.4025812  84.5834401  59.1545692   6.3225444
  83.9259151  58.4634235   6.2437423  84.6259502  59.5453456   5.4497798
  44.5877361  23.9052320  48.3498287  44.4725943  24.5485020  47.6504183
  44.5869780  23.0600810  47.9004335  83.8068012  66.8012610  15.6270488
  83.0059770  66.3849822  15.9458335  84.3781045  66.0709420  15.3893931
  76.2120962  28.6266947  58.4865236  75.7429266  28.3975792  57.6842642
  75.9449673  27.9597163  59.1189909  54.4826344  67.6531759  31.6866954
  54.9343470  66.9509068  32.1546825  55.0155714  68.4313193  31.8501075
  11.1301817  58.2676890  47.6424678  11.6601766  58.2917180  46.8457492
  10.5503763  59.0255943  47.5673850  55.8361605  62.6806059  17.9275020
  56.7839196  62.5524404  17.8880580  55.5714539  62.7929047  17.0145114
  79.9293426  39.2473212   9.3524821  79.9420694  38.7457910  10.1676734
  79.1342643  39.7772372   9.4096740  32.0317568  60.4098025  22.0526679
  31.3667692  59.7375098  21.9042190  32.4646295  60.1435330  22.8638156
  71.4114407  60.8044496  20.1553901  71.9761232  60.3788975  19.5101913
  70.5305317  60.7309988  19.7881873  92.4005225  42.3189503  14.1825564
  92.7366927  42.2268632  13.2910712  91.6298917  42.8793284  14.0912326
  84.4494441  55.4706731  11.6001590  85.3523019  55.5457142  11.9091113
  84.2471936  56.3339391  11.2394698  72.7660561  36.8110394  57.8997231
  72.5426674  35.9017158  57.7010727  73.3477116  36.7546535  58.6578321
  65.3116274  20.3815627  54.0543032  65.7132196  20.0844121  54.8707962
  64.4364834  19.9938917  54.0628672  68.1936502   7.5424647  59.9406385
  67.8795767   7.0527083  59.1805553  68.5808945   8.3359516  59.5709753
  22.8335966  87.6280585  28.8069327  23.7430586  87.6242104  29.1054042
  22.8948034  87.6767292  27.8529342  81.2073492  86.4389540  56.4492559
  81.2351702  85.4821739  56.4438152  81.2494539  86.6850498  55.5251884
  86.9253782  71.5525070  35.7992061  87.7514699  71.1681428  36.0925944
  86.4607337  71.7676464  36.6079410  63.6009502  17.9893684  76.1651516
  62.8563261  18.5744023  76.0254955  63.2669592  17.1198034  75.9448385
  17.1075818  88.1774950  73.2686424  17.0493886  88.2378913  72.3151255
  16.4695832  88.8154070  73.5884237  32.4104115  53.6897823  27.0697768
  32.1017860  54.1973916  26.3192351  31.6540681  53.1644651  27.3309692
  47.4128199   4.0420356  73.0914259  47.8867912   4.5873642  73.7192822
  48.0004358   3.9777070  72.3385620  92.7082494  67.6027742  24.3459972
  92.9207948  67.6055375  23.4127029  93.1896404  66.8545428  24.6990569
  35.7072589  74.2688590  57.0596886  36.6282651  74.1547900  57.2941399
  35.2639720  73.5203618  57.4590397  64.6342829  54.1274479   6.9319900
  64.9263051  53.8880405   6.0524161  63.6843947  54.2154857   6.8533023
   9.1348613  48.3172887  12.6911052   8.7999214  49.1511047  12.3612578
   9.2679418  48.4661218  13.6272510  75.7220987  54.9994781  27.0256503
  76.3528541  55.5237976  27.5190719  74.9858526  55.5917683  26.8727954
  87.8113085   1.9751879   5.4434283  87.4072916   1.7911145   6.2914355
  88.6559779   2.3693892   5.6610664  47.6909161  21.6913676  67.1904516
  47.1171618  22.4574494  67.1779919  47.6075935  21.3441467  68.0785561
  86.6379360  23.8284173  21.9785960  86.0596755  23.2117429  21.5296443
  87.5170139  23.4749928  21.8424495  39.5133969  58.3797374  13.7541659
  39.1160724  57.7006140  14.2992862  39.8713371  57.9055098  13.0036910
  51.4231586  30.2096295  71.6276407  52.2989225  30.5945182  71.6612101
  51.2402248  29.9514341  72.5310278  48.1783703  70.4539171   5.7841094
  47.6557437  71.0453811   5.2425750  47.6270786  70.2770892   6.5463718
  15.5787862  80.8931580  10.9140380  15.7086195  79.9565044  11.0625442
  14.8779739  81.1366764  11.5188487  60.9354496  29.4433308  48.5895061
  60.9883118  30.3224635  48.2145929  60.8587313  28.8638973  47.8314829
   1.6082872  85.1865521   0.6799062   1.7510046  85.6741467   1.4911492
   2.4850382  84.9202147   0.4031356   2.8903021  48.6292547  17.7185233
   3.5279192  48.3168337  17.0765956   3.4211410  49.0177947  18.4138473
  62.8863382  35.5325270  61.1042738  62.1284389  35.0284886  60.8080196
  63.4661388  35.5628443  60.3432608  73.9903787  56.0079232  40.8994563
  74.3408254  55.1450088  40.6785472  74.0525010  56.5072813  40.0851997
  67.5399971  20.3432393  55.9012270  67.2201538  21.2452316  55.9196424
  67.9628563  20.2216554  56.7513084  75.5231333  48.0085039  70.5070162
  75.4275417  47.3861361  69.7860765  74.7159863  47.9147863  71.0129452
  13.5902799  63.7293795  24.4185718  12.8732980  63.0975976  24.3635638
  14.3833603  63.1988576  24.3424209  79.7155050  86.7865792  22.5190242
  79.2027286  87.5935641  22.5645526  79.0830425  86.0905495  22.6972564
  81.0620117  27.6648641  56.2649012  80.1468658  27.8762603  56.4494467
  81.1528397  27.7973223  55.3212738  41.6108894  27.2310066  35.1420760
  41.8652010  27.8396034  34.4484138  41.5250635  27.7791739  35.9220624
  56.1588876  12.5977465  32.3526271  56.9746606  12.1002766  32.4098285
  55.4916779  11.9414040  32.1519359  26.8463815  83.5961571  33.0144389
  26.2533487  84.1474047  33.5249980  27.4657549  84.2108884  32.6210960
  92.7390099  40.8020926  74.1261005  92.0338154  40.1730013  73.9738846
  92.9849720  40.6693029  75.0415802  56.6073561  26.7639399  37.2346306
  57.2428560  27.4662733  37.0964146  56.5765858  26.6523480  38.1848049
  66.7024851  29.7720170  51.0913420  66.8559361  29.0043736  50.5405188
  66.3548136  30.4317594  50.4912615  27.6730074  71.1765805   9.1016086
  27.3510183  71.6429272   8.3302005  28.4964479  70.7809105   8.8158973
  58.9979410   2.6915872  60.1083899  59.2218494   1.8261841  59.7660828
  58.2281590   2.5403965  60.6568480  78.5468674  28.7016416  48.9352274
  77.8140593  29.3107843  49.0255976  78.1879568  27.9674339  48.4368753
  35.6715328  77.2211948   5.2035220  35.9858346  77.1717682   6.1062987
  35.5654976  78.1579533   5.0377734  55.7129876  25.9708163   6.4001926
  55.6341283  25.0714490   6.0821517  56.0511605  26.4610621   5.6508334
  76.5110257  21.4018908  25.1458533  77.1497014  22.1144977  25.1231368
  77.0414880  20.6057373  25.1771148  32.2603906  47.5727549  11.2485774
  31.6800798  47.9433936  11.9134791  31.8285192  46.7622928  10.9786208
   9.1115774  69.5838323  24.0909465   9.3596948  68.6600891  24.0539249
   8.2852806  69.5907131  24.5740874  16.7683662  33.7719109  21.5643008
  16.7146314  33.4331479  20.6706699  17.3581899  33.1672755  22.0145877
  63.3725405  27.9091287  66.2952900  64.0945101  28.2429266  65.7627678
  62.9797125  27.2191048  65.7607031   1.3594831  82.2516480  25.6937202
   1.2473978  82.4560514  26.6220935   2.2459854  81.8959156  25.6321223
  77.0606092  83.1708112  21.7713340  77.4064115  83.1998244  20.8792575
  77.5036243  82.4249020  22.1758063  50.7385206  48.8503456  60.6638622
  50.6955624  49.0518761  61.5986204  51.2635660  49.5580912  60.2901459
   5.8866660  19.2146489  42.0724280   6.2938396  19.9372765  41.5946658
   5.1269190  19.6088073  42.5009807  84.7468284  77.5628033  30.1240905
  85.4407028  77.4952689  30.7799895  83.9379218  77.6021066  30.6343349
   3.0229391  87.4984541  26.9591029   2.3479761  87.7389422  26.3244231
   3.4187235  86.7049065  26.5987380  11.8297209  59.0731075   9.7492011
  11.3009371  58.4116283   9.3030341  12.5854458  58.5900631  10.0835403
  86.0742954  57.5755885  14.9280627  85.6590369  57.5778952  15.7904895
  86.3666967  58.4780803  14.8006042   2.5605739  30.3497734  18.3193954
   2.1913542  31.0070076  17.7295192   2.7905191  29.6171692  17.7478583
  49.6718664   8.2844019   0.8426539  48.8810177   8.8095188   0.7199827
  49.4842024   7.7445584   1.6104952  23.5655896  -0.1819280  18.8685687
  23.2249848   0.6179091  18.4679587  23.0196540  -0.3127340  19.6438583
  65.9074926  16.8868887  59.2321539  65.8619833  16.4629614  60.0891495
  66.4067078  16.2766993  58.6893082  78.4216312  79.6703067  25.7666190
  77.6137117  79.9923935  25.3669150  78.5983756  80.2852955  26.4785083
  82.0416927  32.7815008  59.5025873  81.6950417  33.5324788  59.0208244
  81.9276714  32.0412326  58.9065742  36.5589070  42.0012045  53.9952517
  37.2153449  42.2769165  54.6350241  35.8584499  42.6484776  54.0766668
  57.9249780   0.3656432   3.9444717  58.8361184   0.2572486   3.6719020
  57.9279248   1.1590573   4.4799312  76.4048818  46.6873278  16.0512431
  76.1390355  47.2047114  15.2910693  77.2566560  47.0466205  16.2994941
  72.0391563  79.4738617  32.7400859  71.9842866  79.2057004  33.6573203
  71.5739444  80.3097430  32.7066882  48.5282782  17.7849403  21.8214973
  48.7956396  17.3787752  20.9970172  47.7150110  18.2433167  21.6100295
  61.9550149   3.8239762  34.4469627  61.2866418   4.5088860  34.4267734
  62.5642697   4.1039273  35.1300986  61.2184858  10.7285476  72.4464512
  60.5622959  10.3367031  71.8701649  61.9742823  10.8818579  71.8794394
   8.9488472  66.9469061   1.6823848   9.7874321  66.5984550   1.3797505
   8.6450781  67.4993506   0.9621318  47.2755718  15.9032583  68.7849617
  47.9681921  15.3230107  68.4690142  47.2440004  16.6111112  68.1413937
  27.5839278  69.1966909  60.9666824  27.7279469  68.9939505  60.0423527
  26.6653535  68.9755124  61.1201000  82.0578960  72.9618206   5.8945258
  81.7078164  72.2631994   6.4473422  81.8223670  72.7030077   5.0035842
  46.3734976  57.3304036  25.9402164  45.9228400  56.7108884  25.3663428
  46.9853047  57.7889195  25.3643020  49.8952306  35.4384050  24.5451720
  50.0081457  35.5057201  23.5970481  50.4642976  34.7132972  24.8032745
  60.3860394  -0.0405172   2.8454574  60.5307500  -0.0095084   1.8997653
  60.7951180   0.7589623   3.1766971  68.9885429  70.3789702  37.1726401
  69.8434165  70.3786841  37.6032527  68.8853243  69.4856968  36.8445571
  30.9544587  34.4589591  54.8356533  31.5642381  35.1787567  54.9977970
  31.1680603  34.1584873  53.9522982  72.9343414  42.4599218  59.3879223
  72.3077679  41.7653418  59.5908785  73.7740898  42.0081329  59.3046379
  39.8483003  71.4610711   9.2893203  40.6404031  71.6631999   9.7872718
  39.2952360  72.2352233   9.3944343   4.8203052  53.3343777  14.3809493
   4.8851217  54.0982118  13.8077243   4.0671457  53.5192194  14.9420341
  48.8754654  26.5054393  59.1295242  49.1698837  27.0986986  58.4384394
  49.6244955  25.9306240  59.2869234  68.8156942  40.5113101  10.9077533
  69.3539241  39.9404293  11.4560588  67.9386452  40.4494545  11.2861522
   5.3245081  65.9924903  13.9197333   5.1746000  66.2938395  13.0236610
   6.0355200  65.3562799  13.8426765  -0.1440655  79.2469659  19.4689067
   0.4650511  79.3222681  20.2034362   0.4092992  79.3154898  18.6908801
  19.5887773  16.4206168  50.9947856  19.6525733  16.1577603  50.0765975
  20.4521052  16.2268159  51.3599380  89.9431089  79.1781846   7.0573791
  89.0409568  78.9221182   7.2491725  89.8880151  80.1104894   6.8476089
   3.7514127  85.4567995  19.7892268   4.4256271  85.5962315  20.4542335
   3.9641775  84.6052828  19.4072898  72.5404453  27.2119093  75.8326244
  72.3444080  26.4772773  75.2511454  71.6875124  27.6047277  76.0181713
  27.7958215  53.7552044   8.8979991  27.6560606  52.8116962   8.8174327
  26.9590868  54.1439089   8.6430343  72.5932741  62.4466419  69.0628099
  73.2017136  62.0003128  68.4738874  73.1237698  62.6771545  69.8254824
  13.3371458  35.8550000  67.6703310  14.1619311  35.6731582  67.2198915
  13.1353388  36.7627311  67.4433327  74.7208217  47.4064860   9.3607791
  75.5805400  47.5893351   9.7398265  74.8272756  47.5879237   8.4269794
  62.5285912  15.7443392  65.5174875  62.9775667  15.5060446  64.7063971
  61.6695261  16.0562468  65.2329779  72.3700523  19.3638361  70.9039164
  71.5980148  19.8744678  70.6601191  73.0724573  19.7157800  70.3571129
  79.9285428   6.1378094   6.5596660  80.6709783   6.3878962   6.0096820
  79.3584172   5.6347844   5.9781535   1.0648788  58.7218347  37.1473964
   1.6798414  58.2096937  36.6222556   1.5077652  58.8396016  37.9877551
  18.6479105  60.1753083  31.1372932  18.7478174  60.2624586  32.0852740
  17.7116884  60.3009227  30.9825690  10.7331957  69.0241948   9.0090354
  11.5083898  68.9008847   8.4612163  10.2365173  69.7142926   8.5693629
  44.2791843  23.0947804  72.2956848  43.6940098  23.8520718  72.2780466
  44.3279886  22.8085160  71.3836002  17.1911348  26.8248132  28.2189544
  17.2217287  26.9939914  27.2773250  16.8001140  25.9542933  28.2933219
  93.4858182  87.2209683  14.6632560  92.9598478  86.8599883  13.9496215
  92.8447011  87.5934163  15.2686389  36.0923589  81.3527909  26.6915305
  36.7092527  81.8656197  27.2137149  36.0440553  81.8155852  25.8550342
  83.9012340  68.9771357  20.5312999  83.7288097  68.9078632  21.4702972
  84.7735742  69.3672743  20.4761108  89.0035871  10.2380696  16.1079105
  88.3592037   9.6013346  16.4170631  89.5674375   9.7401228  15.5160125
   1.4668192  70.4327693  10.9162028   0.7560934  69.8260036  11.1234172
   1.9630541  70.5077091  11.7312892  41.4436830  58.9944210   8.3548816
  40.6637014  58.9510920   7.8017219  41.8956388  59.7886076   8.0698569
  88.6133817  60.8427575   8.1510718  88.0700925  61.4055815   8.7027057
  89.3361142  61.4054695   7.8731521   6.2909044  62.5090948  15.4538997
   6.8565286  63.2467237  15.2254184   5.7568229  62.3658147  14.6725734
   7.1554674  70.3223815  32.7581580   6.9461120  69.9852982  33.6292346
   6.3345112  70.7016387  32.4444183   5.4751838  88.0426732  12.4114593
   4.7295726  88.2974472  12.9549583   6.0768379  87.6104727  13.0176337
  59.9628380  62.6615146  11.3664420  60.8537915  62.5493696  11.0350021
  59.6824649  63.5078540  11.0181125   8.8666977  26.8859222   9.8238643
   9.6222604  26.6731766  10.3716739   9.1558469  27.6298323   9.2954524
  73.6867666  53.5554504  72.4380922  74.5865774  53.8576269  72.5616360
  73.5998011  52.8118563  73.0345249  84.8258877  18.2903683  52.5789070
  84.8597622  17.3360491  52.5128889  85.4205036  18.5019243  53.2985640
  37.3469461  69.3744722  17.5874122  37.7050508  70.2318016  17.8175815
  36.9802679  69.4953671  16.7115386  81.4358571  76.1793151  35.9172233
  82.1086505  76.0472193  36.5851482  80.7209495  75.5993071  36.1793883
  40.4798616  31.1830333  28.7197669  40.1962198  31.4245060  29.6015056
  40.9376634  30.3503540  28.8350661  84.1156578  31.9670081  65.0707483
  84.6558380  31.7291141  65.8242989  84.2441082  31.2511468  64.4484377
  54.7287607   0.6953100  63.0387306  54.0706873   1.3003659  62.6965618
  55.3630018   1.2576750  63.4833813  34.8744405  29.0820089   7.6371749
  34.1652597  28.8812128   7.0264609  35.5501283  28.4329060   7.4413570
  59.3391135  69.7102681   6.4175304  60.0574544  69.6921983   5.7851585
  58.5504511  69.5949521   5.8874877  89.3425849  68.3158412  21.8963893
  89.6816257  69.1854301  22.1087535  89.6010068  67.7700725  22.6390727
  89.0746593  60.6403255  65.8170414  88.3024406  60.5149508  66.3685846
  89.7953129  60.2689743  66.3259411  42.1247212  12.5489804  10.1112636
  42.6009051  11.7317721   9.9641021  41.9291131  12.8738114   9.2323669
  13.0518736  64.2848864  19.6688541  13.2274450  64.8336115  18.9044555
  13.5842241  63.5017851  19.5288928  24.8229803  48.0004623   9.7569926
  23.8842310  48.0091530   9.5701297  24.8769487  47.9135394  10.7087119
  73.0996275  23.8180494  61.3953114  73.7335300  23.9162469  62.1057749
  72.4562216  23.1948733  61.7328262  80.1947120  65.5855337  15.2872546
  80.1329997  66.1428490  16.0630305  79.5678714  65.9634152  14.6703990
  93.2419923  44.5368363  30.0831302  92.6027587  45.2487792  30.1105960
  92.7468303  43.7601770  30.3436072  28.6076559  53.1780824  45.4391463
  27.6774229  52.9937771  45.3090652  28.7991346  52.8385356  46.3133796
  28.5059179  66.7357793   7.2517856  29.2749895  66.3603845   6.8230231
  27.8525652  66.8032446   6.5555080  54.5411682  13.2178402  48.5748386
  54.0314198  12.9910862  49.3526363  54.2795849  14.1156149  48.3703756
  84.2316055  25.2109671  65.3826141  84.2081642  24.7611618  66.2272167
  84.0512848  24.5243669  64.7405100  57.7496672  34.4761968  75.3336668
  58.3922291  35.0757027  75.7130575  56.9707108  34.5832205  75.8795643
  52.5069539  28.5808560  10.7122596  52.2952001  28.1986996   9.8605903
  52.6772515  29.5039603  10.5249007  28.0104173  77.9247227  37.1727927
  27.9152597  76.9842496  37.0221694  27.3197378  78.1378785  37.8003009
  21.9757951  70.7074800   3.3423884  21.5472711  71.2764779   3.9817889
  21.2625707  70.1946154   2.9622348  12.0084159  11.7189547   6.6998180
  11.0554473  11.8087718   6.7045482  12.3320262  12.5873706   6.9393237
  80.5659771  16.9718552  76.8575239  80.3962898  17.8850448  77.0888710
  81.0109138  17.0178688  76.0112667  66.6193417  65.4768506  27.8788074
  67.5076035  65.3226486  27.5571807  66.5834597  65.0125876  28.7151130
  44.2993463  68.5112944  16.6645415  43.5170377  67.9869738  16.8357452
  44.0412439  69.4060030  16.8861564  84.0931466  23.4607139  10.0331863
  84.9084333  23.4573927  10.5347045  83.7642768  24.3557659  10.1165946
  64.8126520  86.0336676  21.9123061  63.9932455  85.5399933  21.8792041
  64.6008028  86.8154946  22.4223025  67.0302057  19.5738447  68.6813354
  66.8350554  19.3520117  69.5917940  67.9269075  19.2670715  68.5469818
  72.3940229  48.6606359  53.7963438  71.5022421  48.5594273  53.4635973
  72.5242424  47.9030704  54.3667555  73.3866313  33.8032380   2.0312102
  73.7484792  33.1267538   2.6036342  72.4960855  33.5068157   1.8433364
  17.2902025  71.0076609  44.8882468  18.0651392  71.4140788  44.5002635
  16.6076959  71.1120573  44.2252906  55.0617722  26.4210263  21.9638618
  54.2664626  26.5103295  21.4387496  55.7677487  26.6930047  21.3774665
  81.5187645  27.3709154  53.0395985  82.1997643  26.7160511  52.8858852
  80.9779930  27.3439360  52.2502470  82.3903325  58.2805422  10.1381477
  82.3670057  57.5134650   9.5660670  83.2901052  58.3094576  10.4634269
  38.9822782  71.7515960  13.5086425  39.7279657  71.2049427  13.2609542
  38.7404932  71.4451638  14.3826469  31.3811585  65.0585002  53.9701843
  31.0957000  64.6726006  53.1420374  30.5683276  65.2493089  54.4382906
  52.7510694  39.2914852  17.3752292  52.2925809  40.1165041  17.2159751
  52.1832636  38.6237874  16.9905170  76.9372991  58.6564448  45.5837138
  76.5541461  59.4933310  45.8464797  76.7773679  58.0757049  46.3276179
  79.3778706  11.8309367  76.5478897  78.6279249  11.2643862  76.7290878
  79.0317345  12.7196789  76.6288662  88.5003331  45.3473950  32.5830825
  88.4724525  45.9113009  31.8101295  88.4725574  45.9538570  33.3231338
   4.3873466  72.7211991  36.7211230   3.8171161  73.4897223  36.7001899
   3.9980854  72.1168509  36.0890849  80.8030179  58.5693863  21.2084754
  81.2194350  57.7530506  20.9320243  79.8662904  58.4128454  21.0890277
  14.6594394  84.7573986   5.7704814  14.3724979  85.1398507   4.9412521
  14.4569935  83.8255635   5.6872352   9.2077507  74.2326823  33.0315765
   9.3387998  74.4506255  33.9543803   9.4782222  73.3172098  32.9609473
  27.1959413  66.8459692  26.7788203  26.4970697  66.8489662  27.4328788
  27.1758856  67.7260080  26.4028342  71.9216302  57.8516581  24.4247420
  71.1888889  57.6008621  23.8622268  72.6985029  57.7084532  23.8841899
  86.1689237  67.9817834  11.1939605  87.1054605  67.8386727  11.0573943
  85.9701207  68.7679997  10.6854613  53.8037300  23.1826568  58.8423061
  54.6125793  23.5375786  58.4734964  53.4935617  22.5601625  58.1846333
   3.1255687  81.7139879   2.4932607   2.3806442  81.6528907   3.0912479
   3.3324493  80.8053174   2.2747453   4.1402636  35.7326055  47.1804094
   3.5571585  35.7149649  47.9393005   5.0187312  35.7984018  47.5548220
  62.9308431  17.0988938  27.8433211  62.5652329  16.5846011  28.5630782
  62.7030675  18.0039880  28.0558189  67.0663408  88.5339203   3.1374915
  66.4059261  87.9779664   3.5510142  66.7364791  89.4248858   3.2541354
  75.9906247  53.1302681   3.4603580  75.9511474  53.9951035   3.0520328
  75.0745776  52.8758988   3.5716422  37.0531607  19.6816444  70.8288097
  37.8535604  19.3209696  70.4473543  37.2954988  20.5665660  71.1016083
  88.6103153  53.7680721  48.6010838  88.7778187  54.6087885  49.0269613
  88.5395432  53.9808607  47.6705265  47.0552635  17.1604013  76.8614244
  47.7172232  16.6891050  77.3673153  47.5254774  17.9053116  76.4869404
  11.0987438  59.0422800  40.4225238  10.8933366  59.9747851  40.3556617
  10.9233154  58.6950710  39.5479377   5.3564991  71.4611307  22.7129253
   5.0018944  70.5782738  22.6077922   4.8707594  71.9911662  22.0809825
  36.6595377  64.0545764  14.7652133  35.7100881  64.1378608  14.6766170
  36.7921842  63.1663838  15.0965007  76.6183392   6.1433789  27.4076350
  76.0885255   5.6962725  28.0676444  76.1429707   6.0091349  26.5877326
  72.3285007  25.8341980  47.5191355  71.4114952  26.0190320  47.3162365
  72.3056221  25.4350495  48.3888388  89.8786453  47.5737819  23.0360396
  90.7246211  47.3988369  22.6237853  89.2408374  47.1454948  22.4650748
  82.7643350  69.0872565  24.8474677  82.4863866  68.6847582  24.0246852
  82.6126340  68.4113183  25.5080207  65.9258458  79.4264138  35.2623916
  66.4203927  80.1222706  35.6953287  65.4898068  79.8623645  34.5302391
  25.0998370   1.2877032   1.5013965  25.5511729   1.4844558   0.6805308
  25.7705705   0.8850667   2.0529683  81.4731881  84.2832893  67.3754883
  81.8648621  84.1266048  66.5162611  81.6605756  85.2036753  67.5598955
  85.0458530  60.2456370   8.7138923  85.8065942  60.7994762   8.5384925
  84.8646596  59.8158553   7.8780158  68.2446861  49.7686577  67.2748804
  67.5455618  49.5939207  67.9048967  68.6834097  50.5487967  67.6142073
  60.4367638  39.6913052  61.8217039  60.9172869  40.5102396  61.7005634
  61.1180258  39.0269065  61.9250822   3.5110487  64.0863874  11.2736400
   4.0363945  64.8859683  11.3038810   4.0945734  63.4307077  10.8917888
  34.1402162  76.8520871  23.7441333  33.5145391  76.4115515  23.1690772
  33.7248815  77.6885906  23.9538844  27.0140279  56.7709651  28.0352004
  26.3849081  56.3690069  27.4361308  27.4032606  56.0329595  28.5043223
  73.9208225  80.7937613  17.9514583  74.2044643  81.6414276  18.2938655
  73.3639053  81.0115662  17.2040351  92.5737384  55.0991693  37.5060161
  92.7507404  55.0662461  38.4461387  91.7296747  55.5452373  37.4366935
  16.2816728  70.4746547  16.7771323  16.6109480  71.1788216  17.3356612
  16.8434919  69.7263852  16.9788344  74.3320707  72.6164833   7.2017272
  73.4732059  72.2129789   7.0761664  74.9192861  72.1091547   6.6413482
  88.9136508  46.2054659  16.0799869  89.7515968  46.0439187  15.6464179
  88.4062675  46.7065415  15.4414542   4.2678512  48.4103498   2.4410279
   4.9259485  49.0765485   2.2427257   3.5022653  48.6699161   1.9284471
  83.2214597  66.6174832  18.7049277  84.0889171  66.3328805  18.4172614
  83.3961395  67.2902837  19.3630012  21.6618360  48.8937920  30.0577148
  22.4285425  48.5462063  29.6021064  22.0236696  49.3828150  30.7967456
   3.6818327  88.2107678  14.4206222   2.8945650  88.7088051  14.6406158
   3.3806194  87.3048296  14.3514903  46.3898226  78.9426178  66.8817043
  46.2257144  79.7651744  66.4205074  46.3194081  79.1697192  67.8088999
  10.2516620  -0.0569251  18.8297351  10.0640742   0.7223746  18.3065398
  10.1708047   0.2383086  19.7366698  71.4518836  79.7407475  21.3398727
  71.5534452  80.6851831  21.4580234  70.5191949  79.6206394  21.1612781
   5.7656710   8.4118363  25.8768828   4.9606506   8.3398053  26.3897117
   5.4832117   8.2942197  24.9699100  67.2513533  22.3317146  57.9418707
  66.7100716  23.0975127  57.7500391  66.7912674  21.8851852  58.6526203
  79.2502216  51.4587715  40.6414970  79.6711019  51.3849637  39.7849639
  79.1319469  50.5534783  40.9290488  60.1383543   4.8834935  65.3153229
  60.8465910   4.3560797  65.6847382  60.2356148   4.7853556  64.3681479
  74.7258472  40.2617407  60.1156569  75.5632973  39.8901224  59.8385048
  74.4647217  39.7296476  60.8672714   1.4658747  56.5347147  56.5071344
   1.3922224  55.7909346  55.9091425   1.5620528  56.1375141  57.3727083
   1.9792618  85.7373181  23.0798228   2.3340620  84.8670760  23.2615455
   2.7492584  86.3033429  23.0254634  73.3875275   9.1122615  55.7567358
  73.3111477  10.0649047  55.7031727  72.4926090   8.7932932  55.6400728
  91.1914062   9.1777825  61.3221979  90.9321880   8.9744651  62.2209215
  92.0341110   9.6229964  61.4108801  86.4712337  47.6912412  36.9401439
  87.2489742  48.1459558  37.2635444  86.4660648  46.8592690  37.4134620
  79.1041616  50.5753091  12.5956233  78.8087943  51.2956312  12.0387347
  79.1917947  50.9653583  13.4653457  17.6529134  79.8250499  18.9447864
  17.7440084  78.8795462  18.8266547  17.7144922  80.1840535  18.0595954
  59.6642542  67.8324270  62.3722315  60.4656839  67.3980141  62.0802832
  59.9681902  68.6312103  62.8032732   7.9524912  36.3500824  27.0896514
   8.0072130  37.2849074  26.8913062   7.0916856  36.0862651  26.7646201
  51.4283279  77.3856512  30.5934699  51.8617180  78.2382241  30.5544074
  51.1084250  77.3205963  31.4932807  10.7203449  80.8333459   0.0379642
   9.8103298  80.6129971  -0.1609151  11.0287870  80.1087943   0.5821355
  88.5202220  71.0222950  29.0864261  88.2747606  71.8867603  29.4160922
  89.0619043  71.2037936  28.3183940  92.7401880  54.2161807  18.4259875
  91.8028501  54.0353843  18.4963306  93.1074146  53.4261122  18.0295451
  31.5815894  57.0794436   3.0040057  30.6389920  57.0021388   3.1515391
  31.8794457  57.6937339   3.6749442  43.9436023   4.2569539  21.5057071
  44.0645472   4.3842313  20.5647548  44.4983165   3.5066411  21.7191585
  34.7912216  74.1913509  48.3793354  34.3443441  74.9281740  47.9626560
  34.0852165  73.6015129  48.6436939   7.2075571  81.7103973  22.2617610
   7.5097002  82.3410240  22.9153998   6.3300909  81.4640274  22.5543101
  15.4416816  23.0054662  10.1125033  16.0220496  22.5274083   9.5201572
  15.8618276  23.8584277  10.2228053  22.0979990  67.1826020   7.0135196
  21.2761987  67.5328436   6.6697105  22.0300497  66.2372389   6.8797095
  26.9140164   3.8645455  17.1257003  26.2303750   4.5344970  17.1196159
  26.4411132   3.0408522  17.2445281  62.2301579  30.9116578  76.5759706
  61.9705534  30.9331846  75.6549025  62.7376175  30.1047230  76.6629934
  52.7714173  15.0650784  11.7603953  51.8765847  15.3519198  11.5781196
  53.1482999  15.7733199  12.2825034  41.1890046  13.9483973   7.9883941
  40.6895987  14.6741387   7.6140674  42.0847432  14.0911671   7.6826175
  51.3909451  22.2736642  20.4145129  51.8217771  22.1862599  21.2647994
  51.5595834  21.4408395  19.9738296  34.2760341  21.0767123  25.7309135
  34.0540664  21.7090270  26.4143928  34.4015233  21.6080424  24.9446757
  33.0212895   5.6933162  32.5580104  32.7430503   5.4676148  33.4456332
  32.4582974   5.1677701  31.9896110  90.5869102  25.3506708  71.1557961
  90.6096840  25.5785775  70.2264023  89.7510242  25.6979322  71.4671421
  42.1355152  32.5770020  47.9077578  42.8647375  33.1684327  47.7215290
  41.7639589  32.9053020  48.7265396   4.6695719  28.1550694  58.8550377
   5.6199465  28.2677174  58.8367939   4.3866644  28.6329460  59.6346712
  76.2672997  69.0150023  70.6217194  76.7755651  68.2123184  70.7383108
  75.9122276  68.9470530  69.7354174  21.6041422  44.2472792  71.9488955
  21.3812518  43.9422178  71.0694122  22.3335338  43.6890554  72.2183466
  11.2121595  62.0971265  24.5424064  11.0881675  61.1730781  24.7591766
  10.5935634  62.5606718  25.1069339   0.8867468  73.3349719  11.7717059
   0.3184284  74.0053740  12.1509250   0.3475107  72.9149237  11.1016162
  56.1499310  60.7648420  63.2202816  55.5006981  60.2979136  62.6942587
  56.0025311  61.6887283  63.0179501  32.0886962   3.9289996  23.7321838
  31.2400023   3.6710402  24.0919097  32.5107018   3.1024405  23.4977706
   6.3140262  78.6298171  10.0990756   6.3634266  79.4332352  10.6170543
   7.0841612  78.1266227  10.3635009  70.8614254  29.5151377  74.5233631
  71.4783573  29.1104698  73.9135504  70.6053591  30.3331947  74.0973997
  21.5392987   0.7304427  25.9685310  21.4508931  -0.2092889  25.8094295
  22.4368731   0.8366105  26.2837012  10.4116167  73.6840072   8.5905917
  10.1461853  74.3737212   7.9822620  11.1884035  74.0347877   9.0262397
  76.2142324  49.9777699  73.1176567  75.4843616  49.9556017  72.4987650
  76.6103411  50.8397722  72.9900837  11.7670737  54.4758844  59.7504997
  11.3361464  54.2055178  58.9396715  11.8921194  55.4197598  59.6520615
  88.9655685   9.1019928  59.5234776  88.6662769   9.9868006  59.7327042
  89.5402908   8.8651639  60.2513742  64.9879758  22.1119830  38.5617240
  64.8634068  22.6648232  39.3331321  64.3893640  21.3769767  38.6946090
  21.5088857  85.3869191  12.1502765  21.6182245  84.5582905  12.6168140
  20.6375803  85.3279725  11.7583736  26.4126028  79.8969069  28.3213313
  26.3043607  79.2546263  27.6199134  25.9382547  80.6694189  28.0140098
  29.7283949  29.8878982   1.4039405  29.2465032  30.3921011   2.0595296
  29.4253458  30.2346471   0.5648025  57.6338720  64.5840836  69.1875601
  57.3373461  65.4781103  69.0172100  56.9321728  64.0298319  68.8460112
   0.7967676  60.1407447  22.6024039   0.2810301  59.5723405  22.0304187
   1.3129104  59.5375839  23.1372150  70.5708138  10.5369088  37.9926475
  71.2084691   9.8776576  37.7187617  70.0831334  10.7441470  37.1954997
  32.4591844  12.1782777  44.0668090  32.4443500  12.3858020  43.1324943
  33.3894507  12.1418902  44.2893298  82.1307278  45.5102682  73.9489841
  83.0784607  45.4300594  73.8413000  81.8049240  44.6129608  73.8788939
  82.0196250  72.0948377  40.2446826  82.3749116  72.5954905  39.5102771
  82.1107009  72.6778474  40.9983619  29.0561784  88.1354609  18.9658626
  28.6312212  88.3861962  19.7860988  28.4418215  88.4086457  18.2845576
   2.2944606  71.3060394  21.3597091   1.5995802  71.7933026  20.9170421
   1.8787254  70.4867783  21.6284259  86.5917492  18.2544470  75.2803755
  86.8207836  17.5876772  75.9278250  87.3518276  18.8357472  75.2560329
  93.1234458  84.4379917  21.3406356  92.4684575  85.1160279  21.5064319
  93.7833074  84.8699370  20.7981952  63.9561288   0.7127568  12.9539664
  63.7256162  -0.1355413  12.5751765  64.8915784   0.8086583  12.7751716
  57.8769875  51.6378355  69.3021727  58.3524942  51.6486549  70.1328421
  57.2238302  50.9463263  69.4090748  73.7620735  42.8938150  56.5204477
  73.1242514  42.2240973  56.7672205  73.4087276  43.7062168  56.8829107
  70.6854800  69.2078486   2.7070506  71.4181808  69.7430959   3.0118259
  70.1651982  69.8005858   2.1646484  28.5307853  11.2096688  17.9259570
  28.0006663  10.9204432  17.1832927  28.0717055  10.8705994  18.6943992
  68.6384789   4.3065926  15.4244407  68.3543698   4.8180434  16.1820300
  69.3802182   4.7964236  15.0693019  29.1628663   8.4506175  24.6973117
  29.8093907   8.0550238  25.2818950  28.6103646   7.7193209  24.4212993
  72.0355657  64.3666556  49.7292598  71.8609050  65.1978817  49.2879089
  72.2965816  64.6163502  50.6156810  15.0344483  23.3601281   1.4935430
  15.2663819  23.5036370   0.5760224  14.2769162  23.9264962   1.6405089
  29.0741746  26.9527051  18.1226619  28.4058587  27.6081750  17.9227908
  29.1780202  26.9986436  19.0731032  88.5840324  86.7173901  11.4248450
  87.7009395  86.7999020  11.7847999  88.9717963  87.5848713  11.5404018
  54.9552536  16.7379546  71.1079741  55.4179478  16.9759142  71.9114208
  54.1700840  17.2854161  71.1126518  39.9158586  75.3450027   6.4929851
  39.8481954  74.5357075   5.9863361  39.0269483  75.7000413   6.4970859
  26.6929735   2.4966532  56.8284798  25.8825411   2.4286085  56.3237095
  26.6979517   3.3970362  57.1533108  78.7057829  35.8571935  63.2583857
  79.2713118  35.1432514  63.5528278  78.2996273  36.1871409  64.0598869
  41.2885523  37.3727536  50.7300615  40.6144762  38.0129552  50.9580898
  41.7736483  37.7808595  50.0128746  37.4435966  22.6880547  18.3227714
  38.3002440  22.2702548  18.2342704  37.6335208  23.6262223  18.3226665
  30.5808462  76.1334267  19.1505988  30.2241720  76.1318245  18.2623370
  31.3188089  75.5249229  19.1134818  89.7270107  86.6546822  68.8965034
  88.8338852  86.7338657  69.2316151  90.2140236  87.3444557  69.3473434
  12.5823034  72.5301185  23.5810359  12.4750389  71.6037503  23.3652385
  11.7739643  72.7650490  24.0366920  91.6878036  84.2949381  55.7684119
  91.6887477  84.2261877  56.7231448  90.8193019  84.6352520  55.5536540
  69.2390823  41.6229200  68.0182552  69.8800373  41.5099573  67.3163652
  69.0020084  42.5494766  67.9792833  55.4909055  31.5383574  22.4150355
  55.6218926  31.1351249  21.5568622  54.7251908  31.0911128  22.7754577
   7.8225813  58.1290293  42.9527044   6.9397650  58.4039879  42.7052021
   7.7341090  57.8239155  43.8556480  12.3187317  85.2580872  13.9408382
  12.9656280  85.5403605  14.5874389  11.5573515  85.8144465  14.1051372
  92.1576074  50.3706845   5.7520087  91.7658761  51.1166951   6.2061580
  92.4651864  49.7974363   6.4541610  85.2882576  59.3861294  73.4466457
  85.3008938  58.4638357  73.7024689  85.9527302  59.7971869  73.9995813
  10.6655086  59.9624041   0.5799945   9.8108448  59.6498361   0.8767827
  11.2357248  59.1961327   0.6425698  52.1807973  -0.0595954  18.0087455
  52.1081082   0.6969592  18.5906108  52.8694074  -0.5972627  18.3998473
   9.5844234  33.9850548   0.2563842   9.9389900  33.0997148   0.1746209
   8.6708797  33.8546565   0.5106862  88.5488084  63.8541224  27.4618705
  88.6339334  63.0456367  27.9671844  89.1501954  64.4661608  27.8861125
  91.4801693  77.1300030  57.9118776  90.9085083  76.9890404  57.1571779
  92.2882843  76.6674852  57.6899290  21.4584351  71.6112471  73.2838917
  22.1429849  70.9853697  73.0474520  20.6393862  71.1488962  73.1060696
  17.8727544  85.7969561   2.6759656  17.6270689  84.9491539   2.3056968
  17.8443922  85.6619111   3.6231692  35.1445310  21.2840983   6.8231948
  35.3029935  21.1987731   5.8830627  34.9012439  22.2021147   6.9427283
   2.1306909  46.2880891  10.1377948   2.2838033  45.6355983  10.8211978
   1.9640077  45.7733261   9.3481906  61.3443868   3.7391421   8.3408626
  60.4181020   3.6910769   8.1043895  61.3699166   4.3354985   9.0891536
  25.4175390  84.0186706  39.8094829  25.5567754  84.4405117  38.9616092
  24.4683851  83.9107790  39.8703273  30.3755296  56.2174097  28.6585506
  30.9462751  56.8786123  29.0500815  30.4725183  55.4517141  29.2247089
   9.0583576  76.6955867  38.6858733   9.3337835  77.1188608  39.4990237
   8.7379993  75.8361855  38.9597972  36.0180871  13.4071585  64.1781982
  35.1398389  13.7845990  64.2277225  35.9756104  12.6281449  64.7327884
  62.1084166  53.8398933  53.5554028  62.9497862  54.2309189  53.3199835
  61.6098261  54.5594645  53.9425182  92.4657726  79.5553112  53.6842442
  92.2456264  79.8770714  54.5584488  93.1096649  78.8640594  53.8385582
  64.8574368  12.8082654  23.2913383  64.6982877  13.7440821  23.1682189
  65.2548520  12.5226447  22.4687179   4.7254766  80.6614080  11.8432696
   4.7283090  80.2313199  12.6984008   5.2010406  81.4798918  11.9852527
  65.9400940  35.8680916  51.9271326  66.3043833  35.1251554  52.4083471
  66.5065622  35.9580779  51.1608124  11.0538785  16.9540927   1.9872697
  10.8611361  16.7900130   1.0641416  11.1515824  17.9044577   2.0463021
  88.6594728  83.8576045  36.1304362  87.7953342  83.7915268  36.5367969
  88.7331680  83.0679026  35.5945571  79.3823195  42.8768921  72.1197414
  79.8591185  42.7752495  71.2959909  79.0943623  43.7897539  72.1187401
  66.5149450  35.5093598  55.5786753  65.9076023  36.1652207  55.9210443
  67.0110846  35.2195978  56.3442612  55.3218106  55.2846399  10.9721454
  55.5986551  54.3702903  10.9125312  54.3764904  55.2397993  11.1156352
  28.8871015  67.8578964  23.3970435  28.6579241  68.1768527  22.5241263
  28.4970964  68.4954873  23.9950450  29.7110478  17.6438567  24.9392017
  30.4737107  18.2156274  24.8516925  29.5354621  17.6210591  25.8798774
  25.7440675  78.4482732  39.2532428  25.7883276  79.2357531  39.7955878
  25.1709570  77.8549543  39.7387775  76.2914085  75.3508520  67.0356178
  76.8961430  75.8301449  66.4692163  76.2917042  75.8426237  67.8568316
  66.2641048  42.4681664  55.1989889  67.0093060  43.0682516  55.2272511
  65.5484295  42.9918337  54.8387003  92.4983028  73.2504740  28.9031489
  93.3674911  72.8784481  28.7536796  92.1275857  72.7178755  29.6068080
  81.6837838  79.6609393  50.1756175  81.6534761  80.4120341  50.7682117
  81.4522031  80.0216213  49.3197425  29.4002676  69.7570753  71.5789270
  28.7955284  69.7905827  70.8377123  29.4349480  70.6579208  71.9006586
  84.0265465   7.3525953  69.1056347  84.2673492   6.8371606  69.8754215
  83.4558678   6.7745394  68.5992718  39.6675937  11.5130040   7.6394923
  40.1126592  12.3357436   7.8425773  39.7940413  11.3984296   6.6976245
  50.5044976  74.0008321  15.1141246  50.1243833  74.8224750  15.4250033
  51.4443830  74.0989724  15.2664836  42.8405349  13.8827941  28.3274825
  42.8611247  13.1084630  28.8898166  43.6705319  14.3269154  28.5009463
  55.2632062  23.3400485   5.9311755  55.5105035  22.9758641   5.0812133
  54.3430917  23.0982730   6.0367950  32.4724643   0.2773234  47.3744090
  32.9459302  -0.4196218  47.8286441  33.0358045   0.5074164  46.6355403
  92.5944805  61.3361835  63.5147715  91.8724442  61.8950748  63.8020468
  93.0466461  61.8529320  62.8478765  61.4074532   2.4813124   4.1714843
  60.9034936   3.2185408   3.8268931  62.1504991   2.8870436   4.6181377
  28.9934794   2.7511927  49.0702613  28.7067954   3.6517855  48.9186652
  29.8694007   2.8387353  49.4461902  93.7634662  82.2532931  13.8639148
  94.0958884  83.0161705  14.3369277  94.3046764  82.2055736  13.0758556
   3.2662497   7.7312291  76.5572882   3.0159388   8.4734249  77.1074867
   2.7625475   6.9950557  76.9045067  72.2313646  63.7343219  42.8468879
  71.8605474  62.9435614  43.2385810  72.5932363  64.2212835  43.5872539
  22.5709162  52.0492125  59.6675539  22.5296317  51.2690496  60.2206087
  23.5009299  52.2739553  59.6394682  21.2201227  42.2471373   0.2774985
  21.1977686  42.7949655   1.0621102  21.7948927  42.7172330  -0.3265492
  92.8298000  66.5043822   9.7991832  92.1017030  66.9184008   9.3358310
  92.4465469  65.7233253  10.1983054  38.3983581   6.4250037  15.1632197
  37.6169841   6.3580367  15.7120307  38.5571448   5.5302855  14.8623832
  36.7022769  41.5047976  11.3091548  36.0169284  41.7359397  11.9361384
  37.1795051  42.3217437  11.1639770  63.2074070  70.0020647  65.1413584
  63.1756067  69.7958803  64.2071676  62.3599863  69.7126293  65.4794979
  24.4904153  38.7750766  51.0802920  23.9716975  38.2170626  50.5008300
  24.1547124  38.5876891  51.9568904  48.1525151  30.1101443   9.6307643
  48.8836495  30.0602242   9.0149863  47.7561299  29.2393157   9.6030315
  14.5233215  86.9854298  33.3394893  14.9848522  86.5968504  34.0826114
  15.1659311  87.5699940  32.9375346  93.6745790  64.9185124  32.4576934
  93.0619672  65.3105345  31.8353923  93.6922744  63.9904371  32.2240432
   9.7125210  80.3066388  13.6764796   9.8692287  80.4905835  12.7502902
  10.4732574  80.6748429  14.1258605  90.6784728  37.4556294  26.0087569
  89.9527648  37.7608666  25.4643138  90.9164909  36.6065004  25.6365188
  19.8135201   3.8157174   9.6331390  20.0167863   3.0800483   9.0554698
  19.2345683   4.3745038   9.1146834  61.4892785   7.2281214  32.4926456
  62.0237462   7.0362565  33.2632049  60.5975644   7.0023295  32.7574046
  35.0821127  86.7547932  13.8412936  35.6861318  86.7357960  14.5836051
  34.2427458  86.4773360  14.2083343  70.6742398   6.0685536  32.7514060
  71.4138047   5.5610415  32.4171813  70.8361451   6.1365792  33.6923583
  36.0764234   4.5310685  15.9625800  35.2335898   4.7626302  15.5723937
  36.2870662   3.6759183  15.5876430  45.3413550   6.4887711   4.4597228
  46.0966269   5.9020087   4.4208797  44.8007361   6.1368081   5.1668914
  41.2227885  15.6475159  10.4651721  41.3542335  14.9775788   9.7942527
  41.0891168  16.4571044   9.9722942  26.6910140   5.3717133  26.8125518
  27.1014707   5.7134673  27.6068767  25.8470504   5.8209988  26.7667277
  46.8283476  55.9824577  15.0065120  45.9189237  56.0803512  14.7243960
  47.3258794  56.5408256  14.4090827  43.6723487  14.6120497  41.2374671
  43.4956805  14.7157666  40.3024467  42.9247491  15.0249478  41.6697200
  72.7533391  86.7888871  46.2253364  73.2182506  86.8462124  45.3905948
  72.4451020  87.6801005  46.3895209  48.8402097   3.0858371   4.6829970
  48.0611913   3.5416457   4.3642505  49.5733754   3.6064240   4.3548377
  27.1415628  53.0509892   4.2137797  27.3953069  53.8547215   4.6674998
  27.6697172  52.3668077   4.6250995  43.7322061  14.9145695   7.3941215
  44.3345658  15.0813195   8.1190951  44.0005414  15.5313346   6.7130740
  17.3342578   6.1196181  13.0080493  17.8147332   5.7577702  12.2634490
  17.7806441   5.7643315  13.7766440  91.2637761  78.5085240  17.1855624
  90.8760741  77.7247229  17.5749000  91.8970874  78.8110581  17.8364261
   1.8038381  67.7583900   3.8041671   2.2287048  68.1150999   3.0241187
   1.1275877  67.1735444   3.4623035  62.2376077  23.8367364  55.3373035
  61.3015573  24.0114400  55.4349216  62.5867669  24.6262595  54.9238284
  66.4724874  65.2244139  10.2144635  66.6880035  64.5980787   9.5234573
  65.9142733  65.8724642   9.7847438   1.3111983  71.8039036  67.0790100
   1.4738188  72.0014954  66.1566544   1.2052832  72.6606941  67.4924421
  52.5333132   1.3601786  66.6682529  52.3610510   0.4784685  66.9986248
  52.6310457   1.8960291  67.4553633  33.1781785  12.7808997  31.8535216
  33.3505074  12.9526564  30.9277614  32.4109141  13.3156010  32.0575507
  24.9614347  58.0557588  40.7978232  24.4210066  57.3539474  40.4350169
  24.4373525  58.4162226  41.5131076  92.5282955  67.5118971  45.9746075
  91.6044235  67.2663069  45.9259224  92.5191021  68.4200621  46.2768984
  21.4269893   6.3348099   4.5999034  20.9484069   6.5094086   3.7895282
  22.3454873   6.4768883   4.3709834  41.4695994   7.4285266  22.1647723
  41.9564740   7.7823159  21.4204486  42.1356933   7.0081660  22.7086909
  85.1606083  44.4613409  66.6774321  84.6397972  45.0666475  66.1496067
  84.6461964  44.3352556  67.4747515  18.1648414  18.7980124  13.6327060
  19.1210715  18.7844321  13.5918601  17.9506890  19.6791980  13.9391120
  62.9516618  13.0791232  25.2573569  63.4143655  13.0238482  26.0934718
  63.6227147  12.8963277  24.5997127  15.9649767  53.4657070   7.4708636
  16.0624946  54.3089530   7.9131969  16.4980711  52.8612771   7.9872974
  76.7394750   1.9941804   3.7302573  77.1841638   2.0485350   2.8843673
  77.2876565   1.4078995   4.2517932  46.0407543  26.6920304  26.9449449
  45.1677418  26.4313793  27.2384453  46.1545467  27.5779605  27.2890544
  48.8468854  20.8589074  48.0854400  48.6506860  20.3769156  47.2820552
  49.4845979  20.3114459  48.5435184  39.6059227  39.4102883  72.1011734
  39.7242546  40.3489065  71.9554710  39.6832919  39.3034506  73.0492401
  63.3532000  59.2606211  58.3575726  63.3287668  59.1660929  59.3097830
  63.0836344  60.1654148  58.1997108  65.8582973  74.1619968  76.6881943
  66.4591742  74.3811846  75.9760571  65.0717354  73.8405275  76.2475061
   6.0710109  80.3936663  16.0805972   6.7730488  79.7448078  16.0319694
   6.4828552  81.2131300  15.8065684  11.8379129  84.5011559  25.5216487
  11.0056413  84.9210062  25.7390864  12.3510803  84.5548048  26.3278754
  51.0498158  15.3821370  16.9998916  51.1106507  14.6510789  16.3850101
  51.9086663  15.8026501  16.9577582  66.5642932  82.8159490   2.6674064
  66.8846730  83.2182589   1.8601020  66.4767054  81.8870273   2.4537118
  64.6809022   6.3485190  12.9008945  63.9380280   6.2390229  13.4945186
  65.3173749   5.6949183  13.1906303  40.5933539  14.8224494  15.2961715
  40.8961646  14.8550603  14.3887122  41.0878531  15.5123421  15.7386096
  77.8372955  22.1353173  75.5834484  78.3473301  21.8778086  74.8154736
  77.8221130  23.0918527  75.5511570  51.7648427   0.6027838  15.3608211
  51.9700734   0.3834817  16.2696727  52.2617738  -0.0309375  14.8434337
  83.1920627  39.1581812   3.8856490  83.4530357  39.6802264   4.6443256
  82.7586320  39.7820481   3.3032783  26.8053023  34.9340531  18.2395633
  27.2732512  35.7444999  18.4406360  26.2678925  34.7692439  19.0143283
  26.2045301  76.6501823  18.1186183  25.5122770  77.2927990  17.9634841
  27.0073904  77.1693554  18.1644328  26.5426445  19.4633603  66.3694859
  26.9006896  18.6360955  66.6914606  27.0245528  20.1362252  66.8503666
  16.5868343  76.5036884  24.2502196  16.0624469  77.2660532  24.4952758
  17.4855913  76.7514077  24.4672473  46.5518968  14.1987750  17.4366935
  45.7527987  14.3036982  17.9530891  46.2696998  13.7300011  16.6512950
  79.3208838  33.5861492  52.7756882  79.9672031  33.9364624  52.1626759
  79.3067122  32.6458120  52.5973701  92.8743556  75.3973713   8.7709888
  92.4723151  75.7434192   9.5677646  92.9195789  74.4523755   8.9165004
  11.2790645  54.3855169  21.8535884  12.2296871  54.4296279  21.9565471
  10.9352077  54.5484164  22.7319129  59.8498631  26.0175109  75.3181505
  59.4529581  25.4107738  75.9431076  60.4670238  25.4801583  74.8215723
   3.1502022  76.3015070  10.5746158   2.6652826  75.9005824   9.8532661
   3.5988439  75.5694356  10.9977325  58.9689159  40.4831505  56.1525583
  59.2079258  40.8252001  57.0140123  58.7796021  39.5575690  56.3064623
   5.8582796  62.7388576  21.5794166   4.9070228  62.6335350  21.5636809
   5.9936250  63.6847606  21.6358073  88.9744759  56.0064983  74.1720629
  89.0589142  55.0530624  74.1646099  89.7900867  56.3222218  73.7830496
  58.2382028  24.0692994  19.6351321  58.4327332  23.4602591  20.3474887
  58.2351605  24.9313590  20.0511535  91.4826965  67.7962065  50.0279188
  90.5901814  67.4669552  49.9218369  91.4595318  68.6763287  49.6523094
  64.8308802  81.0255241  62.2459841  65.4494190  80.3552818  61.9554424
  63.9744377  80.6944084  61.9756031  87.7226925  44.1694880  72.3556376
  87.1428394  43.5665560  72.8209114  88.5282707  44.1739178  72.8725958
   3.4829245  31.9897699  69.1200972   4.3605338  32.2503734  69.3996191
   3.6330805  31.3704133  68.4059000  48.9554323  74.1583529  26.0641368
  49.1928590  73.4440031  25.4728873  48.9539636  73.7588611  26.9339831
  75.7923126  47.8534651  52.2021055  76.6017628  47.4841356  52.5551176
  75.4428148  48.3889914  52.9143524  90.3825951  76.1937666  65.4506683
  90.1215172  75.5234289  64.8192310  90.9698868  76.7689610  64.9602938
  64.0728664  13.3347011  49.1545820  64.1930246  12.5878739  48.5680294
  63.4974575  13.9281619  48.6719418  28.7058227   0.5914876  11.9332584
  28.9993922   1.3590523  12.4240668  29.3157117   0.5296132  11.1981185
  64.8691384   4.8194119   7.7342208  65.5125730   4.2320105   8.1306823
  64.8084371   5.5547663   8.3439811  49.4406907   7.8568122  32.4149306
  49.3595616   7.2207543  31.7042335  49.8741643   7.3749444  33.1192954
  63.0575895  17.5618601  62.0319796  62.6693583  17.4009836  61.1719608
  62.9512262  16.7344487  62.5013494  73.7406781  83.3874288   1.6407283
  74.2993978  83.9499298   2.1770604  74.3293718  83.0278697   0.9771093
  22.5382150  78.7217679  35.0565227  22.3015417  77.9600158  35.5856307
  23.2191576  79.1635528  35.5638488  60.6869714  25.6050393  34.3642123
  60.0522916  26.0530946  33.8050540  60.3609483  25.7416436  35.2537521
  59.2415540  38.5249469  21.0337623  60.1548783  38.3514735  21.2617286
  58.8479726  37.6569888  20.9444697  36.3664453   7.1548459  28.6913570
  35.9187333   7.4728772  27.9073699  36.4255301   7.9217192  29.2611297
   9.6099584  19.5276543   9.7424777   9.5271556  18.7411305   9.2032512
   8.9563148  20.1306769   9.3884357  13.2841216  77.3988247  67.1099186
  14.1159640  77.7786922  67.3926973  12.7448664  77.3875046  67.9006863
  48.0403821  16.3309047   1.7761167  48.1876819  15.3851077   1.7776235
  48.7836186  16.6882798   1.2902101  76.3512325  61.9915152  65.4451418
  76.4735651  62.8510761  65.8481598  77.0346832  61.4454031  65.8335733
  67.8829622  82.6338863  48.9972258  67.7590799  81.7061424  48.7968159
  67.5557184  82.7315331  49.8914337  20.7640473  26.7244813  32.0129188
  20.7548682  25.8716532  32.4474700  19.9158923  26.7780158  31.5724738
  13.1856267  20.8779904  22.0449527  13.7366979  21.1562249  21.3134177
  12.7423827  20.0920340  21.7255099  49.5563616  78.7238493   6.6503032
  48.6115183  78.7896076   6.5118011  49.6446718  78.2603255   7.4831088
  16.0471545  19.9889815  70.1853085  15.6531821  19.7813368  71.0326004
  15.7396994  19.2953002  69.6017694  38.8609855   0.9362408  13.9648898
  38.5565774   0.4235741  14.7137149  38.4267299   1.7836806  14.0623839
  67.1233479   0.4212472  19.3894656  66.7091100  -0.0323919  20.1235278
  67.1720426   1.3352772  19.6694835  20.3830637  88.4533825  21.9229015
  19.4987787  88.2485047  21.6191276  20.7432092  89.0242806  21.2442191
  84.6789932  64.2956257  71.4313364  85.1679134  63.7333679  72.0322180
  84.1813183  63.6870432  70.8852816  58.1702818  78.5217276  28.2537730
  58.7449564  78.7220350  27.5149520  57.3342527  78.2880202  27.8504451
  69.4952790   9.4705388  19.0243514  70.3582494   9.3046805  19.4038184
  69.6437375  10.1704404  18.3884795  52.5840013  10.7157084  26.5169700
  52.4459092  11.1564252  25.6785567  53.3148019  10.1187751  26.3562663
  64.7936360  64.1522547   7.6225265  64.3555562  64.9742839   7.4021133
  64.1015450  63.4925219   7.5777705  82.5176620  39.1654539  53.0182934
  83.3985996  39.3955517  53.3136368  82.2294521  38.4877086  53.6297131
  19.3265642  82.5661865  29.8376544  18.4911836  82.1020070  29.8915275
  19.4628252  82.7061120  28.9005931  38.0103652  26.2384841  22.7929862
  37.5877540  25.6708380  23.4375079  37.2849051  26.6704270  22.3420222
  44.9785964   8.7224814  33.7252315  45.6249873   8.8677212  33.0343516
  44.1761271   8.4909722  33.2576068  15.5837883  75.1549974  11.8927749
  15.3463091  74.2352882  12.0109828  15.9948791  75.1870933  11.0289367
  70.5040757   1.9706675  11.0023196  70.2265851   2.0727631  11.9127162
  69.8301904   1.4175555  10.6071265  58.6961667  27.1063134  13.7921508
  59.2199628  26.7520758  13.0735477  59.1271703  27.9302880  14.0191634
  90.1321030   7.6105452  74.8083448  90.2358437   6.6935444  75.0624704
  90.5252266   7.6636237  73.9372158  91.1210060  55.6814861  51.3745689
  91.3846493  54.9347830  51.9123077  91.9458580  56.0680819  51.0806370
  82.8509235  62.9476690  67.1119213  82.7317429  62.4788523  66.2859440
  83.0092144  63.8550854  66.8516016   8.4961237  83.4427991  39.5340999
   9.2227997  83.3164635  38.9240058   8.8323320  83.1320014  40.3746875
  73.0334854  71.1268568  61.0631943  73.5137081  71.6097450  60.3905630
  73.4803534  70.2820539  61.1165857  68.6369054   6.3301179   7.2232898
  68.6646096   5.5359885   6.6896041  67.8884809   6.8208644   6.8838008
  54.3851106  49.8922965  14.5944102  54.4005887  49.0085170  14.2270930
  55.1288335  50.3347441  14.1853412  58.6722390  37.6460692   7.2522433
  59.5794694  37.5772616   6.9548782  58.6586968  38.4306857   7.8003581
  41.8281905  14.9852225  12.8006824  42.7724711  15.0269696  12.9517634
  41.7173974  15.2757642  11.8953975  42.9183595  19.8892113   0.1100047
  43.2942073  19.7756430   0.9829696  41.9721095  19.8857018   0.2543243
  49.7245706  83.0253759  62.8724082  49.9975218  83.7129202  62.2649463
  50.4591097  82.9369226  63.4797462  73.6252801  15.4776570  13.9090808
  74.2364995  14.7410104  13.9095767  74.0990560  16.1822840  14.3509753
  59.1415898  29.5349404  16.7589172  59.0764348  30.4263207  16.4162524
  58.2452695  29.3071315  17.0058044  41.3780372   0.5317017  20.2590545
  41.3070027  -0.3416446  20.6443484  42.2699944   0.5693290  19.9137576
  12.2382746  79.6135378  73.4958744  12.4865542  80.0156784  74.3282604
  11.4494524  80.0849533  73.2279825  42.2508730  66.3221374   2.6537164
  41.3555444  66.0272947   2.4873527  42.2534956  66.5700784   3.5782416
  44.0697543   4.2166850  17.9162772  43.3151023   3.6733386  17.6893218
  43.9844148   4.9900386  17.3587115  56.2520329  36.8413874  27.5114711
  56.2168996  37.6570079  28.0112250  55.3362195  36.5806052  27.4139484
  53.7641637  14.1755244  16.1206992  54.6682183  14.2335746  15.8116038
  53.2604711  13.9331385  15.3436645  49.6444464  70.4398680  55.8740997
  50.3097248  70.3617191  56.5578604  49.9565792  69.8713303  55.1701307
  26.1194531   2.3914286  12.1218951  26.5034024   1.6911074  12.6494964
  26.5554873   3.1872746  12.4264224  49.3325631  24.3312546   6.5075381
  48.5487477  24.7589347   6.8524440  49.5560853  24.8356578   5.7253345
  53.2471292   6.0056063   2.1057971  53.5986821   6.0690877   2.9938396
  52.9807488   6.8991181   1.8892129  32.1725572  80.2299467   2.0747121
  32.7486814  80.7845536   2.6007541  32.6462473  80.1043930   1.2524684
   9.6584381  81.7909685  61.4863189  10.3481020  82.1997753  60.9633716
   9.5356048  82.3847928  62.2269328  14.9782623  81.7449894   8.3626350
  14.0254987  81.8315115   8.3311828  15.1523603  81.3171425   9.2010100
  60.8454053  16.2562463  20.4936584  61.0077493  17.1995780  20.4952129
  61.5409390  15.8944175  19.9445232  91.4277700  78.2842389   3.7337382
  90.5926994  78.3133665   3.2667907  91.5365270  79.1678563   4.0853389
  19.1576685  85.7362118  20.3124984  19.3578542  86.1998978  19.4993861
  18.4987653  86.2810269  20.7429107  29.3603675   2.4294039  37.7547248
  28.6881368   2.9373595  38.2089408  28.9573304   1.5731618  37.6110347
  55.7196347  18.1228968  19.8885902  56.2871854  17.7677724  19.2044814
  56.1073701  18.9708134  20.1052268   2.3739589  71.5820160   3.4686740
   3.2900585  71.5746608   3.7460406   2.1738590  72.5073686   3.3275397
  27.5231759  25.9887883   6.9388183  27.5373809  26.7890307   7.4638351
  26.9611947  25.3897855   7.4303516  67.6379601   1.7566869  52.8155501
  68.2748334   2.1295020  53.4251578  67.4633424   2.4609181  52.1912082
  62.2930527  75.8353615  40.1876688  62.9725790  75.2915525  39.7892308
  62.6691675  76.7154312  40.2033663  41.0623662   6.3440415  38.9418300
  41.2134902   5.9196803  38.0972560  40.1188151   6.5035054  38.9643272
  48.9267267  85.8223525   3.8834460  49.0631403  86.7603245   4.0169891
  49.7195543  85.4132452   4.2302688  25.6854550  26.1979052  11.5982040
  25.3788201  27.0653388  11.8623431  25.1975028  26.0048863  10.7976611
  59.8943440  10.3191277  27.2564681  59.6232812   9.4170281  27.4266990
  59.2199532  10.8547446  27.6742538  72.8860681  32.5315186  21.2047275
  72.0926873  32.9455706  21.5443214  73.1476418  33.0834862  20.4677470
   0.7901106  62.5799799  71.5454054  -0.1484098  62.3920059  71.5364790
   1.1971102  61.7549706  71.8098640  31.4062182  36.2795970  23.2814296
  30.7429616  35.6802031  23.6235602  31.1350791  37.1418807  23.5963615
  20.5982892  42.6593825  25.4685767  19.8215262  43.2000682  25.6118568
  20.7564084  42.2385833  26.3136562   4.2282550  21.4267346  11.9783671
   4.4113104  20.7468411  11.3299354   3.9119141  20.9480473  12.7445396
  86.5621090  37.4765205  71.3468456  86.8936539  37.1382952  70.5150318
  86.3318634  36.6945839  71.8486404  58.4964466  80.7018471  63.4796953
  58.3751440  81.1353683  62.6349640  59.4144917  80.8594131  63.7001324
  43.9656080   5.1845270  66.7917538  43.5219682   4.4495875  66.3683367
  44.0622629   5.8374983  66.0985613  72.7225161  56.1063147  66.6451263
  73.0071926  55.7487059  65.8041096  71.7775297  56.2237406  66.5479279
  71.0382891  36.3045049  73.4395933  71.0010004  37.1225572  72.9439831
  71.9721174  36.1028981  73.4991503  19.3587125  71.2868324  22.9261191
  20.0375665  71.1382642  23.5843928  19.3052114  70.4602161  22.4464591
  84.7248380  38.8448188   1.4410289  83.8929383  38.7732646   1.9090684
  85.1847951  38.0303332   1.6442140   6.7771254  63.3691740  45.6793690
   6.9678793  63.9540625  46.4126825   7.6374445  63.0966997  45.3602600
  20.3547713  80.8003259  71.8442678  20.6501672  81.6157830  72.2492409
  21.0497758  80.5744243  71.2260723  61.5817369  80.8364239  22.7326663
  61.7736067  80.7194605  23.6631091  60.9811033  81.5811649  22.7037414
  80.3916073  47.6897573  74.7637987  79.7392702  47.9848909  74.1285133
  80.8139133  46.9408178  74.3431091  52.3762274  46.1712503  72.2188663
  51.9503975  45.3142166  72.2385168  53.3099079  45.9767103  72.3003244
  88.8880825  46.3500786  75.3280210  89.7657871  46.2113094  74.9721861
  88.4695721  45.4908466  75.2750826  13.8913788  79.5529142  35.0515159
  13.4041132  79.2244521  35.8071025  13.2198251  79.9093714  34.4699748
  63.7837934  69.2436457  40.8287144  63.0280113  68.8806677  41.2905312
  64.4412899  69.3753195  41.5117884  44.2374055   8.6851689  24.2567905
  44.2559258   9.4793078  24.7908576  44.4894759   7.9854056  24.8593028
  93.1562138  77.5866413  41.1433935  93.2858086  77.7736616  42.0731544
  92.7233696  76.7330217  41.1288452  30.9779756   4.1878697  31.0673125
  31.2246530   4.3043277  30.1498111  30.2006213   3.6301371  31.0374053
  94.2891553  65.9111062  28.3183368  93.7618259  65.2960458  28.8280948
  94.1826633  65.6236163  27.4115642   1.2894926  38.2121110  60.2713060
   0.5438624  38.2008529  59.6711874   1.2256346  37.3846269  60.7481956
  71.1604786  56.4324951  49.4560194  71.4991188  56.9363642  50.1960659
  71.7758226  56.6091013  48.7444067  40.6347291   4.5401332   1.8414529
  41.4942805   4.8281190   1.5341075  40.7984941   4.1896674   2.7170022
  47.9571069  61.0461989  15.5879005  47.0449842  60.7565120  15.6067641
  48.4651197  60.2357259  15.5520232  64.5018880  39.9727866   6.2312682
  63.7857549  39.7211882   6.8144305  64.0826718  40.4989096   5.5503257
  26.9275484  72.1317291  67.9140282  27.2641764  73.0256271  67.9761553
  26.4451323  72.1143723  67.0874643   2.4134315  57.1293798  17.8604301
   2.9923929  57.7877369  18.2446178   1.6192402  57.6126090  17.6324351
   1.7949737  18.9235440   1.0906251   1.5186180  19.8342362   0.9881671
   2.1678747  18.8840428   1.9713147  58.0481049  75.2946585  52.2490549
  57.5096509  75.4580599  51.4747095  57.7343747  75.9260184  52.8965044
  38.7727782  72.7605134  64.4885206  39.6470019  72.8888398  64.1204309
  38.8412711  73.0839914  65.3868008  69.4960451   1.7814210  49.6527624
  68.8636971   2.3628114  50.0750828  70.1486635   1.6047272  50.3303289
  62.6867390   7.7580571  70.2244139  61.8013811   7.8052270  69.8636532
  62.8679895   6.8206453  70.2925205  50.2647877   6.3107353  67.7770376
  51.1233902   5.9431177  67.9865551  49.6406078   5.6995147  68.1682444
  80.5020097  81.3104692  11.2384589  79.9915460  81.0173002  11.9932540
  79.9272350  81.1607018  10.4878409  74.2867136   8.8159353  69.6794176
  73.9934778   7.9204929  69.8480272  74.1874790   9.2627567  70.5200958
   9.2057384  29.5529857  41.0514815   8.6385740  28.8117006  41.2637408
   9.2156805  30.0828913  41.8485530  69.2438176  18.9864746  38.8998778
  69.1560415  19.9180856  39.1014369  70.1333073  18.7646165  39.1752227
   2.4616715  68.9943713  56.7995977   2.7050730  69.7383815  57.3504448
   3.0212232  68.2791346  57.1021986  65.6434921  42.4056566  20.5628379
  65.9009484  43.2840174  20.2827819  64.9575427  42.1491793  19.9464591
  62.5826836  57.5142717  44.5509148  63.0782652  57.2576332  43.7732458
  62.2153378  58.3699322  44.3292522  46.2490937  64.7865289  70.4901028
  45.8951613  64.5825523  71.3557577  47.1090600  64.3663543  70.4778624
  71.3121271  35.8903170  69.9857426  71.7155838  36.1058569  69.1449118
  72.0504093  35.6922102  70.5618715  87.5608209  56.1059192  11.1157973
  87.6690105  55.5191651  10.3672965  87.3006585  56.9419828  10.7290824
  13.6603181   2.0053813  15.3496822  13.4467046   2.4192998  16.1859115
  14.2581431   2.6199290  14.9240478  16.9440330  40.2207848   9.8375590
  16.8555177  39.4431308  10.3886016  17.1918501  39.8787278   8.9785941
  66.7953947  53.5688516   3.3284362  65.8537558  53.6425337   3.1731399
  67.1936324  53.7541607   2.4779733  69.5343256  18.6074376  42.2780848
  69.3385792  19.4879198  42.5985003  69.3790388  18.0382371  43.0318260
  84.1817760   9.1578555  59.9748468  83.4795761   9.1353625  60.6249619
  84.6374035   8.3233494  60.0854540  91.9952205  57.5428751  31.0683330
  92.1519998  56.6687575  31.4255031  92.3319772  57.4998584  30.1733573
  70.4838940  86.6404837  50.5302620  69.5523450  86.7047968  50.7407427
  70.5040166  86.3319322  49.6243811  24.3016828  62.8796890  15.2745517
  24.4570745  61.9352522  15.2634700  24.8003305  63.1956401  16.0280402
  64.8440742   2.4983686  61.3715410  65.1741791   2.1473610  60.5444670
  65.4866552   2.2191145  62.0237207  31.3845648  10.2187076  28.3150371
  32.2438539  10.1676550  27.8964027  30.9337534  10.9243551  27.8512843
  33.0668875  71.8848973  69.1726780  33.2394597  72.1261638  68.2626009
  32.3809478  71.2195104  69.1181231  65.6853819  11.1879170   5.3422964
  65.5754137  12.0790970   5.0107270  65.0176525  10.6777358   4.8839486
   6.6176043  25.6439400  59.6182489   6.3617907  24.7282720  59.7293377
   7.3528586  25.6146336  59.0060663  43.3893442   7.6184571  65.2653313
  43.2710075   8.2760334  64.5798969  43.5990953   8.1252587  66.0497999
  56.0632324  26.8783021  62.9289961  55.2146482  27.2444940  63.1780672
  56.3889837  27.4690104  62.2498941   6.5165755  76.3390845  41.5983582
   6.1583850  75.8836621  42.3602819   7.4566361  76.1622614  41.6337013
  75.6812477   7.1365690  48.4342337  75.0478649   7.3407727  47.7462244
  75.2913666   6.4021391  48.9084053  34.0151593  60.9284776  73.1717348
  33.0721804  60.7640999  73.1726408  34.1906926  61.3209480  74.0269470
  69.6422672  12.0036256  48.5746431  70.3129244  12.4603689  49.0824175
  69.9041271  12.1309006  47.6627970   8.2571663  23.9076081  12.9993327
   7.6586212  23.9595428  12.2541602   8.4304823  24.8199418  13.2313712
  33.5920538  27.6428464   9.7351821  33.8549341  28.3887353   9.1959460
  34.3275179  27.0331219   9.6754916  18.3765424  29.0216997  36.2354072
  18.2330526  28.1124332  36.4978488  17.9205431  29.5376995  36.9002612
  65.2361441  42.0982265  58.7508535  64.6738625  41.6859579  59.4066715
  65.5617332  41.3695812  58.2223701  39.1405439  17.3077440  70.3351736
  39.7687602  16.7817044  69.8403406  39.0292859  16.8348622  71.1599350
  67.5419140  30.4017186  74.3357849  68.0773306  30.0395131  73.6298323
  66.8903112  29.7236347  74.5142508  56.4195251  10.8327448  63.7847853
  56.6224194  11.6403830  64.2567873  55.6651115  10.4680085  64.2474461
  72.0630172  78.4239855  42.3405631  71.6068700  79.2437449  42.5307067
  72.1574643  78.4178081  41.3880523  57.9490662  17.6729167  60.3343487
  57.8953314  16.7284906  60.4806471  57.7859306  18.0583048  61.1952209
  63.9586452  26.8404725  17.3259338  64.3178085  26.5408984  18.1610950
  64.3459943  27.7059951  17.1953090  27.1817125  38.7051740   1.2418731
  27.4599565  39.5487153   1.5985950  27.7034391  38.5976103   0.4465945
  25.4640115  57.6699927  13.9763339  26.0176767  57.3445347  14.6860965
  25.9992708  57.5685957  13.1892856  49.4943953  16.3296986  73.0107403
  48.7342024  16.5667188  72.4795532  49.8607349  15.5603158  72.5747633
  86.3964895  71.0692683  13.3327087  86.8054536  71.2026086  12.4775966
  86.9501689  71.5578165  13.9417918  83.6974716  16.1643326  47.5571156
  84.2132473  15.7336926  46.8753862  83.5329342  15.4772580  48.2029390
  77.9624176  19.7394919  63.5675526  78.1354094  19.5969069  62.6369715
  78.7518120  20.1709414  63.8945580  77.2180414   1.1829940  36.9115305
  77.2566700   0.7357271  37.7569246  76.4438534   0.8182801  36.4827609
  34.5314145  16.3384807  74.5666170  35.0027132  16.8479824  73.9074373
  33.8475013  16.9292414  74.8820496  28.9742875  14.0125203  70.6996441
  28.4957170  14.8105836  70.4753733  29.4181228  13.7635744  69.8889256
  55.2762365  87.1074280   3.7994083  56.2035942  86.8837866   3.8783248
  55.2672482  88.0590614   3.6967357  18.6875547  78.3849278   5.2035030
  18.2324995  77.8753438   4.5330699  18.0299486  79.0034190   5.5217155
   5.4129995  36.0442599  20.4200156   5.9683479  36.4279511  21.0986980
   5.9847511  35.4273292  19.9631484  42.0311162  62.7410358  47.4123669
  41.0936305  62.9310650  47.3771143  42.1266648  61.9172758  46.9343281
  27.2354902  55.9515050   1.0834106  27.1628202  55.0571337   1.4166577
  28.0677904  56.2702957   1.4325269  11.6928447  69.9931589   6.0547526
  12.4302829  70.4857769   5.6945499  11.7239250  69.1502943   5.6021579
  75.7264570  45.3035857   3.1022533  75.2125409  45.3098009   2.2947343
  75.1023105  45.0478153   3.7814029  49.1609189  67.5766438  57.4644709
  49.5878026  66.7394322  57.6463604  49.8833176  68.1949681  57.3547029
  77.7985767  64.9481621  22.3341830  77.5934318  64.6012178  23.2023891
  76.9599679  64.9499932  21.8727096  13.0080236  46.6802056   7.3850330
  13.5698475  47.0209855   6.6890033  12.6059974  47.4584588   7.7709468
  49.0914348  15.0607696   6.5468486  48.5427442  14.4011107   6.9711383
  48.5651031  15.8599821   6.5684302  13.6009785  44.6458954  70.6613493
  14.4042823  45.0589794  70.9780407  13.8797662  43.7823909  70.3566027
  49.8518181  24.1810703  25.1770234  49.3128109  23.4573507  24.8577523
  49.4260597  24.4568419  25.9887576   7.0512260  61.1088124  29.3562015
   6.4392341  60.3732577  29.3305381   7.8600038  60.7353690  29.7064193
  44.0626192  26.2018561  75.4167414  44.3273163  25.3278899  75.7037115
  44.0376043  26.7206144  76.2207937  53.5553789  24.8744273  76.7823792
  54.1087389  24.1588068  77.0952845  54.1731024  25.5429745  76.4862490
  43.6533165   0.3924382  67.1497583  44.3691111   0.9774826  66.9015741
  43.9318895   0.0133733  67.9833889  57.3556423  25.2992654  59.0116024
  57.3573685  24.5532894  59.6113920  58.2325602  25.6742263  59.0931940
  92.5262550  28.1293788  30.6553729  92.2529748  27.2806993  30.3071006
  93.0130771  27.9160717  31.4514430  40.8943510   9.4618344  56.4483118
  41.6496229   9.0046108  56.0785246  41.1961222  10.3617752  56.5719080
  77.1378997  39.8587480  21.7290767  76.2567285  39.6243125  21.4378627
  77.5731376  39.0188870  21.8754752  90.5845547  28.2325149  32.8878689
  90.8483791  27.3673916  32.5745058  91.3757992  28.5942221  33.2870364
  28.4423730  83.6063302  61.1508083  27.8610322  84.2004111  61.6255140
  29.2200705  83.5388017  61.7047596  31.3601109  79.3857485  73.8298702
  32.1539447  78.8809794  74.0066814  31.5822694  80.2800536  74.0888977
  37.1689507  85.2053460  58.4050608  36.6528937  85.3552332  57.6129436
  37.4275347  84.2852688  58.3519268  26.2051675  87.4952330  37.1270728
  26.7536256  86.7193685  37.0110703  25.3121993  87.1805216  36.9863582
  88.6163524  82.9005709  13.9933189  88.6509565  82.7485433  14.9377330
  89.4718030  83.2728043  13.7791427   4.3030704  40.1132178  23.0073722
   3.5591377  40.7082644  22.9140170   5.0195278  40.6711489  23.3100684
  10.6563152  52.3868200  27.8708346  10.1037039  53.0949887  27.5401576
  10.7689537  52.5850758  28.8004764  59.8392108  48.8321620   4.5128520
  59.3561533  48.3495965   5.1836856  60.3231576  49.4993684   4.9995406
  58.2138920   8.6543274  63.3616543  57.7023935   9.4460511  63.5283136
  57.8674173   8.3146006  62.5365639  67.6325226  51.3760519  51.4910173
  67.9914141  52.2621918  51.4442778  68.0610895  50.9838915  52.2517920
  23.2109464  69.5054999   0.8211549  22.5942053  69.3195906   1.5291865
  23.0250944  70.4111734   0.5732663  88.4558105   2.7275938  71.4662409
  89.2636967   2.2502427  71.6551352  87.8282833   2.0481974  71.2195253
  76.5906194  66.1126056  16.0616763  76.1389068  66.8322721  15.6209262
  76.9112876  65.5591765  15.3495582  67.6643947  64.6275249  14.8306640
  67.4757055  64.5022669  13.9006408  68.6165527  64.7164860  14.8720153
  19.0243003  57.0920533  76.0865784  19.8963019  57.2294611  75.7164907
  18.5542151  57.9047698  75.9001827  66.8007994   5.8347172  58.2899618
  66.0640860   6.0903549  58.8450623  66.4041328   5.3184927  57.5882483
  13.0982507  80.9851685  12.3776801  12.1981586  81.2360754  12.1700366
  13.0604137  80.0365034  12.4994739   6.1217127  21.0956430  66.5540695
   5.9964762  20.8298969  67.4650717   6.3800059  20.2916527  66.1033916
  31.1328424  63.0450800  26.9127162  31.2054075  62.9977491  27.8659804
  30.4773153  63.7247279  26.7558559  16.5695013  65.0172296  28.1555160
  17.5074304  65.2069297  28.1322272  16.2289585  65.3927103  27.3435577
  66.7441416  20.0605941  48.6507654  66.3774633  19.2285323  48.9498472
  67.5777626  20.1356912  49.1151714  40.3386511  55.0415245  10.2852710
  40.9318174  54.3434438  10.0076564  40.5244745  55.1572528  11.2171062
  88.3159161   4.0295160  65.5643129  88.1433773   3.2868177  64.9856424
  88.5552597   4.7432429  64.9730968  62.7993679  29.5462346  50.7094955
  62.0379257  29.5030069  50.1310778  62.8759623  28.6632466  51.0710144
  36.2136504  78.4697455  61.0477591  36.0706422  79.2683262  61.5557432
  36.8832633  77.9915041  61.5367746  68.6154750  73.6667266   2.2401364
  69.2107895  74.1460386   1.6638597  68.4643605  74.2603913   2.9756339
  56.9675636  49.8984385  64.8772430  56.2140036  50.0556898  65.4461479
  57.4917269  50.6962299  64.9480295   4.0060676  50.9007338   9.6834262
   3.8636841  51.3746574  10.5027850   3.3217062  50.2315953   9.6717342
  78.3281997  75.5676904  23.2403262  78.9400628  76.1551180  22.7967151
  77.9700425  76.0916009  23.9568885  79.8154736  26.9079161  45.5999899
  80.0936508  26.3578773  46.3323212  80.4109573  26.6767430  44.8871136
  83.9655304  10.6683195  55.3841066  84.7498035  10.6107974  55.9298515
  83.3454514  10.0634468  55.7913685  41.6327620  32.0078540  58.5592270
  41.3374853  32.8852391  58.3158398  40.8251619  31.5098000  58.6855364
  12.6552210   2.2293730  69.8792267  11.7295084   2.2286768  70.1227236
  13.1141577   1.9811766  70.6817245  32.6446740   5.5246684  35.3824313
  33.3182685   4.8776671  35.5919250  31.8177049   5.0640532  35.5245193
  38.2375905  85.0273752  64.0707397  38.7651726  85.6662548  64.5500278
  37.8351971  85.5314267  63.3634615  23.8529460   2.3131701  14.2940505
  24.5613973   2.7736756  14.7437938  24.2751424   1.5488860  13.9018043
  65.7055521  11.4311206  66.0227871  66.1577940  10.6263256  65.7697773
  66.2996626  12.1332133  65.7575941  32.8085149  42.8188726  23.0788119
  32.9995550  43.1688997  23.9489921  33.6659063  42.7312396  22.6623614
  85.8673477  28.0863309  60.3873777  85.2937603  27.5141191  60.8970881
  86.4482403  27.4871254  59.9185991  65.0443840   9.4783276  67.9012823
  65.1820755  10.1310933  67.2148657  65.7763100   9.6070898  68.5045528
   2.4478445  32.3658681  64.5125723   2.2465811  31.8150592  65.2691031
   3.0918131  32.9945540  64.8385811  19.4256796  53.1322333   9.3104823
  18.8269819  52.4720219   9.6596416  20.2171625  53.0424574   9.8412498
  63.5467911  58.2943535  61.1362600  63.2462358  57.4976397  61.5734625
  63.4464550  58.9814806  61.7950630  92.0767692  78.2383933   8.5432418
  91.3489106  78.5930195   8.0326636  92.0381501  77.2940937   8.3914550
  23.5757269  80.6421223  10.3156932  23.5147203  81.2156620   9.5517810
  22.6869405  80.6203022  10.6704028   8.5258494  55.5107212  59.0668678
   9.1286765  55.6319284  58.3332872   8.4130297  56.3884449  59.4317007
  29.2582652  81.3664013  68.6360359  29.5519635  80.7791066  69.3324995
  30.0067898  81.9410962  68.4758186  64.9139503  75.6392231  15.5947669
  65.6501201  75.0339809  15.5055125  64.4763735  75.6112638  14.7438987
  65.5565500  22.1623564  50.8684063  66.2485456  21.5030718  50.8162880
  65.3446388  22.2139955  51.8004227  85.8801365  42.9218197  25.5323577
  85.5107403  43.7843609  25.7215762  85.2306271  42.5015116  24.9687052
   1.9161905  49.0430143   9.7112258   1.1006988  48.9838534  10.2089294
   2.2480310  48.1454870   9.6876319  72.9283857  11.6021419  54.0683842
  72.3751688  11.5808427  53.2875299  73.8217258  11.5369916  53.7308550
   5.9393320  11.0058868  61.8088341   6.4141283  10.4013979  61.2384033
   5.1171694  10.5559087  62.0032549  80.5878353  12.9770780  68.8195324
  80.9064388  13.3541787  67.9994583  81.3706779  12.8907442  69.3635321
  62.6998070  49.2273295  13.0348380  63.0934218  49.9489769  12.5444015
  62.7178434  49.5192131  13.9462646  20.7795919  41.2577230   3.6205943
  21.5445913  41.1997834   3.0481990  21.1294950  41.1274168   4.5019706
   2.5536073  54.5764747  -0.0520007   3.0642570  55.0834897   0.5791886
   1.6450275  54.8216894   0.1228698  48.8787556  32.5892186  59.3446255
  49.4117308  32.1739697  60.0226688  48.0272007  32.1572042  59.4112921
  67.5220490  39.2516541  67.8450394  68.2377911  39.8868227  67.8226233
  67.9421854  38.4108806  67.6638889   7.7524151  76.9968977   2.4132379
   8.1166996  77.0235076   1.5284665   7.3593248  76.1270395   2.4843486
  10.8853592  75.8551875  12.4449046  11.0560240  74.9779525  12.1020301
  10.6186403  75.7098546  13.3526309  56.5560929   9.3027875   8.2585033
  56.0783212   9.6593806   9.0073760  57.0186727   8.5419556   8.6097797
  59.0788762   8.2767627  30.4818900  59.2266099   7.4243781  30.8915885
  59.1155641   8.9005896  31.2069591  71.7597294   6.4664376  71.2963438
  71.3526058   6.7330080  70.4720736  71.1904716   5.7737964  71.6316462
  36.1857809  55.7777527  29.8275741  35.6814684  55.0913921  29.3907531
  36.9585718  55.3271845  30.1681979  66.8152094  18.8030303  71.1505127
  66.6186142  17.9320467  70.8055925  65.9672785  19.1458106  71.4329100
  81.4597371  73.8808217  14.7342857  81.7456821  72.9786387  14.8775848
  82.2454932  74.4073310  14.8812755  35.1310062  20.1050615  60.3103304
  35.8221674  19.4796658  60.5280590  34.3933988  19.8492944  60.8641768
  86.4653489  57.1507591  70.1791763  86.3484952  57.4388021  69.2738533
  85.8136937  56.4595312  70.2965975  19.7079849  39.2470813  54.1282177
  19.6144593  40.1738310  54.3487215  18.8503170  38.8676047  54.3196201
   2.5564541   2.9217854  22.4421294   1.8804849   2.7043429  23.0840095
   3.2865776   2.3413744  22.6572402  93.7728408  62.9605308  14.6015151
  93.5677675  63.5934940  15.2896579  94.7132877  63.0622330  14.4550689
  75.2285099  18.0964530  73.1052065  76.1352730  18.3738208  72.9745102
  74.9955702  18.4381735  73.9684582  60.6440639   2.1750829  73.8282776
  60.5406570   2.9234779  73.2405329  60.1728344   2.4272680  74.6223688
  83.0787945  39.8749828  75.8652163  83.2662582  39.8533750  76.8036318
  82.1261311  39.9520206  75.8129978   0.7289613  47.8893447   3.4082778
  -0.1205288  47.6716521   3.0246051   1.1373724  48.4739953   2.7698310
  34.7612473  68.4394449  55.9399271  35.2321860  67.7372187  56.3886166
  34.9986788  69.2323536  56.4207125  88.4257129  41.1602565  16.8260463
  87.8345540  41.8621743  16.5538772  88.0323985  40.3639600  16.4690478
  57.0756531  20.7562613  58.7678814  56.4704084  20.0600767  58.5124636
  57.3494291  21.1512613  57.9400778  55.2268982   1.1363526  38.2859683
  54.8846912   1.3072821  37.4085236  56.0055161   1.6892725  38.3512950
  45.7935238  27.6276565  67.6803923  46.6793203  27.7179933  68.0317259
  45.2385139  28.0903292  68.3081913  88.6611131  46.4529648   6.7065127
  88.7491706  47.2906470   7.1612247  87.8259614  46.5184529   6.2434085
  48.3527991  81.9168311  59.9098539  47.6926896  82.1941125  60.5451536
  49.1096875  81.6720802  60.4422522  52.1014452  61.6551304  70.2015305
  52.4274015  62.4209070  70.6743574  52.8849649  61.1385822  70.0130987
  88.1070042  26.2588334  35.6310320  87.6938152  25.5918765  35.0826883
  88.5776043  25.7612514  36.2997413  41.8297621  80.2785289  53.9092684
  41.7600056  79.3837309  53.5765505  42.0557019  80.1734775  54.8334694
  46.2880182  37.0254040  41.8832779  46.6357660  37.5500011  41.1620951
  45.3559399  36.9342327  41.6854143  39.4600007  83.4063184  25.6399298
  38.6240670  83.5918039  26.0677624  39.4671532  82.4554449  25.5302906
  93.2705978  79.6260682  10.5865844  93.5333923  78.9909878  11.2528022
  92.7447131  79.1198674   9.9673637  81.4137557  72.3449412   3.4767039
  80.4931834  72.0925703   3.4054168  81.6094116  72.7748671   2.6441701
  76.9059273  70.6852049  57.5414467  76.4354893  71.0190827  56.7776108
  77.7586457  71.1186022  57.5058556   1.8663130  22.2566605  63.4489393
   2.2585307  21.9505978  64.2666912   2.0309649  21.5496755  62.8250074
   4.7386993  44.2773941   5.1406844   3.8767828  44.6739751   5.0139697
   5.2873720  44.9937955   5.4599937  85.1092148  43.9534569  43.2781649
  84.3317986  43.4055376  43.3860397  85.8333588  43.3311319  43.2106209
  61.0902739  14.6224177  60.0800657  60.6959724  15.4925156  60.0193548
  60.7079697  14.1347718  59.3504953  22.1703924  75.5905405   9.0564139
  21.5660108  76.2456527   9.4053825  21.9295419  75.5099907   8.1335242
  72.7582073  48.0127668  64.1968250  73.4094238  48.4739971  63.6682224
  71.9603109  48.5328388  64.1013432  28.2760442  75.4734126   2.7579625
  27.9163755  74.8187533   3.3565410  29.0486635  75.0534716   2.3799070
  93.0596164  76.2967148  32.7312835  93.9009002  75.8897772  32.5242313
  92.7436832  76.6335574  31.8928607  34.0430114  79.0990698  75.2035856
  34.9171635  79.3610316  75.4924965  34.1934630  78.6216861  74.3876839
  61.2426832  44.0016529   9.9620803  61.4843992  44.7376063   9.3997844
  60.3262141  43.8273759   9.7477420  27.7623285  68.4347668  14.4987186
  27.4790014  69.0110531  15.2085479  28.2606138  69.0041199  13.9123901
  33.1864974  78.3704477  70.2494907  33.5985944  79.1749650  70.5643892
  33.6016509  78.2040721  69.4032097  63.8513088  56.1479330  65.5112505
  63.1270885  55.8771467  66.0755348  64.4762707  56.5625429  66.1060190
  23.9264533  85.3277627  61.6884947  24.2993542  85.1190552  60.8319807
  22.9959103  85.4712406  61.5160704   1.0323821  38.8048100  76.8094730
   1.7014895  38.8843060  77.4893332   1.4720354  38.3468223  76.0931063
  26.0997595  58.0999544   2.4869187  26.7511190  58.8012841   2.4970039
  26.4686311  57.4388984   1.9011100  55.1870394  49.5271158  71.5767479
  54.3094540  49.6724701  71.2232637  55.7234430  49.3245125  70.8102894
  60.2348420  83.0474788  75.8733034  60.2445122  83.9998776  75.9685659
  60.5524155  82.8925145  74.9837160  82.2542667  33.5873079  66.0237598
  82.1363831  34.2779160  65.3715324  82.9958916  33.0760860  65.6999159
  52.6692247  31.9394779  55.4864264  51.7906189  32.2219062  55.7404327
  53.2314968  32.2316504  56.2038612  92.8124428  28.0869341  77.0354891
  92.9170322  28.1379533  76.0853910  92.6982975  27.1534991  77.2141027
  12.1338762  69.5710435   2.9415162  11.6459192  69.1228285   2.2506936
  13.0131973  69.1956129   2.8958638  77.3020172  17.7129745  52.5552654
  77.6245737  17.1469927  53.2565832  77.5619602  18.5951257  52.8207254
  81.5595344  62.7445319  11.1697944  81.4444497  62.9993501  12.0852550
  81.3825610  63.5442796  10.6745036   0.1913036  64.8432198  37.3700603
   0.4949344  64.8443690  38.2778247   0.9619201  64.5936504  36.8600638
  67.0594147  53.9909234  26.5597041  66.7210272  53.2586267  26.0444720
  67.9691842  53.7555179  26.7417415  67.7850106  81.0035506  16.1069949
  67.1967390  81.4227143  15.4789336  68.4641841  80.5999818  15.5665477
   0.7688535  68.5359087  27.4657424   0.2167715  68.8571730  26.7528422
   0.3737272  67.7010932  27.7171214  38.3476445  77.0334703  47.5906181
  37.5904366  77.6024204  47.7290249  38.6829755  77.2860700  46.7303944
  90.1512435  67.2960964   9.2880614  90.0207523  67.0459619  10.2027400
  89.4546655  67.9282585   9.1109164   8.6492507   3.1761119  21.2620624
   9.0516774   3.4489438  20.4375346   7.7683012   3.5494038  21.2336715
  56.9516468  20.3989220  71.2380695  57.7311945  19.8497272  71.1548662
  57.1011114  21.1209893  70.6277323  60.1756477  13.3008349  57.8842974
  59.9926996  14.1536725  57.4900532  60.8415127  12.9125094  57.3167944
  88.6017278  43.3222449  24.3021281  87.7315429  43.3654190  24.6985419
  89.0940717  44.0239222  24.7281345  14.2071594  41.4230025   3.0104955
  13.9615358  42.0329682   3.7060817  14.4438328  41.9843772   2.2722037
  44.3277693  26.3802505  56.1929703  44.0362740  27.0557427  56.8053198
  45.1212549  26.7414689  55.7978296  85.6578735  65.3007331   0.2113898
  86.1566833  65.3853455   1.0239537  84.7502759  65.4613414   0.4696687
  61.4875650  15.6050122  24.3324709  61.4132357  14.7746325  24.8027635
  60.6367874  16.0263515  24.4544649  61.7069833  26.4340445  15.4465182
  62.0043866  26.8632409  14.6442874  62.5044076  26.3089892  15.9610160
  63.5095787  29.8694277  58.8901472  63.4863377  29.8938417  59.8467541
  63.1495953  29.0119123  58.6636305   4.3200407  14.0841520  45.4104185
   4.9923144  13.5292459  45.0149918   4.6827517  14.9688244  45.3653765
  33.4011126  68.1706572  72.8268051  32.4765849  67.9281330  72.8784037
  33.5487556  68.3558226  71.8993664  85.7282403  72.0933571  38.2226260
  86.2349132  72.5276246  38.9088615  84.8929027  72.5605622  38.2096465
  29.5352408  87.8374384  63.6814070  30.0202796  88.6142600  63.4029865
  28.6149499  88.0821355  63.5843229  84.1062310  84.6021643   2.1524127
  84.1573909  84.9987498   3.0220874  83.9416984  83.6744967   2.3215087
  28.9164938  42.8071618  15.1541885  29.4226469  43.6161829  15.2285750
  28.6032499  42.8029182  14.2497047  15.2185548  88.7955656  15.0857909
  14.3257297  89.0896550  15.2663406  15.1534237  87.8413191  15.0482448
  36.2468256  67.2041884  11.1559375  35.6445039  66.6752854  11.6791137
  35.6792654  67.7013221  10.5669006  85.2533201  42.2932893  46.5130122
  85.4664996  43.2261129  46.4879783  85.4418710  41.9806827  45.6281646
  30.5788088  10.2782834  43.6786461  31.2215018  10.7298756  44.2256784
  29.7555614  10.3587449  44.1603327  31.7734162  20.9008881  18.6588367
  32.0868461  21.6635701  19.1449531  32.3531453  20.8462712  17.8991206
  82.9912523  80.4979697  12.6306995  83.4034208  80.0572768  11.8876346
  82.0689967  80.5702224  12.3848231  90.3031591  41.2536514  24.1153224
  90.9547284  41.4465108  24.7894939  89.6761993  41.9744772  24.1749938
  66.8298435   4.7043779  47.4597549  67.0331621   3.8249791  47.1410847
  66.4458084   4.5627403  48.3250237  66.1348152   1.0449803  55.3324509
  65.2840662   1.4747773  55.4203987  66.5434027   1.4741489  54.5807171
  13.7170951   6.7545697  17.5534423  13.8157718   7.4440190  18.2100661
  14.1662709   7.0947119  16.7796405  17.6117866   0.6355998  12.9716666
  17.8169982   1.5609309  12.8379424  18.4542958   0.2308079  13.1779559
  46.1693570  79.8785353  63.8794756  46.5797803  80.7271004  64.0459776
  45.5695721  80.0413024  63.1514692  65.7874063  57.6323607  11.8275149
  66.4441112  57.0936194  11.3862308  65.0776962  57.0240155  12.0335754
  76.1630058  35.4989457  56.3293648  76.1382103  34.7815537  55.6961489
  75.3844309  36.0196233  56.1320162  77.4027252   3.1792268  43.6189651
  76.5125418   2.9113665  43.3908129  77.4930811   4.0549260  43.2431746
  89.1349509  63.9489701   9.3834193  89.7339443  63.2087532   9.4809707
  89.1511682  64.3841484  10.2358230  20.5258189  13.7397933  62.3768425
  19.7058592  14.2330515  62.4010706  20.3721724  12.9912782  62.9533386
   1.8214811  65.4193392  14.4386848   2.1505560  66.2557974  14.7677405
   1.3952411  65.6388584  13.6102088   4.4881548  63.5963324   6.0998805
   3.8240541  63.1881216   6.6553577   4.0669740  64.3881991   5.7655414
  45.4772282   2.0114489  55.6370926  45.3715801   2.3530351  54.7491789
  44.9778748   2.6151940  56.1869717  93.8824463   2.7950689  71.7029238
  94.5191383   3.3696118  71.2777710  94.0029144   2.9551554  72.6389217
  60.2978992  11.6995108  63.9255905  60.4714441  12.2966266  64.6533012
  60.4615116  10.8281803  64.2864895  52.6742029  33.8241482  69.6595240
  53.4871626  34.2706013  69.4228649  52.8869629  33.3490014  70.4627657
   2.7305422   4.0201837  41.3355160   3.4778033   4.1329244  40.7480526
   2.6098357   3.0722064  41.3903093  26.5370668  62.4320760   7.4808105
  26.1403192  61.9685641   8.2183631  26.8963922  63.2314685   7.8656371
  12.3021568  40.6291640  19.6198829  12.8127683  40.9067288  20.3804477
  12.7623810  41.0083145  18.8711055  91.9497490  14.2744744  58.4573936
  91.2363625  14.1327429  57.8351307  92.5360298  13.5298085  58.3232927
  19.2225085  30.7534575  70.0739336  18.6714373  30.3818417  70.7627392
  19.6409045  31.5103483  70.4841757  69.5576191  57.7008581  56.8493223
  68.9396524  56.9963646  57.0443392  69.7974348  57.5622940  55.9330702
  51.5785360  43.5158348  72.8237772  52.1952820  42.9175425  72.4020004
  51.8784285  43.5684252  73.7312603  17.7007879  63.9426449  34.1605647
  17.1258367  63.1930306  34.0064605  17.8785909  64.2916539  33.2871707
  62.4425793   9.0679073  43.7665319  62.3643494   8.2305342  44.2236042
  63.3592844   9.3184942  43.8809299  81.0442212  52.8516689  10.4161342
  81.4920333  52.9124632  11.2599357  80.1332000  53.0704233  10.6121619
  90.1926139  24.1056242  40.7349189  90.9951595  23.6233201  40.5360969
  89.6147445  23.4550181  41.1336787  93.7994674  85.0911894  24.0644820
  94.6787170  85.4673615  24.0239509  93.6239866  84.7956362  23.1711276
  19.0072454  39.1691890   3.6898215  19.5681299  39.8661721   3.3494456
  19.1064085  38.4537223   3.0617221   0.0365604  70.2832809   4.0523418
   0.3941024  69.4777098   3.6789115   0.7827343  70.8816543   4.0898688
  61.8112771  18.4844252  12.6371272  62.2861115  18.6105725  13.4586223
  60.8922212  18.6183259  12.8687270  21.9333757  75.2479973   6.3691218
  22.4425901  74.4548622   6.5360816  21.3494600  75.0105372   5.6487830
  40.7931992  80.5115288  75.1553488  41.6983411  80.6029767  74.8577070
  40.8613583  80.0496644  75.9909725   5.7014571   4.9937806  55.5073595
   5.6762515   4.3780252  56.2397814   4.8662196   4.8655048  55.0577545
  44.6815252  30.0252795  66.5888786  45.3069067  29.4223595  66.9908905
  43.8643551  29.5287418  66.5451241  32.6735255  84.3207034  60.8948755
  33.5316464  84.0324581  61.2059593  32.7814147  84.4159916  59.9485636
  16.5328608  32.3541307  67.8064919  15.7562647  32.4274874  67.2517443
  16.3436327  31.6171169  68.3872128  92.5271797  17.0888340  49.5673275
  92.4138260  17.5741494  50.3845501  92.1358204  17.6509571  48.8986826
   8.8387645  55.1911703   2.1289285   7.9474033  55.2978387   2.4610932
   9.3936695  55.2595046   2.9058726  70.2860352  78.8727206  53.1702328
  69.8436925  79.7181684  53.2462692  70.8203789  78.9521879  52.3800468
  61.5889597   3.3772057  66.9817543  60.8530760   3.2381356  67.5778770
  61.5933943   2.6010546  66.4215755   8.5550512   8.9590683   7.7773364
   7.9089512   8.7462845   8.4507640   9.3884100   8.6617246   8.1424888
  20.8974263  75.9964746  63.1252480  21.4496228  76.3311428  63.8318634
  21.3705918  76.2218660  62.3242855  54.4099519  85.6011420  73.4719229
  53.5168835  85.9454209  73.4835100  54.8536870  86.1091322  72.7927494
  42.3473072  31.2756109  10.3720248  43.0299950  30.6133175  10.2646172
  42.4405003  31.5709567  11.2777376  91.9063568   2.4717967  65.1190662
  91.1080170   2.3772286  64.5995140  92.2404480   3.3388382  64.8891544
  30.8078397  86.5886488   0.8797820  30.1380361  87.2444001   0.6859096
  30.5333341  85.8137074   0.3895362  60.7055283  38.5149503  59.0328169
  60.8538532  37.8321624  58.3785772  60.4728842  38.0372739  59.8290157
  76.0821679  69.2496100  10.1328357  75.4436067  69.1534200  10.8393939
  76.9319824  69.1608444  10.5643066  79.9077085  70.4311219  26.1254771
  79.9286083  71.3838377  26.2156280  79.7164539  70.2823058  25.1994594
  46.7399613   4.2645356   3.4411128  45.9536092   3.7457177   3.6105521
  46.6999928   4.4613454   2.5052150  22.9349184   2.9231608  71.4427137
  22.7996898   3.1804851  72.3547077  23.5654402   3.5594177  71.1052990
  87.0219997  67.4621573  19.1213878  86.9333032  68.1565538  18.4685691
  87.1013120  66.6587081  18.6071857  43.6031008  18.1047881  75.1209545
  43.9474535  18.1777656  76.0110807  44.1074228  18.7426817  74.6159983
  63.5843325  18.7732160  58.5517502  64.5198631  18.6489022  58.7116337
  63.3046389  17.9634488  58.1248093  30.4430291  75.9879512  60.8719683
  30.2099892  76.5508944  60.1337099  30.6188723  76.5955967  61.5903521
  27.9198087  32.6155045  21.7105659  28.5008920  33.3708444  21.6208728
  27.4941839  32.5380209  20.8567126  71.9402313  18.9707804  49.9336290
  72.6326323  18.5179305  49.4522381  72.2754431  19.0392601  50.8275986
  82.7231598  12.1361244  67.1390820  83.1227303  11.3042343  66.8850422
  83.0197144  12.2797012  68.0377913  79.1743711  67.1530333   3.1488212
  79.9514344  67.2850814   3.6919292  78.8568166  68.0373302   2.9660400
  74.3378115   5.9240031  52.0350790  74.4321012   5.9741962  52.9863024
  75.2160072   5.7129228  51.7181492  69.8431638  57.2469786  22.6553805
  68.9284662  57.0267072  22.8315719  70.2503494  56.4120927  22.4243053
  89.3513683  67.8587118  15.1533969  88.4776166  67.7036014  15.5121883
  89.9212840  67.2694626  15.6475719  31.9464108  79.7031885  77.0194435
  31.3986346  80.1030797  76.3439751  32.7381894  79.4309145  76.5555620
  78.6875156  59.5808115  36.2529166  78.4457830  59.5166758  35.3289683
  77.8742269  59.4048765  36.7260345  87.6396945  63.3796921  23.9160426
  87.7118400  64.1526189  24.4760497  88.3755067  62.8256574  24.1765388
  83.5911942   2.6288000  50.4668570  83.5137367   2.2722483  51.3517857
  84.1216946   3.4185225  50.5724096  11.0272023  86.9541895  44.8090267
  11.2768695  86.0303882  44.8311663  10.6130931  87.1107843  45.6576872
  18.2177747  81.1856356   2.0772489  19.1631616  81.2387386   1.9370731
  18.1131567  81.2385621   3.0272420  66.9516900  71.2550726   2.9686673
  66.1876324  71.5624085   2.4808200  67.5878909  71.9659129   2.8900178
  73.9803743  35.1068997  46.8411779  73.3995676  34.4306302  47.1898270
  73.3933830  35.8189678  46.5869474  39.0026869  58.3533004   7.4851211
  38.7669862  59.1149250   8.0148490  38.2339777  57.7845433   7.5280460
   0.0437651  36.5280437  33.9347458   0.2654086  36.6541433  33.0121398
   0.2738104  35.6163335  34.1138959  53.2569043   1.4317986  26.1740859
  53.8126580   2.2081372  26.2424358  53.8391511   0.7490155  25.8408816
  58.9720361   4.3277165  46.1817725  59.3169991   3.4471413  46.3294967
  58.6893384   4.6225497  47.0474418  86.7053699  38.5129213  63.0151844
  86.2814808  37.6587605  62.9317522  87.6423359  38.3188677  62.9893446
   9.6412669  20.8642530  65.8738947   9.1493140  20.0795460  66.1156511
   9.2074404  21.1847663  65.0831318   8.6136463   7.8412101  25.4612620
   9.1263130   7.7102610  26.2589248   8.0734851   8.6092755  25.6471046
  29.0645708  63.6283174  11.9050677  29.1037763  64.5165720  12.2596057
  28.4034361  63.6750486  11.2144549  43.2730071   0.8229634   1.7240985
  43.6602942   1.1042067   0.8951552  42.3499648   0.6741759   1.5189345
  42.0741953  42.2165787   5.6489547  42.6921190  42.6710194   5.0763400
  42.0544542  41.3193759   5.3159888  84.7947502  16.6061020  65.4739285
  84.7736645  16.1223769  64.6482182  84.5271587  17.4943519  65.2380514
  93.0009797   6.3303381  53.6612892  92.6306203   6.4791495  52.7912807
  93.2616571   5.4093367  53.6563015  21.9334040  42.0881701  67.1150684
  22.7444468  42.5478840  66.8980551  22.2218905  41.2861204  67.5506449
  61.0994291  64.0980721  73.8937378  60.7116270  63.6013889  74.6142578
  61.0242891  65.0127602  74.1656351  42.5603819  30.5004048  60.7331896
  42.2745180  30.9423351  61.5326977  42.2737455  31.0772109  60.0251198
  20.6230653  77.7574435  10.1181110  19.7290529  77.4403921   9.9898418
  20.6953443  78.5128179   9.5346625  40.4555099   4.5268723  19.2094310
  40.3743951   4.2304084  20.1159366  39.5963923   4.8929736  18.9993842
  31.4146726  31.8413159  20.6047614  32.0424334  31.1963841  20.9306605
  31.0903089  32.2788283  21.3919051   8.3265791   4.0417150  55.6555843
   7.4402152   4.4012520  55.6919956   8.8959608   4.8106295  55.6273603
  77.7158689  36.8128586  71.3385344  78.4114027  36.7840242  70.6815481
  77.9249430  37.5773311  71.8752813  29.3311231   4.8935696  16.4641746
  28.5919969   4.4119641  16.8356307  29.7909181   5.2501580  17.2242149
  70.2590704  49.0075541  48.5490894  69.5672607  48.3574295  48.6714268
  70.9233522  48.5554457  48.0289364  70.3138351  38.6726499  45.9717226
  69.7241116  39.1677666  46.5403318  71.0182285  39.2867112  45.7643795
   7.4002660  54.4247356   6.6867335   6.6648735  55.0341537   6.7502769
   7.0168031  53.5668191   6.8688567  70.3085807  54.6974566  22.6883395
  70.1534680  54.9607041  23.5954650  69.6895006  53.9832648  22.5370105
  34.3887755  87.4779066  71.8295813  34.9593684  87.5221217  72.5968456
  33.5109088  87.3547770  72.1907187  74.9864388  19.7367680  31.3892078
  74.7624731  20.0648546  32.2600865  75.1808596  20.5233741  30.8796167
  56.4564626   2.2852465   7.8922446  55.5432908   2.5480458   8.0074390
  56.4937608   1.3922498   8.2348807  12.2416697  42.9542112  76.7309475
  12.0691405  43.3881998  75.8954096  11.7928324  42.1117163  76.6604090
   1.5555729  75.3867355   8.5628112   1.0540975  74.5741001   8.4966262
   0.9109987  76.0786882   8.4146293  80.3522682  47.5324821  23.3752179
  80.7381439  46.8664551  22.8062415  80.4577637  47.1821928  24.2597485
  80.5827045  18.2534623  39.8757267  81.1534595  17.8115976  39.2470551
  79.7123098  17.8949583  39.7021675  10.3323183  81.5874672  75.1974535
  10.4950533  82.5307083  75.1920176  10.3623782  81.3445568  76.1228323
  68.8885021  29.4909620  71.8653536  69.5621157  30.0517535  71.4806557
  69.3475246  28.6794400  72.0820618  29.9131502  82.3669329   3.7170776
  29.8523439  81.9821802   4.5914348  30.8523000  82.4012413   3.5352786
  70.7064438  43.2450008  57.6598501  71.3396358  42.8515530  58.2602644
  69.9736452  42.6293039  57.6473570  49.0021626   6.2287137   2.9906829
  48.0730121   6.0033938   2.9443534  49.0794579   6.7652509   3.7796004
   8.3729900  70.8179703  19.6825584   8.8607134  69.9965253  19.6226485
   8.7109626  71.2401262  20.4723628  52.2488992   9.9118897  21.3012679
  52.7070348  10.1531932  20.4962047  51.3687055  10.2721640  21.1931308
  80.6610680  32.0849347  46.7509699  81.4409256  31.8798614  46.2352133
  80.4464436  31.2655210  47.1967602  40.7966725  15.0859830   4.0527423
  41.0940949  14.1811988   3.9571365  39.8571221  15.0128028   4.2204364
  86.7608929  61.7015219  48.3595943  86.4276123  60.8548832  48.6568451
  86.9324398  61.5770578  47.4261522  77.2382355  20.0178838  73.2438946
  77.5325727  20.4345560  72.4339628  78.0450153  19.7367120  73.6754942
  29.3545545  70.9249630  27.6978953  29.3136133  71.8524924  27.9307922
  29.1807951  70.4640356  28.5186179  12.5827707  50.8242956  20.1711257
  12.9823078  51.4384797  19.5551856  12.4385179  50.0296381  19.6573718
  64.6374528  13.3375832   3.9196571  65.1185529  14.1505620   4.0740474
  64.1010873  13.5195300   3.1480010  13.0047808  26.4652658  76.5085745
  12.4374400  26.8151951  75.8216143  12.4005804  26.1504579  77.1809340
  52.7638817  29.4267797  57.5397682  52.2769451  28.6541343  57.2531652
  52.3294306  30.1593447  57.1029329  90.4803753  42.8148460  63.1567240
  90.0755501  43.5860252  62.7597094  91.3601780  42.7858543  62.7807617
   0.3502334  49.7013005  18.6962875  -0.2794348  48.9883348  18.8031943
   1.1229385  49.2834252  18.3161052  33.2478921  11.1768386  23.0590232
  32.7068727  10.4725692  22.7019008  33.5237424  11.6792199  22.2923740
  82.7082113  69.0084401  16.8211063  82.6703599  68.4321609  17.5844558
  83.2890228  68.5569301  16.2087138  71.1023331   6.7352140  54.8926926
  70.6636667   7.1765494  54.1653538  70.3887463   6.4276940  55.4516745
   0.7960139  29.2620635  39.0898776   1.2412939  29.0114665  38.2804608
   0.2554808  30.0126004  38.8433933  63.2747746   4.4046125  40.8816862
  62.4526548   4.8770130  40.7505941  63.0460310   3.4845746  40.7496309
  24.2403234  36.3987431  10.1815971  25.0576032  36.6992399   9.7841247
  23.8473810  35.8294150   9.5200141  59.2461634  24.8071289  55.1913929
  58.8418436  23.9402652  55.2275038  58.5319185  25.3944349  54.9440956
  59.5365000  18.6539626  62.8798342  60.0325537  19.0731132  63.5830259
  59.5402384  19.2950439  62.1690369  68.1944577   3.1305405  20.3715499
  68.5748975   2.7735993  19.5689948  68.4142606   4.0618417  20.3472026
  64.0682125  24.4737482  73.4986496  64.0757990  23.5583568  73.2189560
  63.7512875  24.9550915  72.7343845  26.3256280   5.4850432  10.0631698
  26.2033574   6.2189576   9.4609626  25.4370658   5.2107569  10.2900107
  76.3400475   3.3385655  31.4024432  76.8785779   3.7209746  32.0952495
  75.7545011   2.7350756  31.8597968  83.2192421  55.4433727  76.3270569
  82.7908802  55.9586811  75.6435394  83.6596966  54.7372866  75.8541155
  55.2717113  61.3404083  44.5193768  55.0226068  61.5647840  45.4159451
  54.4656467  61.0105991  44.1222477  90.3075790  73.5984802  54.7584963
  91.0195732  74.1182184  55.1315403  89.5146751  73.9580727  55.1562834
  36.4327348  79.9542561  18.5300906  36.3823045  79.5029321  17.6874717
  36.9495500  79.3695679  19.0844138  14.9370490  32.4496746  65.5278540
  14.8210440  33.2410955  65.0020885  14.2243205  32.4795341  66.1661053
  43.3741633   8.8402650  13.0005725  44.2890470   8.5605284  12.9694923
  43.2468001   9.1433856  13.8995345  84.8606300  21.4863682  59.1304827
  84.3149090  21.6784859  59.8930502  84.5341301  22.0731616  58.4483528
  12.1159754  29.3371844  73.7812281  13.0639468  29.4565630  73.7235260
  11.8929110  28.8154697  73.0103254  32.7953066  87.9946604  24.7446712
  33.1278146  87.2874012  24.1919883  32.2848905  88.5438528  24.1496070
  60.0194073  26.7125678  66.9840193  60.1982021  27.2023320  67.7867603
  60.0854969  25.7937980  67.2442579  24.9100749   3.8863322  21.7745193
  24.1072099   3.5054108  22.1302398  24.6749751   4.7909590  21.5681060
  68.4788053   8.1342599  35.1806529  68.0547444   7.8532025  34.3698485
  67.7741162   8.1446645  35.8283694  94.5846036  55.4626038  27.3780234
  93.7701944  54.9599746  27.3962863  94.3014625  56.3767031  27.3559936
  14.0781794  56.4738369  54.2199135  14.4522295  57.2737598  54.5892954
  14.0447627  56.6380405  53.2774973  89.3059543  76.3499084   8.7655910
  88.4037116  76.2496033   9.0691169  89.7814754  76.6735068   9.5307048
   1.5500460  43.8887787  65.8345318   1.8620501  43.9192152  66.7389441
   2.2353087  43.4176874  65.3604937  59.4987202  45.9906054  65.7523537
  59.2536592  45.0789118  65.5942535  60.1131296  46.1989689  65.0485611
  60.0469637  40.9352160  68.0667114  60.6398296  41.6313219  67.7835560
  59.5939779  40.6665468  67.2674274  68.0142546  16.3736260  27.6474166
  67.3200083  16.3072717  28.3030462  68.8188791  16.4605165  28.1585526
  31.2551988  61.7991689   5.2026828  32.1227754  62.1958640   5.2812083
  30.7391180  62.2129491   5.8945544  90.4862404  41.4939499  66.9409513
  89.8344421  40.9181547  67.3407698  90.0627708  42.3519182  66.9127893
  77.0347404  26.0676360  68.2296467  77.6958132  25.5195928  67.8067303
  77.5394297  26.7004800  68.7405586  69.3147755  19.8823440  49.9042654
  70.1102304  19.3802595  49.7270727  69.3423080  20.0501442  50.8462381
  83.6070538   9.6012938  70.5110121  84.3110466   9.6189612  71.1593294
  83.7901020   8.8263941  69.9797344  19.1732706  64.3607083  -0.0490443
  18.7996687  64.6456876   0.7848867  20.1107610  64.5338526   0.0368674
  74.0251732  26.7269516  52.5959206  73.3636332  26.5829229  51.9192743
  74.3732548  27.5987744  52.4088526  39.2935766  63.6031058  48.0452998
  38.8655389  62.7639285  48.2149871  39.1367639  64.1165319  48.8377936
  87.4787954  81.4702239  16.9469150  88.3993200  81.3358155  17.1723064
  87.2532514  80.7166424  16.4015086  17.5416578  71.7712679   0.9169944
  16.9380344  71.0719052   0.6664689  17.6924528  72.2589817   0.1072867
  86.6865972  14.0802962  40.0464439  86.9492677  13.2042414  39.7640324
  86.4626745  14.5363718  39.2352176  76.3385677  20.7620502  67.7686310
  75.6188726  20.9660053  67.1714067  77.1277523  20.8662295  67.2370625
   7.8318132  55.8494225  15.8913787   8.0378784  54.9631825  16.1886104
   8.3353151  56.4199450  16.4720901  66.8000793  27.3369956  55.2333212
  65.9351683  27.7389002  55.1518679  66.8431139  26.7124248  54.5092392
  38.6857144   5.6138465   0.5202993  38.7724416   5.2057072  -0.3411738
  39.3936984   5.2315709   1.0388120   2.2205935   1.2217936  61.0910749
   1.3861380   0.9118709  61.4430141   2.8084288   0.4707070  61.1720085
  80.1557163  45.9402115  10.7291301  80.8222917  45.2943122  10.4952033
  79.3485263  45.6027801  10.3407748  31.5871016  22.2082850   6.5003570
  30.9342114  22.8277442   6.1744197  32.2800986  22.7596947   6.8635734
  62.9911375  16.9291008  56.6509438  62.1985769  16.4067352  56.5275812
  63.6827135  16.4179718  56.2305832  78.4540892  44.3742847  76.3410521
  78.1382799  45.1671839  76.7744160  78.4527683  43.7086582  77.0289230
  83.7202740  54.1734934  62.4859667  84.5285702  54.0006065  62.9686689
  83.6256027  55.1256800  62.5105810  11.8138183  83.5965648  16.8601115
  10.9125818  83.2808319  16.9258102  12.2073282  83.0567851  16.1745341
  91.0051537  76.3299561  68.6993217  90.7931232  76.5337610  67.7884245
  90.9583092  77.1728516  69.1505051  50.6610124  13.5642287  24.5791515
  51.5251939  13.8532302  24.8722251  50.8217351  12.7221772  24.1533073
  21.2194647  62.1545783  19.6420653  20.9760393  62.7438608  18.9281161
  20.7545198  61.3403168  19.4496329  82.3557186  18.3682132  72.0406914
  83.0905914  17.7934456  71.8266153  81.5801716  17.8752899  71.7727709
  80.7627885  10.8278414  15.1649840  80.7317368   9.9571749  14.7684939
  81.6615121  10.9143445  15.4828723  76.8243027  35.4904628  60.6174803
  77.0058298  34.8532391  59.9266672  77.3498487  35.1942825  61.3606548
  47.9331223   5.1164147  18.1282790  47.7422635   5.1053855  17.1903689
  47.6376311   5.9779355  18.4227164  90.4612541  22.0034313  72.1709776
  89.8492622  22.1745872  72.8868055  89.9418736  22.1285892  71.3767385
  25.3015436  34.2612687   3.6925681  25.3999532  35.2104023   3.6171134
  25.7175459  33.9138689   2.9035934  12.7356921  75.8177996  48.6120367
  11.9273386  76.2211990  48.9283705  12.5326071  74.8838806  48.5593033
  12.9884253  42.8067684  42.9991674  13.7510310  42.9138470  42.4306583
  13.3474074  42.8197145  43.8864088  73.6694622  11.9361341  36.9882655
  73.6569643  12.5565422  36.2594533  73.8929892  11.0973215  36.5849519
  67.5285387  70.9968185  69.5821762  67.4863338  71.4850760  68.7599516
  66.6424942  70.6557465  69.7039461  60.3814237   6.6319463   5.9407313
  60.9965817   5.8998009   5.8987506  59.5496861   6.2633034   5.6431563
  88.4339142  37.1455312  75.2245188  87.8737450  37.4398971  75.9427023
  88.4655666  37.8906989  74.6245575  39.8223448  24.4293118  67.6983643
  39.3285751  24.7041225  66.9257736  39.2183185  24.5631623  68.4287548
  23.6287702  56.9506910   2.8132661  22.8338159  57.4528804   2.6341279
  24.3351759  57.4806502   2.4439748  30.1070067  88.3202177  40.8013201
  29.4781825  88.2104428  40.0880480  30.5351016  87.4673974  40.8765841
  25.8267228  12.9118439  25.1818927  26.3291852  13.6244389  24.7869571
  26.4030520  12.1500203  25.1210578   4.0565122  68.2245913  17.7070602
   4.8666013  68.6563054  17.9783710   4.2183269  67.2936788  17.8601916
  93.9694118  50.6865072  75.0913334  94.4331455  50.3515911  74.3238592
  93.9440918  51.6344690  74.9610758  21.8334783  81.7041841   2.0810397
  21.5712560  82.6232257   2.1342738  22.7024091  81.6794339   2.4817498
  59.4794178  21.4114714  57.2944880  60.0130463  20.7309818  57.7048588
  59.0566254  20.9719276  56.5567350  49.4781510  24.9409863   1.4373429
  48.6411683  25.1731393   1.0350974  50.0372235  25.7025716   1.2835343
  41.5103865  36.4208722  70.3375149  41.6300631  37.3663926  70.4263973
  41.5884113  36.2568712  69.3977022  40.4855166  38.6492753  61.6436100
  40.7595549  38.0766082  60.9272432  41.2816916  39.1183448  61.8932390
  19.7368571  83.3159977  53.1934118  20.4699656  82.7319574  53.3875275
  19.0492532  83.0480510  53.8030291  90.6563663  60.0629044  34.3651700
  90.5357170  59.9586916  35.3090000  91.5469170  59.7523022  34.2018104
  56.0645533  72.3658371  69.3413830  55.2385426  72.7539158  69.0526962
  56.6729832  73.1034279  69.3861914  68.2649946  32.3674607  38.2154441
  67.7702522  32.5175786  37.4098849  68.8177395  33.1437612  38.3052373
  33.6435713  56.7875269   1.1632760  33.8095869  55.9115448   1.5115960
  32.8289522  57.0622268   1.5841802  32.0468722   2.0493689  53.1734657
  32.7872096   2.4711192  52.7372742  32.2221098   2.1641484  54.1074610
  29.8283113  67.3159686  17.5827964  28.8961710  67.5335494  17.5850661
  30.2703680  68.1573239  17.4690707  36.7671010  82.8851676  64.9988604
  37.5449130  83.4241193  64.8547268  36.0341880  83.4951287  64.9151230
  60.6123209  22.4649882  42.3542500  61.3226748  22.9491782  41.9333124
  60.6275463  22.7605462  43.2645512  86.5913060  60.3525820  30.5546840
  87.2141031  60.4123083  31.2791045  85.7851985  60.0302234  30.9578021
  18.2176031  82.4535742   4.9446281  18.1781305  83.4056440   4.8538669
  19.0194906  82.2934523   5.4421981  88.0275059  23.8605762  48.2122755
  87.1126270  23.6292768  48.3726454  88.0134773  24.8065972  48.0670929
  21.8447794  66.2447467   0.6294044  22.5122369  65.6809798   0.2383741
  22.0867552  66.2965336   1.5540631  16.0291017  81.7001882  26.7945178
  16.6765369  81.0866156  26.4472564  15.3287901  81.7041746  26.1419948
  23.1805814  56.8025461  21.1941321  22.6313318  57.5651231  21.0123904
  22.7948297  56.0995033  20.6714900  74.2594385  14.9708474  46.8518353
  74.1085911  14.3863165  46.1089993  74.6190548  15.7671165  46.4608574
  30.6524862  49.2711422   0.4474290  30.5722727  49.0919694  -0.4894273
  29.7850908  49.0782335   0.8033021  52.4492852   8.4559485   1.4527639
  52.5471227   8.8965556   2.2968753  51.5030496   8.4038588   1.3180192
  83.1823158  27.4397135  48.8601208  83.9687920  26.9764686  48.5718727
  82.8668499  27.8874803  48.0751276  51.1917417   5.4089591  10.4154857
  50.8288209   5.5767581   9.5457919  50.6238286   4.7332045  10.7857020
  30.9378688  52.8344104  16.2653144  30.6802098  53.6590716  15.8532794
  30.7467334  52.9610202  17.1946509  21.8030517   5.2404448  30.1099475
  22.0479075   6.1200520  29.8226054  21.0070388   5.3698251  30.6255611
  53.5029078   6.2528139  59.1733360  53.1162405   6.4848047  58.3290005
  52.7528715   6.1386991  59.7569942  67.2942877  22.5904155  53.3455324
  66.3876820  22.7314639  53.6183023  67.2737646  21.7630100  52.8646898
  86.3873056  65.4945293  41.7836269  86.9136384  66.2497392  42.0460494
  87.0296148  64.8282042  41.5393241  66.8220425  45.5264282  58.4497118
  67.0398235  46.1110067  59.1757107  67.6660681  45.3157711  58.0503702
  77.2061062  44.4485664  64.5784807  77.6260662  44.7301626  65.3912354
  77.9332066  44.2784691  63.9796305  50.8583447  87.3969300  57.3228121
  51.1685940  86.6399486  57.8197575  49.9044224  87.3513846  57.3876381
  49.9379934  48.6427995  18.5401137  49.3224062  48.2433879  17.9254993
  50.2764047  49.4087586  18.0764182  91.4579773   2.9292384  74.5513535
  92.4131107   2.8927773  74.6024942  91.1618233   2.1763119  75.0628471
  69.5606661  45.6749678  57.8977346  70.0123453  46.5125656  58.0009031
  70.2373075  45.0168133  58.0565310  48.2721822  24.1658732  10.8535560
  48.0773608  23.5480639  11.5582450  47.7859799  24.9566361  11.0870727
  26.9159044  56.3515881  32.9543098  26.8377889  57.2879436  33.1369861
  26.0122789  56.0373118  32.9238208   2.0026980  46.2698126  43.1101608
   1.1468039  46.3012314  42.6827335   2.0947276  47.1273851  43.5252905
  87.1959972  23.2014871  57.0377970  87.3273563  22.3216128  56.6845274
  86.2452412  23.3085680  57.0665455  82.6773071  25.0890923  59.4585800
  82.3130608  25.6947231  60.1041555  82.8741741  24.2965889  59.9579954
  86.4839363  49.8309469  52.4337721  86.9651699  49.1606331  51.9486523
  86.4521599  49.5004225  53.3315325  70.4518843  60.3129864  47.6229191
  71.1108589  60.3705645  48.3147764  70.0870180  59.4325829  47.7123451
  83.9534966  12.1001908  29.2572005  84.1053979  13.0146214  29.0184863
  84.8069207  11.7855355  29.5553287  10.3124247  41.9266367  50.5286360
  10.2183638  41.5777445  51.4150095  11.1505804  42.3887825  50.5408430
  47.9002730  17.3239228   7.9537566  48.6619679  17.6966521   8.3977492
  47.2270982  17.2759196   8.6325534  74.3290949  14.3611562  65.9198666
  74.0466118  13.6193717  66.4548349  74.9484062  13.9838195  65.2951241
  56.6816664  20.6858563  42.5540400  55.9065580  21.0831308  42.1570396
  57.2015810  20.3803229  41.8106890  40.2204768  19.7697732   0.4114564
  39.5832793  20.2956769  -0.0719039  39.9940841  18.8643119   0.1990445
   6.7121516  33.6050797  67.3861790   7.2094546  33.0028772  66.8327522
   7.3722563  34.1920900  67.7548456  81.3122368  40.5717468  40.2907991
  81.0381603  40.6418085  41.2052441  81.3663483  41.4778042  39.9868894
  59.4010353   1.6488440  64.1375017  58.7398672   2.2928026  64.3912792
  60.0165844   2.1394600  63.5928631  68.3246323  87.6622403  72.3452187
  68.8608739  87.4906154  71.5711260  68.1955239  86.8011682  72.7428579
  66.9220209  53.0924129  64.9511099  66.2518644  53.4761000  64.3855095
  66.4294052  52.6831532  65.6624985  62.1121645  22.6263905  72.2907162
  61.6490030  23.4227014  72.5507116  61.8959332  21.9901514  72.9723883
  34.3072077  77.2973818  27.9455543  33.7131163  76.6788107  27.5205183
  34.7123095  77.7759224  27.2222829  10.2694763  71.5764656   2.9514821
  10.9519495  70.9110465   3.0391009   9.6309723  71.1874333   2.3538240
  54.1323996  69.5394468  61.5545082  53.9486885  68.7200212  61.0951281
  53.3178806  70.0380564  61.4899015  66.2393236  40.6653690  46.4033747
  65.5134153  41.2892103  46.4137697  66.5163755  40.6355095  45.4876328
  39.5661589  61.4180583  74.6114683  38.8113639  61.9304436  74.9012613
  39.2266843  60.8712763  73.9029360   3.8585196  21.8687677  56.8428087
   4.6766100  22.1631169  56.4424038   4.1218100  21.1653662  57.4362230
  20.6264315  45.2771664  64.6873093  20.8553896  44.5210409  64.1468573
  19.6702204  45.3106928  64.6595192  72.9681063  13.8901496  62.1361542
  72.9924059  14.8396301  62.0172930  72.1764898  13.7333941  62.6509380
  76.1485100  31.7030358  15.6137383  76.1419582  31.2149739  16.4371371
  75.3453827  32.2232914  15.6372941  16.4602770  59.0306118  28.8233073
  17.2401441  58.9532342  28.2737144  16.6579784  58.5007706  29.5955833
  85.7595348  10.1578236  72.0874596  86.4174461  10.1459420  71.3922977
  85.8618069  11.0157812  72.4993801   4.8996363   6.1400265  52.4308920
   5.2363787   7.0206827  52.5960541   3.9731989   6.1897761  52.6664162
  89.4035336  85.6127620  55.3801012  88.8139340  85.4581127  56.1181355
  89.1310117  86.4606985  55.0294352  28.8937674  54.3166733  50.2627850
  28.9376555  53.7267780  51.0153341  27.9933844  54.6415472  50.2653122
  66.8276432  63.9410010  12.5603946  66.7397645  64.4531074  11.7564948
  66.0129646  63.4416166  12.6165183  29.0190996  55.5679932   3.3313068
  29.7997106  55.0337186   3.4777053  28.5375513  55.5198219   4.1571506
  21.2823976  72.1272769  12.2066768  21.8055452  72.8860727  11.9482597
  21.6922487  71.8176427  13.0143817  34.1725509  32.7423474  30.4010947
  34.7881858  32.0112893  30.3483947  33.3534257  32.3913428  30.0517161
  50.1947133  11.5890595  12.9228957  50.6213014  10.8154437  13.2913669
  50.3729360  11.5364453  11.9839080   3.8172878  43.4683592   1.4970525
   4.2985357  44.2495574   1.7697461   3.1653465  43.7932764   0.8760627
  81.0766983  34.9180484  50.9270811  81.8226433  35.3203869  51.3719749
  81.4237022  34.1010618  50.5688095  27.1927271  25.8360839  64.3488598
  27.9625330  26.3233089  64.0551996  26.6509066  25.7489109  63.5646009
   0.9602271   4.2413121  34.6640539   0.2534113   3.6500135  34.9229217
   1.6219244   3.6684132  34.2765355  90.9205532  39.5629573  14.9571764
  90.1147175  39.1009879  14.7260034  90.6726742  40.4874659  14.9654460
  32.6402728  10.9539315  25.8201392  31.8932740  11.4774462  25.5300410
  33.2474343  10.9724280  25.0803836  54.2700879  17.3787209  35.0654109
  55.0443379  17.9414126  35.0527938  54.5396916  16.5897795  34.5951827
  30.4136099  64.6852746   9.1281112  29.9429811  65.3898826   9.5733817
  31.2184633  65.0965872   8.8130458  24.6277819  24.8827291  76.6021061
  24.4797812  23.9370656  76.6089153  23.7549315  25.2610087  76.4959764
   4.4870482  67.0562458  63.9906549   4.7403822  66.7957735  64.8762083
   4.1561709  67.9490423  64.0890169  19.1690077  69.1909876   6.6384776
  19.1235460  69.5320955   7.5316795  19.1197790  69.9685135   6.0823615
   4.7423007  12.7783200  32.1553500   4.4922569  13.6690423  32.4009498
   4.3615177  12.6537320  31.2860377  64.5431341  72.4975863   9.2898543
  64.2961229  71.5944305   9.4886668  63.7215246  72.9215923   9.0420611
  50.2177541  24.5900723  21.3850673  50.0367372  24.9407908  20.5130180
  50.4834954  23.6839482  21.2283786  79.3494558  71.2019777  67.1266842
  80.1322365  71.6956949  66.8823004  79.6634769  70.5497122  67.7529192
   2.1066485  69.8827028  54.2435598   2.0649729  69.6421480  55.1691008
   1.3323317  70.4274845  54.1025734  82.4528885  86.7253685  63.7109280
  81.6486359  86.9146633  63.2276344  83.1520081  87.0765781  63.1594467
  53.7730612  88.1422940  12.9463943  53.3156122  87.3820010  12.5873359
  53.8058962  88.7664595  12.2214301  91.7882919  55.3749180  64.0143728
  90.9971714  55.9136248  64.0018415  91.5074921  54.5288754  63.6656618
  87.8933430  50.9136915  69.5900726  87.5503540  50.0586271  69.3303394
  87.9439259  51.4097214  68.7729883  36.3940821  66.7865372  71.0583067
  35.7288752  66.7261696  70.3726768  36.2921534  65.9793949  71.5626478
   1.7605792  35.3361726  40.5547428   2.1879778  35.2576542  41.4076185
   1.3702784  34.4755578  40.4022932  27.0905654   3.4131858   4.2916282
  26.6867702   2.5458905   4.2603191  28.0210177   3.2391879   4.4338115
  67.4636568  58.2899156  36.4884742  66.5411867  58.4876850  36.6502650
  67.4563993  57.4157181  36.0986598  88.2931614  61.1745405  69.8758745
  87.9007721  62.0187950  69.6534061  89.2196369  61.3704109  70.0155783
   2.9172907  69.4397879  62.8373528   3.7071429  69.7487259  62.3935938
   3.0780230  69.6178102  63.7640142  34.8330562  26.4279505  23.7528785
  34.0224378  25.9449574  23.9136298  35.4401271  26.1054513  24.4189818
  81.0307805  14.6362397  13.1899531  81.4455430  14.6052024  14.0520652
  80.9201924  13.7177703  12.9441627  72.4800965  86.0885292  42.7231359
  73.3845708  85.7823831  42.6565647  72.0695969  85.4890990  43.3463621
  60.2666235  27.7775979  31.5945148  60.7760143  27.3996949  30.8776164
  60.9074593  28.2637262  32.1133995  48.9771951  71.3855973  15.2516254
  48.7486948  71.1025038  16.1369975  49.4137491  72.2284880  15.3748592
  18.8769271  53.5970828   5.9103759  18.1594779  54.2219874   5.8055003
  19.5115306  54.0517470   6.4642699  38.9694278  19.0855262   3.4764083
  39.5808951  18.6155555   2.9094251  39.5256536  19.5055196   4.1324981
  92.8242591  83.2790890  39.2226298  91.8891147  83.3717885  39.4046863
  93.1242755  84.1715136  39.0500053  18.3824644  71.3056183  47.6629066
  17.9470168  71.5583324  46.8488121  17.8807459  71.7452669  48.3493614
  55.1055161  12.9834840  26.9883903  55.3463761  13.3957860  26.1587985
  54.1799657  12.7619120  26.8858989  80.0381772  17.3879143  10.7065375
  79.9278848  17.2881028  11.6521152  79.4336907  16.7505500  10.3262981
  89.9794483  54.2793417  67.9609489  90.2573586  54.1572857  68.8687468
  89.9598503  55.2289295  67.8420830  80.3495979  41.9704008  51.9468260
  80.1668930  41.6383934  52.8258181  80.5867004  41.1927652  51.4415598
  20.3316797  68.9036456   2.0158084  20.1299967  68.8554087   1.0813411
  20.1534475  68.0227127   2.3450835  80.4338264  57.6132584  63.2688141
  80.2548504  56.7327785  62.9387283  79.9609137  57.6582336  64.0998125
  63.7051026   9.7687337  10.2174075  63.9050118  10.0624367   9.3285831
  63.3045403  10.5301997  10.6368716  38.1062715   4.8278043   6.7375930
  37.9003493   5.0729224   5.8355125  37.9540174   5.6260583   7.2434028
  15.1912985  27.3461390  58.5239840  15.8925257  27.3982739  59.1734409
  14.6305666  26.6347957  58.8335133  13.1096468  21.5407944  63.6745548
  13.6301337  21.1225176  64.3603945  12.2328959  21.1715794  63.7804651
  76.0089064  23.4520483  62.3341084  75.6658602  22.5660396  62.4504662
  76.4375591  23.6540580  63.1657839  47.4001707  64.0347591   1.1356719
  47.2156633  64.4371882   1.9843419  46.6233457  63.5085907   0.9461482
  16.6511180  16.0826585  22.7704700  16.3751914  15.5304524  23.5020240
  17.1792819  15.5045697  22.2199329  73.5173337  31.1922547  26.4943393
  72.6843278  31.1211821  26.9604762  73.8720147  30.3032157  26.5007766
  48.4038557  63.9208916  23.7768729  48.3833898  64.7454300  23.2911285
  49.2189230  63.5010591  23.5018523  32.4192492  35.9537551  18.5555919
  31.7454497  35.2764794  18.6150439  32.3011414  36.4792201  19.3469031
   9.2407904  40.7203341  66.7669249  10.0202761  40.5804539  67.3045731
   9.3719302  41.5837145  66.3749981  88.1702614  26.7799282  70.6277323
  87.4932861  26.6484141  71.2915373  88.6358738  27.5661135  70.9129667
  87.6531792  32.7495980  62.6463795  87.4961853  32.3410344  63.4976482
  86.8060303  32.7112222  62.2024107  83.4656048  51.2914610  61.8190336
  83.6481476  52.2307205  61.8453550  84.2179012  50.8890057  62.2529745
  72.9872624  13.0080840  22.0166762  72.3318879  13.5792395  22.4172958
  72.4781816  12.3028514  21.6170390  24.8329179  11.6431090  36.7312034
  25.3551833  11.1193749  37.3387988  23.9944093  11.1843774  36.6792186
  77.1704690  17.5442597  20.2736552  76.5885846  18.0963990  20.7959445
  77.1459500  16.6918751  20.7084735  81.0561943  48.1777239  50.9575796
  81.8297672  48.5041523  51.4172173  81.3510323  48.0453491  50.0565958
  78.7798516  20.5028865   7.3497756  78.7606446  20.8269736   6.4493163
  79.6730725  20.1802060   7.4691947  82.0240593  47.8336573  67.0924520
  82.5525951  48.5798454  67.3754692  81.6257477  48.1202555  66.2706041
  74.0841341  51.3508701  46.6844940  73.1367207  51.2239647  46.6341829
  74.4404459  50.4659843  46.7635965   8.9085017  53.0713654  54.5539904
   9.5782957  52.7701807  55.1679039   9.3976412  53.5353899  53.8745356
  79.1988516   8.2141274  41.7325163  79.9212503   8.7000215  42.1303558
  78.4218264   8.5084045  42.2077656  76.1992744  86.5163508  13.7555774
  76.2893632  86.3063565  14.6851047  76.2147001  87.4728909  13.7235339
   5.4672874  76.3727465  24.4865497   6.3997186  76.4176336  24.6981795
   5.1574625  75.5860081  24.9351962  57.2598124  61.6410017  73.5715103
  57.1764612  60.8396006  74.0882730  57.7480030  61.3740635  72.7926350
  14.7541056  25.9695482  30.8336687  14.9512015  25.1630688  31.3100886
  14.8011980  26.6575074  31.4975405  42.6579298  86.5076104   7.1722015
  43.5830225  86.4194670   6.9427188  42.4419035  87.4138251   6.9523318
  40.1801504  75.2474513   3.2111438  40.4558004  74.6894494   2.4839004
  39.3578542  74.8604646   3.5116466  72.0839135   2.1826646   3.8152869
  71.3621823   2.4629542   3.2524665  72.5855176   1.5719411   3.2752498
  72.7274561  82.9902840  58.2187033  73.0160570  83.5911560  57.5317574
  71.7717600  83.0113697  58.1693745  50.1806943  17.6350352  12.4769290
  50.0444333  17.0980307  11.6963561  50.7472150  18.3477494  12.1814235
  89.9798489  44.2293024  68.0888033  89.5325565  44.2723894  68.9339733
  89.3585682  44.6118879  67.4692345  17.0554934  20.9780169  54.3256998
  16.9169150  20.1599503  53.8484240  17.2441969  21.6236281  53.6446619
  83.3942127  19.9074149  31.7948079  82.7410698  20.4197598  31.3182211
  82.8829765  19.2606235  32.2811580  32.1410537  32.9573178  75.7821035
  32.1828794  33.9078307  75.6771851  31.2059832  32.7543712  75.7558727
  86.2841813  15.3418633  26.3727840  86.7531983  14.5393607  26.1442264
  86.9342343  16.0368582  26.2695773  54.3437974  24.9432656   8.9699443
  54.2985455  24.0255019   8.7017997  55.1247613  25.2823636   8.5325225
  79.4966939  83.9433470   5.5750545  78.7926486  83.3049932   5.6893142
  79.4725612  84.4718924   6.3727267  84.5632172  54.8453426  55.4233408
  83.8036346  55.0248814  55.9774446  84.8776531  53.9904928  55.7176113
  29.0411345  15.5580088  19.2411788  29.8479001  15.3466794  18.7713988
  29.2335193  16.3818404  19.6889766  22.3792658  49.0040445  38.8114715
  21.8229208  48.3112288  38.4554863  23.1855593  48.5560560  39.0672684
  84.8360920  26.3006377  62.3916578  85.0575447  26.4779878  63.3058453
  83.8975143  26.1132145  62.4046040  10.5505858  77.6449537  48.9756870
   9.8739539  78.3080053  48.8387012  10.8940897  77.8302956  49.8496962
  88.0033302  46.0312462  21.2751484  87.9620361  45.8076668  20.3453422
  87.2754192  45.5508137  21.6695666  16.9769872  60.6392434   9.5194133
  16.4976753  60.1284888   8.8670142  16.3486780  61.2969664   9.8175128
  15.6352911  48.4586096  58.2670403  16.5310679  48.2515764  58.5333967
  15.1714430  47.6227713  58.3165884  93.8420105  49.1643381  44.7073030
  93.8555241  48.6747551  45.5297136  92.9690456  49.0054083  44.3482637
  10.6194792  24.9563074  67.5803995  10.9278117  24.1185880  67.2348785
   9.7128020  25.0200701  67.2802210  46.4352624   5.4459473   8.5079654
  46.5497510   6.3895413   8.3950217  47.0825259   5.0542590   7.9215606
  77.2674291  34.4568726  33.7243064  77.4416177  35.0130317  34.4836314
  77.5118176  34.9955603  32.9717620  23.6496894  12.0711371   6.8132861
  23.1856791  11.9247004   5.9889777  24.4666545  12.4982449   6.5556510
  92.8741029  60.6516102   2.4760659  92.6714137  61.4819839   2.0452245
  92.2060064  60.0459114   2.1551259  45.5533838   1.2667207  59.4861984
  45.1535368   1.0402796  60.3258896  45.2637815   2.1632382  59.3170309
  53.8016698  74.0903586  48.4959173  53.5460469  73.8626569  49.3898058
  54.6331307  73.6356097  48.3613729  90.7360728  81.6401270  70.6160514
  90.0589927  82.1872643  71.0140930  91.2985976  82.2574523  70.1483862
   4.6598254  28.1327939  30.4603052   3.9586459  27.4812937  30.4714751
   5.4391013  27.6415372  30.2002430   3.8868151  12.9057872  72.7770853
   3.3525954  13.4254515  73.3777523   4.6940527  12.7340221  73.2619476
  77.3979187   9.8976320  26.9792008  78.2962561   9.5724815  27.0383668
  77.4814177  10.8478725  27.0585895  85.7240963   5.3887171  54.8676109
  85.0671387   5.9917688  54.5198154  86.5624619   5.7845211  54.6294689
  51.7329168  32.1050835  48.0071354  52.0930004  32.9918957  47.9953623
  51.7187691  31.8646049  48.9335251  84.5986843   8.8271868  63.0373669
  85.4861069   8.6011922  62.7587128  84.1227913   7.9968971  63.0179358
  10.9439574  36.2966251  69.0958166  11.8735514  36.1150599  68.9575243
  10.8838282  37.2519350  69.0952110  20.9304823  12.8607097  12.2366317
  20.9102358  12.7173987  13.1828292  20.2206052  13.4816614  12.0731910
  39.0176892   9.9626887  61.5619612  38.7170815  10.6477237  60.9648037
  38.3964872   9.9898076  62.2897005  83.5710526   9.5142180  73.8330173
  84.2772102   9.6809465  73.2087040  83.9921093   9.5682657  74.6909332
  66.6610432  10.9985971  62.8460503  67.6165962  11.0350156  62.8887510
  66.4708996  10.1426184  62.4621534  48.1035372  76.5826720  20.4723001
  48.8075158  76.9324881  19.9261582  47.9345509  75.7106084  20.1156783
  47.4183079  87.0564502  14.5295167  47.8049800  87.9121067  14.3435907
  46.4957377  87.1542188  14.2938566  55.9074494  83.9382985  43.1000328
  55.1847741  84.0023577  43.7244272  55.4988763  84.0775904  42.2456932
  33.9387032  85.9876350  46.8204641  34.0968367  85.1107478  47.1701717
  33.3853909  85.8431792  46.0528660  78.8474369  13.3925629  70.7531404
  78.0366611  13.8576138  70.5467415  79.3137550  13.3422363  69.9187279
   3.3887968  13.9750350  49.4705248   2.8976641  14.1103947  48.6601496
   2.7163516  13.8466179  50.1395178  52.2966194   5.9021813  32.6108718
  51.4087963   5.5689538  32.4806237  52.5856256   5.5000037  33.4299922
  77.5902796  11.1986780  48.6450434  77.6552010  10.3764403  48.1593084
  78.4441423  11.2958896  49.0665913  86.6720298  68.1422224  15.9190925
  85.7692292  68.2046810  15.6071933  86.8756154  69.0204802  16.2407382
  66.6594648   7.8314918  70.8624458  66.4510632   8.7049097  70.5308723
  67.6149702   7.7847123  70.8300972  91.3402462  10.0742602  39.2033935
  90.5165768   9.6186709  39.0295339  91.9940853   9.5864910  38.7025881
  52.7293488  86.4475383  52.1996498  52.2311780  86.9525793  51.5570116
  52.6234433  85.5372855  51.9231462  15.3326617  22.0132732  30.8928156
  14.7545538  22.6344395  31.3357377  14.7878085  21.2394714  30.7492661
   2.7094946   7.3545003  62.3922110   2.9546080   7.4074191  63.3159828
   2.7604781   6.4216244  62.1839428  26.8020735  31.5611982  46.6454983
  26.5561114  32.1122789  47.3884916  26.2818728  30.7652044  46.7551184
  66.6119432  28.2837415  59.4924021  66.1345196  29.0893722  59.2942619
  67.2656822  28.2154441  58.7965631  84.7794628  29.2613077  43.0338907
  84.5915699  30.1605487  42.7650166  85.2382851  29.3519449  43.8690567
   6.7861758  40.8023119  44.6708488   6.3031588  41.3481045  44.0503407
   6.9904719  40.0058794  44.1807508  61.2497136  70.2563327  60.8959007
  60.3809640  70.0469583  60.5528641  61.8332288  70.1641363  60.1427460
   0.5295096  24.3975496  17.8987682   1.2474070  24.0028548  17.4037087
   0.4509745  25.2824807  17.5424552  31.4677728  67.9302278  22.2724040
  31.4120687  67.6481572  23.1854041  30.7150186  68.5095802  22.1543582
  89.7634125   2.9668850  26.4852905  89.8506927   3.2801151  27.3855686
  88.8267803   2.8003520  26.3793850  13.8667307   7.7904880  64.8652363
  13.5389529   7.8252542  65.7638931  13.1168757   8.0435890  64.3268251
  51.1869001  14.3916047  61.8829632  52.0707273  14.0241158  61.8888807
  50.6775904  13.7994623  62.4363232  86.8050861  28.9147830  38.6714864
  86.0670853  29.5156598  38.5688925  87.5673676  29.4857860  38.7669539
   5.9825144  25.2850127  37.7949357   5.2266131  25.2264428  37.2106290
   6.6996298  24.8897648  37.2992015  56.2725163  32.1422172  58.7288094
  55.4168415  32.3084044  58.3332825  56.8246317  32.8583622  58.4149027
  72.3109388  17.9624057  36.4804506  71.3939667  18.2369173  36.4741373
  72.3702288  17.3420036  37.2069597  77.8875875  44.6272707  37.7943826
  78.1533957  45.5450535  37.8514433  77.0594311  44.6471405  37.3148036
   4.9942885  17.0537925  59.9780369   5.1338683  17.9963303  60.0695324
   4.2905150  16.8548310  60.5955791  22.4932286  86.1453041  31.2842846
  22.9504868  86.4301109  30.4930615  22.3514220  86.9505693  31.7819500
  41.0414693  82.4902809  58.0149937  41.0364291  82.8446644  58.9041615
  40.1840302  82.7237099  57.6592636  49.4829178  11.7617083  41.6334438
  49.1872549  11.8859136  40.7315636  48.6762190  11.6537094  42.1372366
  81.0043812  67.6601028  73.8806391  81.5068817  67.6390171  74.6950579
  80.2663708  67.0715332  74.0392542  87.2264385  19.9513066  53.4342146
  86.4527988  20.2452993  52.9532957  87.6273727  20.7575917  53.7588501
  74.1820240  36.7219067  39.2478538  75.0109577  36.8245888  38.7803483
  74.3135595  37.1875596  40.0737476  48.9794064   2.1719237  61.1912775
  48.8923073   2.4710605  62.0963526  49.6123981   1.4552835  61.2357426
  92.1471307  81.1108303  47.0465136  92.2416779  80.4547340  46.3559818
  93.0221173  81.4873868  47.1405411  23.4953496  85.9782854  55.2430201
  22.6157138  85.6111860  55.1551962  23.3510205  86.8799835  55.5299711
  37.0708415  63.8284439  39.0840125  36.2608668  64.0490693  39.5438981
  37.3937508  64.6662539  38.7522936  84.3174744   8.8327223  40.7620144
  84.9184513   8.6017728  40.0536919  84.6807289   9.6375680  41.1314726
  64.3847752  14.4916189  69.0014935  64.6541977  13.6882627  69.4467592
  64.2476320  14.2268646  68.0919170  69.5505190  21.5283298  40.1563501
  68.7999535  22.0655751  39.9028754  69.5485878  21.5503883  41.1132908
  93.0383015  36.3313961  20.9850574  93.2518482  37.2451591  20.7962084
  93.1248569  35.8860755  20.1421881  13.4111891  20.1143217  24.8124957
  13.8909159  20.4312229  24.0472054  12.4897490  20.2445483  24.5883870
  76.0776186   4.1720486  69.4896173  75.4879665   3.6315006  70.0153112
  76.6341972   4.6131694  70.1313829   8.4190283   9.5643413  32.3906231
   8.7403593   8.8452995  32.9346418   7.5603495   9.7763479  32.7566099
   7.1531687  12.6149225  40.7149458   7.0189295  13.0025649  41.5797806
   6.6232119  11.8178749  40.7248545  51.3603258  25.6019473  59.5723486
  51.4023495  26.2672257  60.2592802  52.2740030  25.3673196  59.4099379
  78.0232906  16.1717689  54.5339346  77.3835325  15.7821858  55.1298952
  78.4963083  15.4242194  54.1683483  41.4722344  77.7929920  57.3420620
  41.6483733  77.2605973  56.5663290  40.6284663  77.4755961  57.6638508
  47.9597708  80.6270862  76.9184351  48.5308978  81.3855690  77.0398903
  47.1220967  80.9996462  76.6432381  70.9980440  28.8833570  37.2306085
  70.7403326  29.2204571  36.3725996  70.4649639  28.0972123  37.3490620
  11.6612540   6.0504824  47.7406502  11.3400565   5.1937467  48.0218410
  10.9749041   6.3861537  47.1640444  73.2999086   5.2116042  49.6418619
  72.3579311   5.3459591  49.5376396  73.5338259   5.7381725  50.4062176
  75.2377367  18.9916277  54.8570061  75.6026506  18.1078708  54.8118019
  74.4811201  18.9089382  55.4374599  53.2780930  73.4482032  41.4573717
  53.6166283  73.8200432  42.2718382  52.4444195  73.8972336  41.3174057
  85.4686451  22.2698784  26.5984821  85.6337929  23.1471658  26.9439149
  85.2441311  22.4128461  25.6790352  72.9425713  88.9571006  60.1811981
  72.7808472  88.4852021  60.9981394  73.8938138  88.9360683  60.0767279
  78.9820623   3.4352550  37.4532866  78.7651491   3.4965760  38.3835649
  78.3490849   2.8098756  37.1004748  13.1476031  24.3245745  57.6707315
  13.5936842  24.7128034  56.9180489  12.6700983  23.5786843  57.3076010
  20.1122771   8.6589235  22.2588181  20.8698473   8.2256311  22.6519847
  19.8209773   9.2824185  22.9241228  37.0088383  72.4979800  48.5421610
  37.7253577  73.1067747  48.3627081  36.2382218  73.0572516  48.6401272
  80.8789062  28.2302761  63.0031300  81.0603428  28.5124779  62.1066475
  79.9298859  28.3161426  63.0938196  25.8029318   7.2090447  56.5562296
  24.9941516   7.2658402  56.0474253  25.6739473   6.4517719  57.1273088
  64.3321085   8.1727386  53.4020901  63.4780073   8.0627096  53.8199854
  64.2230463   8.9329314  52.8307343  86.4838791  29.4763565  53.5838747
  85.9933472  29.1141510  52.8460264  87.3995399  29.4293594  53.3089209
  15.2187599  47.9870191  20.3784354  15.3632320  48.7395993  20.9520133
  15.0485815  48.3706984  19.5181735  64.2933846  31.0398793  38.6596537
  64.7100639  31.5394378  37.9574776  64.7356415  30.1911044  38.6447406
  58.4982443  10.6970239  45.9083128  57.6649141  10.5617905  46.3594294
  58.5295391  11.6388345  45.7402468  45.7316446  20.4024029  41.0010862
  45.1740980  19.7128332  41.3614559  46.5303135  19.9485326  40.7320833
  75.7154655  17.1939409  45.7572985  75.3385353  17.5574923  44.9560595
  76.6176844  16.9783604  45.5211782  66.9124937  14.4279206  42.2591639
  66.9252014  14.4426107  41.3021612  66.8012905  15.3445899  42.5113201
  66.8794343  83.0336040  42.0400476  66.0333344  82.7108312  42.3501682
  66.7833897  83.9859199  42.0299244  85.5447292   1.9485700  67.6129818
  85.5103111   1.3665944  68.3721590  85.4213905   1.3690820  66.8611765
  47.4801874  12.4722147  74.3015432  46.7132139  12.2374344  73.7791824
  47.6246071  13.3992255  74.1117382  80.4861927  48.9154053  38.4117365
  80.8329868  48.6266088  37.5676060  80.8902931  49.7709370  38.5566497
  70.5136299  17.1896422  60.0246191  70.4434776  16.2720335  60.2878761
  71.4417315  17.3987865  60.1300621  26.5700827  18.7878966  27.6245785
  25.8890829  18.3615518  28.1448722  26.3306342  18.6004829  26.7169595
  80.6089497  27.8060174  50.5710316  80.0252628  28.3638787  50.0569010
  81.4558411  27.8749561  50.1302814   5.6181822   5.6453794  35.0520444
   5.9120570   6.3091689  35.6759477   4.8187647   6.0104424  34.6727180
  65.0169420  15.4309762  75.1936579  65.4784346  16.0339153  74.6108007
  64.8367691  14.6636319  74.6505594  15.0741110  28.6788583  46.9160795
  14.9039851  29.5461154  46.5484524  14.3472109  28.1397486  46.6043043
  64.3439436  29.2167783  72.1468735  64.6676540  29.2533398  71.2468147
  64.5058203  30.0934434  72.4954224  89.0391731  22.7316570  21.2535429
  89.7472382  23.3542109  21.4187431  89.3174267  21.9295955  21.6956997
  20.5925379  40.3666496  74.6997547  20.3179179  39.6822476  74.0895033
  20.1333819  41.1518002  74.4015121  49.6698853  71.3432842   8.4849685
  49.0948483  72.1066838   8.5377151  50.1157376  71.4369756   7.6431417
  70.6020403  24.0793133  76.5450382  69.6906424  24.2968583  76.3494205
  70.9189987  23.6424971  75.7544947  73.8283174  10.7107970   5.1559718
  74.1718976  10.8170983   6.0430320  72.8782479  10.6819436   5.2689632
  90.0757313  43.9779234  44.6591425  90.9661579  43.6997509  44.8735857
  89.5146370  43.4259510  45.2038717  91.1001110  -0.0696334  58.2570219
  90.3546429   0.4303246  57.9245186  91.8601799   0.4819110  58.0717659
   6.1601172  67.8380489  41.2260532   5.3744612  67.3132420  41.0725784
   6.7814551  67.2283316  41.6240597  90.0465921  83.0395809  19.8934730
  90.8276513  83.2969132  19.4036182  89.7328475  82.2526732  19.4478591
  28.5670863  12.9682517  52.5763416  29.5170126  12.8953230  52.6688147
  28.4139071  13.8971186  52.4032116   3.2504664  11.7201388  34.5870614
   3.9256583  12.1783280  34.0866494   2.4440012  12.1987498  34.3952942
   5.5623064   5.0041997  45.7003498   4.8771964   4.9548495  45.0337029
   5.3897772   5.8254737  46.1607599  56.5747881  25.7405853  65.2602625
  55.7001019  25.6523204  65.6388903  56.4209747  26.0798144  64.3785048
  21.2432776  49.7193193  35.6662011  20.8529387  49.0592432  36.2390566
  20.8900080  49.5225954  34.7986007  10.6304576   8.1658646  20.2313598
  10.6058433   8.5269543  21.1174949   9.9660518   7.4768206  20.2349647
  40.0925173  50.7562622  18.4648975  39.9141420  50.7555297  19.4053348
  39.5181478  51.4361897  18.1127151   8.2408057  15.6272233  77.2324419
   8.1059466  15.1274741  76.4272738   7.7830420  16.4540541  77.0806551
  84.8795986   1.0206445  70.2147055  84.3175030   1.7954198  70.2154207
  84.6360016   0.5472759  71.0101986  32.8286086  17.0065987  68.9854050
  33.2632266  16.3092589  69.4763756  33.1139479  17.8141379  69.4128323
  68.4846401   3.7220895  38.7523890  67.7564383   4.0365028  39.2882085
  68.4364223   2.7684006  38.8186073  82.6988506  51.3980913  27.8809166
  81.8738365  51.8834209  27.8875017  83.2275963  51.8153000  28.5610628
  78.2204243  85.8526850  64.6975613  78.0917165  86.0452098  63.7687969
  78.8216397  86.5324569  65.0019979  55.4092404  77.1415943  42.7281952
  54.5890424  77.2125846  42.2398520  55.1461694  77.1936971  43.6470604
  68.9675808  23.6293221  63.6463213  68.1040764  23.9098644  63.3431911
  69.3304110  24.4002342  64.0825272  24.4366118  82.8135127  45.7922649
  24.2932793  83.6820501  45.4163313  24.5348450  82.9721296  46.7311096
  66.4536142  24.1145658  62.2390032  65.7722998  24.5186639  62.7763605
  66.3488340  23.1746006  62.3863697  53.4489073  47.4798715  14.0175994
  54.0423311  46.9443446  14.5441897  53.6315740  47.2219512  13.1140788
   4.4732008  47.4509668  75.5117846   5.1594267  47.0502090  74.9781895
   4.7933493  48.3354950  75.6888390   0.2286063  23.8370752  67.3778391
   0.8069334  24.5990825  67.4113083   0.7285128  23.1382799  67.7997589
  14.2306621  80.6251109  16.0022604  13.5500819  79.9521321  15.9900761
  13.8781268  81.3320720  15.4617417  70.8260870  39.7914743  50.4753637
  71.7025232  40.1761103  50.4631138  70.4296541  40.1243877  51.2804985
  74.0388155  23.2672524  49.6070766  74.6462250  23.5255313  50.3003120
  73.3483934  23.9296699  49.6345091  27.2524271  18.6411154  48.7472439
  27.0325098  19.0210748  47.8966570  27.5994692  17.7735674  48.5395145
   9.3239031   7.7993107  63.4672737   8.8209639   7.2097611  64.0291548
   9.1292391   8.6742860  63.8030624  75.5791140  37.6700544  43.4135580
  76.2743807  38.2187486  43.7765598  75.8729267  36.7734051  43.5745668
  45.3137395  81.6157806  34.2292523  44.9689004  82.4818200  34.0117764
  44.9971720  81.0484779  33.5262704  15.0560484  13.9829767  73.4207726
  15.2316294  13.5891521  72.5661945  14.2081938  13.6227834  73.6808300
  90.5182743  21.9625640  55.2123308  90.4367447  21.8422627  54.2662239
  89.7321129  21.5537739  55.5743742  53.2022378  76.8816251  67.1898365
  52.2556969  76.7516965  67.2481680  53.3601758  77.0812589  66.2671089
  42.5523421  79.2617196  61.3895369  41.6933772  79.6697384  61.2802982
  42.6246545  78.6548442  60.6528521  82.6734829  53.5177898  48.0442667
  82.2675133  54.1198969  48.6678791  82.6684952  52.6711559  48.4908199
  68.6469650   3.9674616  58.5815191  68.1217480   4.7514689  58.7418556
  68.0100250   3.2533652  58.5569525  19.6975721  72.3479262   2.4936088
  19.8339571  71.4855423   2.8859408  18.9408220  72.2326413   1.9189151
  72.1355438  28.8660288  70.0651360  71.7463732  28.6002469  69.2319870
  71.7164660  29.7020292  70.2693748  86.3958168  12.0830417  33.7877655
  85.4773998  12.3017955  33.9454985  86.8187523  12.1969926  34.6388650
  71.2297821  19.1326439  54.6614504  71.2262535  18.1761181  54.6971846
  71.2351274  19.4065690  55.5785990  54.9103117  15.3406334  45.3704643
  55.5766487  15.3875232  46.0560513  55.3875732  15.5185688  44.5600319
  84.8873428  34.0458277   0.8001836  84.4586185  33.3356193   1.2777122
  85.7919458  33.7513617   0.6942924  74.3253613   8.9168441  23.3122396
  74.4948816   9.4240063  22.5183392  73.9019918   9.5364571  23.9064384
   7.1164809  38.1957293  43.6875629   6.2821494  37.7278733  43.6525202
   7.4306117  38.1932712  42.7833796  93.2021904  17.2505748  25.9809160
  93.4006786  16.8183017  25.1502657  92.4292850  16.7922580  26.3107443
  75.1866531  17.1040726  58.8732529  74.8448467  17.2460949  57.9905128
  75.8398247  16.4122081  58.7687445  66.4528131  44.0955019  47.3864555
  65.9580612  43.6160994  48.0510092  66.8170309  44.8467827  47.8545904
   9.6213351  58.8718414  14.3133128   9.6725569  59.2043591  15.2094388
   8.6840353  58.7666607  14.1500866  73.5121489  19.4827199  43.0393171
  74.2598820  19.5790350  43.6291027  73.3526897  20.3666377  42.7084160
  28.5958777  22.4070287  62.4884653  29.2203818  21.7435431  62.1951914
  29.1321860  23.0561495  62.9437065   5.0204573   5.3953725  25.2176118
   4.3502245   5.3261566  24.5377326   5.8255492   5.5967969  24.7406554
  84.0205097  24.8582149  68.5348225  83.8303661  23.9509273  68.7733793
  84.8949051  25.0207114  68.8887310  15.8730803  49.8147392  22.3571086
  15.9328471  49.5948982  23.2868028  16.7152224  50.2211332  22.1524668
  89.1183281  38.1516051  65.9802389  89.5112324  37.3227024  65.7067919
  89.3068886  38.7547469  65.2612829  47.7275861  66.9138446   3.2186206
  47.4575628  67.1474376   4.1067393  47.0732511  67.3245874   2.6534923
  60.1039791  46.0215855  59.7692585  60.6826830  45.9878349  59.0075541
  59.4923162  45.2971697  59.6376324  82.0843410  31.6466451  56.4763832
  81.9495106  32.5465703  56.7733479  82.8688431  31.6898394  55.9296513
  92.7646783  50.9248599  32.7949126  91.8381789  51.1153629  32.6481517
  93.1291774  51.7468938  33.1229861  26.0280848  39.9106312  65.4231262
  25.7043028  39.1168594  64.9973059  25.6625009  39.8744178  66.3070202
   9.7261156  66.3142887  13.6618789  10.0141872  67.2079316  13.8480170
   9.0597500  66.4141622  12.9820140  17.0584593  44.3531370  15.8162510
  16.1138640  44.3452740  15.6615913  17.2078238  43.6282253  16.4232290
  84.2817357  53.3429345   5.0201686  84.7954467  53.0756220   4.2580207
  84.4954255  54.2681876   5.1404937  87.3687649  12.6052713  25.8066297
  87.1128654  11.6830528  25.7905197  87.8699589  12.7006483  26.6165376
  13.4307204  40.5163050  56.9412994  13.6085329  39.7382402  56.4128828
  13.1309042  41.1708498  56.3104963  65.3096676  28.4813595  38.7488103
  64.6956015  27.9731393  39.2787814  66.1650896  28.0953836  38.9372396
   9.8198233   8.0560344  52.7222300   9.0280829   7.5610876  52.9329824
  10.1492796   7.6506811  51.9201231  33.4453214  62.0972672   1.0823281
  33.7857927  61.9853964   1.9699033  33.1505216  63.0074289   1.0518296
  94.1641000  54.1720918   0.6272014  93.7491134  54.7761014   1.2429889
  93.5814050  54.1663799  -0.1321809  24.5031687  82.9132193  22.3606753
  24.7690913  82.0473248  22.0512486  23.6652657  82.7641118  22.7987623
  75.8520031  39.4070864  63.8476992  76.4320660  38.9923978  64.4862890
  76.2916899  40.2266979  63.6215448  19.0885268   5.7450968  34.4663477
  19.6567545   5.1967263  35.0073028  18.6822615   6.3522941  35.0848079
  33.1688036  34.4822654   9.8827155  33.8704694  35.0278213  10.2380450
  33.5639585  34.0451053   9.1284068  32.7654502  75.4695076  51.0351992
  32.8440663  76.3396257  51.4262819  33.6574933  75.1224595  51.0417986
  58.8633741  68.6778250  11.6225131  58.7417234  67.7763668  11.3245090
  59.4386018  68.6028185  12.3839076  77.3143148  26.1776924  48.0829048
  76.5056038  26.3240671  47.5921965  77.5778341  25.2873802  47.8502417
   3.6891089  34.0235329  38.8960409   3.0976401  34.7141862  39.1950321
   4.1979990  33.7911487  39.6727395  81.8067455  29.9552202  53.5721922
  81.7476749  28.9998627  53.5780096  82.4021053  30.1627684  54.2924023
  71.2784719  33.2082891  60.6949615  70.7419205  32.9389048  59.9494600
  72.1801615  33.1069756  60.3901339  87.5575352  16.1943424  47.9777002
  86.9068146  15.9528124  47.3185682  87.3305225  17.0919073  48.2207441
  70.5994508  83.7740493  19.8443758  69.9457928  83.4793228  19.2102647
  70.2107045  84.5514476  20.2453279  83.9948750  32.2694898  28.6565709
  84.1339874  31.3226199  28.6388469  83.6656857  32.4796104  27.7826619
  89.0578229  27.1235272   2.6664670  89.6373707  27.7146718   3.1469901
  89.4063074  26.2498471   2.8438695  52.0563534  63.9075211  16.1060126
  51.5057114  63.2148364  16.4710029  51.5593794  64.7119537  16.2547954
  87.0044357  18.4529397  12.4117644  87.9235012  18.3934638  12.6725467
  86.9118911  17.8069827  11.7114719  89.0450433  71.6889372   8.7589915
  88.5017398  72.0529499   8.0600341  89.8669246  72.1762624   8.7019427
  40.3121201  28.1855103  42.3987754  41.0066859  27.5285193  42.4453719
  39.5319955  27.6918074  42.1460136  47.2927049   4.5173460  60.7461834
  46.6002253   4.3104273  61.3737869  47.8679398   3.7524706  60.7634020
  80.2864221  87.4258748   3.4353145  80.4805473  86.5627566   3.8007911
  81.0947326  87.6862851   2.9936727  62.3363045  52.9925647  28.6471160
  62.5974062  53.9112493  28.5832675  62.9374316  52.6168641  29.2903312
  13.9122931  10.6677005   5.3023704  13.3356063  10.9827515   5.9983619
  13.3695666  10.0621840   4.7973617  85.2327350  74.3779698  34.9044688
  84.6753934  75.1264682  34.6915134  84.6316245  73.6338463  34.9388011
   1.0959780  67.0946217  44.8933935   1.5938115  67.1208715  45.7105255
   0.2008904  67.3151970  45.1510668  63.8115278  12.2100493  27.7419837
  63.6569777  11.2675616  27.6782020  64.4458366  12.3011586  28.4530337
  27.5545947   6.3045737  24.4068511  27.6450507   5.4588267  23.9678081
  27.2891776   6.0838029  25.2996238  50.1161257  68.7728563   4.0007957
  49.5191279  68.2023278   3.5167297  49.5427540  69.3959299   4.4471820
  29.7317473  12.8814313  27.3216327  29.6566121  13.8352486  27.2930701
  28.9828650  12.5977799  27.8460010  66.6188958  85.5445233   7.1465381
  66.0483864  86.2997189   7.0035918  67.5056294  85.8944359   7.0599635
  85.5311015  82.0113578  31.9646056  86.2446454  81.9347444  32.5980170
  84.8054364  81.5298906  32.3618873  84.2467216  88.0725995  20.5241283
  83.6255935  88.0385962  19.7966083  84.7021011  87.2313633  20.4897864
   7.8470222   8.6975905  12.7806838   8.7936513   8.5929152  12.6849444
   7.6153771   9.3744942  12.1447833  44.4823840  59.4926193  24.2147239
  44.1433397  60.1890269  24.7771247  45.2463773  59.8801985  23.7877257
  26.0572004  22.1169949  73.1894350  26.0931993  22.3599982  72.2642946
  25.1242924  22.1267009  73.4034920   3.0981724   7.4022671   2.0507081
   3.4741227   6.5332886   2.1913131   3.8550465   7.9867312   2.0085891
  51.8074638  36.9559237   2.7173980  52.3055476  36.1393115   2.7533229
  50.9725529  36.7099044   2.3191150  90.8943206  29.8414895   3.0512889
  90.3893596  29.9298283   3.8596423  91.7973072  30.0229213   3.3119186
  31.6878128  53.6711407  72.0584440  30.7629371  53.8501883  72.2280884
  32.1109462  53.7680721  72.9115486  53.7656784  33.0283523  66.1296606
  53.9093542  32.0930147  65.9856796  54.3959808  33.4591579  65.5522919
  34.0763044  64.8649454  58.6150265  33.6796546  65.0866699  57.7725649
  34.1845798  65.7066917  59.0577173  35.9579627  30.7792279  29.0711005
  36.0140149  30.6573579  30.0188621  35.6097333  29.9501082  28.7431892
  14.9771373  44.6825644  39.6558269  14.8952929  44.9815604  38.7502177
  15.7736651  45.1054904  39.9766238  56.7805603  73.2131067  42.4421390
  57.0140460  72.5675645  41.7750533  56.9396880  74.0588537  42.0230659
  11.5085761  22.5099847  27.3589309  10.9938066  22.9220006  28.0528243
  11.3667647  23.0662963  26.5930064  10.0869764  75.8459559   3.3522685
   9.6493639  75.2107182   2.7855237   9.4733394  76.5783372   3.4097274
  30.7255220  73.7845802  58.2076263  30.4542994  72.8894234  58.0042410
  29.9052095  74.2569923  58.3495522  86.1330417  75.9901538   7.7655585
  85.5902150  75.3736654   7.2741206  86.2557414  76.7290750   7.1695884
  89.8384315   1.1434552  36.6655524  89.1215426   1.4245221  37.2341521
  90.5174071   1.8064496  36.7906745  89.0780500  84.0619245   1.1679967
  89.8920873  83.6305180   0.9082683  89.0208104  83.9167633   2.1123965
  31.9479947  78.7549391   6.1329539  32.7020215  78.9670649   5.5827888
  31.6329483  77.9167500   5.7946952  59.4610262  32.5286579  65.1849699
  59.4846678  31.7851448  65.7873487  59.2001390  32.1489382  64.3459320
  32.5710988  44.0497541  61.5414000  33.2271123  44.1436815  62.2320890
  31.7640734  44.3871880  61.9300890  18.4131686  32.2027823   4.6187480
  18.4581725  31.3192031   4.2533763  19.3274657  32.4708792   4.7104915
  32.9707782  41.0619303  19.6719058  33.1089465  40.6100413  20.5043300
  32.0302884  40.9854743  19.5110973  66.8522814  72.1340623  44.1821273
  67.4711636  72.5856390  43.6082824  67.3360041  71.3738385  44.5050891
  80.6282336   3.0894133   5.1985343  80.3529531   3.2622763   4.2982181
  81.4162511   3.6203429   5.3141673  36.7393533  69.9932256  43.8284190
  36.7817149  70.4275098  44.6803744  36.3951385  70.6614676  43.2357963
  42.8522006  74.5022407  36.1924918  43.0706063  74.8702755  35.3362830
  43.4487942  73.7605706  36.2936290   1.5555016  14.8158929   3.6260779
   1.9567458  13.9508340   3.7092383   0.9032313  14.8456523   4.3260081
  76.2653926  86.5105477  45.4277881  76.6804889  87.3663130  45.5354579
  76.1446098  86.1888304  46.3211711  31.6523528  30.9768105  63.5823441
  31.0921073  30.9066153  64.3552828  31.1530066  31.5206981  62.9731894
  24.0362692   3.9386427  75.3992033  23.6795187   3.2129669  74.8869991
  23.4826732   4.6861407  75.1733494  60.7909206  86.4248028  40.9696372
  61.3443068  85.6811133  40.7310565  60.0572375  86.0347071  41.4447864
  51.4468578  63.6377349  49.6559699  51.4268688  64.2565444  48.9259608
  51.1143330  62.8199759  49.2859347   9.0693392  80.7163349  25.1832469
   9.2030157  80.2814975  26.0254367   8.2813944  81.2450519  25.3090842
  81.5155894   8.1954190  38.6272128  82.1082968   8.6031529  39.2586215
  81.4497429   8.8316437  37.9150851  51.7055232  20.1064488  11.7260535
  51.1855358  20.9084079  11.7780955  52.5837487  20.3723284  11.9985564
  84.9230463  29.8516270  28.3484634  85.7132322  29.4419905  28.7006457
  84.7699458  29.4016358  27.5176128   3.2285277   3.2839343   6.8073161
   3.4329121   4.2035100   6.6375049   4.0817658   2.8515574   6.8429263
  51.4782336  84.1240230  42.6481326  52.1635631  83.9057532  43.2797225
  51.0114673  84.8590985  43.0456527  56.3437361  39.9206492  13.4278854
  56.6867197  39.4483706  12.6692374  56.2247843  39.2459246  14.0963348
  46.9345167  87.0833388  20.9193881  46.2026742  87.3047438  21.4952548
  47.2755924  86.2609520  21.2709125  66.2190798  84.9856224  38.7861522
  65.7460144  85.7396784  39.1380675  66.0554674  85.0188151  37.8436263
  55.6815484  77.8100148  21.4355071  56.2714127  77.2084537  21.8898376
  55.6900028  77.5123587  20.5258067   5.1749532   5.1084897  28.5841926
   5.7619445   4.7671267  27.9095538   4.5367925   5.6347415  28.1024821
  46.8516604  52.0058009  28.1091388  46.6933362  52.2940776  29.0080627
  47.4261014  52.6766822  27.7401240  86.1699492   0.7190272  17.8109153
  85.8968121   1.6229817  17.6544078  86.6408712   0.7518718  18.6436065
  38.1421995  33.2177353  69.7407675  38.6142015  33.9080048  69.2749643
  38.0644226  32.5083232  69.1028643  37.8668568  84.3775907   4.2488654
  37.6163432  84.7523728   3.4044631  38.6717942  83.8928094   4.0663989
  34.6572368  22.5594613  23.5300525  35.0646417  22.4481627  22.6710590
  34.2087333  23.4032819  23.4748920  64.8851204  12.3334539  70.7029533
  64.5113182  11.4914083  70.9626818  65.0264978  12.7974868  71.5281296
  57.8343630  76.5043783  68.5534000  57.9052591  76.9050741  67.6869965
  58.0880165  75.5915928  68.4166193  55.2849391  88.2318678  21.1331733
  54.6446875  87.5206747  21.1105521  54.7862271  89.0110150  20.8873160
  51.9088620  21.7421529  57.5268729  51.1872715  22.1708342  57.9870589
  51.6280967  21.7167184  56.6121276  69.2520678   8.8007542  25.0989135
  69.7570485   9.1976353  25.8086379  69.8204220   8.8714406  24.3319591
  18.1849639   3.6500117   2.6490481  18.4538476   3.4724614   1.7477115
  19.0048758   3.8091180   3.1166633  32.0877282  12.9410741  20.0393756
  32.9068725  12.4472520  20.0022681  32.3579852  13.8577172  19.9850162
  90.1310495  65.9859362  28.1342490  90.9778217  66.4257613  28.0583270
  89.6620754  66.4832392  28.8043101  58.8396195  87.4100914  36.8596538
  58.5447911  86.7992726  36.1842235  58.5474208  88.2677546  36.5510066
  73.3411983  85.0277176  26.4674552  72.4359420  85.0970450  26.1642440
  73.8207296  85.6644288  25.9374698   9.1761605   0.5036256  21.1587699
   8.7051312  -0.1578096  21.6655906   8.7950246   1.3359448  21.4384254
  14.0158050   7.3908135  25.0208648  13.4939162   8.0483243  24.5609267
  13.3749644   6.7522952  25.3336795  87.0479971  37.5061747   5.7899078
  87.1390587  36.6511962   6.2105640  87.7032525  37.5008151   5.0921615
  38.3769155  26.7324877  60.0135660  38.5485172  27.6714039  60.0858068
  38.2886386  26.5767956  59.0732479  41.2400166  44.5076033   2.1668847
  41.0799424  44.7871920   1.2655290  42.1808211  44.3344256   2.2004350
  20.7946031   6.7662999  66.2142356  21.4019267   7.5060746  66.2031921
  19.9772374   7.1222207  65.8657058   0.6596594  43.3633137  75.5464602
   0.1977997  42.8022003  76.1694145   0.5342636  44.2501116  75.8842325
  73.3947185  73.0248633  17.7145846  72.9541019  72.8230253  18.5400279
  74.1226962  73.5938826  17.9645713  87.7118781  64.9589243  45.4915698
  87.4770454  65.6263652  46.1362441  86.9584516  64.9193421  44.9024852
  32.9121161  49.4932699  74.3698788  33.0904436  49.9871492  75.1702023
  33.0567718  48.5794020  74.6151352  87.2901446  17.8441951  -0.0695102
  86.7552549  17.1641204  -0.4789273  87.4948627  17.4975011   0.7988914
  81.1606979  23.2940769  71.7021942  81.7646599  22.5563550  71.7871809
  81.6956139  24.0647054  71.8925285  72.3768223   7.5404879  11.5319236
  72.4149698   7.7762791  12.4588473  71.4784807   7.2381589  11.3984664
  67.2512415  63.4362033   8.4110911  66.5386298  63.5627928   7.7846797
  66.8868449  62.8483680   9.0728267  46.3979387  27.5862288  63.4180975
  46.7465544  27.8361392  62.5623846  45.5267334  27.9817271  63.4465933
  80.3292316  14.8892495   2.1814569  80.5389434  15.8092591   2.0207246
  80.9678310  14.4033286   1.6596301  13.9641727   2.0285803  51.9216347
  14.6824802   2.2745901  51.3387537  13.3323778   1.5904433  51.3514519
  64.5926669  86.6092911   9.6238025  65.4951599  86.8069306   9.8741420
  64.5710758  85.6561556   9.5383342  81.8240971   9.8983714   5.7989772
  81.1130840  10.4444548   5.4635795  81.7563433   9.0840956   5.3003772
  77.8703648   0.9977576  54.5204909  78.7360496   0.7267901  54.2148860
  77.6784808   0.4082581  55.2498038  77.0600337  33.6953828  58.7353976
  76.9348723  34.1112849  57.8824123  77.3898846  32.8207633  58.5293182
  58.9344099  71.7270747  31.5202888  58.7440255  72.6435223  31.3200172
  59.3402556  71.3869682  30.7228931  86.0840327   3.8523862  51.1511024
  86.3384182   4.7720763  51.0756572  86.7097718   3.3846518  50.5980189
  79.3296483  54.3263683  28.1481917  78.7540677  55.0723329  28.3169349
  79.9174121  54.6291235  27.4560149  90.3304726  36.4851043  41.7910941
  90.5748278  36.4338919  42.7151664  89.4324070  36.1551425  41.7621883
  68.7045959  75.1295009   4.5906718  68.7645629  75.8107152   5.2604278
  69.1840628  74.3878236   4.9598010  66.1170053  40.3406000  62.0986319
  65.2129650  40.5161810  61.8376398  66.1395836  40.5417728  63.0341816
  66.6628364   7.3326689  76.8956661  66.4216879   8.2554823  76.8150759
  66.1664298   6.8941599  76.2046337  19.8441522  24.3130347  13.5103877
  20.6782166  24.7710177  13.6143764  19.2215840  25.0001904  13.2727798
  46.3178937  30.8107802  16.1314948  45.8262364  29.9957415  16.2326034
  45.6474225  31.4934966  16.1071189   7.1087973   8.7168977  21.2900622
   6.6194455   8.3437773  22.0232375   7.7377502   8.0361888  21.0507281
  75.9328511  59.4130137  10.8026488  75.2693036  59.1293052  11.4314921
  76.2346843  58.6031762  10.3911956   5.7493536   6.1652562  31.1103232
   5.3420321   5.7742783  30.3373702   5.3030126   7.0052430  31.2172492
  54.3165925  85.5141869  35.7297690  54.0706685  86.4390936  35.7123073
  53.5800293  85.0785675  36.1586555  16.7202680  52.2576854  25.6532271
  17.1647040  52.7023551  26.3750156  16.2877480  52.9608390  25.1687320
   6.5118898  57.5222745  11.3867744   7.4369158  57.3836425  11.5900882
   6.1058773  57.7084818  12.2333606  22.8800368  73.7357712  66.3459253
  22.4105430  73.0419207  66.8089342  23.6376286  73.2960415  65.9600115
  17.4758410  44.0082407  55.8793449  17.3568177  43.0709267  56.0326624
  18.3939159  44.1716003  56.0954142  80.5189756  75.4720822  17.2525867
  80.5147794  75.1079264  16.3673671  80.7092908  74.7238865  17.8184589
  70.2786210  88.5633841  36.9333537  70.6820014  87.9990664  37.5929435
  70.6001189  88.2234278  36.0983070  12.3175590  45.1217791  40.8057864
  11.5947167  44.5042464  40.9170707  12.9161851  44.6833464  40.2010997
  11.3668506  43.0130717  17.0157416  11.4236991  43.5444400  17.8098758
  10.8821790  42.2324797  17.2840579  80.0922257  22.9339120  21.6362842
  79.6982926  23.7971398  21.7623027  80.9768087  23.1181237  21.3203509
  25.0585715  27.5151917  19.5761092  25.1761786  27.1906325  20.4688914
  24.9236600  26.7267081  19.0504439  24.7051923  18.3502433   6.5691836
  25.6398074  18.5480448   6.5091498  24.2773406  19.0738913   6.1114581
  53.8428953  88.3989468  38.9308437  53.2562474  87.6806679  39.1677936
  54.3798521  88.0456009  38.2215770  17.8435676  10.1495930  11.4487250
  18.7209336  10.4029271  11.1618884  17.4985616  10.9302089  11.8821319
  48.5619116  81.9397163  68.8817883  48.8497877  82.2495651  69.7404766
  49.3215227  82.0683289  68.3137321   6.6114966  34.4744393  23.5862716
   7.3926465  35.0257823  23.6316379   6.5983216  34.0085027  24.4223102
  90.4286200  50.1803347  36.6746600  90.8264309  50.6763026  35.9591277
  90.3844482  50.8018443  37.4013026  81.8822366  21.5009782  35.9469874
  82.8385026  21.5291354  35.9785255  81.6161973  22.4201676  35.9235843
  18.2851378   4.5475337  15.1115115  18.0779378   5.0456282  15.9022029
  19.0573661   4.0336034  15.3476699  30.7202403  19.1215607  29.5015033
  30.0544373  19.3125436  30.1621516  31.1175363  19.9709460  29.3093284
  69.4415140   2.1297595  13.3257182  69.9500490   2.0369765  14.1313346
  68.6033231   1.7112824  13.5220416  39.9418521  82.3653698  66.4189816
  40.3994513  81.7582417  67.0005655  39.7093987  83.1052399  66.9800425
   2.5177495  18.7522599  73.2017310   2.8720586  18.4440467  74.0358146
   2.1154038  19.5955989  73.4094127  45.9785986  24.4866538  68.4484720
  46.3750887  24.6287441  69.3080235  46.0537624  25.3327465  68.0072117
  61.8130729  17.9617259  40.5210002  62.2273504  17.1280238  40.7435783
  61.1666680  18.1003234  41.2132342  12.7919070   9.6050545  23.8787158
  12.5035636  10.2511355  24.5234378  13.3353154  10.1025435  23.2676204
  93.0911809  35.7347914  15.3665050  93.1853515  36.5079161  14.8100360
  92.2827798  35.8886382  15.8554347  79.7673029   9.1174504  28.3203395
  80.6005007   9.2869326  27.8806956  79.5781392   9.9266955  28.7952788
  70.9051111  76.6573372  17.1643813  70.9736207  76.4385548  18.0937179
  71.7800716  76.9630256  16.9251521  22.6752257  76.2556839  65.2770567
  22.6907158  75.3561878  65.6040049  23.5877466  76.4477730  65.0610876
  92.7873853  76.5315404  53.7686523  92.5887016  76.1707368  52.9046043
  93.5528138  76.0384098  54.0638908  74.1406062  71.1645976  15.7199176
  73.3488181  70.6654063  15.5196460  73.8627961  71.7996946  16.3799937
  32.1712844  31.1822936  29.0963252  31.2733714  31.4820859  28.9545043
  32.2019021  30.3166053  28.6890395   1.5379731  18.5720917  19.9874766
   1.5257136  18.9162156  19.0943606   2.1869151  17.8688332  19.9642928
  21.9766776  10.4829594  25.6063254  22.0197026  10.1452491  26.5009387
  22.7977006  10.1999804  25.2037414  45.6867266  76.1202621  56.1355877
  46.3279533  76.2107229  55.4306889  45.4760408  77.0201588  56.3846588
  94.3227345  42.1624610  28.4586413  93.4839207  42.3214957  28.8914569
  94.6044475  43.0262896  28.1575091  14.3005292  27.9877278  25.4209884
  14.6494500  28.8672396  25.5657085  14.9367158  27.4061724  25.8372768
  89.0487245  82.3497644  47.3079284  89.6545985  81.8959561  47.8937705
  89.5479873  83.0974713  46.9794543  16.3636462   9.4463155  24.3478950
  16.5291421   9.1689250  23.4468444  15.8399074   8.7388369  24.7239383
  69.9835897  14.3408057  12.2033866  70.3112960  15.0065705  12.8080352
  70.7200319  14.1661402  11.6174014  43.9966313  19.1922852  33.5326846
  44.7786014  19.7369572  33.6226447  43.2711188  19.7766396  33.7526687
   0.4116337  18.0321881  63.1637462   0.4163639  17.3130700  62.5320228
  -0.5013259  18.0992839  63.4434398   7.1720020  16.9018981  27.7020057
   6.5514152  16.9090363  28.4307368   7.6567857  17.7223155  27.7922042
  41.1461306  72.7397728  63.2592964  41.2226391  72.1503067  62.5090218
  42.0479774  72.9895258  63.4606123   1.1807243   2.1924540  31.0691627
   1.5290491   3.0444190  31.3319476   1.9009869   1.5812346  31.2236388
  45.9800625  44.7340870  75.5513430  45.1497698  44.6158934  76.0127258
  46.4709806  45.3497267  76.0956001  12.4338023  10.0428006  16.8653854
  12.8386609   9.5783231  17.5979026  11.6590564   9.5231148  16.6510757
  30.0813453  34.3646619  44.8408111  30.4614036  35.1837346  45.1584609
  29.1600291  34.4133612  45.0958236  15.3985087  34.2206856  44.4188674
  15.5962960  33.3309409  44.1265376  16.2303082  34.5520779  44.7572883
   2.8397791  36.9481417   5.6802161   2.6969878  36.0020396   5.6529697
   2.7896063  37.1712634   6.6096957  15.0702203  74.7334829  46.9704135
  14.2903007  74.8938361  47.5016864  15.1938165  73.7849870  47.0066150
  42.3778629  50.1409912  72.4004316  42.8462696  49.5826244  73.0209589
  41.6868019  50.5504227  72.9210424  14.6062867  48.3189627  36.1176952
  15.3064458  48.5710665  35.5156596  13.8765971  48.0756137  35.5479797
  34.8294274  38.7726352  29.3503936  34.9518077  37.9847857  29.8800548
  35.4400317  38.6679217  28.6207183   4.3899099  44.5711848  17.5690921
   5.1590030  45.1382586  17.5129397   4.6730105  43.8368937  18.1139835
  53.4032011  86.7616844  68.4099531  53.2297039  86.0704803  69.0489912
  54.3571806  86.7845631  68.3349419  19.3055952  42.8014278  74.1128445
  19.9873245  43.4664488  74.0167999  18.6403501  43.2177925  74.6608591
  57.9021910  85.7206955  69.1326793  57.9817537  84.8928490  68.6587890
  57.4469736  86.3023892  68.5238727  72.7141756  36.1944052  18.7680133
  72.9022247  37.1239897  18.6386283  72.0630497  35.9862372  18.0979903
  83.5931689  27.9285142  30.4667934  84.0892011  28.6450431  30.8627399
  83.8060195  27.1648118  31.0031493   9.0577189  20.1385018  32.6575454
   8.1839339  20.4739043  32.4569495   9.4357650  20.7918593  33.2461341
  30.2828900   9.5931718  12.4142631  30.8629529   8.9287135  12.7860911
  30.4179732  10.3643224  12.9650004  51.2142351  74.2843500  22.1585734
  50.9115484  74.9480572  22.7783378  51.2670723  73.4804073  22.6754077
  27.6274363  39.9772307   9.6829494  28.5366933  40.0111434   9.3857463
  27.1995847  40.7027194   9.2281612  47.4995200  16.9242474  17.1331199
  47.2036330  16.0194442  17.0330318  46.7068879  17.4491688  17.0216258
  14.7880570  23.9137742  33.3137591  13.8430373  23.8217398  33.1925185
  15.0614993  23.0834529  33.7036594  14.3781583   8.4800383  59.1226085
  13.7321965   8.2414767  58.4577354  13.9765470   8.2188985  59.9513133
  66.0540941  75.6664458  18.1319221  65.3988412  75.7298198  17.4370463
  66.8919566  75.7727781  17.6814635  93.1177694  10.2483556   3.3941825
  93.1070811   9.3809268   2.9895957  92.1940118  10.4654738   3.5197433
  12.4028174  16.7591092   8.8768371  11.5825383  16.4068648   9.2222484
  12.9539697  16.8840501   9.6493991   9.3841235   5.1764724   9.7947486
   8.5288898   5.5904862   9.6790012   9.6600644   5.4383132  10.6731208
  27.6344983   0.4254386   2.3999484  28.1938140   0.2097031   3.1461795
  28.1230084   1.0941169   1.9198878  46.5602350   7.3355031  51.7027521
  47.2101164   7.0827204  51.0470152  45.7395744   6.9599712  51.3838100
  12.9573457  23.8248297  36.7929252  12.4846570  24.6042964  36.5009769
  13.5717694  24.1498038  37.4510367  86.4115435  17.8906581  39.2468722
  87.2071106  17.8296229  38.7181171  85.9433705  18.6449477  38.8889583
  58.9904499  61.0534811  66.4193869  59.1084671  61.5794945  65.6284285
  59.4270706  60.2245808  66.2231398  68.4568337  48.6618057  22.4245914
  69.1889623  48.0777013  22.6221736  68.7450770  49.1559988  21.6571792
   1.7578666  11.8000027   6.6826614   1.0120432  11.2197062   6.8350871
   2.0454685  12.0556542   7.5591071   7.6721923  20.8525416  40.8363803
   7.1316568  20.9920594  40.0588306   8.3689181  20.2660796  40.5416568
  93.0703742  11.5026805  15.7024081  92.5361640  11.7117020  16.4686664
  93.5672695  12.3027322  15.5313953  87.6869202  72.2168636  74.1995716
  87.0611095  72.9410696  74.1886902  87.2898960  71.5488148  73.6407232
  32.9574887  35.0199744  28.6530002  32.8501574  34.9239299  29.5993026
  32.6770036  35.9166571  28.4699329   6.8343652  65.1981512  10.6034549
   6.6783251  65.0184861   9.6763023   6.4692224  66.0719195  10.7428535
  53.0550245  49.1099185   0.8246835  53.7906101  49.7080335   0.6927522
  53.2282999  48.7004965   1.6723760  84.2020347  11.4575529  58.4606123
  84.9274870  11.2861097  57.8601503  84.0331688  10.6135452  58.8793850
  52.9508066  45.9173059  66.2210083  52.8094482  45.2633333  65.5364895
  53.8435411  45.7555532  66.5261078  43.3066177  45.8761883  53.3754969
  43.0013847  45.3033447  52.6719952  43.1031084  45.3978109  54.1792154
  53.8344601  69.6731534  68.2081493  53.3162573  70.4478040  67.9899390
  54.6530178  69.7888604  67.7256473  21.9429064  20.1407313  57.9421329
  21.2423921  19.5866024  57.5979662  22.7375078  19.6186018  57.8316021
   1.1674560  78.1672755   5.2155002   1.7428983  77.6450124   5.7743724
   0.3381885  77.6892248   5.2124007  73.3107427  80.0624338   2.6304610
  73.9097694  80.3713146   1.9507583  72.7040246  79.4829312   2.1696981
   3.1100715  78.7708703   2.8157170   3.6485733  78.5964027   3.5876067
   2.2254814  78.8877120   3.1622489  50.6926945  58.9328101  26.5370448
  50.1786330  59.4427088  27.1631225  50.8279017  59.5264259  25.7984145
  60.7317069  80.1844731  39.5946582  61.6766432  80.1638380  39.4433292
  60.3664640  79.6309081  38.9044364  93.6410962  81.9367504  63.3472109
  92.8064667  82.2917587  63.0412769  93.8781821  82.4898392  64.0916014
  46.2733459  41.1636877  63.8692522  46.1879492  40.2984524  63.4688759
  46.5108156  40.9842443  64.7790003   6.4518434  64.0978241  67.8821135
   7.1335262  64.2832041  68.5280037   6.4992923  64.8297024  67.2670221
  57.6948121  59.1053977  41.9336494  56.8571404  59.2178884  42.3829635
  58.1226948  58.3878043  42.4007781  20.0009894  39.3418622  58.6393356
  19.6271360  38.4684014  58.5229969  20.9317684  39.2318368  58.4449673
  66.0537747  64.2193642  30.6815799  65.3155950  64.2695406  31.2888702
  66.5808728  64.9931183  30.8808311   7.2856891  47.1466351  58.1327295
   7.3566788  46.2297058  58.3981180   6.4850610  47.4570847  58.5556364
  88.2185605  36.0539117   1.1558040  89.1688207  36.1472449   1.0884936
  87.9748109  35.5292812   0.3931888  51.1256650  69.3121448  15.2180656
  50.5687443  69.4117251  15.9901794  50.7957950  68.5249749  14.7847255
  88.9778382  -0.0423721  19.7052272  89.0098125   0.9137246  19.7383006
  88.4165079  -0.2888110  20.4403575  38.0122519  29.5906925  38.9620543
  38.9577508  29.5712495  39.1099977  37.7484250  28.6707020  38.9775968
  16.6805971  38.4483624  57.5013494  16.5491021  37.6174831  57.0446444
  17.2197580  38.9671183  56.9043303  11.8563008  30.1227784  62.5620794
  12.1994281  29.9991870  61.6770840  12.6118755  29.9849105  63.1333351
  42.1046019  28.3511472  76.4594507  42.5499439  28.0683994  77.2581768
  41.7377996  27.5468874  76.0922289   5.4575604  43.4797430  44.0650940
   5.5565757  43.3156586  45.0029135   6.3504529  43.6233616  43.7514877
  80.2551988  72.8923932  27.2240623  80.3984121  73.1250444  28.1414493
  79.4975665  73.4144273  26.9600471   4.6321598  61.5616846  45.2850008
   5.0398117  60.7164383  45.0962925   5.3365970  62.1989584  45.1672029
  53.3903578  61.5543559  26.2607177  53.1259945  62.4588933  26.0929187
  52.9317644  61.0431722  25.5939277  34.7568482  66.9803467  29.7212394
  34.3071902  66.9475069  30.5656131  34.4270548  66.2186614  29.2444785
  70.6345766  66.8167728  71.5487289  71.2666141  66.5514725  70.8806133
  70.2350264  67.6126856  71.1978531  44.4628143   7.5592506  36.3118720
  44.7515249   7.7156967  35.4127598  43.5310555   7.3550498  36.2321305
   2.1728243  63.9499500   2.9485782   1.9861711  64.7145572   3.4933456
   3.1275428  63.8811377   2.9514344  59.1350320  64.9255982  10.0339015
  58.4488943  65.5631390  10.2313502  59.7451380  65.3980294   9.4674953
  78.7248424  71.9277587   6.4700111  77.8321317  71.5916791   6.3903125
  79.2262462  71.1938324   6.8252357   8.7540690  13.1733653  37.4379142
   8.3817141  13.9422175  37.0061191   9.5813910  13.4829184  37.8066238
  88.2955507  76.2708869  25.8298762  88.3226255  75.6410757  26.5501769
  87.3856023  76.2564698  25.5331977  25.2817664  83.0456438  48.3338721
  25.8739594  82.2958246  48.3914073  25.6926617  83.7176505  48.8777526
  37.9954627  40.1012453  13.0510219  38.5537931  40.8251038  13.3347972
  37.4658796  40.4701280  12.3441299  17.8184046  74.5017806  52.6820071
  18.4633077  75.2091184  52.6788219  17.3246778  74.6314564  53.4917338
  12.3856701  69.3468132  20.0652297  12.3898519  69.5809427  20.9933456
  11.4593328  69.2389503  19.8495944  69.8881483  17.2743547  76.1769295
  70.5689240  17.6259995  76.7506170  69.6781874  17.9959786  75.5841351
  60.1615861  71.5564123  26.2482532  59.8663309  72.3627487  26.6711982
  61.1153177  71.6341081  26.2238677  53.2015541  48.7397855   3.6686977
  52.4484351  49.3213326   3.7728294  53.9488319  49.3303424   3.5735591
  11.9116867  23.3284450  52.5170660  12.6330888  22.7364326  52.3041487
  11.2748241  23.1919098  51.8156385  17.1669054   3.9903763  60.6008148
  17.8481019   4.5999676  60.8847189  16.3614821   4.5073918  60.6156874
  63.2946542  56.1761144  17.0438846  62.8254345  55.5659452  17.6128848
  63.5689023  55.6442645  16.2967857  74.8607114  45.6963086  40.5157264
  74.1898492  46.0129589  39.9108203  75.3686193  46.4761278  40.7396587
  70.2874974  57.7936795  13.2287772  71.2160757  58.0065980  13.3217128
  70.0754622  58.0351999  12.3271449  51.5177205  74.3585291  32.0911677
  51.1866954  75.2284375  32.3145755  51.9064358  74.0342608  32.9035552
  22.6427905  27.6720473  14.2543777  23.0909745  28.4250685  14.6395095
  21.9399516  27.4700352  14.8719867  18.1328917  57.2801352  56.0353947
  17.4480271  57.4384499  56.6851091  17.7331197  57.5261307  55.2011919
  85.0055888  58.8893643  11.1480888  85.7276014  59.2118218  11.6874869
  85.0338796  59.4325664  10.3604587  34.1507769   8.9622194  74.4877529
  34.5399952   8.9177448  75.3611183  33.8583517   8.0682731  74.3100452
  53.5370970  42.1621609  71.5677786  53.5635185  41.2258768  71.3705349
  53.6810780  42.5890112  70.7232046  72.2843981  57.6954889  62.5942945
  71.8769217  57.8400469  61.7403078  71.9225788  56.8616056  62.8942394
  56.5829471  66.2689224  10.6289847  55.7249811  66.2692800  10.2045806
  56.4006737  66.5076271  11.5378459  37.1012637  76.9632497   1.5322335
  37.2274682  77.6788345   2.1553262  37.8216264  77.0583859   0.9091313
  41.9938612  12.2002304  52.7608776  41.9287300  12.9035401  53.4069014
  42.1240950  12.6521170  51.9271660  23.6200476  52.0381784  47.8652620
  23.0448484  52.2058010  48.6117744  23.8359976  52.9080486  47.5292253
   3.4516637   6.6486594  16.8504699   4.1314809   7.2805402  17.0845779
   2.6952188   7.1864220  16.6163047  32.9500405   6.4732358   5.3904899
  33.8659970   6.2567612   5.5648311  32.8537385   6.3629910   4.4445499
  85.0931838  55.4057148  50.0819095  85.5612186  54.6342662  49.7624763
  85.2531007  56.0753038  49.4168552  21.3816325   0.8777854  29.7914489
  22.1598498   1.3913724  29.5750316  21.0350434   0.5993649  28.9437469
  19.8302984  13.0613494  66.5626001  20.3201151  13.8330209  66.2782860
  19.2547119  13.3849287  67.2555828  41.3511419  24.3147326  29.2435193
  41.2659836  23.3629894  29.1872525  42.1417904  24.5145035  28.7423253
  77.3401073  78.1309429  21.6420825  77.9285577  77.8733530  20.9324344
  76.5817264  77.5549760  21.5453609  22.2331476  40.5353975  64.7296810
  21.9508219  41.2648439  64.1779280  22.1539521  40.8669996  65.6241083
  64.3006590  73.0873838   6.1080058  64.2114213  73.2203403   5.1642879
  64.5332983  73.9503947   6.4505275  73.4724331  38.5902023  72.3949480
  73.6704540  39.2874575  73.0201292  73.9046431  37.8157663  72.7550507
  46.3220659  70.1731124   1.4009841  46.0926691  69.2731705   1.6327460
  45.8668295  70.3309026   0.5738862  73.8330120  -0.1014808  11.7071231
  73.6336834   0.8093831  11.9235213  73.8385850  -0.5525306  12.5513728
  64.4535092  42.8549035   3.6682685  64.2330483  43.6592054   4.1380866
  64.8746923  43.1556608   2.8630479  50.8850527  32.1058011  51.6594696
  51.3990688  31.9857192  52.4579716  51.4226341  32.6785016  51.1124277
  55.5110073  27.7422380  39.8864388  55.3440905  28.5854721  40.3075409
  54.6553707  27.4641824  39.5596433  49.5788053  48.8156330  31.2154468
  50.4814819  48.9386839  30.9217437  49.1158715  48.4980020  30.4401858
  17.2846937  27.5685596  74.5145035  18.0580997  27.0802903  74.7967625
  17.1457255  27.2940111  73.6081123  64.9616364  76.0355297   6.5948661
  65.4932168  75.8133665   7.3592551  64.8802570  76.9886699   6.6285594
  37.8057384  39.4222593  54.0012074  37.6647615  40.3447151  54.2143583
  37.1952057  39.2458129  53.2854223  86.6119319   3.5751530   0.1788409
  86.3336689   4.4258401   0.5181487  87.5074560   3.4703871   0.5002339
  76.9547418  72.3561731  45.7122977  76.4922193  71.5938416  45.3642257
  76.4797738  72.5796047  46.5127452   8.5615790   7.9087013  60.7393980
   8.6135346   7.9416817  61.6946173   7.6508522   7.6773846  60.5569124
  79.3454793  73.8560477   8.5418208  79.3110088  73.4880200   9.4247707
  78.9225391  73.1972495   7.9910644  36.6820374  75.7203451  19.5399554
  36.4181897  74.8155585  19.3726905  36.7530432  76.1138072  18.6702617
  43.7076190  77.5471511  30.9261211  42.8203657  77.5293484  31.2848647
  43.8340810  76.6733160  30.5564578  51.0232070  84.5692625  17.1304877
  50.0916174  84.7869149  17.1621116  51.0554400  83.7170353  16.6958602
  16.6890562  11.2088847  66.2163925  16.2436676  10.4499125  65.8398008
  17.1383464  10.8643425  66.9881868  55.4191616  77.9837432  12.3707088
  56.0979512  78.6509386  12.2690852  54.8040870  78.1573477  11.6581233
  80.5978730  58.8509610   1.5965589  79.9128488  59.3542495   2.0366414
  80.8457425  59.3897703   0.8452399  23.4570030  66.7676583  14.4333442
  24.3431172  66.5989557  14.7536166  23.1553754  67.5170722  14.9467929
  31.2271380  12.9296350  52.8392839  31.8321061  12.2913587  53.2172394
  31.7864799  13.5201645  52.3346615   4.0156997  49.1091600   5.1254161
   4.1271461  48.7980941   4.2270549   4.1084732  48.3234426   5.6641944
  91.0290748   3.5178468  17.4181159  91.2765676   2.9914042  16.6579517
  90.3994018   2.9739806  17.8913482  54.6849230  85.4293671  28.3525451
  54.9813655  85.9678879  27.6188262  53.7373260  85.3639641  28.2341464
  14.3699133  11.9138408  23.2861376  14.4927883  12.2832692  22.4116921
  15.1680577  12.1484518  23.7595868  11.9107378  27.1685672  57.9292965
  12.0729649  26.2271118  57.9890823  11.0448802  27.2876716  58.3196020
   5.7310690  57.9556849   4.5556529   6.5885128  58.3311537   4.7557529
   5.1242031  58.6923662   4.6280749  46.7112294  82.1854487  43.1708797
  46.3239816  81.9784680  42.3203357  47.2381356  82.9682198  43.0100425
  16.2972260  44.1216612  60.7012892  16.9830585  43.4540701  60.6877136
  16.5367317  44.7254229  59.9981976  30.1144711   9.3287513  20.4702457
  30.1291625   9.6995112  21.3525947  31.0053937   9.4533965  20.1432021
  54.2555693  66.7657628  42.1806892  54.3002632  67.0807114  41.2778838
  55.0845841  66.3066450  42.3155006  22.5075881  11.9316718   1.2990268
  21.6417472  11.9505212   1.7067035  22.4453036  11.2439248   0.6361850
  53.3967400  14.8450375  51.7569733  53.7036037  13.9507496  51.6075897
  53.7416744  15.0756669  52.6195669  43.7161151  70.8070078   6.8779548
  44.3280569  70.6178394   7.5892718  43.8990250  71.7159429   6.6400130
   5.8339016  14.0562865  38.7163528   6.4297239  14.7557112  38.9847358
   6.1693661  13.2744214  39.1549762  78.5968927  80.2971354  29.7661670
  79.5198062  80.3362623  30.0170215  78.3868030  79.3632880  29.7708305
  21.9833163  82.9501095  13.4220679  22.7381244  82.8143516  13.9948352
  21.9236770  82.1440187  12.9093345  32.8000276  24.4919678  24.1081603
  32.3438756  24.2213961  24.9049934  32.2622697  24.1469046  23.3954318
   9.7562043  28.8314912  15.4154380   8.9824359  29.0365216  14.8905738
   9.4347016  28.2384726  16.0945495  68.6580208  75.1021901  11.8962176
  69.6007970  75.1586881  11.7406066  68.5820606  74.8336878  12.8118404
  39.9360347  38.5474634  69.5720100  39.8293090  38.8645673  70.4688311
  39.0521598  38.3031750  69.2975664   5.6703418  30.7809782  73.3119822
   6.1303216  31.6173410  73.2402277   4.9013978  30.9757233  73.8477325
  48.5864547  58.0131081   7.9430469  48.1944636  58.5497168   7.2541221
  48.7800661  58.6316386   8.6474403  22.4199120   1.8765303  20.8933814
  21.8315618   2.6283786  20.8241160  21.9457881   1.1614796  20.4689582
   6.8910424   1.3189360  18.9561542   7.1775214   2.1988866  18.7115176
   7.5929944   0.9851834  19.5148166  90.2480939  77.0445004  28.3129390
  89.5333865  76.9699254  28.9452918  89.9516109  77.7117434  27.6939757
  84.7580055  76.1352983  18.0814727  85.1384404  76.4623800  18.8966449
  84.7078231  75.1873031  18.2040198  84.2106202  82.3140374  -0.3103797
  85.1480869  82.3934689  -0.1340835  83.8484767  81.9298377   0.4880412
  54.9739949  12.6741502   2.1821673  55.0756566  12.7173611   1.2313636
  55.4823129  13.4154317   2.5113328  56.5464929  80.0006333  43.1434901
  56.8357375  79.0962902  43.2648643  55.8513883  79.9438301  42.4878677
  27.2071616   0.2814814  30.3776057  26.3931338   0.7524916  30.5557521
  27.5048606  -0.0159314  31.2373431  34.0920274   8.0662581  26.0227187
  33.7807624   7.2455308  26.4044936  33.2992141   8.5875460  25.8964713
  74.7083473  45.3597069  63.9461136  75.5145216  44.8575354  64.0650082
  75.0035191  46.2183809  63.6431503  85.8069375  63.1705800   5.3779300
  86.6690543  63.4589222   5.6776794  85.2550939  63.2136169   6.1588557
  91.7562729  33.7994763  35.1984962  91.5330154  32.8891799  35.0041946
  91.1670977  34.3136498  34.6464713  38.3378497  80.7516947  34.1779502
  38.0421057  81.5468851  34.6211703  38.9800939  80.3690591  34.7757323
  92.3487193  41.5600917   8.2982619  92.4803740  42.4827716   8.5163386
  91.4187509  41.4956805   8.0809100   0.7928745  23.6043927  25.9834083
   1.5694348  23.7825581  26.5139182   0.9721891  24.0310046  25.1455005
  42.4444151   5.0512445  47.5576067  41.9832277   4.6382320  46.8275690
  42.4908924   5.9769529  47.3185778  73.7268213  58.2653871  27.9755386
  73.0448774  58.4229830  28.6285003  74.5442537  58.4738758  28.4278281
  69.2458108  71.0515681   1.3082250  69.1573861  71.0715237   0.3553279
  69.1737846  71.9681039   1.5746959  57.4239949  46.2938677  19.3825229
  57.4373153  45.9313288  18.4967311  57.5503948  45.5360205  19.9534114
  60.6598166  67.9211607  13.5100730  60.5545834  66.9745293  13.6051925
  60.7101157  68.2480135  14.4083293  59.5998526  75.8816338  76.6498137
  59.2309761  75.2639389  76.0184574  60.1012802  76.4984179  76.1165428
  81.0660842  71.9724431  36.9298442  80.8811572  72.6007190  36.2317737
  80.5196622  71.2147608  36.7210849  42.7539968  18.3164203  52.5967216
  43.3821297  17.8370345  52.0564651  42.9578590  18.0510938  53.4935331
  93.0328515  76.3808837   5.5394538  92.4505904  77.0697608   5.2190669
  92.5020936  75.8919540   6.1683257  74.6579269  75.0982228   0.4691012
  74.2927459  74.2795053   0.1335748  74.0292075  75.7684484   0.2012570
  90.7659489  29.6046445  24.7742351  91.0822183  29.4024655  25.6547626
  91.4384800  29.2522046  24.1913779  39.5277545  37.0334199  15.6349166
  38.6897800  36.6878095  15.3273757  39.9098966  37.4551102  14.8652633
  34.9810863  34.7859120  75.2294302  35.3107476  34.0849066  74.6671581
  34.0288544  34.7279406  75.1511478   3.0280222  77.6608267   7.3277934
   2.5498356  78.3625713   7.7695163   3.1463636  76.9909015   8.0011638
  74.9964765  67.3946658  25.6615718  75.0062040  66.8532029  24.8722919
  75.2457670  68.2670727  25.3566249  81.2839788  18.4402940  21.0478385
  80.5499095  19.0178773  20.8386310  81.7088801  18.2782933  20.2055534
  18.0982149  27.2947764  65.1431417  17.3232424  26.7520571  65.2884197
  18.3312917  27.6174092  66.0136700  91.8739227  68.3767810  26.7262920
  91.4686063  69.2163077  26.5091689  92.0884469  67.9879609  25.8783420
  83.1389809  43.6826992  76.6645908  82.7230549  43.6294460  77.5250530
  82.6936626  44.4087553  76.2278271  75.7478717  86.7616930   0.1856597
  75.0381330  87.3987141   0.1037772  76.4229778  87.2184744   0.6874688
  20.1132028   6.9821879   2.2993930  19.3586652   6.5590617   1.8896802
  20.8437745   6.7906472   1.7113383  75.7463887  53.7997994  40.2469333
  75.9790757  53.5520372  41.1417564  76.5861800  53.8811090  39.7948630
  36.9994783  19.9186790  37.4548793  36.4456129  20.6336713  37.1414280
  37.1149421  19.3528223  36.6915274  51.7670250  17.6741242  71.3709021
  51.9949913  17.0007384  72.0118475  51.8176270  17.2273803  70.5258608
  63.5511926  88.0892554  23.4645827  62.7118471  87.9239741  23.0351432
  63.4504894  87.7143851  24.3395503  94.0552044  36.8467522  45.7849264
  94.2328930  36.4983249  46.6585732  93.8914680  36.0721898  45.2469015
  73.0008143   0.5427357   7.5267013  73.4991926   0.8985469   6.7909988
  73.6350471   0.4880950   8.2415374  27.2742462  35.3663802  55.6635571
  26.5556717  35.0884175  56.2315559  27.8625774  34.6118712  55.6349897
   9.1394155   2.4297997  28.8885291   9.6693484   3.1805798  28.6206897
   9.7614877   1.8345687  29.3068011  66.7893365  83.0355730   8.5570701
  66.8316248  83.6147633   7.7961619  67.0373348  83.5917988   9.2955382
   9.9022180  54.9766064  67.4924517   9.7431737  55.7549191  66.9584417
   9.4184875  54.2793655  67.0496225  35.9723124  81.9884959  52.9104694
  36.1430934  82.7023116  52.2960361  35.5467436  81.3137665  52.3814471
  91.8128446  87.1467295  21.7828830  91.6964153  87.4666491  22.6774963
  91.0126117  87.4099102  21.3283523  50.9919453  29.3852210  49.9698019
  50.4063988  29.5120692  49.2232895  50.7396173  30.0684333  50.5909204
  56.8328217  54.5487347  25.9234698  56.1774638  54.9616137  26.4858516
  57.3989895  54.0688154  26.5279277  83.0083098  47.4227476  71.9884634
  82.6984539  47.0118666  72.7955532  82.5119521  48.2390690  71.9294214
  34.3735075  51.2320185  65.8878422  33.5877562  51.5484190  66.3336229
  34.0653968  50.9604073  65.0232458  67.2233775  86.5597191  10.7468112
  67.5694421  87.1929255  10.1179011  67.9640344  85.9850827  10.9403403
  22.2945897  32.4944159  49.4823249  21.7338387  32.6465890  50.2430041
  22.2678964  31.5466639  49.3508514  65.6399918  13.9350080  54.0058899
  65.6403017  14.0029538  53.0511045  66.5431976  14.1247153  54.2597961
  80.7727531  75.5972662  10.2378066  80.3004077  75.4169074  11.0505756
  80.4310420  74.9558917   9.6148284  40.9302775  18.4747741  43.4356483
  40.6172292  18.6940142  44.3132384  40.1604001  18.5726067  42.8753360
  17.2193563  65.3285885  51.9016552  16.4233363  65.1619387  51.3968658
  16.9642293  65.1700163  52.8104973  51.9850206  42.9952049  62.5387049
  51.5388060  42.3528719  63.0905533  52.5499487  43.4780025  63.1420183
  80.5241493  70.5421796  19.0573009  80.4735997  70.2139202  19.9550326
  79.6113542  70.6368771  18.7851508  75.1688197  58.4021237  14.9248775
  75.2362302  59.2108193  15.4325183  76.0726407  58.1003192  14.8340304
  48.5767126  43.3692122  60.4167891  47.7619410  43.8288021  60.2139282
  48.3063412  42.6336575  60.9664202  82.6982549  87.3339358   6.3903125
  82.6301816  88.0473462   5.7557662  82.3135522  86.5793124   5.9444697
  88.1791404  75.1599780   2.9254563  87.6763585  74.6025029   2.3316033
  88.1715396  74.6898904   3.7592395  44.4209603  76.3534441  47.5743468
  44.1593686  76.6006413  46.6873916  44.7455564  75.4571786  47.4873050
  79.3215799  61.0578346  63.6161518  79.2209339  61.9532537  63.9391470
  78.4266233  60.7600451  63.4530354  84.7730357  12.3937556  50.1236423
  85.4864151  12.6346967  49.5326503  85.2095324  12.1572110  50.9420188
  92.5823501  88.8319674   6.5904315  92.7915052  89.1193047   5.7016547
  93.1159786  88.0480328   6.7205222  23.8081431  43.5926771  65.8634949
  23.3114552  44.1409588  65.2561045  24.3100190  44.2138243  66.3912487
  32.5536410  24.3136546  13.0278476  33.3520667  24.8204705  12.8799232
  31.8566815  24.8482606  12.6474841  26.0871029  17.4832904  61.7220211
  26.8754292  17.7704120  62.1828175  25.5074930  18.2448041  61.7415857
   2.8517899  55.3662205  58.9211226   3.1859273  54.5177603  59.2121506
   2.7101672  55.8580971  59.7299719  52.4788761  46.7865849  60.1029396
  51.8177605  46.1740494  59.7805119  51.9837570  47.5710869  60.3388357
  91.8129972  54.6698633  27.3193057  91.4317516  53.9581349  27.8334315
  91.9959501  54.2773458  26.4656718  38.6181617  35.6657767  68.7492228
  37.8857493  35.9663391  68.2112026  39.2682195  36.3650703  68.6810684
  93.3553699  72.0634475  23.1015189  92.8113607  72.8122535  22.8574546
  94.2186025  72.4401083  23.2723697  50.5680561  40.9815788  60.3593254
  50.4795599  40.3247786  61.0499859  51.1412430  41.6493464  60.7358551
  52.6308420  58.3543888  19.7973331  53.3592370  58.2511952  20.4097255
  51.9627908  57.7470222  20.1152118  84.8494894   8.7188908  18.0677779
  85.0503379   8.6381242  19.0001758  84.1686398   9.3904492  18.0267223
  62.9084539  49.1444111  65.0851679  62.0016527  49.2388439  65.3767681
  62.8398514  48.7702799  64.2067862  43.9417934  42.8484726  64.6442175
  43.6697912  42.5941086  65.5259991  44.5075035  42.1335602  64.3524981
  78.9348974  39.7709179  63.9269686  78.9315500  39.8795342  64.8779821
  78.5834982  40.5952644  63.5905123  65.1937392  62.0228424  28.2149490
  65.1906398  62.4299028  27.3486217  64.6157196  62.5752619  28.7412150
  71.0869911  66.3644138  21.7540248  70.9584263  65.5422225  21.2810500
  71.4700130  66.9559827  21.1062797  76.5917829  51.9882539  37.6566299
  75.7752708  52.4877927  37.6579173  77.2757629  52.6469841  37.7769549
  19.2219901  34.9712753  72.9146290  18.4927607  35.5741167  73.0596733
  19.6223319  35.2715755  72.0986748  58.8383245  31.5228915  48.5962534
  58.9862251  31.3713050  49.5297289  59.6441889  31.9392824  48.2905865
  70.8611348  61.4303472  16.0072215  71.0950735  61.5794733  15.0911124
  69.9328140  61.6582194  16.0575088   3.6712615  15.2216288  32.4433787
   4.3755381  15.6475827  32.9320415   3.3155076  15.9126183  31.8846210
  37.5332782  67.6885643  33.8833507  38.0635002  67.5585618  34.6695979
  37.0702931  66.8589297  33.7668021  89.5347074  81.4375773  34.8714526
  89.6753553  80.5251017  34.6187862  89.9520448  81.9457593  34.1758903
  21.7923181   1.4266297   9.1636832  21.9631831   1.5133569  10.1015075
  21.1255233   0.7424876   9.1039737  45.6828070  35.1358700  61.7912579
  45.2011967  34.3086982  61.7828989  45.2606392  35.6656694  61.1150074
   8.0557550  64.6670046  15.5420001   8.6730064  63.9918163  15.2602943
   8.3513464  65.4619375  15.0982173  27.6491332  58.0686951  58.8820410
  28.1423402  58.0944300  58.0620909  26.7958522  58.4413576  58.6600828
  21.1024062  24.8296830  19.5753081  21.2292306  25.6097695  20.1153167
  20.5679051  25.1312062  18.8407119  89.2117310  53.3700418  74.2862511
  88.8392639  53.4840488  75.1606083  89.6211910  52.5052023  74.3112421
  70.2070120  72.9559794  17.6690276  70.6164292  73.6321559  18.2088359
  69.2966345  72.9328027  17.9638274  25.6142926  14.9050462  52.5980759
  25.3222108  14.5705509  53.4460354  24.8294616  14.8873508  52.0503902
  73.4804538  82.4003640   4.2129310  73.3735040  82.7149406   3.3152469
  73.6583045  81.4645162   4.1191753  92.6649887  19.8805424  24.6705421
  93.3584219  19.6035716  24.0716537  92.5931078  19.1642377  25.3013976
  29.2865610  40.4318905  76.2396669  29.7086096  40.8215570  77.0053482
  29.9160957  40.5570269  75.5295563  69.4139651  86.1724701  19.8746379
  68.8248542  86.9268361  19.8850997  69.1322020  85.6590167  19.1175349
  40.9085581  70.1786080  12.9300578  40.7030705  69.2759457  13.1733783
  41.7362967  70.1156965  12.4534782  73.6405376  83.7373629  37.0099052
  74.1636709  82.9956189  36.7059596  72.7867702  83.6143365  36.5949615
  34.4695202  58.1286946   4.5005019  34.6968490  57.6584497   3.6983665
  34.6030104  59.0513113   4.2832740  73.9778236  44.3054504  24.8846038
  73.1858209  43.9318509  25.2711089  74.5389179  44.5049268  25.6340106
  35.2707934  22.7769899  49.0336227  34.3485355  22.8568196  49.2771387
  35.5856276  22.0227075  49.5317841  10.9380261   7.0373532  37.3445018
  10.2728192   7.0252129  38.0326827  10.7992999   6.2218615  36.8628772
  57.9133943  73.7088695  19.0646251  58.6212781  74.3232980  18.8706954
  57.3743299  74.1615334  19.7132667  46.8165541  47.6014280  74.2363930
  47.3861027  46.8406010  74.3503714  47.2656584  48.1415415  73.5861540
  43.5628986  37.4105787  71.9462109  43.3011389  38.3075571  72.1539164
  42.7879667  37.0230556  71.5393496  93.9323360   3.1522795   9.6760066
  94.1788465   2.7906033   8.8247378  93.2754070   2.5434968  10.0137408
  65.7283095  75.7767120  27.4432357  66.2188199  76.2394038  28.1226047
  65.0559905  76.3995448  27.1670039  79.0361551  14.0170103  73.4743357
  78.2809833  13.5131651  73.7778044  79.2095998  13.6821657  72.5945473
  46.3375345  51.7391643   2.7930387  46.4030078  52.0545342   1.8916591
  47.2331920  51.4960244   3.0273707  38.9882088  32.0513320  63.7673950
  39.2613029  31.9085121  62.8611660  39.4135809  32.8709555  64.0193939
  68.3170679  63.1886461  26.9246848  68.9089111  63.9048126  27.1550258
  68.8141301  62.6579776  26.3021453  37.7833295  21.6329193  34.8797679
  37.3511863  20.7848740  34.9812651  37.1787310  22.2590232  35.2781248
  78.7927961  36.2184691  66.1070824  79.5325136  36.8255520  66.0847378
  79.0821028  35.5094457  66.6813755  38.7036917  71.8613306  16.4496883
  39.4865266  71.3152566  16.5218242  38.9585772  72.6979533  16.8386920
  28.4345007  44.9508715  43.6724329  29.3408179  44.9700165  43.9797688
  28.3234119  45.7773972  43.2025909   2.1911637   1.0252997   1.1770661
   2.3288195   1.9667384   1.2817939   1.7811934   0.7504889   1.9972118
  32.7141118  19.9996626  37.7679300  32.7881098  19.2451298  38.3522558
  31.7720175  20.1152158  37.6440930  81.0736612  45.3346635  41.7264732
  81.2044576  45.8034682  40.9022506  80.1405433  45.4360405  41.9142135
  79.8210052  77.9630223  41.9597800  79.3181709  77.5182381  42.6420959
  80.6592181  77.5012222  41.9404586  62.2598770  82.1530166  11.2418635
  63.1980422  82.1380773  11.4312156  61.9356135  81.3149395  11.5715774
  17.2434592  45.0932407  58.3871794  17.9221332  45.7301617  58.1636524
  17.1033096  44.5991468  57.5794315  65.7675675  80.2088204  20.8874972
  66.5369705  80.1141491  21.4490016  65.8717564  81.0693827  20.4815372
  58.8241270  78.1230083   2.7232011  58.5370353  77.2584668   3.0171092
  59.6446780  77.9578391   2.2588285  52.6168172  19.8184535  30.8608134
  52.1192281  19.6900460  30.0532516  51.9704358  20.1326701  31.4930232
  38.7436322  55.1031747  27.6368507  39.4233516  55.7562318  27.4703200
  37.9337743  55.5199876  27.3425181  92.9372651   6.9742581  31.9918616
  93.2506520   6.5683266  32.8000911  92.5994522   6.2444970  31.4726718
  22.2554605  22.3867127  18.5873111  21.6707246  22.0382163  17.9143508
  21.8015353  23.1601855  18.9218505  28.0694094  62.3761251  34.4514640
  27.9698786  62.7128592  33.5609992  28.2425860  63.1529012  34.9833186
  15.3342072   4.3878123  14.5253165  15.6683986   4.6565720  13.6695655
  15.5728404   5.1056334  15.1118548  83.8928801  11.3751218  12.9421409
  84.3137771  11.7734906  13.7039741  84.5389849  11.4581916  12.2408088
   8.6874358  31.6318175  43.0425342   8.2298510  32.4708745  43.0957301
   9.5784108  31.8260285  43.3335288   8.6180711  22.0501614  49.3869495
   9.0360993  22.0872927  50.2472448   8.6884904  21.1319494  49.1258717
   6.6290276  19.2725178   9.7413524   6.9734661  19.8319432   9.0451892
   5.8989064  18.8059851   9.3345340  50.2449969  66.3859907  37.9463466
  49.3146363  66.3046518  38.1562121  50.3554884  65.8738318  37.1452697
  90.0165659  16.4207074  17.5193198  89.2369682  16.4154622  16.9639571
  90.6602532  16.9269940  17.0237716  71.4787868  68.0582848  28.5914405
  72.0307878  67.2762862  28.5940154  71.3657573  68.2686177  27.6644977
   2.4501384  57.4981263  34.5977100   1.9581808  57.9465750  33.9098819
   2.7820648  56.7051866  34.1766437  76.2903980  69.8854413  25.6999190
  76.1346629  70.6982913  26.1808093  77.0485833  69.4927183  26.1325343
  92.4655917  76.0147491  24.9048503  93.3291057  75.7453957  24.5917590
  92.5104430  75.9055319  25.8547385  89.5698166  60.3825712  48.3915901
  89.4332504  61.1933899  47.9015303  89.1257954  60.5297756  49.2266989
  90.6786745  46.0919333  19.3617296  89.7389676  46.2004614  19.2154300
  90.7378884  45.5769777  20.1664352  65.9941486  67.6911297  35.0751289
  66.8931058  67.4451318  35.2932914  65.6548098  68.0924931  35.8751186
  52.2954562  66.4238873   4.8755916  52.0347193  67.2954812   5.1732047
  52.2452214  65.8779111   5.6602080  75.9158471  66.1198655   8.7472232
  75.9968427  66.8116227   8.0906089  75.3655151  65.4569879   8.3301433
  75.3760579  81.7809883   9.7738345  76.2934449  81.6199913   9.5531161
  75.3392080  82.7154937   9.9777301  83.3104327  55.1642504  22.9814609
  82.4578861  54.8439351  23.2760604  83.9399293  54.5462671  23.3530315
   1.6552747  69.3136635   8.3617862   1.2011255  69.7499457   9.0826400
   0.9919513  69.2293826   7.6768573   1.8422572   9.6481511  25.0272735
   1.5546076   8.7730786  25.2875312   2.2886459   9.5147225  24.1911109
  60.2466440  56.1804247  52.5890827  60.7134342  56.3120651  53.4143162
  59.3451786  55.9933949  52.8510141  43.3175151  45.0470397   4.8511012
  42.8533093  45.7533118   4.4017490  43.9720456  44.7503421   4.2188056
  89.5198587  86.7761460   8.4736140  90.2954438  87.1240893   8.0335792
  89.3039945  87.4341383   9.1344340   2.6015152  71.2554303  30.4220183
   2.8223957  70.3577295  30.1738723   3.3923210  71.5880504  30.8465465
  47.1465054  64.0844551  21.2875541  46.6139987  63.4994581  20.7486232
  47.7165917  63.4986165  21.7855723  82.9601720  65.7959118   1.3098128
  82.8172878  66.4011660   2.0374711  82.9813483  66.3554612   0.5334790
  54.0271330  24.4313526  50.9104156  54.3005419  23.6020303  50.5183649
  53.6194229  24.1814041  51.7395878  81.5399936  83.4920707  55.7790359
  82.4400285  83.7212744  55.5474551  81.0816434  83.4440103  54.9400886
  75.3383112  31.6972375  76.1231661  74.4316959  31.3977098  76.1907148
  75.3504992  32.5315309  76.5922499  13.0016340  79.0593043   9.6437820
  12.3497213  79.7544971   9.5546516  12.9927601  78.8406697  10.5756362
  51.1117640  72.1923342  23.9329799  50.9330407  71.9593206  24.8440250
  52.0143321  71.9094649  23.7860473  87.8658155  29.9063995  24.0940078
  88.7713054  29.9709788  24.3975623  87.3471216  29.8553088  24.8968680
  94.1748506   7.5986954   2.6909145  93.7469179   6.8585774   2.2604163
  94.8667318   7.8614947   2.0839007  31.4551592  43.8197613  56.1187124
  31.4807248  43.9535093  57.0661736  31.8767858  44.5985317  55.7554245
  30.0592494  22.0326400  74.9743891  30.1068783  21.1090231  75.2211618
  29.1288853  22.2492290  75.0355721  35.0993919  20.8214521  41.5367508
  36.0281444  20.9713745  41.7133093  34.8575759  20.1025867  42.1206951
  80.9353975  53.4810695  41.2354930  80.0820592  53.8811794  41.4026912
  80.7364276  52.5654152  41.0399898  81.2161496  43.6152412  48.4707244
  81.9045594  44.1070009  48.9184936  81.4946512  42.7016355  48.5339053
  55.3402212  81.8594208  36.8232616  54.6373013  81.5659824  36.2435802
  55.5922774  81.0748640  37.3102553  63.5865501  78.5921135  13.7514194
  63.5203055  79.0532604  14.5875915  64.5254925  78.4521499  13.6288150
  53.8407183  24.4431567  62.8155231  53.6275816  25.3124571  62.4762249
  54.7250986  24.2702603  62.4927092  76.5870050  78.3610216  32.4514850
  75.7731584  78.8206807  32.2450908  77.0089677  78.9071789  33.1147273
  38.1295419  43.3429050  64.4421768  37.5429869  42.8635168  63.8570499
  38.8115263  43.6891699  63.8666487  29.3549455  82.4459258  14.6715816
  29.4571317  82.8551307  13.8123115  28.9865221  83.1360021  15.2232059
  25.2208249   1.3629481   4.5841773  25.5361526   1.3179919   5.4868301
  25.7803170   0.7522580   4.1043265  40.9050703  46.8283415  71.9482040
  40.2628183  46.6910553  71.2518597  40.4232979  47.2977018  72.6292515
  94.0765056  31.6401720  38.0013776  93.1571091  31.8984818  38.0663180
  94.4167870  32.1488214  37.2653627  56.3888311  47.1658993  75.1358557
  57.0538139  47.3625326  75.7956791  56.8831635  47.0520496  74.3241262
  42.5482702  25.8392024  65.7970047  41.7274332  25.3709912  65.9494352
  42.9038572  25.4460001  65.0000238  21.9336574   6.4780280  27.1289714
  21.1928098   6.8795153  27.5830443  21.5887897   5.6507966  26.7928298
  47.6734689  84.6857109  21.7770179  47.1179548  83.9094201  21.7062362
  48.5362461  84.3424430  22.0094283  94.1803411  68.6354247   6.5135558
  93.9718011  69.1153088   5.7120307  94.2933133  67.7289811   6.2275012
  65.5969313  52.0083055  28.3147987  66.1899999  51.3586393  28.6922057
  66.0883191  52.8290769  28.3480247  47.1750355  12.4179912  55.7005167
  48.0309153  12.6785028  55.3601742  46.8418741  13.2022464  56.1366129
  10.3678719  10.9455964  13.7204440   9.7515742  10.2169797  13.6460765
  11.2190644  10.5617759  13.5097869  73.9833596  86.9551793  73.3071597
  73.7395814  87.4574604  72.5296481  73.9389566  86.0413971  73.0256351
  70.4370764  62.6891389   3.1333621  69.6059898  62.4912479   3.5650619
  70.9233788  61.8651286   3.1607802  55.7421350  64.3666935  72.8549528
  56.4662218  63.7408018  72.8685284  55.6938791  64.6966267  73.7521982
  42.0064275  16.8137738  24.8944553  42.0096795  17.4233100  25.6324847
  41.1914889  16.3216111  24.9938853  14.1495244  25.4357573  27.9409774
  13.2165591  25.3797910  27.7343829  14.1769759  25.7821175  28.8328918
  76.2145347   0.4534528  51.6497119  76.7236036   0.8859870  52.3352702
  75.9562022   1.1619088  51.0601504  17.1718804  18.2401034  11.0913070
  16.7381923  17.7730557  11.8054565  16.5028636  18.8354584  10.7533630
  39.6937100   9.8300120  16.9014056  38.7819497   9.5386121  16.9045146
  40.1447551   9.1995093  16.3399203   1.3811891  28.8092372  23.7186034
   1.7667953  29.4139382  23.0846675   1.8467466  28.9894292  24.5353206
  18.7079207  71.4189860  29.7351344  18.0364005  71.3867804  30.4164966
  19.3469207  72.0541140  30.0584491  24.0186946   9.2380330  13.0182632
  24.8297088   9.0861699  12.5330623  23.4529035   9.7007844  12.4002250
   2.6427309  35.3612420  20.7826312   2.5833075  34.4266030  20.5847438
   3.5801284  35.5250594  20.8859714  67.6815012  77.4063840  23.6092456
  68.5175613  77.8706518  23.6503585  67.5785735  77.1797600  22.6849731
  42.3252908  75.7058897  16.0047515  41.8957511  75.4510394  15.1881869
  42.1305242  76.6385236  16.0968955   0.5563762  11.9099948   1.7418655
   0.0347545  11.2659451   2.2207625   1.3702896  11.9779250   2.2410281
  22.0396344  27.0682761  20.6310638  21.6644923  27.2600886  21.4905437
  22.9071395  27.4722430  20.6528075  30.5746285   6.5017220  20.8829482
  31.1627404   6.6420409  21.6250213  30.3166501   7.3827407  20.6118663
  18.3081160  87.4616241  66.3918114  17.5311194  87.8190899  65.9620094
  18.0151568  87.2488880  67.2778988  32.1804166  21.2655663  68.9223146
  31.3748479  20.7614040  69.0368271  32.5458503  21.3366961  69.8041487
  40.6158273  17.1185538  48.1941875  39.9237458  17.7585789  48.3603938
  41.4017455  17.5116297  48.5737403  20.5711143   8.1112620   6.8648322
  21.3710372   8.0612704   7.3881419  20.7364909   7.5346991   6.1188682
  23.0463902  11.5931889  46.5837939  23.7093322  11.0747287  47.0397933
  22.2945659  11.0058400  46.5062411  82.7238849  67.1006670  27.6382239
  82.6237777  68.0489722  27.7214511  83.5607627  66.9100633  28.0619414
  63.3292154  88.1372586  15.7399543  63.3983854  89.0641060  15.9688647
  62.8594592  87.7434006  16.4750941  85.0061893  66.2058496  60.2418470
  85.0054932  66.8296862  59.5158577  84.0807247  66.0149193  60.3944588
  11.8910377   5.1266190  19.8043807  12.0871560   5.2333924  20.7351668
  12.3768203   5.8307740  19.3749412  88.3010343  74.3129507  45.2933868
  87.4284652  74.1158476  44.9527915  88.2056907  74.2553678  46.2440856
  44.9685192  49.6445704  75.3130722  45.4001999  48.8541222  74.9889231
  44.0366936  49.4888258  75.1591921  20.6210105  30.6121918   1.9826587
  20.7974927  31.5515944   1.9315608  21.3602416  30.2047107   1.5312989
  10.8130233   3.3165023  15.4516967  10.6658141   4.2575642  15.5463775
  10.9897916   3.1943795  14.5189174  12.9177737  48.2191563  60.8811617
  13.2833791  47.5218439  61.4255142  13.5918224  48.3872890  60.2226591
  50.3057003  23.0488658  59.5255136  50.7515717  23.8369036  59.8360348
  50.1440144  22.5371075  60.3181028  53.9580965  63.5628033  46.5902519
  54.3931007  64.4150352  46.6167927  53.2838297  63.6589050  45.9176731
  10.2398459   6.1579367  23.3211120  10.3701417   5.9070393  24.2356094
  11.1235969   6.1985919  22.9556544  20.4678361  29.0826127  12.2736533
  20.7365148  28.2429311  11.9008620  20.2345483  28.8788935  13.1793578
  65.4510069  38.7939954  54.3228197  64.9001646  38.1154156  53.9325237
  65.4031706  38.6290622  55.2644920  59.4921684  19.6907461  68.1496286
  59.8954296  20.4005361  68.6494398  59.0671539  20.1285481  67.4121141
  19.8659102   4.5092484  27.6546748  19.2080514   4.8599145  28.2550796
  20.5448691   4.1506430  28.2262023  37.7125287  38.7224317  62.3883915
  38.5936570  38.4072065  62.1872091  37.7235484  38.8777709  63.3328342
  64.6543744  66.2686172  51.9435962  65.2336505  66.6831294  52.5830062
  64.2486742  65.5452695  52.4215110  22.0669150  58.7342978  57.6877928
  21.6473866  58.9273739  58.5262108  21.5719509  59.2468691  57.0486403
  86.0450795  86.9578734  38.4372028  86.7195895  86.6477957  39.0414508
  86.4259485  86.8320980  37.5680907  20.4004352  10.9423777  10.3574832
  20.6187932  11.7209098  10.8697684  21.0935513  10.8863351   9.6996959
  20.8016650  13.4132382  38.8458236  21.2567441  13.7359473  38.0680163
  20.6652514  12.4814841  38.6741813  62.6401997  52.4034595  70.0932121
  62.1198511  53.1386375  69.7691965  62.3362494  51.6520739  69.5840263
  21.6717498  27.7803513   6.4365943  21.7823998  28.1446597   5.5583747
  21.5469567  28.5447690   6.9990237   8.9705150  41.2425563  24.9997981
   8.7561242  41.8534991  25.7047923   9.7599380  41.6066119  24.5991691
  68.3478573  77.8026452  14.1684611  68.9360193  78.2173911  13.5373672
  67.5027755  78.2282725  14.0238650  23.8940859  79.3580675  66.4679337
  23.0731535  79.1322374  66.0305548  24.5659518  78.8887882  65.9733629
  85.4009584  83.1886759   9.7171672  84.5606426  83.0668345  10.1590427
  85.8668474  83.8249102  10.2597411  79.7467616  59.1061428  27.4497588
  80.2182105  59.3659785  26.6582759  79.4340328  58.2210484  27.2625812
  42.8601933  28.6721492  54.5811319  42.4455023  28.0184698  54.0181303
  42.1322775  29.0826964  55.0478411  54.5807648  61.7778254  75.9000063
  55.3230047  61.5548372  75.3382349  53.8884830  61.1728573  75.6335688
  20.7136695  26.6601750   2.0404990  21.3123195  25.9890076   1.7128022
  20.3179471  26.2686106   2.8191598  11.7613649  83.9763832  75.2151918
  12.3943913  84.2357445  75.8847046  12.2951078  83.7714005  74.4475126
  47.2672336   2.6136061  14.4451507  47.3495976   1.6687485  14.3159373
  46.3792531   2.8188512  14.1525825  48.2720232  63.6189222  66.8293190
  48.6608028  63.0604744  66.1561060  48.6802673  63.3298492  67.6454163
  15.7972543   5.8567044   0.1104816  15.3053872   5.6606147  -0.6869189
  15.1268832   6.0761353   0.7575400  56.4307117  29.8420763  73.6106157
  55.7176876  29.2910385  73.2878351  57.2262621  29.3566823  73.3921528
  78.2936668  40.4892826  49.4189882  79.1892004  40.3005123  49.6993732
  77.8070211  40.6068850  50.2348185  80.4660040   5.5724189  28.3668788
  79.6563524   5.9339377  28.7274345  81.1520869   5.8884475  28.9547999
   3.3051361  76.6839471  27.6162131   3.8815654  76.0876241  28.0940803
   2.8302969  76.1200967  27.0056136  70.8084536  48.2558918  58.6473799
  70.9265375  47.9569244  59.5489931  71.6181898  48.7232065  58.4420061
  67.9233220  87.6379338  22.7160628  67.7943209  87.8962317  21.8034442
  68.8457564  87.8253355  22.8899272  55.7421494  44.2165947  68.2682514
  54.9602795  43.7482357  68.5607481  55.7611704  45.0092411  68.8045168
  93.7806541  12.6882550  30.6268771  94.3685705  12.0790145  30.1803287
  94.1134125  12.7285001  31.5234740  37.2859971  17.1841332  14.0025886
  37.6829926  17.2481248  13.1339534  36.3670699  17.4131152  13.8633998
  62.9991484  18.9841473  47.9999924  63.0847025  19.7596812  48.5544825
  63.0338097  18.2479858  48.6108065  91.8245799  14.0355965   2.3031743
  91.9777185  13.2625624   2.8464921  91.4047748  13.6940905   1.5136369
  19.3848531  13.7246272  26.5641006  19.2142407  12.9002520  27.0196612
  18.9327018  13.6328551  25.7254298  84.7291183  34.2357969  37.6163268
  84.2450237  34.9968410  37.9367781  85.4294109  34.6062136  37.0790935
  35.3189342  33.7397715   8.1928237  36.2583272  33.7931248   8.0169566
  34.9567286  33.2947299   7.4266704  17.2552408  79.3181029  33.1290324
  16.4878000  79.1043988  32.5983794  17.9418291  78.7366953  32.8022464
  35.9265296  35.0163981  30.0976070  35.4781072  35.7071158  30.5855163
  35.2501504  34.3581959  29.9378856  79.8398736  76.5921083  27.1668323
  80.1096586  76.0213676  26.4473136  80.2868417  77.4210277  26.9955333
  78.0384630  23.8780734  25.2458747  78.7096304  23.2255265  25.0459941
  78.3693975  24.6884343  24.8585303  78.6866182  34.2103812  15.8722194
  79.1594428  33.4886691  16.2867149  78.8571698  34.1024014  14.9365504
  27.9363744  27.6868722  14.7920592  27.3205964  27.0471522  15.1495727
  28.7055270  27.1704098  14.5514377  69.6812391  37.6946592  49.0854073
  70.0780296  38.2809639  49.7296429  69.6339941  38.2160926  48.2840919
  29.8890056  56.8954351   6.4249213  29.8207159  57.8191057   6.1832603
  30.8229904  56.7575624   6.5827067  89.6220639  71.7720261  16.6023429
  88.9804796  71.0619917  16.6235431  90.4355911  71.3514963  16.3238414
  31.7213695  25.7186314  -0.0509421  31.6969029  26.5404412   0.4392274
  32.6175515  25.6642911  -0.3828160  21.6418171  59.2112827  52.6709938
  20.9569120  58.9852333  52.0416784  22.4586058  59.1128969  52.1817017
  14.7519748  25.8185765   8.8201793  14.9425332  26.5408751   8.2216819
  15.6123845  25.4866931   9.0766509  59.1717259  33.2594344   5.3342326
  58.5537831  32.7058455   4.8568233  59.3970792  32.7504584   6.1129459
  79.9341393  48.6314774  69.8049212  80.8038616  48.8506651  69.4705915
  79.3302155  48.9889669  69.1539955   4.0325181  43.8633010  14.6871741
   4.0856831  44.3202731  15.5265697   4.6664445  43.1500384  14.7621997
  16.8394725  11.5665337  20.0040610  17.6393573  12.0220896  19.7415908
  16.5704648  11.0849139  19.2218097  66.4697695  57.3172235  63.8210154
  66.3514948  57.9926682  63.1531715  66.0411835  56.5426779  63.4568453
  90.1408056  80.1061383  56.3116820  90.6497672  79.3553200  56.0059627
  90.7025007  80.8620229  56.1403163   7.2971217  17.4666020  12.1142467
   7.7575032  17.8701112  11.3784106   7.3967759  18.0926272  12.8314574
  84.8099092  83.3430806  56.6233142  84.5873454  82.9249683  55.7915195
  85.5518296  82.8371683  56.9547256  81.9444084  42.8421736  73.5760403
  81.6674805  42.5220680  72.7175093  81.5562153  42.2266006  74.1978121
  26.8291347  23.9555880  27.2301467  26.8987958  23.0792043  26.8515666
  27.2852199  23.8909718  28.0692180  33.7766568  20.0811145  15.8477862
  33.0952994  20.5661008  15.3822024  34.4413249  20.7387730  16.0525687
  23.8394038  45.1187655  18.4531673  23.1764285  45.3520724  19.1029914
  23.5827128  44.2474219  18.1513198  67.2638750  73.0394268  72.5837040
  66.7681694  72.4153376  72.0535898  67.7958536  73.5218191  71.9508266
   6.4770426  75.6796041  35.9878142   6.3755382  76.6300717  35.9374126
   6.6659511  75.5074873  36.9102653  63.7352081  13.2762429  16.6296085
  63.7318248  13.2463357  17.5863345  64.6615537  13.3316275  16.3949855
  61.1195485  11.3771388   3.9495452  61.0945050  11.4774510   2.9979404
  60.6197755  10.5786511   4.1194423  78.4563831  87.1663514  11.2924560
  78.2074312  87.5695219  12.1241458  77.6473907  87.1532622  10.7809909
   7.2465910  68.9557925   3.4511932   7.7803529  68.6606231   2.7134879
   7.1551193  68.1810131   4.0057929   1.7375009  43.4615847   3.7746699
   2.0315186  43.0213782   2.9771741   0.8347170  43.1660411   3.8924487
  74.9546451   6.7532584  21.5807803  74.7389275   7.5236031  22.1063884
  74.5941586   6.0172602  22.0753463  48.5071341  40.7545134  21.9382270
  48.9527623  41.5847346  22.1067031  47.6115481  41.0050818  21.7115577
  44.4888020  71.2723398  64.1159296  44.7929430  71.8226051  64.8376894
  43.5504055  71.1680031  64.2732620   5.9733695  68.3024931  74.3321085
   5.7268238  67.4007511  74.1264248   6.7474282  68.2181168  74.8888350
  88.1397563  17.6478907  37.2645076  88.2761556  17.2156998  36.4213927
  88.8774282  18.2524106  37.3458846   6.1573283  53.2914588   1.1120208
   5.8241956  53.5762450   0.2610477   5.8850305  53.9801261   1.7185004
  32.0829074  35.7541701  14.8936351  32.3198716  35.4519269  14.0168651
  32.8780810  36.1701438  15.2266296  28.4389750   3.6989257  32.6255210
  28.1810061   3.0619857  31.9591983  28.3972232   3.2137105  33.4495719
  37.2053735  32.7885625  35.0028213  37.1920363  32.0962378  35.6636890
  36.3787524  33.2547757  35.1276382  17.0833222  16.0056636  12.9713424
  17.8887479  15.9513804  13.4857162  17.1913640  15.3454062  12.2867854
  13.6582963  27.8239056  16.7704661  12.9685895  27.7678725  17.4318202
  13.7572448  26.9270274  16.4510139  51.1777210  74.5344210  75.8434725
  51.7488384  75.2341366  76.1604166  50.3031874  74.7861814  76.1401796
  23.3707540  15.8651969   5.7454761  23.7702481  16.5944049   6.2197097
  22.5386159  15.7149693   6.1940463  88.7653595  10.5700919  28.0747588
  89.3146068  10.4614970  27.2983821  88.8007480   9.7203299  28.5139545
  11.6406165  87.2891903  76.6552734  12.5317965  87.4606133  76.9596291
  11.7007742  87.3333073  75.7009888  10.8466737  32.3851916  13.0949672
  10.8428351  31.4400622  12.9434856  11.0123889  32.7653596  12.2322734
   3.2229630  10.9254643  17.0759662   2.9774563  11.8446872  17.1808131
   2.6175801  10.4495236  17.6444991  26.4169566  21.2402388  39.6000560
  26.0430591  21.6125914  40.3986629  27.3599927  21.3769719  39.6907409
  18.1896607  16.5775105  41.9010623  18.8283317  16.2258717  41.2808402
  17.8103415  15.8041665  42.3185523  70.2709153  66.2886587  12.6650413
  70.4860214  65.3839102  12.4383338  70.9467033  66.8109956  12.2329410
  23.5855596  12.9305074  18.7658294  23.0818049  12.5749966  18.0336555
  23.8137881  12.1652076  19.2935165  52.2764730  47.5662947  74.5551157
  52.2852087  47.1287107  73.7038374  51.7695999  46.9824028  75.1193666
  78.3250430  83.5018530  19.2667850  77.6886657  83.3559671  18.5667976
  79.1744760  83.4832516  18.8259299  24.8053373  85.3113976  13.3788379
  25.1071085  86.2003413  13.1918891  24.7365011  84.8960820  12.5191768
  78.7988666  81.6562310   3.6523326  78.1617502  81.6123691   4.3653472
  78.5980180  82.4765387   3.2017882  70.2333358  73.1862154  28.0121978
  69.7780660  72.4021259  28.3190520  69.5517901  73.7090531  27.5898536
  24.1042058  32.0860192   7.4689658  23.4718148  32.2353455   8.1718238
  23.5888688  32.1521804   6.6650565  10.9075753   5.5219695   7.5341399
  11.3067214   4.6688363   7.7046664  10.2588860   5.6263396   8.2302268
  29.4312303  18.8223359  10.6160815  28.5618131  18.5223910  10.3507884
  29.6926658  19.4360444   9.9296077  64.7487783  32.2080398  45.7775402
  65.4342985  32.6897097  45.3146315  64.2351007  32.8856254  46.2171364
   2.0274366  86.4974204   2.9279550   1.4634289  87.1735182   3.3034785
   2.7109684  86.3638154   3.5845931   5.1456778   9.3976447   1.4348395
   5.5378096  10.2277657   1.7057069   5.8871381   8.8652179   1.1467631
  40.5071275   3.8736150  10.7765849  39.7659747   4.1862628  11.2954028
  40.1817243   3.8626334   9.8764594  42.6711099  38.7163398  48.8125404
  42.6757590  39.5433184  48.3305629  43.3142154  38.8421389  49.5102676
  10.6273620  13.4047267  15.5051692  11.3538568  14.0146729  15.3771098
  10.6153361  12.8757140  14.7075256  11.4689033   6.0779950  15.4190906
  12.3140780   6.2851712  15.8178313  11.6724412   5.9129092  14.4984706
  17.3037924  74.1265216  38.4936984  17.1290268  75.0198021  38.1974967
  18.2583059  74.0550032  38.4888251  18.8810985  16.1418244  17.0579417
  18.8161771  15.5694386  17.8223975  19.8200290  16.2953660  16.9527419
  64.0609530  71.3509574  13.3670982  64.4074038  70.4842272  13.1550010
  63.8514212  71.3034549  14.2998775  45.4986954  35.6810737  52.0746088
  46.1120510  35.9973931  52.7379131  44.6564436  36.0590386  52.3275518
  22.4713437   4.5826623  14.0502341  21.9889371   4.9072501  14.8106082
  22.6404969   3.6617657  14.2491515  90.0239185   0.4373175  66.4945698
  89.9706224   0.6312472  67.4304008  90.9617856   0.4365355  66.3031626
  65.7797909  63.8317251  58.6161375  64.8927879  64.0151072  58.3065748
  66.3396406  64.0165424  57.8620577  20.7472102  21.1501977  32.2969611
  19.9514691  21.5844056  32.6043590  21.0914151  20.7048795  33.0711921
  90.3666002  10.4470155  30.8977779  91.2745768  10.1472422  30.8536513
  90.4291851  11.4021537  30.8924373  84.7869736  35.0610348   6.3022884
  84.5808679  35.8141276   5.7485660  84.9294621  34.3425414   5.6860908
  84.2334954  42.3287818  13.5029395  84.6138780  42.3372790  12.6246055
  84.3233506  41.4213702  13.7940868  20.2938621  28.7537476  15.8387073
  21.0445706  28.4949824  16.3732322  20.1003234  29.6494624  16.1152442
  56.0362244  46.7036438  65.2779579  56.3216782  47.3372936  64.6197510
  56.7453289  46.0617971  65.3158998  31.6872899  17.2835252  47.8830703
  31.2640588  16.7873332  48.5837157  32.4811046  17.6362464  48.2851680
  48.9539385  66.1490726  51.9432640  49.8553371  66.1472702  52.2653008
  49.0222740  65.8445835  51.0383606  66.2048248  15.4381758  72.0673561
  66.6426733  15.9524924  72.7455902  66.1794189  16.0179144  71.3061094
  20.0742738  10.9917685   6.2399848  20.4064099  10.2266309   6.7095454
  20.0607745  10.7219836   5.3216918  86.5509874  10.1858899   5.9938129
  87.0335299   9.3595168   5.9717353  85.8455903  10.0346085   6.6229137
  12.4811186  60.1008943  18.3162578  11.8856395  59.7664407  17.6455958
  12.6073612  59.3637171  18.9136394  54.4323365  10.4863498  10.7742770
  53.6243741   9.9757048  10.8258994  54.2192285  11.3157365  11.2019904
  33.6501376  36.1552855  38.4591373  34.1140620  36.8763873  38.8846000
  32.7448003  36.4589354  38.3928283  31.2436406  11.2502286  14.6077331
  30.8802478  10.7980725  15.3691371  32.1909921  11.1464497  14.6971496
  23.2791488  20.9039590  31.0678371  23.1195991  21.3046548  30.2133163
  22.4063317  20.6981417  31.4025863  26.4196603   3.7343928  36.1366447
  26.4250390   3.4159228  37.0392974  26.1353127   4.6457526  36.2058910
  29.7234321  46.8540812  76.7369747  29.8621774  45.9532595  76.4445686
  29.1186380  46.7759466  77.4747753  87.0061571   8.3893916  16.6795905
  87.1892101   7.4695298  16.4883502  86.1501533   8.3792493  17.1078284
  85.5233669  48.4543228  54.9183941  85.5100060  47.6594162  55.4514790
  86.0625935  49.0681219  55.4171181  49.5212317  43.0442142  71.1837959
  49.6804762  43.8248062  70.6531858  49.8935795  43.2563639  72.0397043
  66.6567615  76.4605179  21.0491164  66.2586144  76.4776388  20.1788219
  67.5741270  76.6877475  20.8973296  81.7022708   3.3422667  75.0837898
  80.7754854   3.5798651  75.1130056  82.1554378   4.0993697  75.4548073
  16.2400739  10.1584670  38.0332168  15.5403058  10.6207940  37.5719054
  16.9595592  10.1226613  37.4029048  88.5671047   9.8592287  50.2742624
  89.0332750  10.6198126  49.9272251  88.2529214   9.3960482  49.4977427
  66.0411742  78.8077274  12.8204806  66.2976888  78.1996432  12.1271785
  65.9885195  79.6586695  12.3853286  22.3049323   6.4307925   0.3115638
  22.5301043   5.5295512   0.0807222  23.1443469   6.8421647   0.5174382
  25.5863444  34.8915335  14.6635230  25.5394856  34.7981021  15.6149943
  26.3600032  35.4349849  14.5140346  26.2119405   8.7119672  11.2193568
  25.8364741   8.5593745  10.3521903  26.9671933   9.2772576  11.0572513
  37.8684343  83.7359825  20.3422721  38.3107103  83.0100289  20.7823070
  38.5435404  84.4085780  20.2523597  90.3144506  85.5180159   4.2239268
  89.5821908  86.1313477   4.1618903  89.9326804  84.6667662   4.0097793
  42.2629976  72.7070093  73.8734102  42.6840544  72.1179962  73.2473040
  41.3686180  72.3748207  73.9506197  92.3615510  42.1918341  11.0440238
  92.2378618  41.9352195  10.1301940  93.3108098  42.1896216  11.1670478
  12.5513045   9.4567296  11.7989619  13.4501950   9.1683862  11.6406043
  12.4443452  10.2258155  11.2392314  70.1130632  76.7575922  46.8481048
  69.5095375  77.4521795  46.5844138  69.7053602  76.3666454  47.6208671
  87.2055581  83.7407961   5.4984458  86.7124942  84.5353928   5.2941592
  87.5777248  83.9059225   6.3647349  10.1975406  86.6216269  15.0310596
   9.7773613  87.3671380  14.6022208  10.0269188  86.7543259  15.9635337
  58.7221050  35.2905726  71.1622858  58.2154703  34.4784522  71.1657381
  58.7674856  35.5484724  72.0829725  53.8940382  47.4584579  69.4711685
  52.9836607  47.7114010  69.6243429  53.9930916  46.6273546  69.9355936
  52.2559373  31.9437405   4.6520503  52.0080487  32.2624728   5.5199130
  52.7742593  31.1577365   4.8245986  12.3801152  39.3421218  24.4249900
  11.9765584  39.2857310  23.5588534  12.6960484  40.2437636  24.4837840
  27.9864995   6.9312474   2.2348388  27.7011697   7.2090050   3.1052764
  28.7894361   6.4347693   2.3930820  22.3115556   4.7632214  17.8276713
  22.0158641   5.2766082  18.5794910  21.9053666   3.9050099  17.9490073
  88.2705003   5.7012555  22.8515704  88.3938653   5.8895108  21.9212134
  89.1450841   5.7863232  23.2311805  56.6730359  81.0784426  14.6226676
  56.3625220  81.4794746  15.4344447  56.3425711  81.6514292  13.9307769
   1.0872425  87.7403965  25.3062804   0.4668869  88.1927100  25.8779510
   0.5412735  87.3396388  24.6298679  77.8613323  13.9211032   1.9225009
  77.8611738  13.3243081   2.6708730  78.6384481  14.4651791   2.0501979
  48.3671427  32.7002621  64.9760199  49.1950703  32.3338675  64.6653461
  48.3569527  33.5938287  64.6329975  30.5705230  16.1055466  10.4536040
  30.4379575  17.0363328  10.6332858  31.4101521  16.0672423   9.9955733
  79.2838100  86.1427012   8.1521972  79.3109658  86.9808379   7.6906570
  80.1290229  86.0872927   8.5980399  61.3808969  81.4812794  59.2298778
  61.0364297  82.2635761  58.7990745  61.8238619  80.9988585  58.5318168
  64.8476696  75.8786488  70.7777977  64.0228939  76.3561726  70.8669710
  65.0438356  75.9122038  69.8415184  59.1008043  50.9976006  71.9233942
  58.9382601  50.7354593  72.8295374  59.7605848  51.6880274  71.9884729
  19.7134177  31.4075228  17.1435817  19.5235173  30.8851859  17.9228957
  18.9327638  31.9477603  17.0212634  35.9008376  13.2779547   5.5449947
  36.6518037  13.5079428   6.0921462  36.2564294  12.6764819   4.8907645
  20.7753245   8.5377833  35.4811271  21.4708011   8.6422440  34.8317989
  21.0063855   7.7376506  35.9529670  81.1872101  47.8756237  58.4737206
  80.3526402  47.4770164  58.2270622  81.1298561  48.7733316  58.1465149
   9.8951213  49.8928305   9.2132743   8.9658372  49.8146388   9.4290145
  10.2223126  48.9935252   9.2340263  10.3346027  84.0465918   6.8226321
  10.1698173  84.0327921   7.7654441   9.8433222  84.8040810   6.5046867
  58.0533055  80.8035889   8.2511695  58.5265306  80.2299681   8.8538631
  57.6862624  80.2110973   7.5950702  24.2461698  19.4322774  35.0325568
  25.1865165  19.4283625  35.2113422  24.1486518  18.8880440  34.2511924
  29.9291945  83.8455772  73.5693407  30.2898526  83.3415699  72.8398609
  29.9174786  84.7491169  73.2535696  17.1502940  20.7003543  24.9719413
  16.8922250  20.6368443  25.8915122  17.0856826  19.8039290  24.6425899
  28.5321760  24.3409491  73.3193064  27.9882145  25.0739455  73.6075020
  28.3315563  23.6368537  73.9359331  33.2188432  19.5406100  46.0402854
  32.9241197  20.0716635  46.7801173  33.4346168  18.6914870  46.4258559
  37.9493332  70.0514269  71.8326426  38.2689738  69.9014473  72.7223444
  37.9458237  71.0038042  71.7367649  69.7227648  26.4351755  60.7821655
  69.7853235  25.5824477  60.3518438  69.0841440  26.3035494  61.4829254
  55.6399835   1.4038855  48.9683580  54.7021021   1.3668352  48.7806320
  55.6974710   1.3158137  49.9197626  32.0032501  28.9357591  65.9408951
  31.2560320  29.2965508  66.4180994  31.6504860  28.7071586  65.0809336
  70.6566350  12.3333833   0.7328876  70.3927247  11.4585063   1.0178121
  70.2396600  12.9251572   1.3591178  79.1831112  63.4167051  69.1993093
  79.6366215  64.2189884  68.9406490  79.5752096  62.7338409  68.6550808
  79.9251002  56.3554522  26.1415275  80.8175248  56.6301295  26.3521464
  79.6875268  56.8793246  25.3764423  26.8383138  22.1538970   2.3795922
  26.2271707  22.2016379   3.1147464  27.6677911  22.4712083   2.7366860
  60.7620160  26.1095998   8.3972915  59.8295037  26.1538932   8.6086829
  60.8050649  25.5538699   7.6191218  40.2470843  41.6596839   2.6313718
  40.8395450  41.2664744   3.2721599  40.4884116  42.5858733   2.6188071
  24.4708507  11.2313267  20.7580360  24.2318170  11.6591927  21.5802463
  25.4263751  11.1807296  20.7833179  15.7824771   5.8875796  41.3001426
  15.8662621   6.6231725  40.6934245  15.3071420   5.2209946  40.8042033
  20.3233115   9.6358248   3.6383422  19.8237864   9.0247151   3.0968173
  21.0758464   9.1276070   3.9410575  57.6547448  20.9540555  31.0859855
  58.0409066  20.5001876  31.8350585  56.8482034  21.3389394  31.4289077
  67.0230246  77.9291344  39.2931867  66.9553709  78.8290739  39.6121883
  67.4895954  77.4634457  39.9872160  19.5390622  40.5263755  21.3208564
  18.7267177  41.0315367  21.3545592  19.7042911  40.2775618  22.2302707
  22.8143708  32.3925874  24.1509517  22.3979537  31.5903756  23.8358482
  23.4375493  32.0946070  24.8135932  18.1167523  18.2690474  18.9638980
  18.0640523  17.6990649  18.1967052  17.2546117  18.1991908  19.3738540
  41.7998505  64.7019720  75.3906298  42.7445936  64.8352289  75.3136301
  41.4208603  65.5611086  75.2049255  15.8334219  56.8385935  68.1158257
  15.0562978  56.9627428  68.6607027  16.5594578  57.1402121  68.6618376
  86.4027122  57.9547205  51.2292274  85.8732703  57.2696355  50.8210834
  86.8342450  57.5182727  51.9637569  24.8688711  13.8593966  73.6667442
  25.7349409  14.1080004  73.9897633  24.3859304  14.6843344  73.6169624
  30.6923263  25.2658221  10.8981307  30.8059661  25.8221432  10.1275333
  30.2246396  24.4970938  10.5717071  53.8767672  67.4971771  63.8866854
  53.2962799  67.9005289  64.5321083  54.0357208  68.1875515  63.2429886
  71.6525507  45.5731201  64.4194269  72.3990250  44.9742460  64.4383383
  72.0267153  46.4140177  64.1565228  83.1723169   1.3136584  76.9709253
  82.6625684   0.6569678  77.4454212  83.1330732   1.0326868  76.0567331
  42.8112332   6.1008879   1.2514432  43.3907096   6.8071124   1.5372451
  42.9937570   6.0047576   0.3167327  48.7292783  28.2505080   2.5736268
  49.4810121  27.9720351   2.0505794  48.2730500  28.8835332   2.0192273
  80.1823285  30.5709082  59.0239191  79.2264274  30.5250460  59.0433502
  80.4008582  30.6208521  58.0933380  53.3733892  63.7884760  71.7245483
  54.3092489  63.8270950  71.9218016  53.0127859  63.2005262  72.3882580
  14.8857514   6.7896077  12.3272021  15.1335828   7.2894332  11.5493949
  15.7165973   6.4794299  12.6873668  39.8275484   7.9145914  48.6247206
  38.9310087   7.7327544  48.9064646  40.3190435   7.1303374  48.8688612
  52.7805631  39.1800544  11.3884433  53.1304090  39.7656008  10.7169040
  52.7724950  39.7085711  12.1864684  92.5000861  20.2574450  34.0972733
  92.5172523  20.7115465  33.2548189  93.1704524  20.6972796  34.6201420
  28.9540736  50.9503505   2.9902824  28.2580392  50.7248351   2.3731025
  29.6981971  51.1862895   2.4363406  72.1381187  47.1740150  60.7988691
  72.5968981  46.3628960  61.0175848  72.5350618  47.8343391  61.3668823
  26.3045136  15.9384295  28.3125671  26.8505208  16.0950991  27.5421413
  25.6750409  15.2753350  28.0291923  25.9711139  16.2027356  14.3094047
  26.6954677  16.1284491  14.9307140  26.3954465  16.2779280  13.4546931
  42.6668946  33.2271048   8.6497005  42.7432696  32.3787591   9.0863975
  41.7971723  33.5443017   8.8930209  73.2731155  80.3861609  14.0710338
  73.4961608  80.4351678  13.1414779  73.9726260  79.8595062  14.4577487
  44.2837302  28.8862845   7.7932056  44.5074288  29.8105666   7.6841243
  44.1550271  28.7806365   8.7358077  16.9134252  18.6262938  33.0557330
  17.1479384  17.6982638  33.0549033  17.2796170  18.9666030  32.2394450
  62.5542545  66.7988968  45.6984758  61.7162704  67.0465231  45.3077030
  63.2047606  67.0256948  45.0339174  35.8989684  50.9479567  27.5340922
  35.7133071  51.7095896  26.9848426  36.2119119  50.2818534  26.9220431
  38.0112187  43.0709979  24.3123038  38.8400380  43.2956931  24.7351535
  37.5128858  43.8882491  24.3126186   3.4823005  20.9701821  46.2435992
   4.0981500  21.3751694  45.6329043   3.9179246  21.0243174  47.0942100
  57.8203773  78.6198187  60.8766460  57.3404789  79.4304371  60.7068396
  57.9598045  78.2380104  60.0100327   6.9199793  17.9832360  22.2877868
   6.5273492  18.3201691  23.0931075   6.8283884  17.0328757  22.3560603
  22.1712415  39.1990897   9.9062713  22.3203675  39.2675921  10.8493026
  21.6187016  39.9518630   9.6958621  52.2598187  19.9782655  26.0872157
  51.7025487  19.4313237  25.5335506  53.0641191  20.0907847  25.5805858
  77.9244947  52.6355410  53.1290770  78.7750387  53.0733967  53.1620741
  78.0259562  51.9658089  52.4527645  39.3889348  11.5300557  24.0307983
  39.5057885  11.3968989  24.9714645  40.2683751  11.7213961  23.7049182
  37.3853776  72.3685589   0.6114610  37.4364630  72.5211683  -0.3321139
  36.8261692  71.5966788   0.6993182  64.9130777  86.2738600  19.2255004
  64.9653319  86.3188210  20.1802142  65.1518467  87.1527424  18.9309104
  76.8224669  82.1090508  54.3517685  77.3359966  82.0727158  55.1587391
  77.4708223  82.2472858  53.6612940  63.0516481  38.5688066  76.7908573
  63.2273340  38.4430003  75.8583689  63.7712955  39.1202283  77.0979071
  51.4192693   4.0998217  28.9871486  51.5217416   3.6879346  29.8450931
  51.5654103   3.3900782  28.3617385  18.0386935  49.0483236  45.5119085
  17.8673563  48.1104183  45.5968332  18.3071146  49.3231106  46.3886499
  49.8929214  43.4719610  67.5363445  49.0347004  43.2255220  67.8812551
  50.2232981  42.6740170  67.1235847  53.5466099  76.4319801  73.2882023
  54.2977953  77.0054674  73.1363392  53.8783836  75.7532930  73.8760281
  12.6646392  35.7793662   3.0251821  13.2768933  36.5151355   3.0299647
  12.9853980  35.2053782   2.3295673  93.7604004  14.0439460  44.8056968
  93.4625656  14.3331525  43.9432128  93.6417038  14.8087308  45.3689464
  17.4367587  31.0363099   9.1258891  17.6703708  30.6732270   9.9801810
  17.3023240  31.9695422   9.2909129  91.5120316  70.2417850  67.1256924
  91.8979073  71.0796499  67.3812580  90.5798721  70.3379583  67.3207855
  50.6958596  22.3077008   7.3596748  50.0664918  22.9696557   7.0734294
  50.6554238  22.3362777   8.3155902  43.9924383  87.2200966  72.5122070
  44.1400480  86.8246365  71.6531086  44.8075914  87.6828766  72.7060986
  40.9197251  34.2676112  19.0777000  41.4541356  34.4371602  18.3018764
  40.0909059  33.9380833  18.7302669  10.0409953  15.7714555   6.1823638
   9.1714684  15.7417771   6.5814574   9.9090831  15.4361293   5.2955802
  30.3279321  50.2607867  17.7836879  29.4290320  50.4978797  17.5556453
  30.6837193  51.0448977  18.2018073  68.6661768  48.5388279  70.7833195
  68.0468178  48.3822966  70.0704908  68.1149673  48.7374830  71.5402460
   0.4348959  72.5117770  19.9099239   0.0708450  73.1266323  20.5468352
   0.0759519  72.7968374  19.0696128   0.3942029  47.0850322  16.7005904
   1.0067718  47.6372477  16.2147315   0.5950062  46.1943290  16.4132770
  87.1494058  28.3914381  73.1825876  87.4013093  28.6868769  72.3076677
  87.2811082  29.1574770  73.7412167  55.6209390  73.6987254  17.1050437
  56.2049310  74.4336936  16.9179614  55.7866017  73.4891268  18.0242046
  90.5541235  20.7217166  19.4728549  90.3369791  19.7925851  19.3967422
  90.1291997  21.0013482  20.2836974  30.5547441  74.2796030   1.8136962
  31.4765371  74.1258946   2.0208247  30.2533067  73.4536186   1.4353879
  73.9921427  77.6685047  65.6458044  74.0870333  76.7291260  65.8032703
  73.1252241  77.8827667  65.9904480  11.6578595  26.1738297  31.2269767
  11.3187091  25.2788255  31.2135013  12.6036374  26.0700175  31.3316901
  49.7116963  13.9150426   2.4285920  48.8617818  13.5181710   2.2379001
  50.3505914  13.2651231   2.1359285  79.0828753  45.7404518  70.3871012
  78.5069656  46.3724566  69.9568367  78.9979792  45.9356689  71.3203287
  17.6895730  14.2076346  10.9848769  17.2176759  14.3213221  10.1598819
  17.4202411  13.3440634  11.2978252  17.1695487  24.6447465  17.7192767
  17.9257361  24.1669270  17.3785384  17.3221557  25.5527255  17.4575122
  25.6563918  30.1954219  29.2701038  25.3188626  30.5752513  30.0812991
  24.9569480  29.6161505  28.9676841  47.7445745  75.2017355  66.4434814
  47.4721336  76.0085249  66.0063267  48.2520676  74.7307968  65.7824945
  49.9192715  85.4818535  65.2539015  49.0985012  85.5670357  64.7688055
  50.6004810  85.5382156  64.5838213  61.4403248  13.1864858  28.6123610
  61.2203360  12.4743879  29.2129898  62.2636986  12.9130137  28.2080078
  88.5256818  79.2370739  32.6075919  89.1407493  79.7307959  32.0652278
  88.5825780  78.3401003  32.2783073  22.1420352  40.3853080  16.4537509
  22.2713534  39.7894332  17.1916183  21.4255444  39.9948832  15.9533198
  65.2888505  17.4381301  42.3730834  65.8593003  17.4579665  43.1414779
  65.6994645  18.0420586  41.7542918  73.2520914  49.6381903  58.4306860
  74.1879177  49.5094585  58.5852194  73.2119656  50.1883698  57.6484299
  20.0444476  14.3911788   0.9063132  19.4669930  13.7604758   1.3364204
  20.8312528  14.4059178   1.4512475  18.9810483  37.4066111   1.3046868
  19.1864984  36.4766642   1.2086804  19.4479863  37.8306338   0.5846866
  16.1462323   6.8643281   7.0259269  16.7391078   6.3549325   6.4734347
  16.7254273   7.3739001   7.5925811  53.7262647  41.0105082   9.5432265
  54.1826455  41.7099234   9.0755065  53.5849778  40.3328273   8.8821586
  58.7218237  66.1490107  55.6812429  58.5046530  65.9418106  56.5901661
  58.5681295  65.3323889  55.2061272  64.1654065  12.6023713  19.4719489
  63.7089089  11.7797747  19.6485217  65.0941685  12.3743144  19.5122703
  22.0661402  27.5872087  49.2284870  22.6976538  26.8687081  49.1941452
  21.4059973  27.3573279  48.5745764  78.3600381  36.4871201  37.0472606
  78.2302430  36.7040124  36.1240371  77.8570321  37.1489653  37.5217898
  24.3939444  68.1474012  34.8591352  24.7558209  67.6831073  35.6139255
  24.3424889  67.4833959  34.1716170  63.6908674  24.2606640  67.7137995
  62.8202057  24.3028545  67.3183250  64.2937803  24.3310881  66.9736862
  81.3288235  71.0193175  43.6342669  81.7587076  70.8495992  44.4724941
  81.5433656  70.2571386  43.0964088  19.3652797   1.2848011  64.8358631
  19.8622346   1.0429204  65.6173754  19.6600008   0.6693393  64.1646099
  37.8955364  31.2669659  48.1553268  37.2741985  30.8772039  48.7703514
  37.5812268  32.1627378  48.0327034  30.0612068   3.9999560  70.5463171
  30.2523041   3.7297255  71.4444733  29.7400999   4.8978409  70.6295300
   7.0238063  59.4213813  55.2859545   7.8500244  59.7854966  54.9681282
   6.7609259  58.7975472  54.6092319   4.6683332  66.6239852  71.2275934
   4.4693252  66.6584557  72.1632433   4.7049305  65.6892341  71.0247850
  14.9111211  17.9389393  44.9612427  15.8357513  17.8074825  45.1710272
  14.4407713  17.5582027  45.7028913  87.9859403  40.5932629   1.3086112
  88.3853820  40.9900412   2.0827182  88.5765937  39.8772853   1.0746511
  76.0335325  75.4536885  72.3513269  75.1867091  75.0519544  72.5455713
  76.1383294  76.1280125  73.0225420  58.5357455  15.3978410   5.6812652
  58.9116147  16.1669388   6.1095698  59.2886165  14.9401012   5.3072532
  38.3948851  36.1837339  32.2713184  37.9300117  35.3941560  32.5482559
  38.4848952  36.0885286  31.3231277   2.0463766  31.3360527   6.0007079
   2.9317774  31.4390102   6.3495620   1.4759315  31.6713241   6.6923793
  35.3550100   3.7002358  58.8580370  35.5000520   3.5219309  59.7872305
  35.9315014   3.0860296  58.4034586  20.4190458  68.2729664  18.1808265
  19.4793237  68.4423318  18.2476600  20.5361189  67.4111715  18.5806163
  31.2418938  14.6413445  33.3383799  31.2220430  15.5395746  33.6685634
  30.3233314  14.3728042  33.3193541  48.5294643  35.5285814  15.6870254
  48.6941829  35.2768466  14.7783263  48.2849172  36.4527669  15.6389602
  17.3612586  40.0139552  28.2652553  16.7621032  40.5210489  28.8130744
  18.0617407  39.7466495  28.8603290  10.4213425  85.7278001  73.2752228
  10.5420062  84.9329972  73.7947989   9.5685527  86.0656315  73.5488129
  52.6140049  52.2966376  11.4554484  52.0364168  52.2106471  10.6970103
  52.2087744  51.7496213  12.1283515  77.9243469   9.7487658  57.3976040
  76.9673681   9.7300071  57.4058485  78.1717730   9.0712708  56.7683077
  28.4183431  11.1375880  54.5276976  28.3323312  11.8138254  53.8557339
  28.3618760  10.3124928  54.0457630  85.1606801   9.6540943  33.0132373
  85.5034450  10.5014220  33.2974609  85.3891948   9.6024003  32.0851501
  23.4087777   0.1484119  60.5552912  23.5589385   0.0344512  61.4937449
  22.4664640   0.0204104  60.4462290  22.9047656  26.4526606  43.1551933
  23.6996818  25.9194255  43.1565857  23.1055737  27.1804237  42.5667477
  49.5596743  29.7629833  53.8023186  49.0363789  29.8605371  53.0067825
  49.0710354  30.2431798  54.4708061  76.9596291   0.7256092  75.6499577
  76.3917780   1.2289639  75.0665140  76.7221260   1.0210103  76.5289116
  13.6814162  78.5495275  69.5254183  13.3265158  79.4098496  69.3015337
  13.9651105  78.6368865  70.4354286  24.1782355  33.5158968  37.7292848
  23.5046339  32.8849435  37.4755287  23.7296629  34.1203213  38.3206272
  56.2860929  63.8811511  37.2777200  56.8292354  63.0930251  37.2684550
  56.7982965  64.5191926  37.7744913  28.6327836  70.6928009  65.9142542
  28.3676430  71.1654729  66.7032528  27.8192183  70.5663186  65.4260540
  23.3672738  21.6800094  73.6897945  23.2663226  20.7775664  73.3870745
  22.4839711  22.0465398  73.6490297  89.6734391  71.6598338  33.6062956
  90.5915366  71.5721828  33.8625073  89.1899787  71.1825508  34.2806101
  80.9563545  84.7191706   1.6387351  81.8783572  84.6799269   1.8929084
  80.9222320  85.3986874   0.9654458  27.1832776  15.4843998  42.8589773
  27.9177809  16.0850859  42.7328348  26.6505122  15.8969522  43.5388231
  41.9706106  16.0822165  43.1495094  41.2801838  15.5472851  43.5411644
  41.5785980  16.9508052  43.0594349  23.7619781  12.7010369  71.3776636
  24.1717792  13.0955362  72.1475124  24.1591358  13.1562483  70.6351852
  52.7694515   8.6851802  12.1363910  51.9935325   8.1246653  12.1358951
  53.1343034   8.5883632  13.0160125  26.7097044  19.5620394  43.2593822
  25.8884239  19.2312872  42.8956032  26.5951252  20.5120230  43.2845449
  65.2562802  70.1466888  46.4417219  65.9364890  70.7084280  46.0702419
  65.5724801  69.9367911  47.3204660  42.7964067   2.9774031  65.3208494
  42.2317600   2.8241485  66.0784245  42.1926546   3.2088584  64.6150494
  49.2517308  48.7808215  11.6613753  49.8099819  48.7119934  12.4358733
  48.4349898  49.1586053  11.9876369  35.6431985  29.2054534  76.2292337
  35.3266287  30.1019907  76.1186123  35.2875876  28.9283562  77.0736217
  10.6417097  45.4349255  26.0138972  10.7990946  46.1918822  26.5782340
  11.4158453  44.8841544  26.1305125  20.1832816  82.2911155  65.0700045
  20.8765027  81.6397744  64.9630737  20.3756139  82.9562908  64.4091082
   6.6034171  84.9492785  46.2591839   6.1395761  85.7737121  46.4054441
   6.4418527  84.4394606  47.0530462  40.2355099   7.9571986  51.8224430
  40.2916479   8.8040584  52.2650576  40.0024986   8.1737751  50.9196520
  92.9451357  84.5580539  41.8721533  93.0329405  84.4649163  42.8207588
  92.9537665  85.5034423  41.7224932  46.5170383  15.0356066  60.5813742
  46.7298937  15.9545290  60.4185629  45.6402969  15.0571525  60.9648991
  74.6287063  37.7510473  15.9848960  75.2703527  38.0537644  16.6274531
  74.7329524  36.7996248  15.9722312  62.6485613  37.4071535   4.0120872
  63.1511167  36.7689362   3.5057719  62.6089648  38.1810120   3.4501155
  32.3339272   5.4261202  62.5780439  33.1869364   5.6260455  62.1925068
  32.4735427   4.6100435  63.0584145  19.8256838   4.4935000  46.6867447
  20.6858730   4.4285533  46.2719107  19.9840987   4.2674491  47.6032782
  36.6897750   7.6375663  36.8904877  35.8582115   7.1638894  36.9096446
  37.2543335   7.1548742  37.4942374  91.8260949  38.5888481  67.9337120
  92.3799196  39.1751909  67.4182367  90.9359198  38.9075828  67.7846193
  66.0413245  48.4293675  19.1023048  65.9889630  47.7266356  18.4544929
  66.1119464  47.9759610  19.9423392  44.0148497   9.9624193  52.7624607
  44.8631859  10.0429952  53.1984234  43.5762739  10.7953346  52.9360628
  34.7448182   9.7424626  63.3781576  34.4068527   8.8480616  63.4235287
  34.1659856  10.1860631  62.7581549  70.9277021  72.9564041  71.1589956
  70.2506517  73.5069126  70.7655764  71.7512070  73.3811754  70.9189081
  50.9021869  49.5019921   6.5078719  50.4680601  50.0136778   7.1904739
  51.6099742  50.0672492   6.1984237  12.5490761   7.0438135  43.5761976
  12.7266026   6.2339383  43.0978489  13.2942319   7.6096100  43.3740902
  26.9398321  31.3329843   7.0900043  26.1158956  31.6057876   7.4936469
  26.7008794  31.0971692   6.1936172  54.6635199  44.7204161  72.7092361
  54.4923306  44.6087885  73.6443615  54.4553614  43.8690853  72.3243427
  56.2696838   2.4587175  57.1599054  55.8727932   2.8240302  57.9506350
  55.9313011   3.0027875  56.4487648  33.3296180  13.0633283  34.9831676
  33.3113360  12.1156752  34.8495626  32.8042960  13.4166098  34.2652106
  12.2216126  74.5575041  59.4686890  12.0583054  75.4462641  59.7843933
  11.3494202  74.1814595  59.3499565  92.2365414  72.2095531  44.4876337
  92.0336829  72.3180789  43.5584927  92.1407853  73.0870789  44.8577785
  84.3065270   9.4354320  46.8768644  84.5927151  10.1535034  47.4414015
  83.3518352   9.5040399  46.8674707  58.3252576  41.0821643  21.3960250
  59.1150120  41.6207656  21.3467200  58.6243037  40.1984224  21.1820014
  64.4386053   6.7434156  67.4520683  64.7120333   6.4093018  68.3063745
  64.6713400   7.6716715  67.4722576  61.3010028  72.6718920  73.1178141
  60.6198068  72.7057475  72.4462080  61.9823816  72.1157998  72.7400351
  38.6370349  15.3098512  47.6721144  39.4276190  15.7773757  47.9416180
  38.2947135  15.8210516  46.9388199  20.6714055  77.1685630  40.8650446
  20.6225726  77.5186974  39.9755216  21.1211869  77.8490323  41.3659334
  33.9587259  13.2606947  37.3565340  33.4057188  14.0086317  37.5823760
  33.7571859  13.0825388  36.4379096   5.1150390  53.3869475  47.7430916
   5.5272147  53.9469427  48.4009266   4.8222706  52.6181620  48.2324648
  66.4639044   8.5074383  73.5854959  66.0004902   9.3437546  73.6308193
  66.4249134   8.2617933  72.6611757  42.4008909  41.3130930  30.5729278
  42.1417263  42.2155854  30.3869899  41.7747644  41.0152155  31.2328323
  19.4098103   5.0626737  61.7422676  19.2291498   4.6909958  62.6056623
  19.4981968   6.0026622  61.8998814  62.7244142  36.4329925  19.9685176
  62.4287513  36.6712287  19.0898402  63.6491540  36.6795960  19.9851306
  57.1418193  11.2872043  38.8053973  57.6345566  11.7360321  38.1183704
  56.4653996  10.7995716  38.3353885  78.2921003  84.2614999  40.5361319
  78.4565316  84.1910541  41.4764690  78.2150255  85.2021035  40.3762674
  24.6892408  54.5427409   2.0812829  23.7482616  54.4296244   2.2154315
  24.8424307  55.4753128   2.2331889  86.2222873  81.3261759  60.5551291
  86.4896976  81.1060375  61.4474678  85.2657520  81.3396555  60.5881834
   0.6070820  21.0016966  73.3748436   0.4631851  21.6738009  74.0410280
  -0.2529654  20.8728719  72.9749012  65.3505418  81.6788828  45.4841280
  65.2223107  81.7910111  44.5422077  65.9741971  82.3641920  45.7242012
  22.9643008  71.3410133  68.4220219  22.0953891  71.6411775  68.1553268
  23.3062503  72.0504731  68.9660549  75.3368905  74.3555918   8.8461860
  75.4250434  73.7463680   9.5791896  74.7870067  73.8922062   8.2144149
  17.7818295  81.5695000  49.4870996  17.7288481  82.2176391  50.1894808
  17.2936103  81.9608599  48.7627316  19.0643260  51.7850107  30.0461888
  18.2301995  51.3951033  30.3077912  19.7246596  51.1572617  30.3396654
  79.9452101  44.6153969  56.5877724  79.1714929  44.1835302  56.2257147
  79.9891733  44.3083280  57.4933147  72.1005586  28.0120399   5.3668578
  73.0573896  28.0195322   5.3413756  71.8418315  27.6192501   4.5331843
  56.9223216  60.1153400   2.0125707  56.4648727  60.9119144   1.7434199
  57.1600011  59.6862891   1.1905845  45.0775576  21.8773293  65.3893423
  45.7566118  22.5176668  65.6016779  44.4866610  21.8962908  66.1421442
  69.4703916  83.2113162  23.6126693  70.1856378  82.8093329  23.1196483
  68.8946083  83.5792652  22.9423602  44.4024038  17.3477888  61.9009447
  45.1645756  17.2516835  62.4719858  43.7451744  17.7768064  62.4488735
  59.8889637  42.9408216  62.0993280  60.0244093  43.2343578  63.0002880
  59.3249083  43.6099768  61.7116451  52.5891399   8.5917854  31.9739485
  51.7630482   8.5930818  31.4904189  52.7261162   7.6747334  32.2116137
  16.7318583   4.5180207  48.3207464  15.8688593   4.6982145  48.6935663
  16.5883756   4.5166036  47.3743629  50.8385530  70.3662386  12.1798881
  50.7243243  71.0720101  12.8163417  51.6827729  69.9751845  12.4048408
  69.1019300  44.0189916  22.4070438  68.9563730  44.6779556  23.0858691
  68.5294345  43.2920908  22.6521762  65.4515839  31.9563937  72.0026302
  65.1749611  32.7241802  72.5028467  66.3387203  31.7751622  72.3130703
  70.2599716   0.5072789  47.2179604  69.9816847  -0.3658447  47.4944448
  70.0840807   1.0657111  47.9752254  16.3927571  24.9362275   5.3528197
  16.9424264  25.4671427   5.9292110  16.4714210  24.0472504   5.6988986
  88.0455783  60.9995404  26.1058124  88.2845357  60.5429378  26.9124396
  88.8120178  61.5334955  25.8967860  16.9014394  25.8195424  50.2585888
  16.0176396  26.1095858  50.0327492  17.2841585  25.5461645  49.4249058
  58.1570292  18.8422477  76.9435835  58.8839054  18.4129393  76.4923859
  57.6748180  18.1258619  77.3564911  43.9070812  59.4913772  13.1074126
  43.7066880  59.5922306  12.1768745  43.1312397  59.8261061  13.5571464
  85.0140098  64.3206182  15.5238803  85.2693513  64.4426861  16.4382823
  85.4695371  63.5237565  15.2523311  40.7356024  23.4990883  60.8085442
  40.8086395  24.2994785  60.2886629  40.1488686  22.9373097  60.3022051
  43.8979855  65.5257955   0.5267795  44.6055439  65.1536003   1.0531505
  43.2021216  65.7108322   1.1574681  83.2098103   5.7230216  75.8372879
  83.5737324   6.6083443  75.8372974  83.3214760   5.4181558  76.7377424
  56.5007210   3.6140555  51.5173435  55.6651974   3.6520594  51.9828415
  56.8982267   4.4716296  51.6683054  41.0027027  12.4394238  70.6269264
  41.3961220  13.3010590  70.4889584  40.3207922  12.3775995  69.9580336
  58.2925177  23.0611658  64.0748262  59.0050840  22.8811049  63.4615946
  57.8617477  23.8387489  63.7198162   0.2478327  56.3054147   8.9447482
  -0.4970061  56.6367379   8.4430869   0.2936519  56.8769744   9.7112067
  20.3280322   3.4869048  20.0019343  20.1369874   4.4108054  20.1636108
  19.4727675   3.0913350  19.8337730  45.0640821  43.5229063  67.9962111
  44.5786524  42.7919626  67.6137114  45.8820057  43.1323385  68.3039284
  59.3414953  52.3027327   7.8787883  59.8730543  52.7838960   7.2446330
  59.9764612  51.8101719   8.3988269  88.5293296  57.1101776  13.4424289
  87.7451375  57.4414792  13.8800605  88.2064870  56.7380872  12.6217349
  25.9504294  42.4659443  64.4355583  25.9957099  41.6527462  64.9384403
  25.1238918  42.8675365  64.7034931  70.6916097  81.0609189  14.6601756
  70.7759360  81.2444582  15.5958255  71.5429166  80.7027951  14.4086726
  73.7010740  80.8679306  49.0669155  74.3807708  81.0534638  49.7148514
  73.6377119  79.9129313  49.0530109  84.6219972  77.4859658   3.5381778
  84.9995330  78.3119169   3.2356914  84.8130134  77.4645009   4.4758781
  52.7703574  57.4645498  27.5808128  52.2090891  56.9160548  28.1288703
  52.1845797  58.1396225  27.2382148  27.7124906  47.3664713  57.6232958
  28.6308074  47.3285294  57.3559332  27.7075648  47.0152330  58.5137129
  88.8549808  85.4179802  19.5504459  89.3619922  86.1392966  19.9231036
  89.2898467  84.6282759  19.8721393  39.0606594   7.3950589  61.8760395
  38.2120514   7.0767581  61.5681744  39.0979552   8.3039743  61.5781927
  49.2214203   6.0526890  37.7017093  49.8570299   6.1365533  38.4124804
  48.5299492   6.6761583  37.9239464  81.9569972  41.3349697  14.7481139
  82.5263026  41.8924191  14.2176612  81.0982373  41.7550337  14.7000964
  63.6104635  46.0220204  11.0747893  63.0160025  46.6920602  10.7373031
  63.4629086  46.0253048  12.0205386  10.2372500  88.3793972  36.5392041
   9.8177621  87.5932796  36.8888927  10.1333853  89.0337603  37.2300386
  62.4287796  52.8652334  74.6539545  63.1207848  53.4887505  74.8743916
  62.7988338  52.0097876  74.8719025  90.0010637  21.4819708  31.8122848
  89.9260286  21.0673919  30.9527858  90.9398750  21.4780131  31.9989665
  37.9361272   7.2923851  65.7147932  37.4097514   6.8941295  66.4080143
  38.6195660   7.7746952  66.1801100  94.2520558  75.1424390  47.6538658
  93.7106096  75.8234948  48.0529022  94.7553932  74.7790784  48.3824587
  44.8581171  51.8709469  68.7914562  45.3797293  51.2338448  69.2795658
  43.9550114  51.6921902  69.0535355  66.7992786  70.2723947  22.5606998
  67.2465018  70.8928862  21.9851859  65.8925393  70.5781808  22.5841315
  53.6688402  54.3414685  20.3145106  53.3202365  54.2035696  19.4337733
  52.9021052  54.2947331  20.8856185  56.4835644  13.9229572  75.5749798
  55.9744167  13.1638503  75.8591557  55.8307266  14.6067607  75.4251671
  -0.0358330  47.8742224  47.2720130   0.1263775  48.6188274  47.8512271
   0.8115591  47.4342137  47.2045310  39.7175622   2.4789242  55.5592489
  39.5379591   2.1958230  54.6626854  39.2110991   3.2846344  55.6620026
  86.0164359  56.7816081   8.2522853  86.9449857  56.8390086   8.0270465
  85.8225539  57.6141420   8.6830123  24.0942876   0.1285407   8.2563003
  24.8776547  -0.2045730   8.6940272  23.7702910   0.8173939   8.8365920
  79.7360325  17.6449001  56.0531855  79.1405869  17.1458006  55.4940987
  79.2712975  18.4633410  56.2275743  24.6390721  86.1881658  75.7179070
  24.7380158  87.1398675  75.6913424  24.5997378  85.9773982  76.6507816
  76.0818294  43.6438884   6.1809714  75.5003408  44.1807829   5.6425937
  76.1545995  42.8172672   5.7038577  82.6847795  50.5678192   9.6040137
  82.2626689  51.4047071   9.7981055  82.0858768  50.1324966   8.9973529
  80.7398704  54.3098631  23.9281924  80.0325778  53.6780199  24.0575870
  80.2938751  55.1245585  23.6966975  60.8945683  42.0348410  18.4286292
  60.9039310  42.0738490  19.3849929  60.3167632  41.2995007  18.2245525
  87.1371078   1.2936109  11.1693299  87.0621204   1.5926988  10.2631533
  86.4915371   1.8140140  11.6475081  27.7064705  82.0298114  17.8732474
  28.0386964  81.4159623  18.5282691  28.4385273  82.6242438  17.7090152
  32.7203083  36.3653779  55.9364367  33.5804272  36.6487217  56.2465048
  32.1652985  36.3879728  56.7159748  74.7214985  21.7855430  76.2773752
  75.5482483  22.1425772  75.9529638  74.9069166  21.5368748  77.1829224
   6.4422620  45.8919117   6.3552650   7.1313490  46.5348264   6.1877902
   6.1303390  46.0991160   7.2361739  48.1257772   6.5616572  74.5527649
  47.4072599   7.0956886  74.2139816  48.8938713   6.8548036  74.0625334
  83.7324432  80.5631652  15.3177817  84.5475057  80.8080855  14.8796924
  83.0808500  80.5418959  14.6169170   9.1796920  88.5119526  68.9720201
   9.5467660  89.0759780  69.6527290   9.3129822  87.6226939  69.3001747
  20.2504992  10.2319014  67.0343065  20.1142359  11.1785960  67.0721579
  19.7298419   9.9447840  66.2841654  56.6809607  37.2593498  70.0645828
  57.5221825  37.7075505  69.9768782  56.8976641  36.4209032  70.4723501
  35.3173161  29.9594736  71.9880056  35.1620007  29.6823573  71.0850525
  34.5017934  30.3858805  72.2513151  15.9410044  85.6423774  64.5368671
  16.3989588  85.4214001  65.3478384  15.1677224  86.1284178  64.8232746
  90.8920743  35.6399751  52.4731255  90.9219392  35.4876804  51.5285921
  90.4932409  36.5054011  52.5636959  68.5757163  25.9063676  22.5915511
  68.1256560  26.4012399  21.9068797  69.3325570  26.4463666  22.8192027
  43.9754340  86.9484687  52.9303360  44.8948666  86.7741400  53.1315470
  43.9481827  87.8830185  52.7251387  62.8109959  70.8202758   1.7615207
  62.5107911  70.9509864   0.8620675  63.0968526  69.9071470   1.7883046
  80.9700397  43.4702166  22.1428664  80.0296357  43.4867857  21.9651111
  81.2661556  42.6320320  21.7879089  56.5848446  30.5687022  76.3007307
  56.3701200  30.3670073  75.3899908  57.5257635  30.4057670  76.3667059
  33.3786988  19.5546353  55.6898785  33.7120867  18.6638248  55.7973051
  33.9997697  19.9724936  55.0933075  58.6630917  39.6216631  71.9605160
  59.5316648  40.0222492  71.9238806  58.6451149  39.0202379  71.2160730
  91.0142282  69.7990146  12.0006545  91.9436124  69.5735422  11.9602378
  90.9923700  70.6458130  12.4463924  45.8086824  27.6216054  73.3074856
  45.2940083  27.1087003  73.9305973  45.5755758  28.5307741  73.4953833
  78.3802703  83.9149824   2.1512921  78.0791429  84.4968596   2.8491243
  79.2064527  84.2996278   1.8585427  31.9214436  81.7087299  74.9389887
  32.7597901  82.0882982  74.6756601  31.2715766  82.1757400  74.4138145
  60.5022410  56.0276630  13.0547889  61.1739949  56.6960540  12.9197581
  59.7051910  56.5235403  13.2420047  51.5396097  41.4944720  19.8786624
  51.6925839  41.4118323  18.9373859  52.1624783  40.8864239  20.2768405
  45.5850697  13.3354688  66.6320419  45.8166075  14.1087663  66.1176157
  44.8568964  12.9388821  66.1538029  40.6699800  13.3541751  50.5921841
  40.4153538  12.4730766  50.3182077  41.2855911  13.6455977  49.9196339
  24.9508429  28.1888580  55.1905537  24.6879673  28.6568356  54.3980122
  25.7690740  28.6085463  55.4562473  26.8694997  38.2476950  56.6659737
  27.8031039  38.3553767  56.4842653  26.6517687  37.3901081  56.3007736
  39.5222974  23.1632566  73.0676794  39.3634748  22.2319651  73.2216406
  39.6216512  23.5372281  73.9431810   5.3100790  69.8098984   1.9129356
   5.8154072  70.6215587   1.8672593   5.7664121  69.2801276   2.5666459
  53.9403799  66.8151727  25.7536109  54.0008405  65.8935323  25.5023082
  53.0034378  66.9695964  25.8741267  82.0193485  84.6624890  31.3701900
  81.5287736  84.5341912  30.5583270  82.8927997  84.3209281  31.1787589
  41.5140483  86.7344382  55.7940340  41.6753241  87.4253863  55.1515293
  40.6219050  86.4401503  55.6104422  42.3608828  42.2672987  72.1456861
  42.8213835  42.9828978  72.5839615  41.8211412  42.6996088  71.4838505
  35.5315495  36.7924261  71.3321829  34.6090269  36.6985178  71.0947800
  35.8617282  35.8947682  71.3699389  11.9829154  20.5699253  32.5865889
  12.2419453  20.3568029  31.6900873  11.5821636  19.7661495  32.9176044
  44.2038584  13.3965182  72.7942085  44.3185234  14.2598867  73.1912994
  44.9818611  13.2782865  72.2492647  36.5183973  42.9519939  56.8499422
  35.9830141  43.7446880  56.8850470  35.9328651  42.2542810  57.1441936
  61.6885594  68.9267698  42.6107581  61.0667947  68.3343664  43.0334838
  61.8704751  69.5946184  43.2719024  19.0674105  87.9737320  25.1415523
  18.8664714  87.1930209  25.6576427  19.7070912  87.6753512  24.4950183
  72.8591111  47.1878537  17.8732570  73.0088857  48.0240372  18.3143886
  72.8229907  46.5460083  18.5824569  35.1995182  66.8417025  40.9846115
  34.6653032  67.4138880  41.5354729  35.8173800  67.4324846  40.5539656
   0.5809995  80.9291327  49.9826288   1.0085937  80.1438373  49.6410084
   0.3231618  81.4200884  49.2024279  64.5023516  74.3809357  12.9450591
  64.0368250  73.5483017  13.0240138  65.4284552  74.1423216  12.9854186
  32.6286578  46.6233826  55.9190750  32.0688653  46.6635799  55.1436710
  33.1290197  47.4390554  55.8957958  71.3400009  63.7764004  24.1940768
  72.0102075  64.4491783  24.0739616  71.1556938  63.4612623  23.3092292
  77.9135707  69.9478212  17.9709323  77.8330425  70.7019082  17.3868926
  77.0128968  69.7405663  18.2200702  16.2975645  49.1237783  55.3568411
  15.8086956  48.8036346  56.1149597  16.7695224  49.8902464  55.6824398
  35.8391523  22.7101493  75.4138327  35.9568930  21.8011093  75.1381254
  35.6955671  23.1909752  74.5987082  30.0449324  16.4946485  60.0785446
  29.7813106  17.2822475  59.6027088  30.5008841  16.8240857  60.8530235
  38.8571644  27.7067256  62.9992342  39.2664528  27.5344062  62.1512842
  39.2367148  27.0524001  63.5857773   0.5690921  72.7107206  31.9937976
   0.9456600  73.5816327  32.1200545   1.1475338  72.2895422  31.3579925
  75.2678274  84.4104123  54.2950678  75.7080172  84.9430793  54.9574327
  75.9480392  83.8194156  53.9721680  40.4180476  86.9340962  42.5822067
  40.2039334  86.2887195  41.9085026  39.6075055  87.0378786  43.0806875
   4.5308174  42.8174378  10.1692660   4.5889438  42.7713337   9.2149432
   5.3842939  42.5115517  10.4762538  17.3591471  22.7845478  52.3686266
  16.6021299  23.3591938  52.2548771  17.8836942  22.9204154  51.5795612
  31.6651246  62.9059547  64.0557957  31.6511771  63.5363024  63.3355856
  32.5683400  62.9237360  64.3721962  91.7986539  73.8233438   2.4861796
  91.7130378  74.6829381   2.0738681  92.6010659  73.8851252   3.0043967
  44.3495321  11.0314608  76.1695385  44.9012709  10.9792840  76.9499826
  44.1321135  11.9603765  76.0915899  52.4592876  16.5064478  42.3090982
  52.8918934  15.6578541  42.2143698  51.5356064  16.2912798  42.4385357
  22.1215483  77.7208310  56.3085175  21.5643403  78.3395439  55.8363438
  22.9021069  77.6354819  55.7610893  19.3453118  81.5914524  68.7606001
  19.3221804  81.1230904  69.5950651  20.1758763  82.0670235  68.7758112
  47.8070906  76.1296525   2.5452598  48.1641463  75.2678099   2.3308595
  48.4658614  76.5268841   3.1148799  35.9888411  27.2516227  65.4893494
  35.3899670  27.4629259  66.2055397  36.3492560  28.0968738  65.2212381
  86.7121223  62.6454785  12.0249065  85.8546689  62.4875763  12.4199660
  87.1705011  61.8090084  12.1051391  65.8343267  40.2444124  56.8787956
  66.3675070  39.4917703  56.6229057  66.0792303  40.9327650  56.2603855
  78.2584813  80.4473582  13.2189448  77.8900102  81.3290015  13.1626590
  78.0673316  80.0531068  12.3679145  13.7323615  59.5005339  29.0991998
  13.5705182  60.1314300  28.3977675  14.6643779  59.2950004  29.0261316
  20.6605911  15.0755930  68.7499714  20.4137754  15.1149678  69.6739674
  20.6303382  14.1436863  68.5334826  57.0869160  13.3105707  65.1015854
  56.2628508  13.7558937  65.2986526  57.5088692  13.1995559  65.9535599
  52.1707180  87.3183861  26.6757949  52.9809025  87.2504702  26.1706050
  52.4445894  87.6747742  27.5209125  28.0808187  49.8315144  48.5577106
  28.2739234  49.6996021  49.4859028  27.1635246  50.1044655  48.5403442
  62.9035071  62.6094153  18.2524760  62.8659466  63.4271410  17.7563460
  62.8838542  61.9233456  17.5852759   2.5576112  79.9544722  46.1062527
   1.6226193  79.7838521  46.2198782   2.7664277  79.5830435  45.2491236
  63.4906912  37.4283648  52.9369116  62.7250385  36.9647002  52.5977612
  64.2369318  36.9882560  52.5298929  30.1614714  14.5665526  73.3269978
  29.7412562  14.3544924  72.4935198  30.9468126  15.0557148  73.0816603
  75.1786092  67.5376358  39.4893630  75.6698421  66.9620386  40.0755485
  74.8921493  68.2602730  40.0479015  -0.1162802  74.1048208   4.1384299
   0.6546606  74.3780628   3.6412223  -0.4225098  74.9053278   4.5646270
  60.2032331  83.5712519  21.1371883  61.0371187  84.0058771  20.9583934
  60.2474073  83.3407608  22.0651706  85.3393605  29.2069414  22.1118339
  86.0920194  29.7980943  22.0952304  84.7231630  29.5860687  21.4850982
  55.6644011  42.1659374  75.1563501  56.3287449  42.1463680  75.8451939
  55.9963083  41.5681982  74.4864464  51.3052216  84.8552313  25.5756934
  51.3405481  85.7953730  25.7521136  51.5934971  84.4473210  26.3922294
   2.5376074   0.0446030  19.0668948   1.6710965   0.3454587  19.3405326
   2.9241149   0.7994744  18.6230357  17.2873303  59.7421545  67.0468473
  16.6655823  60.4292268  66.8068600  17.1261451  59.0417808  66.4146090
  41.1700964  31.9600272  53.3765411  40.5018473  31.4034963  52.9766083
  41.9781828  31.7319179  52.9169846  16.4310825   8.9847118  64.8402500
  15.4959583   8.7913626  64.9065113  16.5273356   9.4135135  63.9899015
  81.0176280  38.0693313   5.8164008  81.5503648  38.2627418   5.0450309
  80.3149608  37.5085655   5.4877265  58.7174034  30.2663517  66.6039515
  58.8489485  29.4364572  66.1454725  57.8246260  30.2126884  66.9449806
   7.4086094  27.8617859  55.7991076   7.2555768  28.3183026  54.9718189
   7.6306558  26.9670630  55.5414295  30.0242424  20.4475188  37.5098586
  29.5984721  19.7515821  38.0104828  29.5472121  20.4720902  36.6803598
  71.0456303  63.5075500   0.6447490  71.6803411  64.2198613   0.7221301
  70.6387857  63.4542742   1.5095456  44.0145922  15.0124454  24.5896268
  43.2701492  15.6126285  24.6322870  43.6251450  14.1417205  24.6696377
  76.8383884  25.4183698  52.8811502  77.4440193  25.6945586  52.1932793
  76.1519194  24.9387860  52.4174833  19.1655537  87.0068265  56.6025591
  19.1893670  86.7535476  57.5253344  18.8844964  87.9217804  56.6124964
  38.1486011   4.7392464  47.0478439  38.9241219   4.8733166  46.5030241
  37.4116731   4.9170494  46.4634180  40.5343151   8.1291962  75.9115362
  40.8882046   7.3503256  75.4821682  39.7071195   8.2966518  75.4599428
  81.7549661  67.5775924  22.6375468  82.5357726  67.0239511  22.6302703
  81.0631469  67.0115033  22.9798396  33.3916807  63.9778471  69.5730495
  33.3854699  64.8213911  69.1206980  33.5466862  64.1995764  70.4912233
  82.1585369  37.7310181  70.8184338  82.6268768  38.3730459  70.2848721
  82.7025414  37.6257467  71.5989494  18.3457422  21.7321444  74.5318079
  19.1582823  22.1090293  74.8693991  18.2641053  20.8933306  74.9856377
  34.9752474  11.5254807  67.9373074  34.8634911  11.2025368  68.8314247
  35.6309414  12.2186852  68.0132294  29.2197463  80.6339371  59.0257120
  29.3467948  81.1353916  59.8310900  28.6733243  81.1965394  58.4769583
  64.2192963  54.8843041   4.0069564  63.4107831  55.0408223   4.4948466
  64.3698982  55.6978622   3.5256370  41.1953592  10.4700601  38.5124469
  42.0370770  10.0665414  38.7243772  40.9417057  10.0717938  37.6798153
  72.2825909  12.7638745  69.1054916  72.9368019  12.0754743  68.9857388
  72.1778202  12.8322566  70.0544786   0.4437539  70.7288641  61.1979008
   1.2795040  71.1047369  61.4744377  -0.2028850  71.4029688  61.4068794
  65.9811910  85.6644341  41.9076920  65.3959094  86.4111610  42.0344830
  66.3702141  85.8087927  41.0451078  71.4134744  85.6571474  12.9564746
  72.2607663  85.6849471  12.5120051  71.1936405  84.7263327  12.9950030
  54.7747162  69.2029419  24.0606197  54.3290094  68.5374799  24.5847686
  55.5829623  68.7789336  23.7721904  88.0227521  29.5076731   1.5954669
  88.3525756  28.7036338   1.9966729  88.6963800  29.7525659   0.9610494
  61.8092489  28.6104298  41.2219572  61.9819164  29.1578913  41.9879246
  61.3633108  29.1927791  40.6069469  45.3557721  46.5998596  13.4607490
  44.8109880  46.7371984  12.6857741  45.1825491  45.6942558  13.7178596
  45.6170559  13.0245733  34.2113853  46.0830593  12.7178836  33.4335589
  44.6928120  12.9947031  33.9641809  76.1755708  59.2625966   5.6068023
  76.2642291  58.7884810   4.7800143  75.9032062  58.5958174   6.2372478
  66.8643618  25.4617929  53.2915115  67.6249027  25.0758386  52.8569365
  66.3312960  24.7109842  53.5529613  82.9181253  76.7491275  71.2118912
  82.7976345  76.5569919  70.2819490  82.2338806  77.3868233  71.4153290
  75.1757288  17.1760273  66.5184021  75.0171328  17.1923923  67.4622297
  74.6229076  16.4646995  66.1949348  73.9123058  33.0540514  65.7190895
  73.4249687  33.4724760  65.0094032  74.6540213  32.6330042  65.2845621
  49.0347675  56.6138056  27.7120669  48.1306508  56.7140987  28.0099662
  49.2699972  57.4748960  27.3664840  31.6797349  74.4426113  31.3852334
  30.7330987  74.4079548  31.5227675  31.9098326  73.5647553  31.0808396
  81.5668062  63.5090557  13.9421733  80.9942249  62.8947607  14.4015582
  81.4797166  64.3281069  14.4298251  81.1807919  41.8603039  70.5302954
  82.0076084  41.4718628  70.2444267  80.5617905  41.1301947  70.5340290
  83.5173658  79.3031016   8.2149871  83.6540750  79.3412104   9.1616042
  82.6880935  78.8364115   8.1113513  26.4267155  80.1666659  60.4580784
  25.9562918  80.9797305  60.6420946  27.0387503  80.3970015  59.7590876
   4.7990677  77.4886209  66.8008947   4.9402401  77.7011758  65.8783340
   3.9963767  76.9671911  66.8064356   3.5161293  60.3170729  76.5044928
   2.6257554  60.0770044  76.2479115   4.0435866  59.5485783  76.2866926
  79.9445966  37.5677344  11.9013198  79.5707944  37.9808089  12.6796992
  79.4129184  36.7830422  11.7678817  63.9195871   7.6434988  62.4155760
  63.5926628   6.7497408  62.5182867  63.1340408   8.1705582  62.2694397
  67.6781157  80.7526412  10.0761302  68.3327630  80.9899846  10.7328971
  67.6205424  81.5201631   9.5070727  21.5505815  21.6251278  54.3219137
  20.8334994  21.9682789  54.8550892  21.3990498  20.6803465  54.2961884
  72.9798749  56.8074038  16.1703189  73.2554725  55.8998838  16.0411437
  73.4744504  57.3031130  15.5177100  78.8237956  72.1814599   3.3209975
  78.3117440  72.8686872   2.8946717  78.6171439  72.2710195   4.2513259
  65.1587132  86.8784085   4.3424876  64.5193294  87.3616639   4.8658259
  64.7719506  86.0095492   4.2342075  39.3985939  28.3356977  50.4045725
  40.2723074  28.4260726  50.0241947  39.0214396  27.5762129  49.9605322
  47.5152203  83.6636358  76.3691378  46.5612361  83.7139392  76.3090086
  47.7107426  83.8984722  77.2762489  14.2229807  41.9750977  70.5820179
  13.8257933  41.1318731  70.7998466  14.4986665  42.3349142  71.4250851
  63.6736965   8.8647401  50.0833464  63.0982018   9.6280169  50.0338888
  63.1192541   8.1294233  49.8223257  59.6662092  11.0092711  40.7802582
  59.6639776  10.5564201  39.9369574  60.2191591  10.4663920  41.3421822
  56.4830399  30.6176257  68.0547810  57.1672344  31.1137438  68.5041952
  56.0522604  30.1200151  68.7497997  60.9734201  20.7390976  53.7904692
  60.3413439  20.0238872  53.7184906  61.7819405  20.3160191  54.0794945
  17.1717656  19.9058819  73.0831194  17.6215696  20.6992483  73.3737659
  16.3460946  19.9076271  73.5673666  77.4205259  52.2662011  14.1248973
  76.9250062  51.6626379  14.6784289  77.7513889  52.9296717  14.7303470
  40.7647800  26.8297100  57.2690725  40.7525921  27.4906731  56.5768194
  39.9199319  26.3864207  57.1918726  54.8805141  27.3233771  75.8217287
  55.5789995  27.8174090  76.2510109  55.2167320  27.1475720  74.9429321
  38.3141825  58.1101778  28.9861663  39.0721902  57.9988673  28.4123500
  37.7836386  57.3276153  28.8366588  53.3488131  29.5761180  60.6126404
  53.9543724  29.4610453  59.8803186  52.7048063  30.2084422  60.2938128
  67.4055746  85.8069601  52.1974452  67.4573329  86.5064755  51.5461047
  66.7367581  86.1034527  52.8147014  45.5550411  40.1500082  21.2789806
  45.1299027  40.9004375  21.6941245  45.4682055  40.3147226  20.3400691
  86.7746452  62.4598923   9.0013106  86.6805366  62.6213470   9.9400886
  86.8762162  63.3308676   8.6174853  69.1725969  17.2797930  57.0680475
  69.7464991  16.9687128  57.7681160  68.6346626  17.9549646  57.4815702
  81.1659450   4.9485204  13.7629397  81.5311688   5.1465127  14.6252902
  80.4985386   5.6207415  13.6254104  35.3764033  25.2399969  76.5417242
  36.1358833  25.7517910  76.8200970  35.6271410  24.3308592  76.7055368
  78.0051708  36.8727803  76.4015675  77.6581335  36.7347932  77.2829103
  78.0815887  35.9924054  76.0336971  83.7271309  57.3321581  54.0257692
  83.5812664  56.4215803  54.2822933  84.6751881  57.4001932  53.9126396
  56.9336128   7.5729936  60.9735107  57.1907234   6.7069590  60.6571102
  56.6731977   8.0485934  60.1847029  59.9019602  74.7424617   5.9005435
  59.5643023  74.0407672   6.4571746  60.6635621  75.0778833   6.3734992
  84.4823793  84.5199385  15.0695212  83.6322025  84.5327750  14.6299060
  85.1143697  84.3784228  14.3646892  63.3829403  21.2007666  49.3922520
  64.1307640  21.6704583  49.7615528  62.6226997  21.5693259  49.8421717
  34.4760768   2.1695897   1.9380983  35.1765649   2.8219315   1.9370731
  34.8508136   1.4164731   2.3948510  60.7836723  48.4493589  54.3966913
  60.9646940  47.6829004  54.9407578  59.9794292  48.8179493  54.7621441
  60.5360126   3.9544910  62.5681543  60.3523397   3.8325119  61.6366959
  61.3937807   4.3787575  62.5895834  37.4503446  39.8140883  31.7188311
  37.0737362  39.7884083  30.8392072  37.2937846  40.7089615  32.0203710
  34.8784733  39.5624661  70.8747005  35.2441835  38.7776732  71.2828493
  34.5180464  39.2542243  70.0432491  76.6224337  53.9449501  71.6893244
  76.7427063  53.1847715  71.1202145  76.4850903  54.6759129  71.0867739
  81.0786057  52.2317505  71.9528008  81.9682884  52.0073414  72.2254610
  80.5155945  51.8099642  72.6019192   2.3903284  19.4759881  62.0509720
   2.2741518  19.2121542  61.1382151   1.6318713  19.1086245  62.5048637
  86.1293128  70.2927986   7.2398742  86.4286712  71.1978832   7.1536239
  85.1937726  70.3299609   7.0408328  14.8685135  68.4447875   3.3344062
  15.4941190  68.4059825   4.0578349  14.2261518  67.7645245   3.5365089
  86.6431414  77.6892835  50.1179552  87.4464523  78.1876558  49.9677944
  86.9457423  76.8301815  50.4122448  18.6988939  65.6546607  24.9056800
  18.9938749  64.7726264  24.6793349  17.7614797  65.5580225  25.0734408
   1.5747894  84.4340339   9.1022380   1.8383468  84.5030108   8.1846221
   0.9861530  83.6796060   9.1262992  25.1192774  84.0418997   7.1187766
  25.0045503  83.9785519   6.1705955  24.6726621  84.8533144   7.3603900
  70.1127386  38.4066987  66.1006784  70.2866936  37.8194928  66.8363142
  70.3735495  39.2714310  66.4176083  46.6117764  32.4928737  71.3615131
  46.0341263  33.0425143  71.8910885  46.3360023  32.6551414  70.4593754
  93.1460667  31.4424658  76.4797974  93.0520821  30.8239198  77.2042274
  94.0022278  31.8469739  76.6197824  19.9617402  24.5546672  22.2531875
  19.3899695  23.8860127  21.8760665  20.6398789  24.0588662  22.7120383
  78.2128337  37.7182725  23.0824931  79.0224698  38.1861505  23.2869704
  77.6676944  37.8313115  23.8611301  46.6236305  39.4672966  47.0327425
  46.6639614  39.9977779  47.8284788  47.4461937  38.9778042  47.0292616
  16.0514606  65.9920969  25.4320701  15.4997076  66.7297807  25.6921180
  15.4991974  65.4749432  24.8457320  79.0480903  88.4718981  25.4202541
  79.8662856  88.9653054  25.4780563  78.6706117  88.7316695  24.5798572
   9.1845052  11.0866973  10.1207145   9.4037978  11.8750808   9.6241267
   8.3462040  11.2903210  10.5354674  68.4027815   5.8378154  44.1310501
  68.1566238   5.9445500  45.0498772  67.8122520   5.1601201  43.8020515
  79.0974572  67.2158947  17.4561580  78.2484344  67.5704828  17.1922382
  78.9580587  66.9000688  18.3489402  29.3030119  35.1892281  59.8508692
  28.4386444  34.8767304  60.1181650  29.7988486  34.3919587  59.6644831
  80.9116748  65.0085988   9.6847900  80.0096229  65.3247157   9.6337493
  81.3783839  65.6926551  10.1648791  10.3616108  38.7024399  26.2308677
  11.2398351  38.9281973  25.9243091   9.8243059  38.7013778  25.4386981
  26.4716887  21.5716124  29.2364287  25.5426669  21.6658688  29.0260410
  26.4834428  21.3105273  30.1572585  90.7845453  55.7278314   5.3883250
  91.1446479  56.6145721   5.4040702  91.4633134  55.2011362   4.9663051
  75.6983188  80.5677500   1.0427125  76.0480598  81.4559570   0.9719833
  75.4707244  80.3277269   0.1444800  55.9892654  36.6657591  74.8782539
  55.6050539  36.1843753  74.1455317  56.8878460  36.8456197  74.6017981
  58.5813808  20.7533646  65.9106684  58.9157438  21.3489246  65.2400398
  58.1130457  20.0783205  65.4195404  20.7656206  75.4501262   1.5033754
  21.4042009  75.8139315   2.1166356  20.9056486  74.5041361   1.5449126
  52.1417522  26.3575172  53.2392931  52.5014830  27.2136140  53.4715128
  51.2061787  26.4317966  53.4274817  24.8866571  70.3277340  22.9893191
  24.1188253  70.0333133  23.4792026  24.7299494  71.2594381  22.8356727
  28.9867926  31.7021894  64.8632574  28.6206722  31.0226941  64.2971563
  28.6816549  31.4727187  65.7410192  42.0902920  35.9121609  65.6331444
  42.1178150  36.7125559  65.1088953  43.0086136  35.6642056  65.7401037
   9.3896259  81.2374344   7.5959952   9.6941723  80.8569923   6.7721351
   8.7621893  80.5998984   7.9367431  77.9583406  50.8790255  56.2202024
  77.6699829  50.6086206  55.3484440  77.5109625  51.7113304  56.3730049
  69.0868330  63.7232685  58.8160467  69.0409613  62.7913094  58.6025524
  69.5869970  63.7578630  59.6314430  47.0179749  35.9679222  46.5665483
  47.7664232  36.1973691  47.1173763  46.2530136  36.1987305  47.0936060
  18.3520426  53.2982811  27.8563674  18.9433969  53.9317480  28.2628711
  18.2751573  52.5946429  28.5007461  18.1406180  15.2395436   7.9569991
  17.3798291  15.5919310   7.4952109  18.1170527  14.3000314   7.7753432
  58.3663177  24.1777277  73.1303787  57.5969028  24.4713593  72.6425076
  58.0126238  23.6160517  73.8200521  61.7932701  29.8964119  55.8130407
  61.6362953  30.2099657  54.9223804  60.9235811  29.8611927  56.2113285
  83.1641248  70.3976574   1.4704116  83.4629634  70.4615012   2.3775228
  83.7972024  69.8156181   1.0500796   6.0728465  24.4859433  70.9127474
   5.4166422  25.1099324  70.6024647   6.8529234  25.0175929  71.0710430
  29.3752591  25.2824065  23.0351527  29.0406529  25.6827876  23.8376220
  29.2453782  24.3428609  23.1640704  13.7781903  72.4578184  39.5737576
  14.6114537  72.5569755  39.1132474  13.1143805  72.5499588  38.8903141
  18.1185865  21.8221688  71.1059809  17.5502384  21.0550594  71.0370207
  18.0801070  22.0664144  72.0306921  76.8983793  46.5804195  66.8749285
  77.2733498  47.1285295  66.1855793  75.9533548  46.6260290  66.7297220
  36.0200231  11.0629889  27.4239238  35.6020658  10.3222796  27.8631194
  35.9393994  10.8647963  26.4909442  33.6977593  11.8914124   7.6680167
  33.7119977  12.8313348   7.8485187  34.6169822  11.6268012   7.7032836
  76.8479446  55.0249472   6.8652232  77.2771076  55.0766304   7.7192577
  76.1893943  55.7192996   6.8856891  80.9197095  67.8841582   5.8208068
  81.2212375  66.9845143   5.9471210  79.9679282  67.8322711   5.9082873
   5.0042230  56.3017035  70.5841112   5.5027956  56.6566086  69.8481083
   5.0455952  55.3527164  70.4660273  17.4106312  28.9061332  68.7450361
  18.0449355  28.5989642  68.0973196  17.9381275  29.3687010  69.3962002
   4.4918772  70.9283191  61.1383486   4.1176697  71.8065923  61.2079000
   5.4345748  71.0750812  61.0608006  40.0055186   8.2114360   7.0102676
  39.2676036   7.7344701   7.3900302  39.7995774   9.1334244   7.1643909
  31.6267313  30.3221968   6.9239886  30.7670129  29.9014595   6.9338306
  31.7117227  30.7137683   7.7932914  71.5226269  32.4833083  76.7899513
  70.7264185  32.1624398  76.3664818  72.1893597  31.8323445  76.5709972
  46.8104982  17.7812648  53.5829020  47.4358225  17.4742281  54.2393494
  47.0689964  18.6867094  53.4109116  13.9812101  81.6827479  25.1325782
  14.1862596  81.6861358  24.1976054  13.0320467  81.8006888  25.1700576
  66.3834837  39.8086542   8.0671962  65.6405381  39.7380715   7.4677928
  66.1570934  40.5379012   8.6444076  52.9035378  17.0615315  66.6329813
  52.4571133  17.5206888  65.9215689  53.2375956  17.7596784  67.1962118
  10.0244631  62.0813969   2.3670467  10.6026949  61.3354423   2.2075875
   9.5119966  61.8274215   3.1345828  58.3502054  44.0212917  68.5876226
  58.5855579  43.1121206  68.4025526  57.4219227  44.0792036  68.3614206
  62.0783520  20.0959015  75.2304983  62.2090101  19.4529808  74.5334959
  61.1415768  20.2908063  75.2040339  69.8530054  36.1686873  14.0556014
  70.0743675  37.0993519  14.0886593  69.8937273  35.9456944  13.1256294
  42.7573649   4.3968436  30.3054889  42.1128480   4.7519919  30.9176143
  42.3485486   4.4920966  29.4452365  43.1183910  17.8683782  22.6568007
  43.7047577  18.4535420  23.1363750  42.5980043  17.4406838  23.3368802
  72.2413352  78.3135477  10.5012973  72.2503665  78.5545912   9.5749839
  72.8292325  77.5603309  10.5585178  84.6792272  78.0002704   6.1035998
  84.5287135  78.7606421   6.6652187  83.9407495  77.4188199   6.2846931
  68.8889983  85.0744763   1.7838367  68.6417082  85.0484505   2.7081760
  69.8409966  84.9748841   1.7876990  40.8727424  29.7332570  13.4982951
  41.2692086  29.4077060  12.6901706  40.8724133  28.9778373  14.0861495
  31.0605161  10.0794360   1.8488725  30.7377831   9.9723002   0.9541114
  31.3628547  10.9868190   1.8873962  42.4612525  69.6269575  19.5385059
  42.2123841  69.0588656  18.8094218  42.0088223  69.2562714  20.2962192
  86.6619426  12.8753659   6.3042243  87.5201446  13.0142447   6.7047675
  86.5804917  11.9240662   6.2362083  66.6913509  38.2633758  60.2318907
  66.3775063  39.0407443  60.6938744  67.0901394  37.7237606  60.9145451
  41.5503502  40.6473112  58.8814306  41.4327765  39.7430539  59.1725111
  42.0594072  41.0593653  59.5795059  31.8783729  17.9356763  32.1887000
  31.3381307  18.7108561  32.0355399  31.5025060  17.2652480  31.6181930
   4.9676765  58.7825146   8.2759078   5.8707727  59.0044704   8.5025962
   4.7238220  59.4236591   7.6082976  77.8170684  84.8703709  27.9553111
  77.6238397  85.5549183  27.3147662  76.9774249  84.4343105  28.1004985
  90.1288656  72.7404561  13.1232436  89.9538091  72.6824894  14.0625079
  89.3450454  73.1512680  12.7584251  21.9339765  86.7102900  23.6761935
  21.6169180  87.2910729  22.9845317  22.2195734  85.9218302  23.2146819
  62.9976940  48.4410667  62.3073006  63.6046553  47.7519226  62.0372868
  62.5661278  48.7112236  61.4967489   2.9661907  64.0885451  23.2761081
   2.8786195  64.5418611  22.4376186   3.3419384  64.7435108  23.8643821
  89.1234190  14.1732117  63.6244567  89.8734910  14.6394870  63.9935191
  88.9510519  14.6163651  62.7937110  46.0207415  39.0676546  54.5100307
  46.8895483  39.4268370  54.3300533  45.4336452  39.5635080  53.9393425
  31.9253802  33.2595062  59.4169712  31.5181112  32.4324751  59.6746254
  32.1437812  33.1411719  58.4925604  76.0922766  52.6245880  74.1918087
  75.7886600  53.4965181  73.9392471  75.4824114  52.3473215  74.8754835
  89.3255168   8.2979533   2.8660949  89.7483379   9.0726277   3.2366832
  89.5253545   8.3402869   1.9309457   9.2387212  89.0460530   1.3073094
   8.3280910  89.2208043   1.0697063   9.3958391  88.1496277   1.0107167
  41.7061424  32.0541906  41.1789942  42.0770502  31.9027042  42.0483112
  40.9950542  32.6775622  41.3273001  74.2551378  86.2492791  11.7418941
  74.6898988  85.4882851  11.3570579  74.7801307  86.4599934  12.5140460
  65.0396061  18.1139946  67.4249554  65.2933598  17.3442745  67.9342413
  65.7409573  18.7464011  67.5811434  60.8492851  40.7169914  74.9500084
  60.1110554  41.2898159  74.7423649  61.1033297  40.3389835  74.1080999
  91.8222287  81.8171373  11.3848384  92.1130851  82.1162882  12.2463210
  92.4983791  81.2002483  11.1046489  45.8436871  32.5699949  74.6401548
  45.6882381  33.2420444  73.9765167  45.4654455  32.9324579  75.4412699
   8.4059824  62.5250700   9.4229873   8.6234010  63.4569540   9.4465430
   9.0450062  62.1152237  10.0059970  66.4162540  31.1833715  48.6762571
  67.0715904  31.4006710  48.0132675  65.8793497  30.5038214  48.2686138
  50.1538229   5.2694982  55.3810835  50.2552748   4.3514299  55.1299047
  50.8910847   5.4403460  55.9671593  70.2999020  51.5759850  68.5041332
  71.0126638  51.5842772  69.1429853  69.9404573  52.4626064  68.5347843
  10.0129856  39.8797312   9.5294078   9.7540487  40.7642045   9.7880347
  10.8808864  39.7617209   9.9154838  14.2013420  77.3797479  18.1821235
  14.3516124  76.4605608  18.4029086  14.2381014  77.8369728  19.0222533
  46.0274649  40.3812170  11.7400539  45.0768805  40.4253387  11.8433964
  46.1728430  40.5119085  10.8030283  64.6782378  71.7606106  20.8377727
  64.5184496  71.4492717  21.7287143  64.8299578  72.7005783  20.9361346
  80.8059362  64.7485462   3.6069377  80.2968505  65.5588499   3.5851367
  81.1431077  64.6534791   2.7161487  24.2090906  60.1191619  14.2698272
  24.4061865  59.2566123  14.6350558  23.2534517  60.1465764  14.2225631
  50.7729435  20.5227923  70.1920938  49.8729229  20.4786801  69.8692179
  50.7347536  20.1268339  71.0627174   0.5391754  67.2052231   0.4126819
   0.5030454  66.7489424   1.2533553   1.4422001  67.0906773   0.1166089
  21.5692505  58.6363831  39.3129523  20.9897474  58.5268524  38.5590156
  22.0998946  57.8398242  39.3248828  42.6867437  32.0439100  65.7759523
  43.0566072  31.1629844  65.7176113  41.9601297  31.9582057  66.3931370
  31.5968204  41.5561628  54.4671440  32.5293803  41.3567257  54.5495415
  31.4874148  42.3859882  54.9315262  67.1020797  83.5383549  33.8543876
  67.4786452  84.3079796  34.2811282  66.6614202  83.8859978  33.0790218
  37.4299073  37.4576139  56.0874891  37.5626230  37.9659915  56.8875933
  37.3951459  38.1127310  55.3904629  18.5406601  52.6615953  47.8401375
  18.3526957  52.3376274  46.9592571  18.9306068  53.5244370  47.6998568
  51.2627316  14.6108079  59.2547560  51.1043072  15.5462909  59.1282415
  51.2292480  14.4883704  60.2034998  73.9547733  77.8351226  26.1407168
  74.1373018  78.0117193  25.2178271  73.0462697  78.1109634  26.2622340
  11.8732214  38.6862278  52.7064037  12.4981248  39.2663431  53.1413698
  11.0250163  38.9238667  53.0809784  38.0885220  29.4506240  64.9734211
  38.4527397  30.3354669  64.9482584  38.2491636  29.1004872  64.0971613
  88.5949281  37.1856150  17.4459537  88.3699802  37.9818931  17.9271777
  87.8530839  37.0434460  16.8580039  82.9099849  76.8548980  26.6771014
  82.5050643  76.4813104  25.8943446  82.2856477  77.5152102  26.9778140
  89.3941358  51.2269911  27.1821101  89.2161039  50.3248402  27.4479278
  89.3003228  51.2189594  26.2295516  42.2380733  29.0636969  65.8580637
  41.5057850  29.6636724  65.9995270  41.8314171  28.1991959  65.7988834
  75.2751875  47.2031832  76.6797209  75.1872301  48.1285524  76.9081640
  75.5520153  47.2079420  75.7634401  43.2203007  39.1048455  62.7701712
  44.1019058  38.7447309  62.8667307  42.9447269  39.3066025  63.6643648
  59.1336457  28.7739226  10.2964576  59.7999398  28.1074569  10.4640754
  58.8497083  29.0529916  11.1669334  85.1720384  80.5863038  22.8080924
  85.6500438  81.2969366  22.3805984  85.6869510  80.3878227  23.5902007
  26.5968463  43.3468631   9.3693717  26.3872436  44.2484816   9.1256888
  25.9819856  42.8135098   8.8656695  63.1291533  26.1971927  54.7703409
  63.5184240  27.0234632  55.0566530  62.3171663  26.4537430  54.3332052
  91.6067842  72.3230973   7.2298129  91.0789397  72.5264922   6.4576419
  91.6562131  71.3672414   7.2411521  28.7676144  34.6695638  65.6701708
  28.9775300  33.7490606  65.5125618  28.2504439  34.9311256  64.9083614
  62.2994471  18.4355807  72.7510500  62.8135157  17.6969075  72.4249697
  61.8207169  18.7511313  71.9845772  67.8340486  61.2309411  28.8907989
  68.4060386  61.7224791  28.3013518  66.9833902  61.6631737  28.8147147
  34.5714156  17.8308722  14.2613204  34.3527810  18.6566254  14.6932586
  33.7288253  17.4826619  13.9697440   5.2989210  61.4093819   3.3740600
   4.3908180  61.6017940   3.6076434   5.2436842  61.0125294   2.5047525
  62.9107666  16.2685299  70.8422470  62.9978752  17.1192086  70.4121447
  63.0596447  15.6308079  70.1441240   5.3121731  86.6625550  60.3967190
   5.0544426  86.5384395  61.3101768   6.0374161  86.0514009  60.2673244
  61.8917894  30.1227045  38.5491014  61.2417603  30.8132553  38.4193397
  62.7303505  30.5838323  38.5691810  88.8549140  80.3000203  20.2488597
  89.2084220  80.1377335  21.1234649  89.5929960  80.1445332  19.6595557
  31.4807336  15.7769915  29.8823245  31.9693009  14.9540231  29.8981937
  32.1296613  16.4360615  29.6358474  10.0073481  15.4736090  56.0099506
   9.6557319  15.9973061  56.7299080  10.9465754  15.6581235  56.0160017
  22.0954005  13.1765744  25.5309566  21.4465205  13.3787629  26.2049754
  22.1155850  12.2201821  25.4971393  63.8461211  75.5178490   1.6925653
  62.9512933  75.2504244   1.9023259  64.3244246  75.4205337   2.5159677
  45.5886984   6.6568172  56.1630154  45.2124166   6.4967114  55.2975607
  46.1031675   5.8714706  56.3495255  76.6380262   6.8514013  76.4442444
  75.8882332   6.7142624  75.8652496  77.1303749   6.0319108  76.3967228
  80.1254368  23.6545706  57.4288511  80.5547905  22.8914452  57.8155327
  80.8338928  24.2829680  57.2894621  74.0938142  63.8361600   4.2767413
  74.8165611  63.2517138   4.5054038  74.1964200  64.5850697   4.8639663
  47.8959370  35.4522800  73.3246803  47.5214624  35.3422165  74.1986847
  48.6399508  34.8503661  73.3053446  66.2611103  33.2266521  76.2895918
  65.7092333  33.1669450  77.0694017  66.5727711  32.3327994  76.1477184
  32.8958416  38.8656855  61.3587761  32.7035189  38.7262702  60.4315186
  32.0607352  39.1394949  61.7380619  40.8477688   5.2824342  68.5104513
  40.1768494   5.6782770  67.9542112  40.9107113   4.3780971  68.2031298
  86.2189964  69.3293992  39.1301044  87.0350078  69.0676442  38.7036784
  85.9712938  70.1443973  38.6934646  76.4711189  12.6620591  73.9219427
  75.7724810  12.3887742  74.5164633  76.2220478  13.5452497  73.6496019
  41.4883518  62.3077631  76.4609051  41.5461969  63.2175684  76.1691046
  40.7521534  61.9446707  75.9685516  89.2596817   1.5207626  75.6290197
  89.2318726   0.6996725  76.1202097  88.8058949   1.3249636  74.8092794
  46.3537598  30.5984092  46.9994736  46.4659739  31.5027952  47.2922564
  45.4580212  30.5647612  46.6636848  91.7329171  47.9523459   7.1746047
  92.0954469  47.6395559   6.3457664  92.3863176  47.7069095   7.8296264
  73.1255201  70.0831714   3.7136539  73.6332658  70.8845201   3.5860999
  73.3176139  69.8185578   4.6132739  31.8167032  42.4093674   7.8264602
  31.2441267  42.8366026   8.4635337  32.5049509  43.0519292   7.6542552
  54.5576954  19.2830873  48.6202765  53.9842367  19.9600267  48.2609320
  54.0341282  18.8631570  49.3027449  70.3777075  38.3872747  69.1441488
  70.4998589  37.7327538  69.8318386  71.1651993  38.9297104  69.1871691
  22.3275828  21.6189146  70.4592991  22.4991059  20.7844281  70.8957005
  21.8557739  22.1374822  71.1110020  64.5347357  37.2598267  58.8442945
  65.3329563  37.6237631  59.2272186  63.8301992  37.8023386  59.1986084
  75.2084208  26.6694331  18.2104158  75.2725983  25.7517481  17.9459023
  76.0184765  27.0677018  17.8919482  59.2946386  67.4675369  76.7589045
  59.0976000  66.6931152  77.2858572  58.5285473  68.0313444  76.8659639
  37.2973418  38.2783222  68.8714790  36.4945889  37.9139376  69.2443609
  37.0096898  38.7283444  68.0771446  11.5564649  41.4977500  39.0392287
  10.9837310  41.2131449  38.3270438  11.3805787  42.4344298  39.1282733
  87.3468906  10.5818936   3.5137637  87.2705466  11.5220401   3.3508857
  86.8951375  10.4456326   4.3465789  22.8040041  74.0003791  11.3125499
  23.7394918  74.1998806  11.3485702  22.4940695  74.4468203  10.5245956
  31.5577364  36.1768293  58.2889366  30.6770277  35.9152555  58.5575724
  32.0046067  36.3900065  59.1081381  74.8442033  38.7779829  25.5248912
  74.2363933  38.1978223  25.9833797  74.3187001  39.5456531  25.2995952
  81.2333626  12.7986714  18.1474479  80.7303340  12.4238154  17.4244865
  80.8879894  13.6860701  18.2447513  27.3301284  14.8338887  23.5838874
  26.7943541  14.8255202  22.7907260  28.2303540  14.8941561  23.2641967
  88.0602932  28.8589239  56.9155455  88.5264587  29.6904588  56.8291187
  87.1595669  29.1095090  57.1208143  51.4473581  28.7508845  73.9542103
  50.9495783  27.9505587  74.1213131  51.9962645  28.8581300  74.7310209
  48.1167030   9.5622134  49.3414879  47.5445223  10.3204262  49.2233562
  47.5181007   8.8179547  49.4046450  44.5558596  10.1959443  46.4035559
  43.8201094   9.8737103  45.8829165  45.2476025   9.5485812  46.2670183
  42.9694653  18.7114990  64.3245316  43.2359791  18.2332230  65.1096773
  42.1037436  19.0594196  64.5383310  74.4040394  36.5504885  60.1873398
  74.1482496  37.3826551  60.5852127  75.3430510  36.4812279  60.3596640
  44.3257332   2.2114436  72.6454878  44.6495342   2.1104068  71.7504025
  45.1168251   2.2710489  73.1810760  16.6616488  38.6858344  53.9832783
  16.4707518  37.7576017  53.8484669  15.8268785  39.1272497  53.8266182
  21.7319692  67.9674139  36.1023505  21.6561712  67.3079625  36.7920001
  22.4962438  67.6957121  35.5941184  37.4737263  12.4879801  76.3276720
  36.9670630  13.2811129  76.5022039  36.9695091  12.0238829  75.6593800
  30.7628600   6.3639113  25.8779605  30.7779328   6.2107083  26.8227084
  30.7234685   5.4880330  25.4938872  58.8091707  36.6192484  67.4637032
  58.1755638  35.9155583  67.6036787  59.1984558  36.4249349  66.6111040
  64.6643499  46.5123290   8.5503181  64.6014360  46.4889012   9.5051654
  63.9840439  47.1292803   8.2805331   2.3079218  74.3521586  17.6726134
   2.2422517  74.9773064  18.3944877   2.2401870  74.8895994  16.8834384
   4.8241867  79.7751394   0.2840360   4.5457758  79.1561547  -0.3909318
   4.7486747  79.2860427   1.1033757  79.1673806  56.3722363  11.6395457
  79.5269397  57.2460702  11.4867004  79.9065498  55.8641925  11.9738277
  70.2431679  33.3741832  58.1382465  69.7565985  34.1205740  57.7884150
  69.7770643  32.6072073  57.8054905  28.5133624  40.9635544  66.3124704
  27.6443243  40.7100534  66.0014391  28.3439755  41.6224051  66.9858646
  60.2689886   4.2234442  72.0685720  59.4586706   4.2982307  71.5645599
  60.9645700   4.3609041  71.4255333  69.0898514  21.5141869  65.2796984
  68.2005262  21.5549755  65.6313562  69.0975761  22.1591711  64.5724726
  84.5998624  73.2232204  13.1855090  84.6585134  73.5724225  14.0748103
  85.2980378  72.5701228  13.1381209  45.0404072  14.1382945  76.1268759
  45.6941128  14.2417192  75.4353571  44.2666817  14.5938385  75.7951260
  81.6667175  24.5077419  44.0048599  81.2025738  23.6706424  44.0128326
  82.4478340  24.3535757  44.5361996  17.9325053  82.4886107  54.8362780
  17.8833243  82.7056873  55.7672405  17.8629014  81.5343386  54.8088503
  64.8958495  73.0955687  29.3884357  65.8398894  72.9622593  29.3033012
  64.5908430  72.3372736  29.8866160  44.6583605  31.4000535  44.3383312
  45.4715776  31.1679292  44.7867012  44.1413069  30.5945778  44.3478060
  62.0500755  39.9499297  72.7011824  62.4270391  40.5131435  72.0252228
  62.0180893  39.0818191  72.2991943  50.0951862  48.1712723  72.7971745
  50.6484509  48.8950920  73.0907965  49.2820215  48.5903597  72.5154734
  88.3168316   9.8522383  74.7504950  88.0679321   9.8409390  73.8262892
  88.8259220   9.0506941  74.8712540   1.2390531  81.5203705  38.2651408
   0.5943931  82.0786419  38.6998542   1.1754097  80.6811634  38.7211116
  36.1315791  40.4454657   2.8463729  35.9195868  41.0159251   3.5852035
  35.5247561  39.7099253   2.9298766  60.7310343  82.6735687  63.6879778
  60.9060287  83.5045338  64.1296864  60.6510878  82.9062271  62.7629328
   3.9800272  57.9399443  65.4512978   3.1855689  57.5140333  65.1293182
   4.6671496  57.2835636  65.3361654  41.4039087  39.1323018  64.9415541
  40.4648876  39.3122697  64.9872589  41.6784906  39.0589929  65.8555937
  22.9889934  26.7366120  40.4681094  23.0392043  26.0816905  39.7718413
  22.9645936  27.5750539  40.0069697  78.6073637  52.5174856  75.4002857
  79.0626097  53.3392048  75.2165365  77.7405214  52.6316071  75.0106812
  41.6130464  25.5725810  12.2672065  41.9806115  24.6887728  12.2646220
  40.6662194  25.4383322  12.2256454  15.9583394  39.6831748   1.9849713
  16.6691844  39.5731971   2.6165088  15.3838460  40.3374907   2.3825391
  63.7164116  44.2937756  57.7794552  64.6145248  44.1586733  58.0817366
  63.1721592  43.9057446  58.4646225  63.0936384  44.3019390  69.6425772
  62.4139786  44.4839430  70.2915478  63.8729382  44.7420502  69.9820232
   5.9880699  87.0538845   4.0800841   6.5254940  86.9640913   4.8670753
   6.5389074  87.5423279   3.4683402  63.0499151  81.8364039   4.0584071
  62.3738340  81.2731829   4.4351371  63.7333301  81.2309065   3.7710841
  71.1108891  11.3684317  20.7429202  70.2500932  11.7825982  20.8038982
  71.4077298  11.5627286  19.8538955  70.5287123  61.4907360  62.1445274
  71.4243364  61.4699602  61.8073940  70.0403738  60.9078312  61.5631628
  69.4947815  59.7077799  54.4468880  69.7155142  60.0377512  53.5758972
  69.5100069  58.7553024  54.3531179  59.1738701  51.0098648  58.6045599
  59.3613434  51.0130501  57.6659060  58.6909151  50.1962614  58.7495852
  40.1594067  49.2594671  70.0506496  40.7488060  48.9160824  70.7221603
  40.3307199  50.2011585  70.0404215  61.9692039  51.0349226  48.9804554
  62.6102304  50.3254366  49.0245724  61.7280245  51.1968660  49.8925066
  60.1963711  49.2428255  65.4474497  59.8865747  50.0622654  65.8331680
  59.4121027  48.8439655  65.0705290  85.1895908  48.3533773  31.6425307
  85.4680684  48.5479083  30.7476314  85.6780103  48.9723515  32.1852573
  58.6797142  25.3359437  69.9758959  57.8469753  25.1804328  70.4215336
  58.6782742  26.2741470  69.7861481   0.2199281  65.4680791  23.8373073
   0.2653278  64.5220628  23.6986621   0.8704675  65.6419435  24.5176013
  72.4077892  61.6180515  49.2477179  72.0712423  62.5073814  49.3575573
  73.2963228  61.6527510  49.6020269  65.5462408  30.4091740  76.4129257
  65.0367069  31.1958098  76.6073751  64.9074459  29.6968842  76.4415359
  70.3870058  62.4839306  36.4938712  69.6318436  61.8988562  36.5542603
  70.8999491  62.2948217  37.2795963  63.8550568  21.6702151  57.3441935
  63.5979748  20.7577872  57.4769211  63.8411999  21.7872000  56.3942719
  17.1102111  29.9121043  41.0738166  17.7663438  30.0379512  41.7592986
  16.9522731  28.9680764  41.0638507  82.5386241  65.5470195  36.4875396
  81.9313768  65.4118004  35.7600768  82.2940591  64.8814741  37.1305545
  93.2392055  27.2023389  27.6029571  94.1849691  27.3490044  27.5871261
  93.1411201  26.3065097  27.9256042  86.3734436  62.2156000  64.8027706
  86.4453888  62.2379303  65.7570028  86.7359638  61.3650274  64.5550919
  90.9625772  76.4229169   1.7655833  90.1043037  76.8467131   1.7652352
  91.3638881  76.6953674   2.5907786  62.3978758  45.5067921  52.2861338
  61.4696121  45.2877760  52.2049475  62.5335073  46.2129259  51.6543007
  37.2992198  12.1744200   1.1009200  37.5449149  11.2997672   0.7995065
  37.1143262  12.6613518   0.2978404  38.5628812  19.8407599  19.6128924
  38.7121026  20.2985999  20.4401477  38.6284320  18.9126250  19.8376067
  18.7826502  31.1796665  66.9960260  19.1388893  31.0896969  67.8798962
  17.9401922  31.6166568  67.1206713  84.2235139  78.9932814  10.7760795
  85.1650289  78.9428463  10.6110461  83.9178708  78.0895796  10.6977447
  82.2590733  84.6604061  71.4617062  82.6965714  84.8520279  72.2912312
  81.3675785  84.9883175  71.5797710  72.5127319  69.9021426  33.8594134
  72.3753503  70.8158174  33.6092933  71.7272046  69.4491783  33.5528167
  58.1036139  52.5324726  65.1161289  57.3337030  53.0086994  64.8051977
  58.4899616  52.1585894  64.3241835   0.7089625  62.9857111  41.9958401
   1.3373003  62.2693968  42.0870590  -0.1097192  62.5560760  41.7480469
  75.9746313  50.2219391  54.1816616  75.4961634  50.1649809  55.0087404
  75.6286526  51.0076904  53.7584305  92.8633690  57.7070475  68.2401085
  92.1938705  57.8814888  67.5786066  93.6373043  57.4543095  67.7367496
  72.9873088  52.4495485   4.4138988  72.1687511  52.0172253   4.6573909
  72.9248241  52.5640580   3.4656222  50.7946682  45.8615541  67.8437567
  51.4601755  46.1221838  67.2070408  50.4307461  45.0495291  67.4910498
  51.6218901  39.5410776  65.9376383  50.7701921  39.1927361  66.2012625
  52.2578287  38.9570045  66.3507652  25.8468069  57.6262393   9.1468223
  26.2028707  57.5049415  10.0270160  24.9027265  57.7111915   9.2799743
  82.4227428  39.3585014  57.4895144  82.0862961  39.3380237  58.3854055
  81.7069721  39.0117812  56.9568872  64.9106550  70.1703215  69.5626593
  64.0745211  69.7311687  69.4069147  64.6863127  71.0990715  69.6203136
  74.0548042  84.0829602  18.1208308  73.2304719  84.2069021  17.6503642
  74.0071491  84.6971693  18.8534339  31.4308516  10.1185653   7.3451312
  30.5631940  10.4623887   7.5577243  31.9721810  10.8974263   7.2164233
  31.4113585  27.3332211  32.9470904  32.1794860  27.1322390  32.4124702
  30.8471934  27.8493878  32.3713096  40.5784862  34.3658110   4.3447860
  41.3715903  34.1938397   3.8372024  40.2274291  33.4974524   4.5421298
  90.1784325  59.2210913  70.3136063  89.3048954  59.6071959  70.3775072
  90.0279903  58.2775116  70.3706932  12.9186926  51.1288404  34.0838575
  12.7171622  52.0431328  33.8846254  12.0692835  50.7336283  34.2801571
  90.2126980  21.5182543  58.6840343  90.9131908  22.1339369  58.4684658
  89.8973656  21.2075090  57.8353691  25.5548763  41.1947775  68.3291578
  24.8953915  41.1203384  69.0189171  26.1125278  41.9209480  68.6083221
  12.2422568  33.0192134  15.2061160  11.7635409  32.8157994  14.4025691
  11.8808763  32.4192902  15.8585914  89.6847439  62.6273155  46.6224813
  90.5542660  62.5928020  47.0211887  89.5682907  63.5461998  46.3809824
  71.4428902  32.5485444  68.3131695  72.3292732  32.8899479  68.4315109
  71.4321136  32.2161198  67.4156141  79.8354070  20.4752919   1.2071403
  80.4721848  20.5170104   1.9205888  78.9919297  20.3620097   1.6452582
  75.8695126  69.2500305  67.9712296  75.7397509  69.9090052  67.2892141
  76.2053585  68.4849405  67.5042439  93.7624168  49.6948051  36.1556530
  93.9903450  49.5418501  35.2386522  94.5831966  49.5663309  36.6310978
  91.0021308  16.8452650  61.7769051  91.4932731  17.3165232  62.4499035
  91.3357023  17.1925360  60.9496403   4.2879595  57.7330521  13.9666541
   3.9737428  57.0918837  14.6041568   3.7045969  58.4841791  14.0749438
   9.2277114  25.3969237  26.7185672   8.8236205  24.7344920  27.2790416
   9.8692862  24.9122473  26.1992343  63.4526777  40.8784866  60.4776430
  63.3262062  41.4949989  61.1988544  63.1061649  40.0494814  60.8076525
  72.5699377   1.6141345  55.7857943  72.4659491   1.4930972  56.7296028
  72.9531431   2.4867767  55.6970167  70.5090907  86.5232459   9.2109092
  70.5235794  85.7552185   9.7820075  70.6724337  86.1735144   8.3349879
  70.4105711  59.1310835  74.8536396  70.1484156  58.6159277  74.0906715
  71.1964989  59.5975590  74.5691204  61.1530161  69.1819286  56.9997644
  60.9340954  68.3371782  56.6064453  60.5330801  69.7966862  56.6073561
   5.3728546  74.7581830  16.7807277   5.0121559  73.9710298  16.3726695
   5.9490884  74.4280329  17.4700721  86.7444801  65.3884602  74.2858171
  86.6654110  66.3398600  74.2163897  87.5789452  65.2495241  74.7336817
  60.7065535   8.3979297  48.9167118  60.8250141   8.8600075  48.0868435
  60.8207083   9.0733182  49.5853329  86.7082170  87.8095046  15.7869514
  86.9629339  87.1585741  16.4408954  85.7511476  87.7993908  15.7991012
  29.2807102  33.2123137  68.4144974  29.3008375  33.6593914  67.5683594
  28.3621168  33.2461309  68.6814642  68.8602304  31.8927550  54.1358948
  68.7781286  31.6205239  55.0498867  68.0291843  32.3250628  53.9391661
  58.7658262  60.7646132  76.1354542  59.3120575  61.3099623  76.7015505
  59.3878889  60.3142118  75.5641317  56.8388939  50.1167440  56.9494247
  57.1234179  49.2252064  56.7483282  56.1919641  50.0101376  57.6468086
  69.7123861  30.8859682  56.8532038  70.5562449  30.4384875  56.9156265
  69.0805197  30.2547693  57.1975327  70.6574552  23.0432317   5.5875571
  70.8643167  22.9422900   4.6584495  70.0888078  23.8123461   5.6241401
  12.4733512   4.4840285   2.6646503  13.0092971   5.2442929   2.4388488
  12.0443313   4.7284552   3.4846671  57.9015493  44.7248697  61.6482353
  57.6073074  45.6318569  61.7320585  57.0933056  44.2145300  61.5980148
  13.4755815  61.3174966  12.1213992  14.2454828  61.6172162  12.6047690
  13.2438625  60.4847327  12.5325473  16.6762413  46.8875886  25.6543239
  16.3520921  47.7105352  25.2883800  16.6128839  47.0055163  26.6021236
  85.5985165  30.0019979  58.3284187  84.7031307  29.7627807  58.0890465
  85.7651138  29.5239019  59.1407633  44.8578279  23.7070271   7.0987590
  45.2064101  23.9432523   6.2391456  44.0199058  24.1666886   7.1519836
  47.7348042  30.4962158  55.5616713  46.7965698  30.5582452  55.3825045
  48.0581331  31.3911629  55.4579401  80.0387192  21.6909385  41.0944605
  80.3860950  22.0034790  41.9298506  80.5318737  20.8905625  40.9143925
  56.6665316  54.1840935  55.5059004  56.8656349  53.2677126  55.3139639
  55.8262348  54.1558695  55.9634304  70.8655834  40.3707361  59.7402477
  71.0514307  39.8669267  58.9478683  70.0549936  40.8394194  59.5414639
  40.8020210  56.0286808  55.3034258  40.4528618  55.8432627  54.4316816
  41.7019892  56.3137865  55.1453114  72.8466654  88.2840824  56.9307566
  72.7921867  89.1628265  56.5551662  72.2248125  88.2956219  57.6583529
  20.5523698  21.4951894  36.2454398  21.0955111  20.8625504  35.7753356
  20.6737487  21.2754008  37.1691306  93.5504154  64.5641628  20.2608379
  92.8855565  64.9697700  20.8173259  93.0504516  64.0582755  19.6202644
  10.0009171   1.3740155   8.9304908  10.3914611   0.5036828   9.0094073
   9.0967338   1.2581774   9.2224963   0.3566707  86.8565121   7.7144130
  -0.1492535  86.2416687   8.2456668   0.8618320  86.3008633   7.1208652
  80.9681034  48.8860321  64.7918034  80.9685135  49.5123768  64.0679741
  80.1220798  48.4433031  64.7249556  82.0415401  52.3899031  65.4372740
  82.0157337  52.3957443  64.4804382  82.8122520  52.9123592  65.6592751
  14.0855615   7.9079959   4.5625098  14.8796622   7.8402755   5.0926478
  13.4080426   8.1833312   5.1800807  69.0814590  66.5292120  61.2264061
  69.3528795  65.6496286  61.4888716  68.8592577  66.4446163  60.2992058
  75.4557040  82.0852938  25.8603843  75.7207349  81.7354169  25.0097545
  74.5415929  82.3421946  25.7394298  36.5100018  26.7030856   5.6162437
  36.3235538  26.8054625   4.6829780  36.9004886  27.5376889   5.8754428
  16.7901672  76.0154238   9.6220573  17.6083387  75.8795205  10.0999244
  17.0597805  76.1150852   8.7090381  14.6482052  75.0954309  32.0547565
  13.6936964  75.1081124  31.9841464  14.8278774  75.4310337  32.9330142
   1.4440219  41.7029235  17.4567969   1.6949932  42.6231810  17.3769839
   0.5432479  41.6715094  17.1345409  46.2421243  14.7890088  56.5553649
  45.8994548  15.0412843  55.6979449  46.5792434  15.6038138  56.9277557
  56.3240194  51.0655308  73.4741974  55.9721327  50.6446791  72.6897907
  57.0546293  50.5065060  73.7386417  36.2933993  41.6057730  63.4122896
  35.5303240  41.2410879  63.8605690  36.1100602  41.4745426  62.4820232
  54.4702053  36.6949487  58.1494570  54.7352600  37.4403787  57.6106501
  53.5412312  36.8446255  58.3250427  17.9487864  22.2569081  29.7079547
  17.1576755  21.7930362  29.4337352  17.6278178  23.0775639  30.0817569
   2.5314419   9.7373435  22.1935065   2.2054569  10.6353184  22.2535689
   1.8201177   9.2517421  21.7758449  89.5136373  24.1063401  31.2460788
  88.6504380  24.2923209  30.8765967  89.5640294  23.1507155  31.2678130
  64.6633164  21.9638869   3.0363162  65.2945916  21.7423484   2.3517449
  64.0653817  21.2168500   3.0615886  89.4239480   6.2477967   9.6596034
  89.8657662   5.5686280   9.1499408  88.8172680   5.7677218  10.2232535
  70.2797174   7.1537137  21.2820578  70.4182291   6.4735782  21.9411945
  70.5986118   6.7659336  20.4670930  71.9793129  60.2870131  66.1475182
  72.2368336  59.3807793  66.3168097  72.0456648  60.3813362  65.1972914
  35.9346549  34.6781394   1.8488153  35.3555314  34.5363805   1.0999854
  35.3423945  34.7777507   2.5941594  77.1398067  41.8463182  63.6023474
  76.6383791  42.4027014  63.0063248  77.1891451  42.3494482  64.4151592
  10.6832851  63.9548817   5.9670051  11.2959017  64.3111542   6.6104396
  11.2418235  63.6006346   5.2750667  76.6796258  55.6251779   2.0459493
  76.6767648  56.5633038   2.2360643  77.6017097  55.4129436   1.9011911
  64.9697797  21.9770142  31.0838969  64.2988698  22.2594115  31.7054732
  65.5133359  22.7532908  30.9490760  67.1703291  51.1115837  59.5382643
  66.4370775  50.5729103  59.2409277  67.3188972  50.8357096  60.4427242
  20.0198905   2.0493457  24.2843612  19.7685592   1.2933728  23.7537273
  20.7742516   1.7468783  24.7900184  82.8998566  50.4452324  67.6212502
  82.3883629  50.5968952  66.8265152  82.5132942  51.0326958  68.2706261
  71.5751648  67.1305990  65.7668734  72.0233440  67.6479721  65.0977755
  71.1278582  67.7787018  66.3110304  74.1102457  41.7964268  69.4532394
  73.2908487  41.3956785  69.7434568  73.8664913  42.6888037  69.2073107
  53.7587404  27.5595093  66.1364126  53.4909964  27.6751280  67.0481014
  53.8896751  26.6159129  66.0430622   3.3515562  83.5870853  10.8194430
   2.7330269  84.1274085  10.3278049   4.1861309  83.7054720  10.3659042
  69.4093803  58.9312008   5.4237636  69.8001149  58.7734142   6.2832149
  69.9297407  58.3982339   4.8225959   9.7457896  88.2021809  66.3461685
  10.5823336  88.6599636  66.4290237   9.5008002  87.9862118  67.2459269
  61.1737013  66.2739754  75.0650120  60.4159403  66.6560698  75.5077696
  61.8631363  66.2718201  75.7290220  72.9441452  44.7937965  68.6817169
  72.5919485  45.6834841  68.7071228  73.7238646  44.8289537  69.2358255
  -0.0082909  62.3632243  17.7259715   0.6436838  63.0605808  17.7956279
   0.3100694  61.8079164  17.0142730  93.1876183   1.6627720  58.4161091
  93.3514977   2.2987121  59.1125011  93.9992905   1.1589732  58.3559656
  16.7936052  43.4549311  27.8863700  17.5146307  43.0690576  28.3838256
  16.1365427  43.6733337  28.5472854  59.3808413  64.0559959  38.3346081
  59.6796894  63.7492847  37.4785423  60.1811409  64.1337109  38.8539505
  22.4113671  25.0415942  13.7752898  22.4465243  25.9889361  13.6428531
  22.6585690  24.6719214  12.9276641  92.2133827  41.9899845  45.4905176
  93.0547810  41.9727468  45.0344658  92.3628521  41.4824152  46.2881756
  44.7397391   7.8915259  42.3842700  43.8966052   8.0352542  41.9545062
  45.3810327   8.2808539  41.7897971  86.3612035  84.2709580  13.3805068
  87.2164443  83.9481297  13.6643680  86.4753488  85.2184382  13.3064826
  76.7170623  60.7477799  21.6252025  76.6588929  59.8600045  21.9783385
  75.9906772  60.8067635  21.0046275  29.6198440  20.7068133  66.3398981
  30.0541115  21.5543509  66.4364481  30.0071383  20.3277540  65.5508804
  49.5845525  36.1892649   1.4668592  49.0092294  36.9307181   1.6552241
  49.4114224  35.9788367   0.5492671  44.7093201  36.0137415  74.2769670
  44.4857597  36.6829228  73.6300898  45.4968262  36.3487220  74.7057438
  83.5301832  73.9984622   7.7569087  83.0127481  73.6948791   7.0110305
  83.2750610  73.4209147   8.4763415  64.0137863  56.7137051  42.5061369
  64.8199701  56.3574696  42.8794956  64.3116951  57.3419142  41.8482304
  43.4847896  18.3168027  11.3156303  43.8713567  18.7765309  10.5703433
  42.9057185  18.9622208  11.7210181  72.0598272  84.4725361   5.4690536
  72.8780607  84.7522440   5.8795245  72.2753862  83.6404720   5.0478156
  88.1615925  60.7347298  73.2046270  88.1243420  59.8116016  72.9542732
  87.4395466  61.1420012  72.7260685  47.8051758  40.7039261  72.9337502
  47.2612762  41.3036728  72.4231529  47.7687883  41.0483599  73.8260937
  73.7017965  34.8712730  71.0346174  73.3693647  33.9901161  70.8634901
  73.7622547  34.9234009  71.9884825  70.1213837  57.9820967  37.4096942
  70.1243734  57.6736593  38.3158326  69.1938925  58.0600929  37.1862960
  47.1557109  13.5683295  40.9887393  46.8314616  12.8061148  41.4684566
  47.6246278  13.1987569  40.2405627  32.0357434   1.7605969   1.2746175
  32.0427529   0.8442971   0.9978994  32.9574267   1.9738051   1.4204677
  61.7096427  77.3213330  11.6959270  62.1939352  76.6902485  11.1635478
  62.3738745  77.7201357  12.2580512   9.6061716  39.9444628  56.2578583
   9.0955458  39.3437529  56.8006659   9.2823897  40.8139610  56.4931631
  65.1725531  34.1261244  73.7029886  65.4841375  33.8478708  74.5642233
  64.4229650  34.6910930  73.8905191   0.8077155  47.8131199  57.6719666
   1.5505991  47.5885868  57.1116638   0.6357680  48.7356901  57.4834633
  53.8427687  52.5719976  74.1162777  54.3757677  51.8058920  73.9036083
  53.0080605  52.2084808  74.4118166  23.4068362  18.4319255  32.4715789
  23.6768357  19.1429660  31.8904193  22.5658147  18.1408307  32.1191867
   9.2906008  79.9242115  48.1966209   8.4173403  80.1915646  47.9099846
   9.8358260  80.6985760  48.0576372  26.9699202  57.8058767  61.4820862
  26.5850840  58.6519003  61.7109442  27.2081099  57.8929186  60.5590868
  44.8406601  44.1155910  73.0463791  44.0224171  44.5693827  73.2483387
  45.4225016  44.3357372  73.7738562   1.0187540  52.7821302  71.4673567
   0.7085715  53.6849737  71.5373278   0.3119002  52.2563410  71.8416977
  11.5118567   5.7921216  25.9387954  11.6662566   4.9343964  26.3346465
  10.8854596   6.2170598  26.5247043  11.7332185  82.4446645   9.0235503
  11.1356415  82.1358624   8.3425410  11.6613544  83.3985987   8.9907058
  45.7703130  24.2321870   4.5708640  45.2195661  24.7637793   3.9961227
  46.4059751  23.8239714   3.9830478  70.9988992  30.2592608   5.9769424
  71.6148583  29.5266434   5.9864696  71.1103646  30.6546780   5.1123889
  29.9577205  40.1785132   7.9125293  29.2274348  40.5734870   7.4361785
  30.6226317  40.8663222   7.9447635  33.2395471  88.6149493  41.8221839
  33.9793791  89.2125931  41.9304069  32.8676714  88.5326710  42.7003463
  16.2864746  57.2214117  11.9535239  16.6921629  57.9964188  11.5649112
  16.7352022  57.1110299  12.7917846  79.5582294  30.1915002  71.6296959
  78.7761831  30.3389859  71.0978270  79.2447615  29.6906805  72.3827887
  61.4159489  54.2889595  47.7824974  62.1335506  53.7893295  47.3930788
  61.7948246  54.6773815  48.5710478  11.7427550  54.8122025  54.9361753
  12.4213515  55.3763580  54.5654011  11.0707674  54.7671080  54.2560101
  78.1789068  83.3507934  13.4268172  78.7637571  83.4876028  12.6815208
  78.7473300  83.4223738  14.1936286  50.2317953  41.4563131  63.9571333
  49.4319344  40.9984970  63.6985493  50.5461359  40.9754467  64.7227621
  64.5872307  42.9063082  67.7140713  63.9337826  43.3830690  68.2258654
  65.1677370  43.5868502  67.3733330  13.7514417  29.6083066   6.6655906
  13.5135142  30.4991051   6.9226916  14.2048995  29.2516085   7.4293788
  11.4694561  82.7995792   4.3040355  10.7027591  82.5158349   3.8061412
  11.1394085  82.9429546   5.1910194  84.0799812  84.1295162   7.6091178
  84.8227742  83.9820686   8.1945689  83.7172559  83.2567063   7.4579127
   9.4699587  57.5595143   8.7854369   9.6482290  56.9184330   8.0973514
   9.4154419  57.0406225   9.5879443  24.3568147  40.3849551  14.7565158
  23.7099470  40.3433120  15.4608234  24.9381269  41.1028626  15.0073512
  14.6840827   5.4925582  27.0545180  14.2574326   4.6555278  27.2377761
  14.0771739   6.1501881  27.3942550  87.4099380   5.5414721  16.6678317
  87.8254277   4.8939940  16.0982879  86.6952640   5.0651786  17.0904620
  45.4522896  20.9124827  55.1156998  46.1281776  21.4870381  55.4752636
  45.8732986  20.4848933  54.3699455  55.9532309  45.7785416  56.5722656
  55.5310631  44.9251270  56.6707039  55.4920578  46.3465118  57.1894884
  35.5179167  39.3848801  76.8646193  36.4410782  39.2743516  77.0921898
  35.3994179  40.3323841  76.7980909   0.8926500  80.8909765   6.3275607
   1.2914289  80.0846806   6.0003074   1.4768137  81.1796346   7.0287498
   1.7553819  86.2803355  13.1746181   1.4814390  86.5044442  12.2852595
   0.9362138  86.1372176  13.6486610  85.3023389  70.6840935  69.4759734
  84.5970300  71.0511675  70.0089057  85.7010558  71.4432397  69.0505870
  53.2428472   4.0556380  18.7173923  53.9551560   4.5182320  18.2759650
  52.4461762   4.4093081  18.3218272   0.8554850  49.0526724  62.7584124
   1.0008917  48.1138229  62.6415730   0.3729735  49.3195057  61.9759703
  78.0417013  61.3839674  70.9004211  78.9544725  61.4828634  71.1711645
  77.7643394  62.2694159  70.6652880  12.2667946  65.6812325   8.3265575
  11.4983190  65.5637160   8.8850101  13.0070986  65.4430333   8.8846191
  40.5851237  46.6925475   9.7232516  39.9048202  46.6123149  10.3918155
  40.1884429  47.2352454   9.0418227  45.4550950  10.8146807  20.9891017
  45.7694833  11.7117688  20.8767398  44.6067683  10.9106347  21.4219554
  60.2690887  39.2308903  77.1314764  60.4705477  39.8786712  76.4561796
  60.9649992  38.5784101  77.0526886  15.9047906  14.2024180  51.4746936
  16.5637223  13.9572474  52.1242602  15.1891772  13.5820481  51.6135295
  46.9260089  13.1586739   2.1914037  46.1212842  13.2611129   2.6994975
  46.6258399  13.0106160   1.2946256  26.2720037  30.1947856  76.5779686
  25.9554958  30.9697986  77.0420933  26.2249470  29.4917560  77.2258615
  91.8981317  86.5685072  12.2494586  92.7197698  86.7868414  11.8096049
  91.3201907  87.3070469  12.0576842  80.0691509  37.0361853  53.7305021
  79.7101021  36.3792396  54.3269348  80.7997704  36.5936589  53.2985258
   4.2376051  44.7588825  63.2725048   4.4818888  44.9831676  62.3745871
   4.8945914  44.1190338  63.5467386  69.8368835  50.8531523  53.2236862
  69.8249722  51.6049910  53.8159895  70.7046509  50.8795547  52.8205538
  82.0875740  36.3495898  48.0607557  82.2987366  37.1212721  48.5862494
  81.7504501  35.7144833  48.6925983  82.7354720   0.7638460  74.4684172
  82.4632648   1.6471106  74.7173738  81.9753841   0.3974158  74.0165043
  66.5803051  39.3499255  75.7199097  65.7290173  39.2961264  75.2855778
  66.9214630  38.4560919  75.6898117  69.3483686  46.8838835  62.3722506
  69.5281744  47.5669289  63.0182743  70.0851774  46.9305038  61.7630100
  59.2224720  82.9344001   7.1118911  58.8697723  82.1958104   7.6081927
  58.5964206  83.6431995   7.2598727  61.2488286  28.0930516  17.5101169
  60.5070512  28.4512564  17.0225890  61.5774743  27.3830363  16.9586642
  66.4065456  50.0753117  69.2850304  65.9470415  50.1528406  70.1211357
  65.7287264  49.8114920  68.6627817  34.9937217  14.3195435  23.4426196
  35.4318492  14.5255753  24.2683490  35.7023494  14.2717215  22.8009112
  82.5721931  60.3476048  60.6557608  83.0163193  60.3682518  61.5034342
  81.7463589  60.8074093  60.8067846  33.3065748  19.0602636  67.1607971
  32.8347445  18.2629335  67.4013615  32.9413533  19.7361863  67.7317333
   7.3070301  71.7638770  27.1916755   6.9030489  71.0436669  26.7075999
   6.9824136  71.6628757  28.0864604  32.4654977  30.6557223   4.3402942
  32.9742829  29.9245164   3.9900001  32.5013558  30.5393740   5.2897151
   2.2006998  72.2959614  64.5094156   3.0884467  72.4357128  64.1798592
   1.6350947  72.7074146  63.8559484  17.8954996   4.3480498  72.0547104
  18.1125559   5.2731711  72.1698809  17.2796644   4.1566569  72.7620649
  35.3564136  81.0812232  12.0188506  34.4611041  80.9851596  12.3435481
  35.8806912  80.5232379  12.5933154  15.2247111  72.3025462  12.1872028
  14.8181312  71.5948817  11.6870578  15.2835099  71.9618842  13.0797942
  20.8293925  53.6480856  63.1022692  19.8725520  53.6227608  63.1098557
  21.0858164  52.8658628  62.6137924  68.7441444  73.9305925  38.7118912
  69.5612478  74.3829012  38.5021472  68.9971685  73.2616425  39.3480659
  58.8970184  62.1644211  56.1445856  58.3925915  61.3922739  55.8885050
  58.6292791  62.3368740  57.0472527  55.4045057  40.3767061  68.3046770
  54.4576025  40.5148125  68.2816124  55.6218100  40.3622532  69.2367744
  88.0447674  16.4900768  64.9473047  87.5860596  16.1760283  65.7265282
  87.9232979  15.7943666  64.3011904  60.1794637  85.7171526   9.2150386
  60.3505052  86.4167109   8.5844882  60.6862081  84.9728432   8.8903220
  62.1615887  24.7714067  75.6731987  62.8323364  24.5570016  75.0248480
  62.2170830  24.0657568  76.3175678  82.5990391  84.3730736  65.1034880
  82.4536133  85.2280331  64.6983624  83.5187435  84.1767883  64.9250174
  88.0448818  39.7440958  73.7266254  88.2288074  39.4440627  72.8364658
  88.1671906  40.6927299  73.6897039  94.2294502  55.3991985  70.9956980
  94.7582531  55.4597950  70.2001286  93.3820152  55.7695103  70.7488060
  30.1723398  77.5225463  14.2345603  30.8748258  77.6386681  13.5948260
  29.3702997  77.7067008  13.7456496  70.0818634  46.1662865  76.9511271
  69.7514200  46.9738245  76.5575266  70.2338934  45.5823994  76.2080288
  53.3716123  20.0112626   9.2881091  53.0776040  19.6339700   8.4589847
  52.6586453  19.8291919   9.9002917  86.3350108   6.5677458  73.6700821
  86.4107660   6.8038088  74.5946169  86.7588285   5.7118899  73.6059093
  13.9687739  55.2425146  39.7518539  14.6889506  55.0457096  39.1528225
  14.1098795  56.1549377  40.0044584  77.6062393  81.7595005  48.4862947
  77.5198698  80.9922218  47.9205751  78.5508013  81.8878174  48.5733128
  35.9786097  30.8321139  11.8825706  35.5134694  30.9262320  11.0513003
  35.9857909  31.7141911  12.2542174  15.3792773  85.3031063  30.3561997
  14.9904833  86.1771965  30.3240252  16.2830744  85.4322433  30.0686026
  27.7418722   3.2466799  44.4488096  28.1713594   2.4106127  44.6298456
  28.4536279   3.8290030  44.1831970  53.2228136  52.9669142  64.1310358
  53.2232523  52.9518890  63.1739521  52.3037767  53.0908346  64.3682098
  83.9488220  59.0954924  56.2644958  83.5441017  58.3500528  55.8209324
  84.4164371  59.5615625  55.5714273  39.3938081  48.2441279   7.4899085
  39.4403092  47.3532054   7.1430095  38.6270062  48.2383677   8.0627998
  41.9324700  57.4131152  38.5418399  42.2160212  58.3269164  38.5136588
  41.0346524  57.4305960  38.2103999  87.7993965  78.9812088  76.5329933
  88.4392643  78.3654261  76.8902159  88.2433414  79.8288870  76.5572453
  87.6708412  77.5400209  70.2118397  87.7202988  77.8246069  69.2992640
  87.5093842  76.5979338  70.1605272  80.7798576  61.2279701  57.4835920
  80.5193233  60.6049776  58.1619978  79.9562883  61.4979649  57.0773029
  32.7835287  82.1488824   8.8178142  33.2961286  82.9571000   8.8016399
  33.3695234  81.4862457   8.4520896  54.8112599  42.9478690   8.1923659
  55.3517835  43.7051245   8.4173854  54.3666093  43.2027289   7.3839362
  42.7006830  75.6978145  24.9564155  43.1627763  74.9043336  25.2267535
  43.2086481  76.0304537  24.2164405  23.5542314  14.2192647   0.5236228
  23.3711068  13.2812640   0.5769666  23.7031285  14.4862029   1.4307101
  63.4441583  48.9496753  10.0240214  63.0867974  49.6063563  10.6217750
  64.0041368  49.4475123   9.4283565   1.5439520  36.4529943  73.1449556
   2.1110163  37.0125151  73.6756229   1.3961993  36.9538403  72.3427391
  29.7599523  26.2137791  13.5562213  29.9407975  25.3195712  13.8459094
  29.4509284  26.1158892  12.6555713  26.6134612  46.2911174   3.3345016
  26.4025704  46.7421672   4.1520103  27.4768273  45.9075305   3.4884246
   0.3199778  57.4531937  66.1743212  -0.1515665  58.1893063  65.7844305
   0.9864150  57.2253370  65.5261135  67.9591227  80.9479523  66.1184359
  68.7365246  80.6611347  66.5976143  68.1598711  81.8448925  65.8511686
  77.0773427  43.4069773   0.6324180  77.4818532  43.4114596   1.4999278
  77.6409070  43.9706561   0.1024373  17.3743026  12.3615977  13.2278522
  18.0076520  12.8843352  13.7196239  16.5437190  12.8240058  13.3398326
  49.8161618  65.6794497  16.2962611  49.6605794  66.3743350  16.9359191
  49.9166505  66.1392638  15.4627689  41.6889541  28.7732789  28.9665588
  42.1284835  28.2852504  29.6628936  42.3325078  28.8132474  28.2591231
  48.6340046  69.5929384  62.9062080  48.2682467  68.8836145  62.3777103
  49.0992212  69.1483021  63.6148024  51.5359323  15.2992961   7.8845676
  52.3713033  15.5399558   7.4839767  50.9315888  15.2165553   7.1469005
  92.2286510  80.3547573  73.2879400  92.5059032  79.5005226  72.9568148
  91.4542484  80.5728340  72.7693129  59.0769689  18.3855006  11.4775832
  59.4061486  18.4143016  10.5792220  58.1765191  18.7036988  11.4130290
  31.8869464  28.8719317  27.6313289  31.8191974  28.1835505  28.2929690
  31.6316382  28.4443900  26.8138583  71.7032433  40.8086681  74.8513985
  71.4854193  41.4989662  74.2250776  72.5963879  40.5511045  74.6229506
  48.0831639  62.0217368  18.0277713  47.9070203  61.5074393  17.2399314
  47.5990979  61.5721938  18.7204631  21.5548722  51.0539862  24.1010364
  20.9945075  51.5878531  24.6642478  21.2480609  50.1577327  24.2382892
   1.3537035  52.8927374  66.4596987   0.6317912  52.3297596  66.1801815
   1.1419115  53.1223249  67.3644972  65.0665283  68.3231974  37.9872298
  65.4850817  69.0052271  38.5124683  64.6551943  67.7448416  38.6295271
   0.6087313  41.3593340  59.9707413  -0.1239862  40.7492113  60.0550699
   0.3815947  42.0877504  60.5487156  26.4252727  10.6584117   3.9609607
  26.4836423  10.2899977   3.0794318  25.6689040  11.2440154   3.9262088
  72.9446220  55.4280043  57.1423769  73.3419180  56.1613941  57.6119852
  72.8069115  54.7599745  57.8139448  75.7973146  55.6862020  51.6756296
  75.8137894  55.1020718  52.4337482  76.3556576  56.4216709  51.9277620
  83.8827722  31.7218968   1.9857677  83.5645501  31.2070605   2.7273257
  84.7641961  31.3864800   1.8219884   2.9490672  56.7965937  30.6722140
   3.0172549  56.2774277  29.8709345   3.0829344  56.1650324  31.3789272
   7.4133025  78.9800119  59.5296144   8.1189452  78.8406563  58.8980484
   7.7661524  79.6226215  60.1450634  87.2147846  48.4670115  60.6835222
  86.7511654  47.6558161  60.8914900  87.4681091  48.8231850  61.5351105
  23.9546887  25.4368254   2.3399337  23.4473054  24.9242589   1.7105945
  23.8493173  24.9703452   3.1691058  65.5167770  81.9604397  64.7824812
  65.3908825  81.3824654  64.0299368  66.3994884  81.7597771  65.0935745
  59.8878400   1.5656516  10.7183917  59.3478505   1.7519471  11.4864619
  60.0443952   2.4227711  10.3220733  57.7186108  55.9681654  53.5637999
  57.0292091  56.0667706  52.9071188  57.3245192  55.4230404  54.2447996
  65.6572342  42.2285795  72.5351191  66.0934305  41.4643526  72.9118490
  64.8858738  41.8713760  72.0950699   8.6968101  14.3804747  64.5703411
   8.3795131  13.5568720  64.1998959   9.2643131  14.7455508  63.8914585
  36.1078135  22.6669261  39.5026286  35.6470887  22.0083520  40.0224765
  36.0995213  23.4524962  40.0494750   4.0667925  59.7376633  57.2993279
   4.5811282  60.4043674  56.8441343   4.4581900  58.9071035  57.0287561
  54.3996334  60.0789595  61.3123035  53.8314962  60.7861471  61.0068083
  55.0968790  60.0323391  60.6581545  55.3926516  77.6977110  45.3950357
  54.7634315  77.2432041  45.9551620  56.2421560  77.5276709  45.8020496
  26.1483781   5.7836100   5.0831683  25.3812949   5.4020592   5.5100616
  26.6771762   5.0295684   4.8223670  17.0855154  78.0466190  28.8830932
  16.7814792  78.5132018  29.6616157  16.9122518  77.1246829  29.0734847
  66.3205719  40.3745937  64.9113274  65.4433203  40.2747250  65.2810431
  66.7384148  39.5251799  65.0532246  54.1418505  77.9219151  69.3830919
  53.8665390  77.5498390  68.5452414  53.4147167  78.4867191  69.6448326
  61.8834400  42.8620958  67.1783686  61.8512678  43.7404680  66.7993355
  62.8157806  42.6945686  67.3158550  71.9667578  73.7983847  58.0312777
  72.6382828  74.3188715  58.4721661  72.0039749  74.0833092  57.1182251
  23.2301394   2.3448464  11.3418944  23.6872880   2.7597615  10.6103976
  23.8707511   2.3403594  12.0531066  71.8153143  49.3280411  67.2871780
  71.2167358  48.8732815  66.6946125  71.2882090  50.0309277  67.6671076
  16.3316406  66.5374985  10.5597289  17.1115459  66.9582835  10.9215625
  16.2735189  66.8704620   9.6641906  42.1412484  27.5313994  10.4463084
  42.0801751  26.8536803  11.1195167  41.6888825  27.1587130   9.6895393
  63.8493729  27.0798564  40.2316284  63.0280304  27.5456738  40.3885984
  64.1702795  26.8588853  41.1059427  62.4621773  80.1718712  61.4589739
  62.2125387  79.2720604  61.2485981  62.0289564  80.7030487  60.7908440
  81.3883972  80.4230690  60.1952696  81.7154408  81.2655926  59.8799419
  80.5161476  80.6178284  60.5380440  58.1139040  58.5148716  54.4442749
  58.0183220  57.6285362  54.0956926  58.5368490  59.0051699  53.7393236
  69.2670393  66.2309361  68.5762072  69.7680235  66.9797277  68.2528591
  69.7789860  65.9011459  69.3147039  78.5276702  84.6663657  23.5583957
  77.9020408  84.2105093  22.9953559  78.8128761  84.0024677  24.1861899
  13.1885735   9.0056702  19.2634280  13.9042012   8.7756392  19.8560508
  12.4208610   8.5711667  19.6349795   2.6720012  81.2947145   8.1483157
   2.9057993  80.5207649   8.6607345   3.4645380  81.5027323   7.6534923
  85.1500797  45.6461096  56.4304399  85.1997662  45.4137897  55.5031919
  84.2228794  45.8292055  56.5821314  75.1962713  71.9214144   1.3937648
  75.8162311  71.2493506   1.6769775  74.8257306  72.2635642   2.2073157
  61.2625520  32.2376296  27.0574458  61.2244241  32.4157092  27.9971583
  61.0599248  33.0778214  26.6460307   6.9902433  76.8625083  20.0176414
   7.4188389  76.0421291  20.2615913   7.5180544  77.2029176  19.2952998
  69.1172266  80.3284931  56.3440418  68.9227629  80.0094700  57.2253132
  70.0655222  80.4587173  56.3402939  13.5847057  72.3477450   5.0551303
  13.5901130  73.3001867   4.9599345  13.7177767  72.0174804   4.1666206
  29.3781484  80.0524726  15.8946689  29.5372022  79.4353714  15.1804431
  29.4629968  80.9153190  15.4890426  56.9910336  72.1898842  73.3186150
  56.9975185  72.3412657  74.2637444  56.7534018  71.2673426  73.2254362
  82.6614396  44.3814132  16.1097415  82.3408334  44.0008590  16.9274314
  83.5039823  44.7720858  16.3415321  86.3257694  73.3659983  55.8001518
  87.0792580  73.9561749  55.8135080  86.5263939  72.7063704  56.4641333
  52.7774382  48.3143902  64.5718050  52.7921104  47.5428772  65.1381874
  53.1860304  49.0036964  65.0953913  45.3729979  38.9404532   6.0460170
  45.6805436  39.8228976   6.2532123  45.8767907  38.6866423   5.2727111
  13.1287013  36.4500642  48.1005716  12.7098761  37.1682405  48.5749626
  14.0033541  36.3874173  48.4843445   8.2106177  35.0618693  10.3557857
   8.5934178  35.8439013   9.9581321   7.5919907  35.4005954  11.0029300
   1.3680182  88.1413174  74.0960741   1.8289671  88.0820560  73.2592678
   0.4514513  88.2765675  73.8555861  16.4569108  33.4535691  10.2211745
  16.6058938  33.7066266  11.1322196  16.7838971  34.1940924   9.7103675
  84.9822919  52.9616305  26.6684707  84.1969029  53.4800956  26.8433745
  85.0519673  52.9470107  25.7139190  57.5142495  27.4330184  48.7434371
  56.8882195  26.8557545  48.3063110  57.4225823  27.2254082  49.6733459
  57.3703019   8.0373713  25.7192786  57.2061841   8.7806603  26.2996371
  58.2757298   7.7862355  25.9019359  15.6737674  14.2471129  55.4014540
  15.7077755  13.4000117  55.8458567  15.0181831  14.1306692  54.7137880
  26.8172566  15.2600142   3.6574634  27.4726216  14.7595879   3.1713470
  27.2321097  16.1080691   3.8153537  75.2972794  53.4307384  63.7361908
  75.5978632  54.2190933  64.1882658  74.3433237  53.4622812  63.8083363
  66.7686462  76.1844873  37.2704840  67.2632217  75.5597115  37.8008485
  66.7561388  76.9858265  37.7938628  70.3861443  39.8890445   3.9729102
  70.4004113  40.2127692   3.0722316  69.5617978  40.2169844   4.3322642
  70.6821632  31.0884738  70.7046318  70.9761953  31.6892195  70.0198793
  71.0142088  31.4704037  71.5171003  70.0123262  82.6663494  59.2111778
  69.8316383  82.7007389  58.2718134  69.5650196  81.8754959  59.5123291
  62.3886888  14.5592400  10.5055030  62.3990552  14.6220156   9.5504172
  62.8799741  13.7606999  10.6983932  51.6250992  81.7017937  50.2278709
  51.8053341  80.9072685  50.7303476  50.6809044  81.6778660  50.0724602
   4.5343698  73.2169118   0.4150375   3.9761175  73.8974467   0.0389274
   4.0919365  72.3965826   0.1969846  54.4163227  42.5850534  57.4267435
  55.2741814  42.6803780  57.0129538  54.5415592  41.8989754  58.0823708
  30.6896798  36.0878894   4.6326907  29.7459523  36.0397574   4.7852977
  31.0061709  36.7131087   5.2847369  27.8553820  88.6611462  76.2057734
  28.3502197  89.4753075  76.2979460  28.5201907  87.9728699  76.2289762
  80.7750034  50.2986097  34.7652483  81.3574123  51.0259724  34.5461965
  79.8943520  50.6458950  34.6235681  75.4897499  63.3476067  63.1534100
  76.3744211  63.1515741  62.8449297  75.4262352  62.9015255  63.9979267
  43.4946775  41.3579798  66.9878006  43.5849142  40.4694796  66.6433382
  42.7042818  41.3267660  67.5268126  16.6480459  84.3065634  27.4235995
  16.2011160  83.5118761  27.1321281  17.4807371  83.9962640  27.7793677
  88.1130695  86.6218472  59.2976761  87.2800350  86.4786911  59.7468996
  88.0384254  86.1168289  58.4879780  35.6509662  27.0696616  72.1025038
  34.8895669  27.5238490  71.7416525  35.5343866  27.1231008  73.0510759
  45.6430213  16.6773936   6.4227374  46.4511268  16.9407985   6.8629726
  45.9315030  16.3380572   5.5754645   7.4063979  42.3920727  51.5013552
   7.0100794  42.6141548  50.6588316   8.1291686  41.8052959  51.2788057
  38.3268420  34.7970864   7.6941474  38.6632411  34.2144772   7.0132430
  39.0383737  34.8563430   8.3316692   4.1800890  47.8222466  58.6940241
   4.4485007  48.4167337  59.3945789   3.3749400  48.2075310  58.3483076
  64.5805470  32.5094601   6.4247306  64.8203389  32.8663966   7.2799094
  63.8377015  33.0429694   6.1422618  82.9473689  85.8281413  11.9490321
  82.9153302  85.0151148  11.4448531  83.8667444  86.0928097  11.9185241
  70.4200363  65.3702164  35.5697894  70.3203917  64.4185352  35.5943179
  71.3084316  65.5263519  35.8901191  81.5421502  11.2286565   8.5748847
  80.7048814  10.8416363   8.8306888  81.5610806  11.1496779   7.6211341
  54.5813751  85.6598473  61.1642408  54.5593405  85.8893204  60.2352190
  54.7952032  86.4802456  61.6085958  70.1873827  46.5171671  73.0909538
  70.3969526  45.8153677  73.7072229  70.0968742  46.0753965  72.2466326
  58.1881952  66.3346767  48.8818979  58.6243629  65.7990599  48.2192469
  57.7366829  67.0142698  48.3813715  23.3916537   3.8566777  24.2402537
  23.6850183   4.6819445  23.8541110  22.4361197   3.9045855  24.2104228
  50.0611401  70.0848103  75.3126764  49.1576385  69.8180342  75.4822063
  50.3004122  70.6163216  76.0719347  18.7139235  69.3924904  75.9346199
  19.3633948  68.6918259  75.8755827  18.6914740  69.7728682  75.0565290
  72.4964444  41.9189307  15.9682544  71.6662900  41.8190810  16.4342101
  72.2498719  42.2679850  15.1117499  73.5118341  49.4969511  61.7861176
  72.8289843  49.8922729  61.2442017  74.1389990  50.2045536  61.9350863
  41.5974919  29.9130961   6.5659888  42.1969525  30.6589839   6.5890201
  40.9263341  30.1647183   5.9315856  87.3056126  43.8999414  76.0132360
  86.9986629  44.2522144  76.8486500  86.7576218  43.1298018  75.8622026
  68.6563349  64.9910736  48.0707073  69.2797613  64.3634605  47.7050924
  69.1990328  65.6133747  48.5549021   6.8655602  16.8391988   5.8689674
   7.3152225  16.0399625   6.1432918   6.0022037  16.5417907   5.5819209
  78.6698723  66.5200758  58.6133957  78.0046511  67.2082186  58.6265373
  78.4951687  66.0030127  59.3997526  26.7740167   1.2121588  65.8295345
  27.0638002   2.0794684  66.1124229  25.8298505   1.3047797  65.7022810
  28.3309663  19.1681010  56.4131927  27.9597868  18.8852888  57.2489405
  28.8150133  19.9665266  56.6240311  40.1665275   0.6278083   3.8922294
  40.1280896   0.6908414   2.9378827  39.2621581   0.7580802   4.1774924
  63.0673234  38.8602683  17.7799209  62.1273057  38.9774367  17.9173167
  63.4751431  39.5259139  18.3338435  63.0955935  72.5705719  63.5900640
  63.3790159  73.1915140  64.2611361  63.0424309  71.7313719  64.0473938
  48.6248891  43.5038039  17.7593597  49.4038789  44.0042063  17.5164493
  48.3028333  43.1454989  16.9322379  72.6626317  32.7002761   5.8216365
  72.1893517  32.0760247   6.3716777  73.0129926  32.1707532   5.1053317
  58.6261988  76.6697598  73.2882166  58.1368828  75.9164333  72.9576206
  59.4748831  76.3097715  73.5458517   1.1284361  16.6834283  65.9098911
   1.8923769  16.9609225  65.4043055   0.4708109  17.3578513  65.7398367
  37.3423211  35.4195735  24.8650630  36.8240325  35.8921572  25.5164226
  38.2349984  35.7418486  24.9895747  55.0668447  18.7668702  31.7168220
  54.2227952  19.0054509  31.3335593  55.5387418  18.3332440  31.0058292
  49.8513810   1.4793011  23.6736568  49.8508660   2.2134063  24.2879279
  50.4760472   0.8564755  24.0452941  45.4176299  40.1111933   9.0603240
  44.6963756  39.5635077   9.3702682  45.0733058  40.5398127   8.2767757
  62.1214342  31.7494941  70.3780079  61.6661978  32.1469951  69.6357250
  63.0411291  31.7316818  70.1132822  60.7973671  52.9029942  72.4011898
  61.2554646  52.8597689  73.2405424  61.4900446  52.8204203  71.7457485
  53.2326555  86.0214710  65.2367640  52.4667978  86.5377426  65.4880810
  52.9616833  85.5624676  64.4417048  54.4902992  47.5312662  58.2166672
  53.7212610  47.1605825  58.6495781  54.7704792  48.2419920  58.7933779
  71.6240835  36.8618274  38.8005090  71.2248945  35.9921074  38.7788200
  72.5633478  36.6925001  38.8736081  66.1347103  83.4281063  61.4754105
  67.0347643  83.2991314  61.7745733  65.6887674  82.6110268  61.6984463
  60.9351270  14.7501084   8.0147155  60.7910840  15.6556317   7.7399142
  60.0549809  14.3912884   8.1279452  36.6745631  61.4378402  15.7394775
  36.4763514  61.4098117  16.6755088  35.8974044  61.0698458  15.3189643
  78.4924698  38.1830025  61.5637350  78.3948135  38.7262201  62.3457861
  78.7063408  37.3132539  61.9014168  92.1705818  68.7286472  64.9883842
  91.7685604  69.2743826  65.6642437  93.1075382  68.7592649  65.1817799
  61.3393831  83.6295414  48.1577682  60.5800676  83.1457520  47.8327608
  62.0834112  83.0534077  47.9824734  11.0168086  53.0880642  57.1650076
  11.8779383  53.4562635  56.9672298  11.2045489  52.2271109  57.5388241
  30.3651727  76.6318479   4.5681937  29.6694959  76.8633810   3.9528354
  31.1602129  76.6145173   4.0354236  24.2036829  71.9560862  76.3282204
  24.9583254  71.6836452  75.8061886  23.9547358  71.1715937  76.8169260
  92.7609348  61.4818335  41.4583635  92.2588921  61.2074757  40.6909609
  92.1118069  61.5457869  42.1589184  82.4640751  47.2485399  76.8512630
  82.9053783  48.0976439  76.8736887  81.9087410  47.2877264  76.0726118
  67.4209802  14.8566577  39.5432742  67.2995965  15.2137753  38.6635192
  68.3338086  14.5691821  39.5612319  79.3432379  42.6687384  65.8150864
  79.6687794  43.4290743  66.2968969  78.8278294  42.1808624  66.4574003
  24.3251340  41.6247794  32.9781039  23.5729520  42.1412513  33.2674201
  24.2614428  40.8094641  33.4755309  67.4603465  77.0342031   3.1944545
  67.7533415  77.1557084   2.2913344  67.9676202  76.2873307   3.5124000
  69.0561390  33.4157205  42.9699421  68.9023304  34.1406107  42.3640442
  69.7393084  33.7365007  43.5586786  22.6449370  49.9218559  61.3534355
  23.5072351  49.9789619  61.7650318  22.3912883  49.0044880  61.4551020
  89.4358063  22.2334242  68.6305189  90.1057148  22.8390884  68.9477301
  88.6079788  22.6861572  68.7916374  69.4154644  34.2124367  73.1696653
  68.5680819  34.5091414  72.8377962  69.9644804  34.9964714  73.1596088
  38.8340489  47.3878428  11.7749293  38.9156692  46.4773032  12.0586475
  38.4991710  47.8492018  12.5438483  36.8033139  53.9454505   1.2886985
  37.6526706  54.2266604   1.6289170  36.5816514  53.1721255   1.8074163
  52.0595281  33.1351611   7.2241195  52.9626004  32.8438327   7.3498614
  52.0242707  33.9943215   7.6446231  33.6716382  72.0691153  14.3858703
  33.3495442  71.1811682  14.2308505  33.7170569  72.4629351  13.5146220
  78.7024593  46.3759804  44.8769999  79.4384241  46.4408398  45.4855919
  77.9319096  46.5671492  45.4117393  35.9686099  39.1161847  47.7930784
  36.6335879  39.0494895  47.1078157  36.3299189  38.6186624  48.5266733
  19.1203989  63.8825872  10.2793868  19.7332205  63.3590212   9.7630962
  18.3650602  64.0037206   9.7040351  68.4802914  43.7544060  52.9493475
  69.0232801  44.4583797  52.5946426  68.4054136  43.9564133  53.8819885
  13.8638602  67.5171757  23.9809108  14.5515356  67.9091740  23.4426999
  13.4017191  66.9264698  23.3861685  57.9163377  21.7577740  28.6392673
  57.2781293  21.2950036  28.0963405  57.8459947  21.3420197  29.4985850
  29.6051894  34.5180511  62.8402090  30.2979670  35.0912952  63.1683588
  28.8245974  35.0717521  62.8222704  10.0738552   2.9237601   3.9407523
  10.5179622   3.7297627   4.2041095   9.4982269   2.7160022   4.6767696
  11.5675555  43.7316418  69.1038895  12.0050345  44.3769121  69.6592855
  11.3300333  44.2172813  68.3139706  81.7284587  83.2905999  14.1353782
  81.4290479  82.4267116  14.4187244  81.2164644  83.4751668  13.3479579
  86.7894459  74.8976707  50.7021618  86.6279125  74.6380997  51.6092253
  85.9165764  74.9885798  50.3199863  16.5372483  65.9466120  13.2449325
  16.1448304  66.2913462  12.4428065  17.4796550  65.9671828  13.0785449
  81.6997623  46.1504984  69.1204739  80.9004498  46.4847326  69.5274305
  81.9394779  46.8191099  68.4788179  48.1771342  40.8091017   3.0891688
  48.9973752  41.1575362   3.4384902  48.0127112  40.0202510   3.6058124
  31.4689840  14.0272528  59.9193001  32.2782434  14.1631514  59.4264793
  30.8678354  14.6905142  59.5802593  60.2414799  57.1485424  60.8910799
  59.4498634  57.5486183  60.5312061  60.4332256  57.6612377  61.6763210
  86.5988639  87.9363766   1.9129260  87.1206144  88.6984673   1.6614707
  86.5638212  87.3985329   1.1218961  68.1179540  36.1667105  20.8829387
  68.7328355  36.3742587  21.5865691  67.8791158  35.2524325  21.0354980
  19.3064035   2.1409518  72.9529381  19.8478140   2.4602801  73.6748314
  18.9287866   2.9321104  72.5686026  24.3698419   8.9902502  61.1137390
  24.7425665   9.7147757  61.6161108  25.0265325   8.8006312  60.4436350
  39.6211433  80.2549648  51.5634823  39.4935298  81.1351490  51.9173479
  40.4876089  80.2832699  51.1576843  38.1707872  15.2793318  72.3524475
  38.7020887  14.8028666  72.9903650  38.0733694  14.6710306  71.6198492
  12.3577608  -0.0509542  53.6310005  11.5033020  -0.1233572  53.2056856
  12.7850450   0.6814867  53.1869411  44.3682258  33.2880923  18.9481624
  44.8848264  32.6042077  19.3743785  43.5485999  33.3119580  19.4419940
   0.4298888  44.9031210  40.4337072  -0.1945295  44.2443085  40.1299047
   1.2849627  44.5608997  40.1730156  60.6834809  42.5487849  13.8424857
  59.8785703  42.6937339  14.3398173  60.7851998  41.5971896  13.8234599
  50.4558484  15.8464953  10.4780563  49.8585145  15.0985572  10.4810699
  50.7084481  15.9475848   9.5603355  14.2217455  58.5691118  22.2017121
  13.8148890  58.3899498  23.0494142  15.0910864  58.1735325  22.2649050
   3.1476037  32.9197976  10.5279716   3.7090532  32.1446034  10.5366691
   3.5335581  33.4875962   9.8609813   9.4410048  68.3958149  54.3393373
   9.7710619  69.2942667  54.3309450   8.9478693  68.3141756  53.5230160
  16.9469894  83.4949007   1.0763724  16.0182584  83.5231033   1.3063748
  17.1400608  82.5630393   0.9734710  45.1718251  29.2243430  18.5390075
  44.8142783  28.8900468  17.7164252  44.4502990  29.1461274  19.1631206
  56.8475771  60.4296684  55.9428453  56.2574053  59.7684050  56.3043165
  57.0970917  60.0849819  55.0854254  27.8957812  28.3091828  11.1293204
  28.7032620  28.6178681  11.5403255  27.5716178  27.6287791  11.7194064
  56.2649107  76.6161776  62.0417213  57.0169067  77.0471430  61.6355133
  55.5154467  76.8971586  61.5167570  88.6259270  72.7723503  66.5637922
  88.3113003  73.6578703  66.7457199  88.6846066  72.3574829  67.4244165
  87.0534039  66.8846130  49.2442608  86.4690590  66.7512751  48.4979391
  87.6454735  66.1328125  49.2222023  57.4550263  12.3152730   9.2786487
  57.5413815  11.5687844   8.6857494  58.0007855  12.9969355   8.8865646
  68.4311501  13.2853028  29.6316417  68.0491464  13.6223647  28.8212760
  68.7832181  14.0596101  30.0706561  68.3698575  33.8351485  11.3482173
  68.9729802  33.1634614  11.0299380  68.8736264  34.6480414  11.3076671
  91.9611168  77.1818018  38.0029941  91.7953968  78.0359888  37.6040792
  91.5215683  77.2247267  38.8522220  40.4119889  14.0557429  54.2164500
  39.6964089  13.9215085  53.5950358  40.0231902  13.8747498  55.0722011
  78.5260582  81.8332863  52.3443031  79.1551971  81.4005089  51.7671251
  77.6745844  81.4953804  52.0667458   9.9731888  81.7983571  21.8405898
  10.6217684  82.0114961  22.5115283   9.2170824  81.4771190  22.3318561
  34.0450681   6.4874083  45.6474924  34.6488489   7.1808916  45.3814745
  33.2150472   6.7197806  45.2311945   6.8306742  57.2073984  68.4204674
   7.4235163  57.1791649  67.6694918   6.3274203  58.0123997  68.2981968
  36.5720527  55.9608218  13.8697417  35.9203546  56.3247630  13.2705100
  37.1533648  55.4476973  13.3084758  63.5558796  82.1237850  47.6790047
  64.2409563  82.2493553  48.3356142  64.0238953  81.8282986  46.8980551
  42.3499311   7.8284746  72.6077461  41.4446844   7.6101691  72.8293180
  42.8426088   7.6483256  73.4084034  94.1228488   3.5937125  67.3585272
  93.4833101   3.2059485  66.7611504  94.7000030   2.8678232  67.5956059
  77.0431852  74.3274260  56.9298267  77.7143574  73.7677050  57.3202944
  76.3833046  73.7167025  56.6014910  62.1740739  36.5057608   0.6787189
  62.7651231  36.8534419   0.0108798  62.5898473  35.6931731   0.9669431
  73.7739102   7.0199010   7.9435142  72.8491799   6.7818496   8.0101569
  74.2059152   6.4930293   8.6158259  11.8372466   2.3906562  19.9405082
  11.2088706   2.1354148  19.2650588  11.8833282   3.3446070  19.8765739
  84.5942990  43.7582919   6.8775066  84.2376534  43.8372847   7.7622684
  84.1810147  44.4696852   6.3882812  58.0144453  68.0238199  64.7200441
  58.1429338  67.5791597  63.8821936  58.8559580  68.4428453  64.9003410
  73.3978844  84.3769932  72.5030947  72.4467945  84.2692852  72.5111055
  73.7395525  83.5022926  72.6885176  76.8999958  56.3585711  37.7819538
  77.6733494  56.8865395  37.5834608  77.2432947  55.4776144  37.9312587
  21.3426508   1.8231207  52.4579811  21.5533365   1.7347246  53.3875132
  20.8817590   1.0133272  52.2387981   3.4723483  74.7912741  51.3110971
   4.3056212  75.1224232  50.9761000   3.3475981  75.2521133  52.1407318
   3.2584486  81.5419197  30.7673311   3.3049784  81.9692230  31.6225982
   2.9640303  80.6517410  30.9600282  50.2360071  22.2171980  66.1804724
  49.4055284  22.1104246  66.6443014  50.4584993  21.3354975  65.8815956
  27.9812155  47.1494770  61.5629005  27.8755389  47.1198273  62.5137854
  27.1382914  47.4659395  61.2379837  51.5104818  75.5529881  40.4632759
  52.2962952  75.7359505  39.9482512  51.0587454  76.3950872  40.5183268
  39.3999354  48.9595172  20.7902797  40.1036851  48.7562033  20.1741393
  39.0747468  48.1047961  21.0729869   4.0170969   5.2011210  43.5230398
   4.1053594   6.1296278  43.3078384   3.5419429   4.8273665  42.7809000
  46.7032824  36.1062860  70.9853840  46.6129694  37.0537710  71.0871077
  47.1467886  35.8208299  71.7841673   3.3189879  77.1098757  58.0434847
   2.6275835  76.6619444  58.5308743   4.0048800  77.2686386  58.6920118
  56.4311997  42.2562548  23.0384238  55.5951135  42.1480033  22.5851329
  57.0380322  41.6915843  22.5597365   8.1106342  83.3793941  24.2056926
   8.5038580  84.2319956  24.0194686   7.6755632  83.4956446  25.0503429
  66.9579713   9.3034932   9.2575248  66.5530126   9.0548178  10.0884231
  66.9012944  10.2588507   9.2399104  69.0393591  81.4553356  71.3912344
  68.1297827  81.7487049  71.4445066  69.1883135  80.9865856  72.2124004
  40.9882180   8.0945918   1.7024501  41.1489598   7.3709628   1.0968431
  40.9974830   7.6882121   2.5690539  87.1721700  27.8571230  65.4055357
  87.1755079  27.8653723  64.4483757  88.0977634  27.8309161  65.6480598
  76.1778164  47.2245455  56.3593340  77.1217012  47.3730659  56.3022852
  76.0868883  46.2723255  56.3945436  12.2846518  76.1263561  40.9516430
  12.6477061  76.6971540  41.6288471  11.4287196  76.5056562  40.7522631
  59.0852404  65.5936432  34.3307090  58.7579012  66.1327219  35.0507617
  58.7682438  64.7122812  34.5280528  40.2002923  33.6988017   9.6402343
  39.6497361  33.2355067  10.2714809  40.3382270  34.5617816  10.0307162
  39.0886701   2.7563673  29.0809631  39.5321287   2.7845770  28.2331562
  38.6017812   3.5793597  29.1240883  39.6440045  21.3667485  15.7409080
  39.1382520  21.4163014  14.9297412  40.2313058  22.1216676  15.7034762
  48.0324714   3.3158967   7.6080402  48.2875459   2.8637358   6.8038543
  48.8551919   3.6479089   7.9674037  75.3229380  57.2285271  66.6382837
  74.4636536  56.9281530  66.9343185  75.2282143  58.1770468  66.5513134
  24.0436853   2.0251948  65.8840466  24.0416063   2.8136832  66.4267445
  23.2142271   2.0601851  65.4075956  46.6935743  25.0655085  65.0539207
  47.4189199  25.2418429  65.6531000  46.5259756  25.9056383  64.6269321
  17.6943946  86.8721485  51.4656639  18.6349094  86.7483139  51.3378859
  17.6010609  87.0486546  52.4018097  66.6852188  88.0642319  61.9172239
  65.9170866  87.5760555  62.2136879  67.3623943  87.8600121  62.5621653
   7.5660984  40.6843516   4.3709262   8.0683748  40.4946849   5.1633819
   7.6039760  41.6369960   4.2856296  70.5516577  68.6969614  67.6184654
  70.5945015  69.4401836  68.2201385  70.0614500  69.0265083  66.8652582
  36.7061723  10.9325224  58.7919760  36.7299570  11.2060839  59.7089481
  37.0272459  11.6926485  58.3068562  44.9121062  24.4423434  19.3696960
  44.1485183  24.8071191  18.9223750  44.9431149  23.5291192  19.0845759
  61.8473069  32.0628974   1.9358523  61.9632737  31.1776730   2.2810491
  61.0327355  32.3702857   2.3336204  90.6033914  24.2970750   7.5947173
  89.9454324  23.8567349   8.1327041  91.3981358  23.7773606   7.7151569
  86.1268902  78.0108595  53.2426929  86.1951733  78.3261824  52.3415041
  86.1553001  78.8045740  53.7769604  76.7247057  33.2488632  67.2410631
  77.4775600  33.7101316  67.6107550  77.0975876  32.6891232  66.5599728
  29.8803816  19.3120694  68.6176395  29.8939047  19.6821523  67.7349806
  29.1190348  19.7152817  69.0347672  14.5887576  50.4719067  59.5008135
  15.3580485  51.0249996  59.6368599  14.9033747  49.7553730  58.9496088
   6.1673750  15.3729349  67.0529652   5.3539575  14.8776823  67.1494532
   6.2388719  15.5351549  66.1123276  71.7674303  59.1503239  57.8322029
  72.4218512  59.3725395  57.1699429  71.2225294  58.4825134  57.4158573
  89.0573406  83.1165028   3.7144607  88.8918400  82.1740627   3.6888149
  88.3892345  83.4609699   4.3070763  59.1409254  82.0595837  61.1328554
  58.6174870  82.8320408  60.9194183  59.9501801  82.1734619  60.6344891
  51.2210957  22.4592587  13.4158786  51.9364469  22.1952245  13.9944919
  51.6107385  23.1143710  12.8368743  78.4827665  22.5844485  50.2581263
  78.5753349  21.6321760  50.2870178  79.3449167  22.9008204  49.9882460
  12.1848167  15.4794031  66.5694427  12.1435989  14.8220736  65.8748484
  13.1210197  15.6182391  66.7125654  55.0737000  80.4467583  20.1257110
  55.2703953  79.6370935  20.5968547  54.1239023  80.5411530  20.1978445
  13.2290676  57.3486182   1.9191058  13.2628753  56.4555976   2.2620185
  14.0229251  57.7645156   2.2553571  44.5469157   0.7811925   6.6624721
  43.7034718   0.5436370   6.2772449  44.9255053  -0.0521377   6.9425948
  45.5906595  79.7524777   2.6784356  45.2613939  80.1468244   1.8707831
  45.4078687  80.4043522   3.3551009  11.5633787  78.7910881   1.3739951
  11.3655914  78.8299337   2.3097308  12.4883236  78.5478630   1.3345941
  12.9483042  60.6485271  46.1447430  13.0855856  59.8714828  45.6029081
  11.9986735  60.7001400  46.2532425  80.6781915  70.1527014  21.7340072
  80.9262851  69.3099084  22.1139892  79.7905973  70.3088584  22.0565398
  56.0940599  32.7503705  73.6134720  56.4681053  31.9343686  73.2811069
  56.7615032  33.0958200  74.2062759  43.8003063  23.9934301  63.7072849
  43.5539389  23.1054306  63.9661169  44.7030210  24.0896082  64.0107346
  92.5914624  38.4819230   2.2942956  93.3417466  38.7983426   2.7974685
  92.4097923  37.6141932   2.6552280   0.5046040  30.5319190  57.6467991
   0.6737127  30.0457168  58.4537983   1.1545229  31.2346458  57.6498985
  85.6481031  55.7814839   5.6582053  85.7741454  55.9948984   6.5827544
  86.5321210  55.6262961   5.3255447  38.0086514  87.8406084  21.7127705
  37.0963332  87.8411621  21.4231038  37.9797360  87.4694078  22.5945902
  68.9302723  81.1478096  33.6826897  69.1802506  81.4445895  34.5577121
  69.6016269  81.5116250  33.1054950  10.3258810   1.9248955  71.2994480
  10.5303965   2.0486999  72.2263098   9.3820868   2.0732966  71.2405348
  67.7156782  85.2385744   4.3584331  66.8970060  85.7344708   4.3486961
  67.4970102  84.4241652   4.8113711  42.8140393  38.5466501  18.6433490
  42.2894243  39.3366888  18.5135348  42.1818414  37.8293195  18.5986789
  46.8497705   9.3913519  53.2716894  46.7275000   8.7336081  52.5871086
  47.6774740   9.8175663  53.0492449  65.4558852  35.3026727   6.2744697
  64.6062997  34.9308947   6.5115722  65.5422595  35.1246777   5.3379424
  40.4652211  84.0508616  49.6560860  40.6012580  84.9969432  49.6045685
  41.3484427  83.6832875  49.6883059  26.2055585  88.5111360  73.5201979
  26.9006249  88.8353757  74.0928936  25.4179904  88.5321660  74.0638256
  13.1370970  85.3962836  39.9041581  12.4826428  85.5087757  40.5935526
  12.7331731  84.7853568  39.2878413  13.9922282  54.9085182  48.3984518
  13.8913295  53.9642304  48.2785749  14.8989722  55.0180525  48.6849022
  18.2999036  58.2110494  68.7324095  18.1601903  58.9074701  69.3740559
  17.9081818  58.5463017  67.9259443  41.3691235  88.3006033  16.8120273
  41.5892839  87.5053343  17.2971137  41.7939806  89.0050253  17.3014339
  26.7108628  72.0342952  39.3788838  27.6015136  71.8065125  39.6455050
  26.1605450  71.3649172  39.7854733  79.6439412   2.9354372  27.6449760
  80.4445604   2.6596775  27.1986659  79.8741105   3.7681857  28.0570205
  64.3588161  39.1789341  74.3841219  63.5090971  39.5291996  74.1166735
  64.6735239  38.7016582  73.6163998  78.4577468  48.1642264  19.8828872
  78.8842252  47.3100325  19.9514373  77.6399520  47.9870111  19.4180854
  39.1995215  41.4823961  61.8758535  39.7876906  40.7273960  61.8597698
  38.3791804  41.1394310  62.2303200   4.5158312  81.6190875  74.0375471
   5.3926822  81.8402141  74.3513441   4.0261218  81.3994521  74.8301268
  35.4106951  12.6034439  71.7318249  35.2607369  11.7973733  71.2378645
  36.3523078  12.6072884  71.9038200  25.8160874  75.4142588  70.6129217
  24.9044081  75.1997572  70.4152870  25.7707497  76.2532085  71.0715485
  30.2413201  11.3027716  30.9100008  30.3099847  10.3607833  31.0654855
  30.8267403  11.4667904  30.1706672  61.7038012  27.9779196  71.1415482
  62.5059891  28.4494162  71.3660955  61.6474390  28.0416226  70.1881361
  22.5359437  78.9126295  41.9319201  23.3007666  78.5530251  42.3813295
  22.0466992  79.3668747  42.6178741  59.8032001  58.6495629  25.6279166
  59.8875621  59.5373609  25.9756644  59.8692539  58.7567296  24.6790298
  32.8227401  22.1248794  76.1839533  33.7580347  22.3280597  76.1708927
  32.6954722  21.5346265  75.4412317  90.7342659  79.1195011  59.2583132
  89.9750005  79.3750054  58.7344217  91.0603510  78.3248991  58.8358116
  49.1925621  47.3101568  16.2139118  48.2706499  47.3535681  15.9600782
  49.5035172  46.4828920  15.8462524  52.7157831   2.5697821  68.9815569
  53.6095142   2.6277134  69.3193626  52.1606159   2.6624990  69.7557783
  80.2362016  60.2581897  10.3810676  80.8838990  59.6427026  10.0377162
  80.7182458  61.0781827  10.4882033   9.5553204  84.7274995  34.9986196
   8.9096734  85.3717363  34.7082305  10.4009864  85.1306081  34.8021770
  49.1543484  14.0903127  67.8393126  48.9953804  13.1682360  67.6374817
  49.0977955  14.5339429  66.9930124  36.7013812   6.1779004  51.3678885
  36.7864323   6.3410074  52.3072481  37.4823332   5.6731653  51.1407614
  79.1325449  88.3180869  42.6393938  79.1445087  89.1843142  42.2322798
  79.0345966  88.4945281  43.5750771  24.4528243  63.5568255  39.0257478
  25.0400492  62.8490752  39.2912364  24.2426631  63.3636588  38.1120992
  26.3301656  79.6115178  56.6873169  25.4540583  79.8312843  56.3705063
  26.1811539  78.9544445  57.3672342  12.2355839  75.3041726  28.6318731
  12.1348664  75.8939391  27.8847003  11.4535424  74.7527081  28.6088395
  71.4749520  81.4717203  47.5884151  72.1672677  81.4912528  48.2491302
  71.0675399  82.3361814  47.6427650   1.3118216  70.0877410  42.4779749
   0.8844778  70.6879157  43.0890417   1.7790863  70.6590396  41.8684578
  70.5885509  10.6686082  13.4269794  70.1235560  10.2296367  14.1392406
  69.9064997  10.8779540  12.7888473  29.7074410  77.3698956  53.3034515
  29.0525529  77.3789090  52.6054049  29.2417809  77.6973277  54.0729856
  52.7223371  79.9200952  30.6385708  52.1386491  80.2920783  31.2997603
  52.5011765  80.3880024  29.8333502  73.8423827  21.1441603  24.2294868
  74.7147754  20.7798901  24.3793853  73.2513955  20.3971806  24.3242725
  88.9996866  86.5770522   0.0473436  89.8393014  87.0352211   0.0841888
  89.1487029  85.7646742   0.5311473  17.0581786   2.8195283  11.2925990
  16.1826245   2.4356744  11.3404449  17.0027272   3.4542224  10.5782302
  14.2904278  86.6467202  45.5703545  14.9164626  86.4588241  46.2696457
  14.3768069  85.9087503  44.9668884   6.5711042  83.9558887  48.7634182
   5.8076641  83.6763358  49.2686272   7.1598241  84.3411392  49.4124317
  87.7575973  15.5733886   5.4684337  87.5576547  16.1892834   6.1733611
  87.3095611  14.7662154   5.7213481  59.4829893  51.3845634  67.0298481
  59.0025759  51.4491034  67.8552389  58.9872026  51.9317389  66.4207315
  52.3146248   4.3989789  43.7263012  52.7807617   4.2259628  44.5442343
  52.5309181   5.3071284  43.5148430  17.1718872  27.1471524  41.4341545
  17.5118017  27.1980262  42.3275185  17.0720100  26.2096262  41.2689161
   9.5074364  62.5560087  37.5497675   9.6862265  63.0162853  38.3697748
   9.8905131  63.1143922  36.8732357  14.5967051  72.5480944  30.4749322
  13.8058564  72.5968128  29.9378872  14.3829104  73.0489856  31.2620997
  80.9862756  86.6501082  53.4934187  81.3943671  87.3530748  52.9879189
  81.6557049  85.9673846  53.5379648  72.5503448  70.1186004   0.4684337
  72.5255445  70.1717415   1.4238341  72.7388194  69.1983285   0.2845510
  38.9415899  57.4831799  10.6079944  39.3926087  56.6407922  10.5514606
  39.6173570  58.1306317  10.4070552  80.0454617  37.8972292  74.9510098
  79.3690920  37.4935389  75.4948711  80.2679825  38.7082243  75.4081774
  12.9553172  75.1253062  70.2215290  13.6910769  75.7185095  70.0698519
  13.1065652  74.3971521  69.6189117  47.6326323   6.5749717  48.7652588
  48.5134697   6.6187817  49.1373396  47.4879122   5.6430668  48.6014271
  78.2260755  58.0224624  20.5181773  77.8249410  57.6666453  19.7252639
  77.4900106  58.1774071  21.1101516  52.0211407  73.6584765  53.3000326
  51.1961743  73.8720232  53.7360048  52.5933549  73.3558494  54.0051746
  92.9822575  88.4581206  73.3641529  92.2906481  88.9930964  72.9746580
  92.5465499  87.9799518  74.0696621  16.9221080  73.9670387   2.2811778
  17.1230997  73.0665055   2.0264705  16.9654478  73.9608422   3.2373794
  91.7370592  83.5791695  73.5868216  91.3642870  84.0739867  72.8571415
  91.7087566  82.6673043  73.2971096  31.1635682  82.2880971  72.0350504
  31.8150899  82.2966367  71.3338518  30.6189677  81.5237939  71.8466806
  32.4904132   0.3580149  14.6577799  31.9014883   1.0782287  14.8829269
  31.9147396  -0.4004360  14.5598793  89.3089138  70.3008550  36.2795544
  90.2522479  70.2181023  36.4192128  88.9570748  69.4394511  36.5041041
  68.6264627  71.8918425  20.6090832  68.9812242  72.7028030  20.9733915
  68.3448927  72.1292168  19.7255659  29.3781328   1.8167219  26.8050694
  30.1338291   1.9595808  27.3749352  28.6303377   2.1244292  27.3172712
  54.8612928  15.8839059  76.5393066  54.0479469  15.4010689  76.6861629
  54.7694588  16.6749465  77.0703936  31.5333605   7.6384592  75.9121704
  32.0719600   7.2187340  75.2413702  30.6355762   7.5386423  75.5955505
  89.1658881  49.0952828   7.2176822  90.0678304  48.7753036   7.1990283
  89.1823200  49.8217645   7.8407271  30.9665248  81.0710514  44.6749306
  30.2542683  81.2660283  44.0659094  31.7496106  81.4160651  44.2460060
  59.7963241  44.5362296   5.6755336  59.1432622  43.8424381   5.7671435
  60.0607947  44.4963723   4.7564586  32.4510159  67.0609656   1.8982728
  32.6407711  66.7973009   0.9978803  31.5033780  67.1950140   1.9139274
   0.8821651  71.6900843  46.8306398   1.4990780  72.4218672  46.8186998
   1.3451215  70.9941190  47.2970486  47.8949881   0.4956380  48.0228138
  47.0994186   0.7517011  47.5562000  48.5139179   1.2045605  47.8479147
   9.8875588   1.3776997  74.2396164   9.1489482   0.7754569  74.1502380
  10.2741337   1.1584487  75.0873899  16.7074478   5.8620447  45.6750488
  17.4833024   6.3058615  46.0175514  15.9724486   6.3910496  45.9851456
  72.2212267  24.8430109  17.6688373  72.4621868  25.0941348  16.7771506
  73.0294800  24.4963813  18.0467403  26.9658658  74.1422516  33.7126970
  26.5156409  74.9599224  33.9246941  26.2857434  73.5857624  33.3332396
  93.5233548  17.5349608   1.1169751  94.4181541  17.8741565   1.1397107
  93.2964948  17.3959008   2.0364507  93.5103308  82.5790781  31.0091877
  93.4324824  81.7884082  30.4753232  94.4335591  82.8229535  30.9428120
  88.8334145   1.4291815  57.2465181  88.4383579   1.8954033  57.9832649
  88.0960192   1.2167298  56.6743755  40.7562351  18.1392837  75.1639652
  40.4069138  18.4325182  76.0055208  41.7014313  18.2710218  75.2379751
  37.5782344  64.3233389  59.8352766  37.5627658  65.2795380  59.8762226
  37.0803496  64.0426391  60.6030941  94.0897189  86.7918774  71.4468956
  94.6596586  87.2793585  70.8521175  93.6099230  87.4673606  71.9262218
  30.0807997  80.7265222  61.7078829  29.1689440  80.9135663  61.4847994
  30.3367230  81.4422858  62.2896194  47.3485085  82.1774727  63.7774324
  47.1314666  83.0968720  63.6230612  48.2829282  82.1154398  63.5793352
  91.1613165  81.3822293  66.5390539  91.1151325  82.3223972  66.3653231
  90.4028713  81.0169357  66.0834742  83.5572158  77.4875349  50.4145575
  83.1526839  78.3544987  50.4455042  84.4960700  77.6633877  50.3524160
  79.8796558   3.2170749  66.4816666  78.9703560   2.9180664  66.4805889
  79.8187256   4.1688079  66.5636635  58.5734749  11.5104318  75.2300930
  59.0928888  12.1190608  74.7047234  58.2058907  10.8976769  74.5931911
  59.6968174  20.1060605  72.2863674  59.9760532  20.9014773  71.8329668
  59.6949148  20.3466082  73.2128477  90.2224456  66.4035100  45.0797510
  90.1649891  66.7556471  44.1915321  89.3521940  66.0438174  45.2515554
  62.2311592   6.9860047  35.4691958  62.9711294   6.4529139  35.7598734
  61.5170670   6.7470777  36.0601425  70.5071211  25.2119851  53.3484125
  71.3016415  24.7621751  53.0609322  69.9574280  25.2509260  52.5657558
  64.1589451  77.2904968  74.5002794  64.0862417  76.7326164  73.7258673
  63.9218616  76.7187691  75.2304506  49.1300726  38.9062858  62.8438997
  48.8814306  38.5587072  63.7004042  48.7900543  38.2668328  62.2180223
  41.1461353   3.0514634  72.9223347  40.2688265   2.7366367  72.7045107
  41.2750721   3.8122553  72.3559427  69.3734490  70.6465536  28.1905127
  70.1855009  70.3319830  28.5878158  69.2242603  70.0568205  27.4514675
  58.3869743  40.7371378   7.3889029  57.9076433  41.5180254   7.1119839
  59.0346479  41.0627699   8.0139762  93.6409437  77.7863997  73.6802673
  93.5235893  77.0416170  73.0905581  93.0056559  77.6394767  74.3810225
  43.4652758  28.9735961  45.2476406  43.4271097  28.0499125  44.9994802
  42.6704359  29.3548465  44.8746634   3.6882175  88.2265988  22.4820026
   3.8500322  88.8953820  23.1474097   3.3122743  88.7080183  21.7450221
  28.0235076  11.5727866  45.0057840  27.2230554  12.0815325  44.8766041
  28.7163401  12.1173418  44.6320534  58.7079000  15.9875798  53.8429737
  59.1065407  15.3705394  53.2293129  57.8257132  15.6454134  53.9875364
  17.7120841  13.4188282  68.4726954  17.2549498  12.9664147  69.1816282
  17.6053464  14.3485582  68.6738014  54.6989727  26.1784387  59.0243721
  55.4838896  25.7637954  59.3824387  54.7002459  25.9344673  58.0987883
  88.4809767  62.8161710  61.3787460  89.1672908  63.3152956  60.9359360
  87.6634060  63.2023734  61.0646439  35.1324701  29.9465370  46.1796331
  34.5592022  30.6215596  45.8163977  34.7445059  29.7342253  47.0285368
  23.4705779  80.1012552  32.6776266  23.0795857  79.4457346  33.2552505
  22.9100272  80.8710325  32.7748752   0.9718765  63.5769215  12.0199092
   1.8591465  63.8975432  11.8580707   1.0655655  62.9754987  12.7586539
  72.7436829  12.9055834  30.5995536  73.6652231  12.6544547  30.5368733
  72.3065948  12.1279371  30.9466171  82.8155187  44.9591917   4.5058616
  83.3891729  45.7234271   4.5615085  83.3053497  44.3300889   3.9762099
  64.3048569  63.1709307  76.8811798  64.9581048  62.4906629  77.0446920
  63.9847657  62.9882306  75.9977818  74.5176888  13.6477661  57.4923038
  75.2176809  14.0769839  57.9842520  74.8214197  13.6586118  56.5846348
  75.7214692  32.4820164   6.0300334  74.8185638  32.2203234   6.2103541
  75.6646398  33.0016640   5.2281840  57.7968740  39.0177417  75.2794695
  57.9674864  39.9585509  75.2347183  58.5434246  38.6615872  75.7611847
  19.6705604  17.1762371  74.2993975  18.9373243  16.6201258  74.0360737
  19.9759507  16.7958653  75.1229763   8.5760606  38.2470128   7.0824988
   8.8522114  37.5058225   6.5434154   9.0615619  38.9931384   6.7306216
  10.5411876  66.0335985  31.8620093  10.1665415  65.4046860  32.4787315
  10.1307119  66.8673935  32.0911868  30.8460188  28.0168295  57.9813576
  30.8230567  27.3329258  58.6506653  30.6564856  28.8249516  58.4580612
  48.9585114  10.8051920  52.6146650  49.6402168  11.0696232  53.2323933
  49.4203711  10.6862664  51.7847395  48.7249422  12.7382171  39.0608788
  49.2804337  12.2362435  38.4644866  48.6725283  13.6079001  38.6644745
  67.9973762  75.4020828  59.3064928  68.5405736  74.9123520  58.6889696
  67.7071976  74.7474307  59.9416780   4.4871391  76.5973392  20.7726939
   4.2254795  77.0168820  21.5922912   5.4060281  76.8412772  20.6614574
  57.4045801  34.4039392  66.6652966  56.7721701  34.5685697  65.9658766
  58.0664825  33.8420320  66.2623358  55.9384584   9.2166930  48.0798769
  56.6861916   9.4103771  48.6452198  55.8120155  10.0155282  47.5679111
   7.2180030  86.3672537  74.1023254   6.3132307  86.4929497  74.3883657
   7.6685616  86.0272565  74.8753929  58.2005930  17.3558819  35.7564735
  58.8016987  17.8836048  36.2822199  57.6907349  17.9963756  35.2604461
  75.7834386  76.5202826  58.2841635  75.4977154  77.2855312  57.7851772
  76.3912379  76.0667759  57.7000904  42.8625787  75.3491774  40.7966121
  43.2847513  75.9687820  40.2015479  41.9756235  75.2509489  40.4503425
  15.2164790  61.6997546  69.0271854  14.8125598  62.4476737  69.4672966
  15.4690501  62.0356888  68.1671906   3.2811464  53.8351002  25.0855716
   4.2275871  53.6922094  25.0934775   2.9073824  52.9743841  25.2745231
  50.9276768  81.3833475  31.9014454  51.4689442  82.1166527  32.1938872
  50.2585789  81.2939465  32.5800824  22.1917748  44.5633078  41.2397575
  22.8410459  44.4636917  40.5435133  22.5364566  45.2667665  41.7898178
  46.5959740  43.0101061  71.3035774  45.7645178  43.3713865  71.6107941
  47.2565126  43.4220839  71.8605280  51.6275740  18.9532876  14.7168541
  51.3316917  18.4559989  13.9543653  52.4390173  18.5216236  14.9841762
  91.9716965  64.9712366  41.0047388  91.6071783  64.5013660  40.2546835
  91.7960535  64.4008368  41.7530870  28.1901166  76.1916739  31.1510849
  27.9183051  76.7207605  30.4011393  28.6071774  75.4224819  30.7629633
  81.2526420  34.0090921  14.4508918  80.4912236  34.3984774  14.0209373
  81.8214753  34.7526911  14.6501907  93.1366590  66.8554845  13.6908897
  92.1846870  66.7587915  13.7159713  93.3805469  67.0595470  14.5937236
  61.3361645   1.2704827  35.3528476  61.1166191   0.6260550  34.6799850
  61.6387224   2.0349601  34.8626781  32.5214860  65.0465792  75.7633448
  32.7444836  65.7070082  76.4193487  32.0139977  65.5232543  75.1064825
  67.7334785   3.5348547  50.9097052  67.0007324   3.7111431  50.3195906
  67.7748871   4.3048573  51.4768171  38.4193254  23.5926890  38.1988573
  39.2084765  23.0509925  38.1927896  37.7910304  23.0947495  38.7218595
  39.4271037  76.6645032  44.6291399  40.1581141  77.0874447  44.1786194
  39.4279191  75.7668930  44.2966890  27.6793814  26.0848308  58.2827377
  27.9981375  25.6036830  59.0463638  26.7834854  25.7713318  58.1589508
  77.1590141  35.0519600   5.8965095  76.6775611  34.9686822   5.0734027
  76.5470842  34.7423795   6.5642913  31.1682173  54.2555636  56.4987087
  31.0307690  54.2775530  55.5516815  30.9582135  53.3562368  56.7503929
  36.8630481   1.1119176  55.3408670  36.8869781   0.5271661  56.0983133
  37.7602673   1.1087210  55.0073767  46.8323803  12.6087081  44.6294594
  46.2174559  12.1566117  45.2071381  47.0018148  13.4434330  45.0662184
  35.6180215  26.7446780  55.4095936  35.0655484  25.9716511  55.2936792
  35.1822925  27.2497225  56.0961056  77.7037001  17.3523510  75.5061102
  76.8837595  17.8331149  75.3930044  78.2903242  17.9764843  75.9333849
   6.5016764  23.2097650  65.0708580   6.9974691  23.8451695  65.5872679
   6.3596725  22.4748540  65.6674957  46.4599752  38.8964510  71.1952877
  46.7487907  39.5224929  71.8592834  45.5451488  38.7197042  71.4145708
  19.9103034  15.9430492  48.2247496  19.7691309  15.4634309  47.4084949
  20.5107021  16.6495013  47.9866743  50.3665495  15.9589779  48.9907598
  49.9175215  15.6680453  48.1970549  49.8945236  15.5293941  49.7041178
  69.2024803  23.7230158  55.2105188  69.9120235  24.2469645  54.8386955
  68.8081026  23.2844949  54.4565964  71.8647194  32.5665379  50.7909822
  71.8706226  31.9554400  51.5277052  71.1501360  32.2610831  50.2321482
  59.9438238  18.7579405  30.1743197  59.9691391  19.6586251  30.4973674
  60.8552265  18.4669602  30.2044892  66.9016171   9.0134817  65.3882647
  67.2341728   8.9113539  64.4965172  66.2995911   8.2785219  65.5050182
  48.8179776  87.2592987  46.1311769  48.0028006  87.4401230  46.5991783
  49.4960877  87.6796196  46.6600657  42.9582021  62.0188826  53.5327387
  43.3666274  62.0249218  54.3984079  42.3632046  62.7686137  53.5433912
  85.0648406  65.7051101  10.3105052  85.4192498  66.4899435  10.7284339
  84.7128156  65.1866641  11.0340484   7.0007440  72.6169735  36.3005352
   7.1019527  73.2363039  35.5777502   6.0952708  72.7314717  36.5890479
  64.3591881   3.3141619  70.8130836  64.1130733   3.1475917  71.7229795
  64.8420811   2.5312230  70.5484056  55.7999134  10.0602591  72.7942371
  54.9333048   9.8494685  73.1417751  55.7503223  10.9907556  72.5752687
  80.0931648  65.6460371  23.5638221  79.1486839  65.7848111  23.6340697
  80.2085260  64.7066679  23.7070449   6.0832760  72.0740849  45.4715776
   6.6383216  72.8289860  45.2759218   5.1946756  72.3741752  45.2803516
  32.7926683  19.8370278  64.6182346  32.9748988  19.6960664  65.5472946
  33.5547185  20.3176260  64.2949152  51.7296982  12.3423994  69.9118853
  52.2527027  11.5538120  70.0562096  51.6231918  12.3885965  68.9617538
  72.5776151  83.2606044  11.8670447  73.1990388  82.5846520  11.5965636
  72.5074151  83.8390937  11.1076625  62.5266245  42.0475708  11.1066993
  63.3767298  42.4216753  10.8751948  61.8906620  42.7042407  10.8228572
  34.1427135  16.7443168  55.8752966  33.9121795  15.8926892  56.2465334
  35.0982428  16.7309129  55.8203650  55.7354355   5.5755281  72.0462322
  55.8367634   6.3678169  71.5187407  56.1351252   5.7953167  72.8877592
  78.5058975  25.3068495  58.8315630  79.2043972  24.7122765  58.5580492
  77.7462435  24.7395158  58.9630604  83.4432367  82.7262702   3.8391097
  84.2083362  82.3811951   4.2993053  83.0827716  81.9712558   3.3740886
  35.3303099  10.1732469  53.2875109  36.1756754  10.3930855  53.6789942
  35.3944516  10.4889035  52.3861313  54.7583154  49.7899070  20.5473979
  54.8792437  50.6400111  20.9704002  55.5568364  49.3040275  20.7536014
  56.6988134   6.7423975  36.5893841  56.9256115   6.9865686  37.4866986
  56.6228437   5.7885009  36.6126561  57.0552063  12.5984287  56.0929298
  57.1006775  13.1043196  56.9042492  56.7823410  13.2327950  55.4300880
  78.2518295  58.0663267  14.5629867  78.6125758  58.5261312  13.8049110
  78.5661653  58.5647479  15.3173144  46.6812468   1.4288555  74.2825317
  47.0410824   1.0439992  75.0816822  47.1692276   2.2444202  74.1686869
  64.5266294  10.7343316  57.3029184  64.7632170   9.9093199  57.7267265
  64.3772554  11.3416326  58.0275583  59.4543314   7.6454282  27.7755332
  59.2169619   7.8354079  28.6831641  59.7895193   6.7491204  27.7982092
  22.7638817   5.9761810  53.8737297  22.0815277   5.5529839  53.3526421
  23.3494306   6.3700724  53.2270336  10.0577637  87.8791727  26.9695616
   9.7583386  88.2970189  26.1621094  10.9730384  87.6568547  26.7990375
  82.0926677  82.1247464  36.1023474  81.2587391  82.5739765  35.9645510
  81.8631660  81.1957812  36.1265111  87.8840402  65.0492373  18.0199226
  87.6949313  64.1675559  17.6988204  88.6956266  65.2965799  17.5767787
  65.0318575   1.3489969  66.9717407  65.3055525   2.2241205  66.6969967
  64.6633387   1.4767066  67.8458786  46.3485384  13.9949405  49.7529125
  47.0707417  13.6848199  50.2992487  46.5664673  14.9074900  49.5631981
  82.2651958  61.6257763  55.1435375  81.8551350  61.5640306  56.0062456
  81.9297314  60.8682394  54.6641207  54.1158438   2.8216234  32.0220327
  53.2010603   2.9820505  32.2536898  54.5718956   2.7793565  32.8625464
  39.3088531  17.3408163  53.0352783  40.0123501  17.0888317  53.6334658
  39.4106340  16.7546713  52.2854090  36.7206049   4.3748912  53.8517618
  37.2951746   5.1229000  53.6887121  37.0033216   3.7135547  53.2201481
  79.4992876   5.2381098  52.4954844  80.0745010   4.7052795  51.9464302
  79.0153837   4.6025497  53.0228615  41.7304659   1.3158633  57.1120977
  42.0279312   0.8463274  56.3328123  40.9689426   1.8141359  56.8153811
  16.2148568  64.8605365  65.4145718  16.9828507  64.8346513  65.9853125
  16.2449500  65.7283229  65.0117397  61.5249586  11.4054787  61.6496372
  61.1518002  11.5964127  62.5101757  61.4763403  10.4525459  61.5735722
  16.8381545  70.5152756  53.9336967  16.4584586  69.6390539  53.9992571
  17.6086375  70.4854840  54.5008850  36.2476349   8.9255917  57.1379995
  37.0112085   9.2506236  56.6609907  36.1630154   9.5168114  57.8860188
  55.2304125  28.8155317  70.0003862  54.6891928  28.2354355  69.4648457
  54.9129963  28.6823273  70.8935452  75.2128719  83.8691604  28.2499695
  74.6349739  83.9932874  27.4970698  74.8403047  84.4273847  28.9324737
  30.6186080   8.2007843  38.9586544  29.9879122   7.5891346  38.5787320
  30.3055811   9.0647769  38.6907649  31.6711378   2.6525944  38.7624836
  31.0044384   2.2592786  38.1994128  31.7857289   3.5374469  38.4158754
  30.2508974  48.1379032  56.6717958  31.1201668  47.8332520  56.4114332
  30.1882648  49.0215683  56.3092422  34.5554543  24.6559405  63.2143688
  35.2525544  25.3002453  63.0912733  34.7531772  24.2471766  64.0570116
  18.2360376  82.0234123  11.6726287  18.4177984  82.5175944  12.4719985
  17.2884382  82.0943156  11.5574630  82.7342129  22.4913788  68.7328959
  82.3710728  22.6911545  67.8700829  82.2872829  21.6884470  69.0008068
  39.5855165  20.6153154  62.0628405  40.4976892  20.4504943  61.8240833
  39.6153617  20.8165646  62.9981661  44.5976210  23.7009454  57.1308708
  44.7246981  24.5744634  56.7606735  43.6472797  23.5943580  57.1724415
  27.2833583  87.9068260  27.9581118  27.9968449  88.1620561  27.3732781
  27.3077246  86.9499451  27.9622507  58.6261511  46.1886454  72.6786757
  58.7668467  45.4252672  72.1185970  58.8593102  46.9360113  72.1279335
  43.9786625   6.9321668  69.6212721  44.7886658   7.3614699  69.3459082
  44.1378975   6.0005385  69.4697952  42.7398297  69.1477007  75.9218454
  42.5249430  69.9957401  76.3102865  43.6489579  69.2384762  75.6363964
  26.5746307  37.6983047  74.6286106  25.6192732  37.6441360  74.6043110
  26.8047690  38.2174110  73.8580275  53.5486984  36.6776276  27.2698188
  53.0606365  36.6533995  28.0928874  53.5548830  37.6022124  27.0221591
  18.1511892  51.5427866   0.8625682  19.0260900  51.2963018   1.1626227
  18.2922758  51.9129017  -0.0088326  88.6363939  51.3580212  15.6572803
  88.8824275  52.2620001  15.8535464  89.3512204  51.0280481  15.1128848
  44.3817183  79.2992824  51.6599131  45.3242347  79.2647099  51.4964962
  44.2588088  78.7907904  52.4615145  26.9210839  44.1998672  29.6146178
  26.3462090  43.4900665  29.9008656  27.7801394  43.7885952  29.5191431
   3.6059758  61.8980521  36.4965177   2.7160379  61.5480035  36.5378618
   4.0753719  61.2919396  35.9233475  13.0872262  39.6078444  37.0657182
  13.0704200  39.3205285  37.9786253  12.1659660  39.7284961  36.8355989
  39.4142893  28.1478217   1.8350299  39.9611882  27.4856916   1.4122804
  39.4096223  27.8999296   2.7595599  43.8952729  78.0905491  74.2334080
  44.2627570  77.5626701  74.9423027  42.9755685  77.8285628  74.1916847
   4.1283628  87.6569301  54.3585110   4.1619894  88.6092660  54.4488287
   3.2017013  87.4393423  54.4594479  32.1269488  28.6987996  74.0381336
  32.7838969  28.0395555  74.2618513  31.8522668  28.4713912  73.1498384
   5.0919530  87.1641576  46.6368151   4.9382540  87.1029708  47.5796127
   4.5836159  87.9266152  46.3602591  11.1924709  67.0018974   6.1111529
  10.3520073  66.6237846   5.8525260  11.4945091  66.4456978   6.8292411
  79.0131095  51.5398201   2.3196300  79.1940025  50.6046459   2.2249730
  79.7890857  51.8908492   2.7565177  77.7264837  67.1596280  37.9047282
  76.8230584  67.2648850  38.2030185  78.0871871  66.4763155  38.4697135
  56.5430477  45.4170805   7.5091632  57.3759106  45.7550374   7.1799834
  55.9106830  46.1092973   7.3163303  13.9352965  19.9641657  72.0533800
  13.1064999  19.9619436  72.5322580  14.2294753  20.8743811  72.0879936
  72.9536247  16.5245366  74.6053553  73.2394361  16.6025090  75.5155516
  73.7468576  16.2880409  74.1246462  66.3091993  27.4123931  46.0548162
  66.6835546  26.7691183  45.4529095  65.6116581  27.8331542  45.5521965
  59.9940491  33.6755681  51.9643211  60.2571964  33.3863854  52.8380251
  60.0263309  34.6312022  52.0084953  48.3342791  35.2146173  56.0884428
  48.1585360  36.0987258  55.7664204  48.9247274  35.3430676  56.8308067
   6.8266863  26.6807866  25.0569201   6.5561938  27.4291444  24.5249152
   7.6288986  26.9723606  25.4901290  73.8097476  68.4580225  64.3405867
  74.5813464  67.8926891  64.3050241  74.1306542  69.2779225  64.7161055
  13.9996634  29.5347619  51.4092827  13.7832079  29.0419173  52.2007895
  14.9447642  29.6755695  51.4657640  72.9424814  68.6925188   6.4690669
  72.5625423  68.0894199   7.1079333  72.5921157  69.5497766   6.7111190
  76.3522148  12.7494776  16.6177940  76.6800928  11.8798232  16.3888192
  75.9758615  13.0853915  15.8043134  13.8677372  42.8923367   0.7315333
  13.8900293  43.8439987   0.8319028  12.9435075  42.6881137   0.5889972
  53.6190033  32.0390368  71.7371130  53.6336136  31.9409370  72.6891613
  54.5255423  32.2379231  71.5028858  80.3172588   9.9747181  66.9660616
  80.9433556  10.6342602  67.2647953  80.5474091   9.1861117  67.4573517
  40.5657148  19.4412971  68.5805988  40.1435947  20.1976752  68.9879560
  40.0428152  19.2679560  67.7978086  61.6002226   7.8419811  53.9625788
  61.1598873   7.3465663  54.6531630  60.9827471   8.5373092  53.7356997
  12.6486076  41.8193683  10.8130057  12.6192392  40.8626240  10.8160098
  13.4388555  42.0331779  10.3169902  56.1594582   0.6377208  60.1600409
  56.2752485   1.4501514  60.6527662  56.2753963  -0.0552492  60.8101034
   2.1383974  83.2694566  21.2943101   1.9279143  84.0756321  20.8231306
   3.0864617  83.1773764  21.1998177  17.2317195  29.3849826  55.1977110
  17.5615311  29.3608570  56.0959721  16.6808403  28.6056876  55.1238155
  23.3083415   1.3681333  44.8286295  22.6704168   1.2544368  44.1241074
  23.8128805   0.5547000  44.8284721  41.1463881  21.4099383  55.8672476
  41.5986395  21.2911224  55.0320339  40.2940321  21.7741752  55.6283903
  53.5801077   8.3912253  65.2851486  54.0617800   8.2956511  64.4635105
  52.6599455   8.4122521  65.0223017  37.4925733   0.8099734  74.3928576
  36.8115854   1.2388442  74.9110794  37.2504210  -0.1160727  74.3986273
  50.1243970  71.5802389  41.1124468  50.3048608  71.3031071  42.0107031
  50.1685235  70.7733446  40.5994081   2.4226376  59.1906351  39.4975615
   3.2341167  59.6982616  39.4907951   1.8368527  59.6830839  40.0725222
  93.0705646  45.5615158   0.5004151  93.4924987  44.8226193   0.9388621
  93.7352041  45.8930407  -0.1033847  21.5586468  76.1764127  60.2586651
  21.8490216  76.4202827  59.3797779  20.6205985  76.0112089  60.1637554
  47.1061230  14.7194779  64.7320223  48.0302334  14.6947205  64.4837379
  46.8825531  15.6502008  64.7304630  26.7994404  38.1414604  59.4770956
  26.7322183  38.3584976  58.5472536  26.5044904  37.2325420  59.5328236
  11.3033928  53.3882019   6.1727889  11.0067762  52.8576091   6.9121917
  11.9715275  52.8519103   5.7459148  93.8584291  84.4323564  49.7381067
  94.6112191  84.3425766  49.1537476  93.7111841  85.3764075  49.7957087
  59.3951845  11.2743676  59.5888948  60.1736164  11.1648524  60.1350546
  59.5268965  12.1147108  59.1499090  49.4601107  16.4518487  62.5429916
  49.7427845  17.0798182  61.8781757  50.0431490  15.7016039  62.4270773
  15.2022645  67.5617093  76.1652946  14.4527003  67.0348090  75.8882380
  15.9447619  66.9585890  76.1310005   2.1242305  81.0427350  59.7702503
   1.5650174  80.2786982  59.9108267   2.9687163  80.6764150  59.5077944
  48.4433508  21.9607258  61.3802671  47.8320408  22.6304817  61.0737419
  48.6500359  22.2182584  62.2787046  39.3034673  47.7976227  73.8765383
  38.9129162  48.6670017  73.9653301  39.0635562  47.3436356  74.6843576
   5.5215372  65.5979982   0.6589826   5.1838363  65.0345245   1.3551791
   5.7374586  66.4198676   1.0995992  20.1877734  81.7382586  59.9406433
  19.7436854  81.1372149  59.3425035  20.5631158  81.1716294  60.6146431
   5.5299732  57.7655929  49.2310095   5.1298544  58.5945862  48.9685011
   5.1183268  57.1115202  48.6662388  33.4574223  12.9987979  76.2686491
  34.1516519  13.6300564  76.0794687  33.1906271  12.6715767  75.4095936
   3.6179730  76.1696464  72.0663738   4.0938660  76.8233961  71.5541553
   4.2074725  75.4162639  72.1001005  52.8283882   8.5549694  67.9652882
  52.4120188   7.7206337  68.1815100  53.1971312   8.4195232  67.0924091
  34.0778112  19.7639596  74.4227266  33.7465453  19.1913235  75.1145220
  35.0099611  19.8605680  74.6176529  40.8400453  65.3046933  15.7390102
  41.6037954  64.7835913  15.4912837  40.3527845  64.7436634  16.3423808
  11.8166769  34.7926426  35.7819128  12.0304012  35.7115483  35.6201530
  10.9327292  34.8132873  36.1485744  59.1729069  44.0644073  71.2753487
  58.7840891  44.1969204  70.4107714  58.8052511  43.2342958  71.5786314
  80.0656796  19.4231665  73.2900906  80.9468651  19.4229221  72.9162645
  79.6466064  18.6481273  72.9160309  75.2234745  22.0558810  47.2401047
  75.3652191  21.3038039  47.8150177  74.6515656  22.6366043  47.7420139
  70.2558088   8.1090415  52.5588608  69.6800470   8.8718098  52.5048637
  71.1087751   8.4317380  52.2680902  48.9028931  42.1558046  28.2774067
  49.5289898  42.6615524  27.7592850  48.4669018  42.8062391  28.8279390
  38.7780619  10.3493190  34.2103314  38.6531568   9.4021839  34.2700481
  39.5814872  10.5164897  34.7030735  25.1281115  77.8334457  51.7736816
  25.2045914  77.2171277  52.5020599  24.8263404  77.2994822  51.0388041
  77.0970777  52.2980514  42.6403792  76.7123130  51.5265408  43.0562671
  77.6980117  51.9425550  41.9856055  31.3399220  43.2921457  47.5105476
  31.6102219  42.5251770  48.0154514  30.4560018  43.4852409  47.8230095
  80.8601736  88.6637549  16.8218029  80.4657267  88.0484546  16.2037015
  80.9338282  89.4822159  16.3309574  87.6352599  50.5726299   5.4032786
  87.5994781  51.5046820   5.6182845  88.1621364  50.1855925   6.1024459
  57.7910471  23.7274528  66.6766453  57.9186106  23.3278227  65.8162642
  57.5288963  24.6280813  66.4859200  86.3109067  44.4191695  11.9892390
  85.9358505  43.7540357  11.4120277  86.7658809  43.9192037  12.6669200
  88.6397839  43.4227705  65.3224564  89.2420769  43.3019114  64.5883799
  88.1012630  42.6314259  65.3232098  35.7617259  32.9017353  66.2944126
  35.6287861  32.3425412  65.5289984  34.8940563  32.9735303  66.6921854
  34.1192007  36.5456891  50.5026484  33.4570217  36.9733739  51.0456371
  33.9591169  36.8815041  49.6206999  60.9249258  27.0025992  53.1092405
  60.2208805  26.8535995  53.7403917  60.5110312  27.4953318  52.4006224
  54.6766186   4.9691588  38.6637831  54.6124220   5.5521739  39.4202256
  54.8803902   4.1122314  39.0384626  75.1190761  67.6611867   1.9310363
  74.4575551  67.6378050   1.2396081  75.4402736  66.7611471   1.9857438
  93.3364487   9.6949703  32.3363853  92.8237057   8.8877523  32.3779297
  93.9020443   9.5804161  31.5727043  15.2042544  35.2451229  23.2053447
  15.1877832  34.7574925  24.0288615  15.7495499  34.7150922  22.6240087
  26.2638391  63.4325591  12.7218326  26.0725130  64.3429103  12.4962504
  26.7691435  63.4878996  13.5329040  35.4473233  41.3709974  60.8047962
  35.2263069  40.5158806  60.4357958  35.1212072  42.0007896  60.1619625
  93.0498460  38.1860754  14.1760715  93.7090209  38.7851342  14.5265658
  92.2146133  38.6188242  14.3531306  74.0919301  88.6864074  42.1895742
  73.6895081  89.4338834  41.7473507  73.4381482  87.9901579  42.1261120
  77.4402428  24.7871399  64.1740322  77.7209139  24.8854661  65.0838614
  78.2389021  24.9142027  63.6619425  74.9982882  26.9350672  49.5195293
  75.6954241  26.3292742  49.2680407  74.2506361  26.6769218  48.9804459
  58.9871979  17.0111203  67.2471380  59.2304993  17.9270041  67.3820210
  59.2824650  16.8132579  66.3583755  65.4741410  59.6172157  26.1881621
  66.3708094  59.4713905  26.4897521  65.1427654  60.3166273  26.7514117
  59.9603701   8.0507445  68.4973812  59.8391724   7.3062462  67.9080868
  59.0765572   8.2676840  68.7941122  82.6129678  16.1746850   0.4543574
  83.1686166  15.9315172   1.1948665  82.3988536  17.0949569   0.6076177
  26.2171504  82.7010620  70.8435631  26.4800641  83.5368288  71.2290525
  25.2687499  82.6674342  70.9685802  75.7894230  44.9596119  52.6248169
  75.7135057  45.9105206  52.7037907  76.0419846  44.6659803  53.5001612
  75.0205660  24.6376991  73.2679987  75.3130627  23.7596560  73.5123730
  75.1706743  24.6860433  72.3238802  87.0379162  39.0374374  46.0575533
  86.5254307  39.4525123  45.3637981  87.9445934  39.1037655  45.7579279
  34.7101784  39.2693448  64.3821955  34.1748810  39.9099588  63.9138985
  34.8345447  38.5569596  63.7550831  88.6332610  78.1227889   2.6948960
  88.2951740  77.2708431   2.9707893  88.4100106  78.1796184   1.7658313
  82.6364326   3.1983078  63.0431795  82.8417301   2.6052478  63.7659311
  82.9144478   4.0598977  63.3539915  54.6572876  22.0437765  30.7851124
  53.7888384  21.6418982  30.8080840  54.7510815  22.4605322  31.6417027
   2.7256213   2.8035414  44.8119020   1.9845114   3.1888658  45.2793550
   3.1844721   3.5525420  44.4315338  90.0229219  69.5171514  19.2532333
  90.4239610  68.7605944  18.8254245  89.2773345  69.1544786  19.7315677
  60.9665683  58.8091066   7.9169257  60.2508453  58.2636705   7.5906261
  60.9448555  58.6898985   8.8664229  57.5479364  37.9170489  58.9716005
  57.4011707  38.8587832  58.8830996  57.7566957  37.6228189  58.0849886
  25.8525003  75.1801219  10.8132156  26.2183679  74.6378270  11.5119918
  26.6149629  75.5867758  10.4014953  34.0613484  43.2499313  59.3274212
  34.0040898  44.0078735  58.7456322  33.8598680  43.5987425  60.1957369
  78.5957098  24.0471554  67.1962833  78.9143991  24.0355492  68.0987978
  78.8267517  23.1853795  66.8495941  64.8612264  31.7959347  20.6648906
  64.5823220  32.6719072  20.9315665  64.7422055  31.2580183  21.4476474
  26.6891810  88.1708211  63.5661077  27.1674296  88.9876549  63.7085724
  25.9162900  88.2450388  64.1259003  50.2740908  27.3875713  61.8373108
  49.4689035  27.9033637  61.7940617  50.7126427  27.6942492  62.6309443
  32.9177488  68.2839194   5.4526218  32.0037855  68.5674587   5.4299911
  33.4216036  69.0912857   5.3500255  56.5619802  11.1280239  51.3131475
  56.6966009  10.2803123  50.8894825  56.9315243  11.0192227  52.1894073
  88.0368628  15.9922016  70.5007362  88.3517267  16.8511033  70.7824802
  88.2370575  15.9587359  69.5653057  64.7199869  74.4202328  55.2547932
  65.4394341  74.2491436  55.8625412  64.7163534  73.6633778  54.6687984
  59.8370743  28.0842423  50.8759022  59.3787813  28.8439989  51.2350225
  60.0611639  28.3405256  49.9812841  59.2369604  28.0630517  62.6405096
  58.4869242  28.5907269  62.3662233  59.2737579  28.1746721  63.5904646
  21.6867280  26.5729666  60.6355858  21.8624854  25.7494593  60.1804161
  22.4596882  27.1109700  60.4643631  86.8591785   4.5650071  67.8455067
  87.5358486   4.4587189  67.1768808  86.4617348   3.6977667  67.9240274
  36.3438845  16.3271236  58.8101721  35.7165480  15.9141552  58.2167578
  36.4085102  17.2302580  58.4996843  79.4366935  26.9295063   0.5680879
  80.1460508  26.3065412   0.4101117  79.8769143  27.7188614   0.8832915
  22.3517084  23.8728333  50.4891825  21.8518257  24.0636969  51.2828588
  22.1916819  22.9438639  50.3229332  25.3608049  66.2427607   8.8101562
  25.4123892  66.5712944   7.9125770  24.8643602  66.9115582   9.2818435
  13.2608617  73.8177123   1.7763980  12.8299011  73.0711856   1.3602241
  14.1289533  73.8478818   1.3742192  32.7862620  42.7458668  68.7440062
  33.5266638  43.3476496  68.8208103  32.7139401  42.3434258  69.6094799
  46.7070293  39.3512535  59.6345854  46.5765285  40.2689695  59.8733425
  46.1077738  39.2067361  58.9023018  92.4865821  70.2923623   1.0840495
  92.6394323  69.9590412   0.1998742  93.3420709  70.6120291   1.3707240
  70.1995659  28.8802290  59.6698713  69.4213009  29.1226625  59.1681099
  69.9710512  28.0449176  60.0776291  56.0099313  82.9872382  58.9175940
  55.0580308  82.9106545  58.8524151  56.3093755  83.0316997  58.0095291
  43.7889338   9.2957884  62.8383017  43.1410408   8.8818479  62.2681141
  43.4650278  10.1881802  62.9605818  85.2732042  55.7394412   1.7961867
  85.6780771  56.6067961   1.7935355  84.4123748  55.8781531   2.1911033
  56.1102533  47.1957397  60.9266520  55.6721449  47.9558659  60.5439091
  55.5145788  46.8967438  61.6136789  17.1735681  64.0407124   8.5908111
  17.0963443  63.5468831   7.7744754  16.4118780  64.6204224   8.5930141
  49.1212654  35.9655833  48.3740234  49.4619226  36.8416572  48.5547972
  49.8015928  35.5484104  47.8454876  52.0503521   1.7440973  51.5798235
  51.5700006   1.0431520  52.0204782  51.3875341   2.4097154  51.3958216
  67.9227448  44.8080540  55.4427576  68.5570478  45.0940466  56.1000967
  67.5132418  45.6174088  55.1370049  43.8446522  23.7218356  67.3240948
  44.6746016  23.9191127  67.7582598  43.3711672  24.5537257  67.3231697
   9.6431221  45.2349230   0.2707561   9.7354377  46.1297679  -0.0562922
   8.7272037  45.0123051   0.1041206  58.7426393   0.6731698  24.7259410
  58.0602948   1.2046334  24.3158420  59.0810029   1.2220856  25.4333480
  73.9580822  28.2757354  56.7305946  73.6155796  27.5432944  56.2182903
  73.7163925  29.0535045  56.2277079  24.2736480  77.3246878  54.5749092
  24.0984532  76.5024084  54.1173124  24.0841386  78.0040210  53.9277458
  77.6918840  17.4552143  64.8541260  77.3638535  18.2730508  64.4802618
  77.0362186  17.2104180  65.5071259  67.5588131  43.4509659  74.1143036
  67.1124411  44.1236639  74.6285629  66.8665504  43.0561209  73.5841179
  84.9137306  42.1739721  75.6381559  84.4054794  41.3806581  75.4691601
  84.3083191  42.7519083  76.1025763  62.6064488  86.8577509  69.6736097
  62.3760697  86.5249859  70.5410337  62.2128674  87.7296137  69.6392488
  75.6582069  24.6907973  23.6766577  75.9187984  23.8346243  24.0162039
  75.7248020  25.2775908  24.4299650  88.2536128  52.7072802   7.6150020
  87.3177531  52.7805355   7.8021701  88.6746600  53.2468745   8.2841762
  57.1928120  30.7588506  56.2049675  57.5906706  31.5536571  55.8496857
  57.9172564  30.1365376  56.2693310  18.2897946  89.0990154  70.5500126
  17.7598712  88.8763639  69.7846127  19.0554616  88.5282049  70.4854822
  87.4820137  12.7016175  16.5560031  88.1944275  13.1892443  16.1425865
  87.8221512  11.8115067  16.6467988   6.9137920  59.2299262  13.9361365
   6.0957588  58.7539390  13.7929996   6.8138231  59.6225908  14.8033507
  79.8598483  58.5460964  45.1877483  78.9697984  58.2350841  45.0224860
  80.3610614  58.2533040  44.4266399  44.1396379  30.8873105  58.0149508
  44.6013546  31.0746026  58.8322449  43.2783318  31.2890363  58.1289625
  68.1698418   8.0699980  30.0735188  68.7114239   7.7160478  29.3680811
  68.4409237   8.9850247  30.1475120  49.6937180  45.8203077  70.2558661
  50.0416660  45.7960224  69.3644762  50.2558517  46.4439821  70.7154989
  35.7149233  74.4591513   0.9352525  36.2754644  75.2292314   1.0301049
  36.3258661  73.7271848   0.8503707  69.5950651  52.5326157  61.8745852
  69.3881607  52.7259159  62.7889442  69.7203350  53.3913279  61.4706612
  27.3656487  21.4225674  57.8917313  28.1370759  21.9138837  57.6093578
  27.0675588  21.8768811  58.6797523  79.0009740  63.8438859  17.5044044
  79.2893031  64.6812954  17.1412929  79.8050073  63.3323875  17.5945933
  26.8066168   7.5017071  35.6790709  25.9295082   7.2575539  35.9745431
  26.6759634   8.3099478  35.1831794  43.2336998  20.2843165  15.4203677
  42.6385355  20.1333094  14.6860600  43.0438900  21.1791086  15.7024181
  23.9780521  17.0896780  16.7061150  24.6031451  17.6691604  17.1416521
  24.4598436  16.2730670  16.5747535  49.6627569  62.9178095  53.8426685
  49.4508171  63.7834501  53.4934187  49.7147465  62.3542404  53.0707121
  73.5694125  19.5089975  14.0115626  74.3675807  19.0007225  14.1558440
  73.8680795  20.3034249  13.5689433  42.6225567  32.5585842  62.6754284
  43.5504341  32.3622251  62.8047132  42.3005295  32.7797794  63.5492706
   4.6172012  54.7733787  20.0873073   4.3112005  53.8826135  20.2579959
   3.8205684  55.2671721  19.8929484  82.6351929   1.4818564  41.4520741
  82.4165535   2.0737229  40.7322645  83.1216526   2.0266485  42.0707750
  32.0667598  68.5753769  55.3499937  32.9339692  68.4638184  55.7395267
  31.7645976  67.6834196  55.1786900  87.1186543  15.7016432  54.6547747
  86.6095066  16.4581895  54.9457026  87.6917076  16.0474193  53.9704657
  57.9402733  35.2162409  62.4981737  57.3047924  34.5168877  62.3455238
  57.4400520  36.0239959  62.3818064  63.6534882  30.1909161  61.8813038
  63.4888077  31.1278725  61.7753458  64.4919062  30.1455641  62.3408985
  45.6455293  69.9214473  13.5468562  46.5469542  69.7951045  13.2507117
  45.1297203  69.9450984  12.7408679  79.4155025  36.9509912  69.2192984
  80.2310562  37.4454641  69.3005657  79.1858578  37.0184112  68.2925034
  43.4558725  22.4948788  54.2314291  43.3770514  23.1513023  54.9236202
  44.2343903  21.9903898  54.4672918  84.4871998  43.6347628  71.4429331
  85.2830315  43.5601473  71.9695473  83.8105011  43.8964319  72.0673037
  13.9433111  82.1207395   4.9329551  13.7445892  81.4022174   5.5333408
  13.0876936  82.4172106   4.6227058  53.1398106   4.7612408  71.3883495
  53.3278322   4.5849633  72.3101997  53.9419222   5.1613712  71.0525703
  43.9979649  23.1620932  38.4270453  43.7077951  22.3472166  38.0171537
  43.4515715  23.8389349  38.0275798  30.6879163  42.7694130  50.4676104
  30.0956941  42.4493122  51.1480856  30.1184177  43.2312870  49.8523283
  54.7243786  10.5102408  37.6649857  54.9245262  10.9877181  36.8598843
  54.2334843  11.1353064  38.1984138  55.8305264   9.3151921  41.8825483
  55.0467443   9.7046542  41.4949512  56.4295959  10.0519776  42.0029593
  82.9973316  43.3692932  53.4297085  82.6547432  43.0190134  54.2520046
  82.2389793  43.7716818  53.0063677  61.0836220   9.7951967  46.3402510
  61.4352322   9.4936246  45.5026054  60.1729059  10.0206423  46.1505032
  72.6252604  29.4137120  47.6680088  71.6978168  29.3556738  47.8976011
  72.9398155  28.5107350  47.7118397  36.4814040  78.9675283  39.4081473
  36.4959380  79.5972347  38.6873889  36.5835139  78.1155556  38.9839435
  14.1142070  15.3738022  63.3686113  14.0740716  16.1824334  63.8792324
  13.9540899  15.6518137  62.4667788  88.3248520  16.6928935  34.6761799
  87.9451847  16.2015438  33.9477158  88.5031605  17.5603330  34.3128800
   6.4312073  84.0847704  60.7987881   6.0163137  83.4944302  61.4277506
   7.1703479  83.5847539  60.4525423  56.8507910  33.2340074  70.6069183
  57.6474905  32.7819228  70.3292131  56.4252567  33.4932470  69.7896385
  70.9895563  22.3387241  22.6039577  70.7805634  22.6711798  21.7310143
  71.7729425  22.8235698  22.8636861  33.6549950   1.0611453  36.0831356
  33.8235092   1.9308695  35.7206249  34.1566920   0.4674826  35.5244803
  74.2131424  32.6814008  73.5188770  74.6602345  32.1165228  74.1491556
  74.7578573  33.4671497  73.4729481  17.5041263  27.6051995  11.3148673
  16.6214292  27.9753300  11.3237365  17.7242629  27.4886224  12.2390922
  63.5654593  32.6296115  59.1429901  63.5857964  32.6224422  60.0999451
  63.3287668  31.7340612  58.9017391  58.6868572  31.6792536  69.4743824
  59.3027973  31.9250989  68.7841558  59.1635561  31.0404468  70.0043964
  10.8707349  17.6508614  32.0085414  10.9546391  17.0122668  32.7166350
   9.9295299  17.7012345  31.8417247  32.6576924  23.1883287  31.4008951
  33.2131529  22.8622031  32.1089458  32.7278805  22.5235081  30.7158256
  45.0935507  29.2698216  60.3895378  44.3791151  29.8317909  60.6895447
  44.6941233  28.4052396  60.2936888  92.5736332  20.3292108  71.9825888
  91.9480991  20.9540248  72.3494053  92.0720196  19.5204914  71.8797064
  91.7879775  73.3962598  48.6878093  91.0291580  73.7806979  48.2489093
  92.5016835  73.4880248  48.0565913   0.7414306  79.9180952  15.0078281
   1.1701502  79.7896209  14.1617091   0.2691234  80.7453385  14.9138625
   8.1823179  83.8542914  51.3245869   8.8680789  83.1992346  51.4544487
   7.5671145  83.7024689  52.0420170  62.4435043  52.2632837  66.5530443
  62.6179266  52.0786333  65.6301594  61.5615034  51.9228935  66.7028666
  57.7555752  11.2030303  53.6505413  57.5347900  11.5544212  54.5131016
  58.6700964  10.9316206  53.7294054  55.8767557  24.2977023  36.6826653
  56.1122417  25.1308918  37.0908022  54.9226999  24.2592359  36.7499328
  14.6001161  78.7804165   7.3216804  13.7801613  79.0421977   6.9029124
  14.4144119  78.8235321   8.2597049  46.8869543  27.3135400  46.9747257
  46.0323095  26.9230914  46.7920637  47.5004911  26.5804291  46.9262648
  72.3830366  13.2240307  59.3289375  73.0052853  13.3917058  58.6211824
  72.8835392  13.3799195  60.1298285  47.5102997  32.7898359  52.6934195
  46.5990400  32.5930834  52.9105139  47.4629354  33.2494903  51.8551445
  25.1061643  71.3066545   5.4978259  24.8013033  70.4837909   5.8801730
  26.0507024  71.1885610   5.3971847  35.9176469  14.7981405  76.3946867
  36.5183330  15.5117524  76.6095543  35.3320169  15.1686442  75.7343864
  42.5828314   8.2261896  32.0994067  41.8442774   8.7673771  31.8203235
  42.9367065   7.8661209  31.2861705   1.4768515  49.8468065  73.1574106
   1.4525137  49.6308136  72.2252178   1.6743288  49.0163994  73.5906029
  41.8863293  75.9369045  48.1810236  41.9694564  74.9833757  48.1911469
  42.7423331  76.2488478  47.8874588  44.6057288   3.4214732  13.6948283
  44.2330329   4.3031356  13.6945232  44.1621367   2.9736802  12.9744514
   0.5287565  39.8627654  22.4102576  -0.0596129  39.5899242  21.7062648
   1.1031164  39.1094956  22.5478252  49.4558811  19.9687350  51.4554167
  50.4060125  20.0161767  51.5614080  49.3268728  19.8085296  50.5205822
  11.5813361  19.7542310  73.6597157  11.5483580  19.4282424  74.5590925
  10.6878481  19.6474707  73.3333445  56.4033318  25.0729966  71.5516329
  56.2159348  25.9681988  71.8339920  55.5613613  24.6216702  71.6117859
  62.5313520  17.0122957  67.7241755  62.4770451  16.3543534  67.0310688
  63.3518457  17.4742699  67.5521278  85.0189117  20.1260534   8.6599048
  85.2710632  19.4730797   9.3127998  84.0623143  20.1391402   8.6912902
  25.8430777   3.5284191  62.8990412  25.5391608   4.4325560  62.9790592
  26.7445765   3.6055276  62.5866461  62.1637535  39.8150253  52.5958490
  62.9628563  39.3204069  52.7775526  61.5622139  39.5642376  53.2969141
  48.6445045   5.0915122  52.6181984  47.9509974   5.7436299  52.5180912
  48.7043381   4.9485785  53.5627699  60.3709698  31.5817714  61.8850994
  60.5832911  30.8356285  61.3243675  61.0466146  31.5717959  62.5630617
  53.7218571  18.7971830  68.2430267  53.4680033  19.4772887  68.8669252
  54.6515894  18.9563942  68.0803013  89.6063569  51.7139932  23.9994605
  90.4831889  51.4206722  23.7517532  89.0254358  51.0175142  23.6933883
  69.7496748  10.0367439  71.0695791  70.4793787   9.8657954  70.4741430
  70.1642609  10.1906002  71.9185066  53.0032206  23.5769987  53.4025669
  53.2587051  24.3948865  53.8292027  52.1013689  23.4297514  53.6875439
  83.6065674  14.6559465  43.6783409  83.0726051  14.4473064  42.9117966
  84.4236088  14.1772652  43.5385752  26.6931547  68.6964765   4.0803035
  26.5711225  67.8036323   4.4030460  27.4085725  69.0472188   4.6107658
  73.6544561  19.5608914  38.5674000  72.8328228  19.1799784  38.8773298
  73.8102102  19.1392004  37.7223253  93.4872437  31.4037728  41.3807058
  93.4558201  30.5443954  41.8010759  92.7582645  31.8873024  41.7693329
  53.0824757  45.5441093  55.0070381  53.2907152  44.6931076  54.6214724
  52.7907419  45.3395987  55.8954620  79.1571430  66.7839232  55.2165874
  79.7151426  67.4872628  54.8846515  79.5437673  66.5493789  56.0602363
  86.4294818  82.7104893  37.5302489  86.0461381  82.7175179  38.4073051
  85.6803230  82.7967802  36.9407161  86.3152790  39.4127846  50.0586176
  86.0215759  39.9892998  50.7640314  86.0262394  39.8487425  49.2569780
  65.9451199   4.3958905  14.3563771  65.5809641   4.6448973  15.2058589
  66.7103815   3.8624325  14.5709157  11.7657058   0.3361747   0.4485829
  10.8390729   0.1062915   0.3797658  11.8832843   0.5850932   1.3653405
  47.5849737  57.8053799  17.3412879  47.0632757  57.1008637  16.9569476
  48.0900205  58.1568232  16.6080459  29.0232253   6.8304145  14.1022050
  29.5973063   7.0850950  13.3798468  29.6119404   6.4468288  14.7522116
  32.7543378  44.0621471  52.1068525  33.4774065  44.3245888  51.5371799
  32.1797657  43.5454273  51.5419674  72.3667955   7.0452964  34.8140931
  72.6982784   7.2772902  33.9466095  72.7265406   6.1744934  34.9829602
   5.4354773  15.0706804  52.4579096   4.9540530  15.2355146  53.2686472
   5.1452074  14.2021275  52.1793556  47.4525833  16.6905463  12.8238153
  48.3808041  16.6298103  12.5980973  47.4415922  17.1218467  13.6782694
  71.0229448  85.7541218  24.4217094  70.4326585  85.0696888  24.7368892
  71.3101414  85.4456368  23.5622962  63.5503864  32.8716731  61.9062996
  62.7934361  33.4102011  62.1370459  64.2744637  33.2499743  62.4051380
  53.7992239  12.3651230  64.8239994  54.4143200  11.7587304  65.2365303
  53.4196329  12.8546119  65.5537558  82.9735565  17.1466434  55.2472210
  82.4363422  17.5412321  55.9341955  82.3561668  16.9533241  54.5417452
  82.0282269  12.6040292  36.5274239  81.7737484  13.2957518  35.9166932
  81.2026024  12.3058021  36.9090533  56.0754299   3.2113022  44.2257738
  56.2532139   3.0432892  45.1511908  55.9979582   4.1634744  44.1657925
  41.8489739  74.7962207  75.8000565  41.8088433  74.7749418  74.8439360
  42.5643679  75.4011255  75.9963512  18.0926336  75.5957427   0.1301892
  18.9405836  75.2366128   0.3914388  17.4877943  74.8571935   0.2005084
  73.1838846  30.3449440  76.3492393  72.6449251  29.7458935  75.8326197
  73.0103445  30.0999498  77.2581339   1.5662775   9.5141840  64.5006657
   1.9189177  10.3682899  64.2508984   2.3360548   8.9505231  64.5778751
   3.7210188  42.9571199  73.1003761   3.1554614  42.8243494  73.8611317
   4.5123587  42.4569702  73.3000231  91.5739346  17.0970690  58.5239983
  91.5522671  16.1408651  58.5619164  92.4999523  17.3113668  58.4109259
  79.0772533  17.9164481  60.6061268  78.8010883  17.1313560  60.1332664
  79.1137171  17.6434946  61.5228605   3.7179575   7.3841834  20.4612017
   3.1514559   8.0615109  20.8307076   4.0261088   7.7546304  19.6341324
  16.2026085  69.5175639   0.5460723  15.7969726  69.1539851   1.3331588
  16.9694008  68.9649811   0.3947194  39.6746413   7.6704928  19.6359428
  40.1658504   7.6696727  18.8143905  40.2277343   7.1827218  20.2461894
  50.7538891  14.1557586  41.4817238  50.4301786  13.2606816  41.3803387
  51.6884995  14.0963137  41.2837124  22.2332549  17.4586904  40.4442263
  22.7119374  17.9337764  39.7649693  22.6462436  16.5955245  40.4690647
  61.0931471  24.6568420  19.4717868  60.9166768  25.5944016  19.5497115
  60.4900292  24.3552580  18.7924274  86.6131166  36.0373035  22.6574977
  86.8480495  36.1242267  23.5813411  86.1080507  35.2253529  22.6141723
   8.9791406  77.6737538  11.3624271   9.0518345  76.9567266  10.7324870
   9.8036493  77.6504007  11.8480952  34.9744317  83.6900294  48.6516476
  35.7513472  83.2416332  48.3176184  34.2411229  83.2542711  48.2173586
  49.9975824  10.4415536  71.8837166  49.0624666  10.5569923  71.7150021
  50.4009819  10.4548264  71.0157728  18.7277381   5.3581807   0.1726087
  17.7832000   5.4922005   0.0943931  18.8387792   4.4081876   0.1350530
   8.4185526  80.4557609  73.7784386   7.7211949  81.0701597  74.0074301
   9.2187211  80.9803295  73.8065910  76.0584116  49.4143152  58.0994558
  75.9197664  48.9174175  57.2931671  76.6712999  50.1065969  57.8517723
  42.9286957  12.9049969  32.4529910  42.5641918  13.7814295  32.3295689
  42.9119396  12.5134623  31.5796924  42.6683140  22.4841189  44.3384123
  42.8916740  21.5553594  44.2772150  42.8409290  22.8301764  43.4628105
  75.4882812   5.0354767  29.6410036  75.7557297   4.2357582  30.0939465
  75.0157213   5.5393815  30.3035760  51.4611101   1.7678991  43.7369728
  51.4505625   2.7025956  43.9430380  51.2404680   1.7252594  42.8065300
  75.1022050  66.1377853  30.3903151  74.5589825  66.7311066  30.9090734
  75.8697316  66.6593474  30.1555657   7.2026835  27.7307439  52.3170567
   8.0290614  27.2484732  52.2895145   6.5341101  27.0543313  52.4252081
  64.2475271  25.8682656  71.1424780  63.3201742  26.0904384  71.2254333
  64.4500828  26.0261178  70.2203703  58.5636520  41.7305470  74.0618706
  58.1160641  42.4233723  74.5475531  58.0944824  41.6803694  73.2290459
  51.8637180  21.1105108  54.1845798  51.8616009  20.6122327  53.3673000
  51.0247612  20.9009552  54.5950317  14.4514863   1.9325778  11.1915382
  13.8676326   1.1809537  11.2935527  13.8697736   2.6924226  11.2133296
  65.3320101  72.8539148   1.3119300  64.4221595  72.5571838   1.3306602
  65.3852847  73.5072246   2.0094855  64.8164606  15.4180813  32.1650195
  64.9778175  15.4452026  33.1081319  63.8634968  15.4568911  32.0838571
  44.2669582  12.8339624  50.6700039  44.3594456  12.7846158  51.6214466
  45.0302362  13.3339524  50.3807783  46.3531129  16.7829797  10.0417503
  46.2446229  17.2592112  10.8649524  46.4775531  15.8716771  10.3068526
  59.5141697  12.1053338  19.9553502  59.1588306  11.8232644  19.1124964
  58.7469816  12.3735356  20.4610372  81.2800697  38.6945441  27.2842391
  80.6016258  39.1082063  27.8179343  81.9284538  39.3845996  27.1440490
   3.5489760  28.6803555  75.0174141   3.4463988  28.3193135  75.8979607
   3.5409460  27.9151750  74.4423771   3.3885012   9.1628486  73.8932180
   3.4600935   8.5101169  74.5896721   2.4747096   9.1142368  73.6124086
  28.0619761  80.5111510  30.4738593  27.4278781  80.3178292  29.7833681
  27.5285575  80.6543559  31.2556434  79.5236444   7.9535890  52.8306723
  78.5740662   8.0268162  52.9264545  79.7064209   7.0230234  52.9605675
   4.4783030  68.4956455  51.5547180   4.3345271  68.3246708  52.4854851
   3.8540183  69.1885233  51.3392496  57.1449566  17.5229704  69.4049788
  56.7200947  17.0129192  70.0945950  57.7179766  16.8968296  68.9624548
  84.5706749   9.0796131  35.6093645  84.5201778   9.2423803  34.6674585
  83.6583233   9.0597916  35.8982563  69.6170712   3.2204178  25.0234127
  68.7996483   3.5081351  25.4299474  70.2844524   3.7994671  25.3915668
  68.9245892  58.2659292  67.8969002  69.3215513  59.0569305  67.5322437
  69.1979790  57.5657034  67.3043013  63.1899258  82.8793520  31.6196346
  62.4954316  82.2717106  31.3653111  63.2891270  82.7485716  32.5626564
  87.5103569  42.4092340  41.9448900  87.5875854  41.7445374  41.2604570
  87.7744865  43.2242918  41.5180969  73.2390451  48.1882048  51.0039091
  72.7184582  48.7843323  51.5422869  74.0586472  48.0830336  51.4870501
  90.4503441  30.4095626  43.7792206  89.8764896  30.3110981  43.0194616
  91.2256908  29.8917818  43.5624552  69.1727845  18.4803483   0.6608947
  68.9298551  17.6317641   0.2906020  68.5614030  18.6091134   1.3860543
  73.5419846  50.4642773  55.5913067  72.9149151  49.9371719  55.0961542
  73.7153625  51.2201023  55.0301504  76.9957781  58.0018425  60.9403801
  77.6646996  57.3351765  60.7843733  77.0421028  58.1720591  61.8811846
  44.6319675   6.7076814  49.9293089  44.1671467   5.9728694  49.5290279
  44.0302849   7.0364434  50.5972338  69.6277380  57.4094915  47.2024584
  69.3279791  57.0628357  46.3620996  70.5779123  57.4770546  47.1084690
  29.6944727  88.3668318  11.7908557  30.3994955  87.9090920  11.3329776
  29.3454088  88.9784995  11.1425956  82.5186443  32.1876574  62.1987915
  82.4114895  32.3407722  61.2600136  82.4852180  31.2355471  62.2915316
  81.7086601  18.7048686  35.2019811  81.6364765  19.6545184  35.1061368
  80.9131336  18.3618927  34.7948670   4.7638859  70.9473553  14.5057662
   5.3403820  71.5447894  14.9821647   4.0847124  71.5125409  14.1376289
  91.0995293  42.0205545  52.8608274  91.4635563  41.7467880  53.7027168
  90.7670879  42.9040241  53.0195475  89.4437695  50.1580524  74.0341902
  90.0704098  50.1451540  74.7576475  88.8444996  49.4360590  74.2234945
  83.5209656  59.1696787  76.8035316  84.3750477  58.9186668  76.4517117
  83.1614208  58.3579826  77.1614552  75.9984827  20.0250888  49.1550875
  76.5867186  19.9756372  48.4015894  76.5738583  20.2152014  49.8960543
  77.7153587  43.8536215  34.4811368  78.5488892  44.1591072  34.8391032
  77.5405455  44.4413853  33.7461519   2.5130047  85.1787081  37.5740417
   2.4535860  85.8337012  36.8785651   2.0303596  84.4248548  37.2349532
  83.0059007  82.8789273  10.9885295  83.1277612  82.3188916  11.7551692
  82.0920947  82.7450982  10.7369788  54.1722107  48.1924438  76.6512632
  54.9664831  47.9214287  76.1909294  53.5357094  48.3553267  75.9551573
  82.2614193  19.2017126  57.0948362  83.1820869  19.4437706  57.1948910
  82.1056175  18.5605538  57.7882862  86.4140657  58.0781630   1.6777261
  86.5593961  58.8379708   1.1139854  87.0379546  58.1893518   2.3950990
  71.8901205  10.3368616  30.3175426  72.0232296   9.9650878  31.1894917
  70.9429836  10.3008807  30.1838613  76.0550165  42.0462370  48.0330896
  76.8511391  42.1609879  48.5519886  76.3659906  41.9699144  47.1310377
  61.9527149  55.0622416  50.6647444  61.7521763  54.4344664  51.3589478
  61.5374994  55.8760023  50.9504414  53.8328092   2.1316621   8.5203918
  53.1057469   2.0381686   9.1359218  53.5284821   2.7818343   7.8872283
  91.6595557  69.4233027   3.3984931  91.8863920  69.7863737   2.5423654
  92.1602062  69.9493971   4.0220435  28.7367357  64.6060911  23.4615596
  28.9891542  65.4170480  23.9029964  28.6425317  64.8534337  22.5416835
  36.5343738  11.9878006  51.0889006  35.9216189  11.3888347  50.6622791
  36.4650035  12.7994907  50.5863285  29.3658320  43.4553286   9.1734679
  29.8537747  42.9070899   9.7879394  28.4951655  43.5352656   9.5630725
  69.0076494  65.5818558  56.1701393  68.5386705  65.7710552  56.9828463
  68.9062500  64.6377420  56.0493231   7.6249705  10.0154781  73.0412102
   7.0525561   9.5905912  72.4024200   8.0214129   9.2917395  73.5262489
  50.0667858  33.5583425  70.2131748  49.7285128  33.2785797  69.3625689
  50.9222412  33.9403057  70.0168753  72.8094721  45.4031706  50.1392508
  73.7170410  45.1500273  49.9705267  72.8676653  46.3025141  50.4617834
  31.5174453  30.8126303  11.9910892  30.7816426  30.5153796  12.5263103
  31.7246835  31.6830870  12.3310836  16.9187893  80.0292602   6.1489757
  16.1668886  79.7902217   6.6909488  16.8119968  80.9673658   5.9915526
  83.4107494  40.5857468  69.8942614  83.6317539  40.9003973  69.0176868
  84.2422771  40.5937195  70.3683090  69.3101072  52.4100065  55.3775120
  68.4176779  52.6079273  55.6614637  69.7865677  53.2318830  55.4947042
  80.2455521  53.9361620  53.3784771  80.1594925  54.1647577  54.3039846
  79.9255753  54.7074318  52.9105091  67.3255968  68.9636374  58.9163017
  66.9206619  69.1352797  59.7664785  67.2566462  68.0154037  58.8052368
   7.9294596  47.7870464  55.4962540   7.7838431  47.5438833  56.4105272
   8.6033450  47.1795177  55.1912451  72.8854656  31.5144372  45.6464577
  72.8750849  30.7816792  46.2622404  73.8135290  31.6593599  45.4622459
  86.4322281  61.6801405  56.9981384  86.0791779  61.7380905  57.8859568
  85.7348156  62.0243025  56.4401102  65.5814934  45.6883526  66.7631769
  65.9735537  45.7227468  65.8906317  66.1123800  46.2874079  67.2880793
  32.1478621  23.4095618   2.4512227  32.9624955  23.3406350   1.9533761
  31.9811408  24.3503758   2.5086625  71.6520548  80.4203987  57.1385765
  71.9149256  81.0049152  56.4276028  71.5873051  80.9898376  57.9052448
  81.9767666  64.0147400  48.8349485  82.0156670  63.1740618  48.3789015
  81.4385223  63.8433456  49.6077013  88.1227112  31.5239787  65.9617186
  88.0069637  32.3973083  66.3360596  87.3688698  31.0260201  66.2779188
  75.8675051  39.8181725  41.8299627  76.5140533  40.1874113  42.4315214
  75.8589649  38.8826346  42.0322704   0.9314455  70.7895246   1.3459142
   1.5625395  71.0466066   2.0181211   1.4161218  70.1891914   0.7794173
  92.4780941  40.6085205  47.8164434  92.3066998  40.8100891  48.7363482
  93.3732414  40.9129667  47.6672935  10.5154429  25.6702566  53.8369894
  11.1957751  24.9976897  53.8048363   9.9494849  25.4743385  53.0903006
  94.0388584  30.0212550  55.2268219  94.5211983  30.0511765  56.0530663
  93.7257957  29.1188264  55.1647854  64.5995617   5.9634721  44.2770195
  64.9935579   6.3647789  43.5024548  65.0895548   5.1506090  44.4010973
  66.3328171  46.1264610  53.5565519  65.7475901  45.4138756  53.8133860
  66.1369610  46.2756586  52.6315594  50.6712294  32.5908661  75.6604481
  50.2115297  32.5782919  74.8209524  51.3654852  31.9391227  75.5631351
  72.0137882  27.4498057  50.6853008  71.8739653  27.4990153  51.6309547
  71.4587545  28.1413388  50.3248119  62.4699593   9.0829861  39.6019053
  62.1265888   8.7869388  40.4449272  62.9968166   9.8532009  39.8150277
  82.1888828  60.1524353  41.8276453  81.4014339  59.9342775  41.3290834
  81.8834782  60.7541037  42.5065804  56.4620320  19.0456483  10.5382140
  55.8542745  18.4197804  10.1443179  56.7213742  19.6156976   9.8143180
  76.6511154  24.6157384  20.3534746  76.5969086  24.3774343  21.2789488
  76.0929155  25.3890681  20.2721858  61.2965918  57.0600367  41.6055012
  62.1849823  56.8677378  41.9055367  60.7294655  56.6708565  42.2711897
  78.7603760  19.4960356  43.6953735  79.6366978  19.5562100  44.0757322
  78.2147169  20.0395060  44.2638159  56.3679711  29.5771786   6.6616901
  56.3182179  28.6972901   7.0352634  57.0188920  30.0289485   7.1987613
  65.6573200  18.5089004  28.2622790  65.9645176  18.4878099  29.1686010
  64.9943829  17.8198564  28.2179904  62.3730898  44.2335224  60.1444912
  61.5243673  44.6714258  60.0801277  62.9886436  44.9345160  60.3588057
  77.5035381  39.3425107  44.3334913  77.1298885  39.1835117  45.2002859
  78.4052658  39.6125674  44.5072412  17.4923242  81.6634598  16.9130881
  18.3003439  82.1698204  16.9963630  17.4555982  81.4214936  15.9877093
  64.4080687  62.6611471  65.9871387  63.7887526  62.7958107  66.7044592
  64.6680403  63.5446167  65.7261276  59.5483828  47.9077911  70.8958960
  59.5090914  47.2574854  70.1946163  60.3345633  48.4191942  70.7045412
  40.4814577   6.8768740  64.2039394  39.7822905   7.1428001  64.8011684
  40.0844049   6.9240212  63.3342505  63.1252766  52.3195410  46.8293905
  62.6834536  51.7623329  47.4701214  64.0323067  52.0137310  46.8310785
  88.4861806  69.0877881   5.5244811  87.9252246  69.1527572   6.2973674
  89.0176156  68.3068481   5.6792148  81.8667126  46.1531878  63.2127714
  82.1113300  46.9475555  62.7380371  81.0324764  45.8894491  62.8245354
  93.1999493  40.7446432  66.7225981  93.6264610  41.0871220  67.5081062
  92.3327541  41.1498642  66.7249250  64.3388192  11.0394904   7.7693351
  63.5847585  11.5508172   7.4757941  64.9180524  11.0082194   7.0079311
  69.4548273  41.1211109  52.8554773  68.5811567  40.7445240  52.9609060
  69.3069172  42.0665264  52.8321743  80.7403374  41.8025112  33.1044054
  81.2650013  42.0660925  33.8603783  80.0878143  41.2013435  33.4636140
  40.7779802  72.8465739   1.9387897  40.5408014  72.0930925   2.4793847
  41.7275728  72.7799335   1.8384345  65.1138830  31.5332294  55.9392405
  65.0955057  30.8631968  55.2559042  64.6671772  32.2848797  55.5497408
  39.7943449  21.9577241  43.5642195  39.2832708  21.2266493  43.9114380
  40.6701899  21.8325448  43.9295387  18.4302912  41.5917206  63.5164070
  17.7704535  41.0284233  63.1120157  17.9310522  42.3241472  63.8777113
  62.6299953  35.6196570  63.7771511  63.3186150  36.2456870  64.0010262
  62.5441742  35.6878948  62.8262520  74.1049957  33.1834221  68.3035707
  74.9737835  33.4668064  68.5884094  74.2037678  33.0131316  67.3668337
  83.0100632  25.4664207  72.7286530  83.4185410  25.2663684  73.5708857
  82.7790546  26.3933849  72.7886629  77.2635555  52.5935221  47.7404690
  77.2129965  53.0167007  46.8833828  76.5426064  52.9770374  48.2398462
  55.7743502  39.3540072  56.2193394  55.5009031  39.6624613  55.3554440
  56.6715813  39.0462780  56.0908413  53.1730938  80.7355022  75.0787878
  53.2053375  80.1971245  74.2880011  52.7949619  81.5654659  74.7882366
  17.7305044  65.5776968   2.1289237  17.2327818  64.9579969   2.6622899
  18.3524049  65.9736100   2.7394279   8.8397227  36.2371588  70.9916544
   9.6163569  36.0987759  70.4495049   9.0684519  35.8561301  71.8394375
  68.2230616  14.2028046  54.6043491  68.8678360  13.5660982  54.9127388
  68.7427711  14.8776305  54.1676044  71.0372639   4.6176109  42.0418072
  71.4320898   4.8922786  42.8693962  71.6812658   4.0249118  41.6542530
  73.2360983  63.0851269  56.8566751  73.8832092  63.7662458  56.6734934
  72.7796364  62.9585028  56.0249043  92.9401970  83.2760620  58.1094646
  92.6162529  82.9930305  58.9645576  93.8679409  83.4618950  58.2543325
  86.2512970   7.4147320  22.8876066  85.8600903   6.6600037  22.4476337
  87.1471024   7.1400595  23.0833435  67.1707201  25.1882219  69.8953581
  67.0863771  26.0823536  69.5642281  68.0846930  25.1203084  70.1715326
  60.2725410  31.8457031  58.3666658  60.7619143  31.3667607  59.0355158
  60.9005213  31.9729662  57.6555538  68.7514448  38.7921906  63.6063814
  68.2429409  38.1771660  63.0777979  68.9955616  38.2931757  64.3858814
  67.4219131  53.2344961  48.1766987  66.8085814  53.5857773  48.8221931
  66.9880009  52.4528885  47.8345919  86.5589813  79.3075052  18.8563712
  86.5875057  79.6254220  17.9539569  87.1604064  79.8809329  19.3314441
  76.8176365  49.7971725  50.1251221  76.5258360  50.6168699  50.5240965
  76.4221144  49.1134930  50.6658411  42.0463511  80.6740534  40.2747726
  41.9301221  81.2874609  39.5492005  42.8081462  80.1505375  40.0261259
  56.2648535  61.6947365  66.0283089  57.0005512  61.1997843  66.3888645
  56.6680622  62.4635839  65.6251621  37.8637759   1.2974593  10.8213599
  37.6100270   0.5295369  11.3333495  37.3076503   2.0017859  11.1543544
  84.2403224  64.4374862   7.9338821  84.5358518  64.8590270   8.7408527
  83.7465146  63.6728504   8.2300456  93.2578564  27.9370499  40.7598114
  93.9652252  28.3858132  40.2967072  93.6041260  27.0622587  40.9360790
  78.9960670  33.8844419  37.7082705  78.6757898  34.7860813  37.6818037
  79.1150522  33.6454535  36.7890549  83.4217930  37.4352407  45.7613754
  83.6010551  36.6737103  45.2098608  83.0469704  37.0682168  46.5620232
  49.7340918  35.1652956  58.6230373  49.3968058  35.9757280  59.0047026
  49.4379997  34.4780755  59.2199373  58.4067202  22.4883890  60.7045698
  57.9953146  21.8107080  60.1681709  59.3191910  22.2102118  60.7835817
  92.4633792  58.3273962  16.6824897  91.5606263  58.0316379  16.5650542
  92.7152446  58.6737123  15.8264144  87.8910828  39.4509816  28.8542247
  88.0959129  40.3797483  28.7462187  87.9142952  39.3090677  29.8005629
   1.3596735  35.5109024  61.3927555   1.2870799  35.4023123  60.4445076
   0.9888564  34.7062516  61.7550611  71.7538738  21.7106414  48.9448595
  72.5552750  22.1945214  49.1444635  71.8807125  20.8564425  49.3577623
  75.5470037  66.5231991  76.5586090  74.9901867  65.7590199  76.7076635
  74.9334097  67.2515392  76.4624071  60.4091406  26.0076809  47.0158815
  60.6262493  25.8127260  47.9275227  60.8033228  26.8647623  46.8538141
  92.9257965  44.9334145  69.3882275  93.4871197  44.3109751  69.8505354
  92.2141552  44.3986368  69.0363598  36.7128205  35.8414102  65.9044933
  35.9462667  36.4143562  65.8855391  36.3965249  35.0313234  66.3044262
  74.8182106  11.8894529  62.4680758  74.2756891  12.6728928  62.5582266
  75.4416418  11.9452059  63.1922674  64.2416668  28.7251735  55.2229357
  64.2574644  29.2159319  54.4012690  63.3756971  28.9015627  55.5906534
   6.9131483  73.3292857   5.7757075   7.3557581  72.5168028   5.5303462
   6.9967235  73.8899174   5.0043853  82.1116066  61.6726255  64.6888208
  81.1850071  61.6662598  64.4488096  82.5673676  61.4023161  63.8916731
  89.0978813  26.8751740   8.7047225  89.0266609  27.8089094   8.9029682
  89.7284508  26.5421677   9.3432504   0.5397285  80.0853124   1.4408572
  -0.4146181  80.0326577   1.4926465   0.7366861  81.0109511   1.5845092
  75.9150314  15.2579725  35.8802319  76.4190817  15.1700866  36.6892099
  75.3854656  16.0443366  36.0122228  56.9602394  55.9409714  66.1514330
  56.8437290  55.4715204  65.3254366  56.4039326  56.7153645  66.0673380
  71.4522839  27.8424597  53.5466528  71.9637012  27.2386146  54.0852213
  70.5424976  27.5857782  53.6970997  65.0524759  24.9814796  65.3434610
  64.7722197  24.1404057  64.9825144  65.0187778  25.5841136  64.6005392
   7.7772627  36.1052012  65.3750658   7.8072272  36.3720798  66.2938213
   8.6742888  35.8387065  65.1736879  13.9472208   7.5619560  51.2502384
  13.0638133   7.9256290  51.3098860  13.8786230   6.8734074  50.5888557
   1.3813792  22.9793668  56.2781906   2.0692835  22.4647093  56.7002726
   1.8317423  23.7576199  55.9499788  73.0311441  12.1603525  39.6213055
  73.3481073  11.8918109  38.7589526  73.4923935  12.9794788  39.8016143
   2.0106519  75.0946608  31.7656501   2.6470388  74.5466080  31.3064273
   1.8232883  75.8073249  31.1547263  64.9764156  52.6996994  67.1173286
  64.8978233  53.4947348  67.6445675  64.0840673  52.3572111  67.0659304
  70.2800941  14.7736669  60.4959536  69.7743130  14.2200220  61.0908413
  70.5999374  14.1726291  59.8231316  36.5834519  87.9494451  52.6759958
  35.8468434  87.7559974  53.2558346  36.6286179  88.9053883  52.6569128
  62.5137663  47.8760958  72.4439192  62.0507145  47.1688604  71.9948769
  62.7473783  48.4895992  71.7473078  22.3766677   0.6647918   3.6946948
  23.2741563   0.8420274   3.9763625  22.4602668  -0.0511363   3.0648597
  77.0750332  63.7790966  72.4429274  76.8666124  63.2349348  73.2023239
  78.0298710  63.7500668  72.3822927   0.1470385  18.0036020  71.3994265
   0.7743845  18.6007845  71.8069077   0.0867377  18.3022130  70.4919958
  68.8009071  42.7129745  61.3331985  69.3965578  43.4404373  61.1536646
  67.9735994  42.9756498  60.9297132  87.2569752  52.6982641  34.2957306
  86.8337822  53.4472847  33.8760805  86.5700436  52.3060656  34.8347521
  23.8465643  24.4362926  70.7848072  23.2519221  24.3449903  70.0402975
  23.2813334  24.6959448  71.5123558  89.1445065  57.3020220  55.7997417
  88.8762569  57.0104837  56.6711044  90.0527096  57.0107555  55.7187748
  26.7967336  17.9329011   9.9517520  26.9507758  18.0239293   9.0114196
  25.8542602  17.7833602  10.0266917  72.0817518  69.3472099  49.1364670
  72.9807615  69.0718317  48.9570618  72.1652365  69.9986458  49.8328066
  49.1428661  15.5788696  51.4733887  49.7729111  15.9449148  52.0941019
  48.6861181  14.8989081  51.9686365  11.1862288  59.4874334  72.0535088
  10.5268870  59.4620037  72.7469397  10.8557234  60.1364756  71.4324284
  50.5291748  19.2137873  67.5611210  51.1424732  19.1687918  66.8275881
  51.0859823  19.2062366  68.3396721  20.8051408  58.7061599   4.9708064
  21.1647714  59.3094507   4.3204673  20.2301801  58.1281808   4.4692214
  26.2563719  77.9741683   5.8801635  26.6203607  78.3788314   5.0927718
  25.4892458  78.5066786   6.0903819  85.9512520   8.3159018  25.4866934
  85.9220219   9.2229658  25.7910156  85.9959221   8.3845568  24.5330048
  69.4551659  14.2034066  75.4088783  70.1991177  14.1156185  76.0047531
  69.3080616  15.1471972  75.3468418  79.7818851  16.0477531  68.9100313
  79.9010420  15.6772339  68.0355310  78.9370394  16.4956832  68.8672972
  78.3471870  55.4364061  41.0615301  78.5749340  56.3131332  40.7521486
  77.8332996  55.5882883  41.8546772  62.5880639  21.6182420  22.0717223
  63.5359113  21.7500064  22.0931705  62.3697965  21.3055274  22.9496749
  89.2109108  24.5561552  38.1909132  90.0447464  24.5081520  37.7233243
  89.4571400  24.6217775  39.1135716  85.9953880  40.5884075  68.2392073
  86.1107826  41.3441086  68.8152599  86.7170143  40.0018883  68.4661007
  55.8407418   5.5567118   8.2577689  55.9231965   5.7992312   9.1800578
  54.9605290   5.8421180   8.0128368  16.8130172  51.7933443   5.5405696
  16.4919151  52.4718103   6.1345466  17.3138155  52.2712281   4.8794635
  64.0572214  21.8277526  69.4437313  63.5124922  21.4915895  68.7320423
  64.2059851  22.7460432  69.2182541  81.4879417  59.3680620  25.1462555
  82.2765255  59.1603994  24.6450114  80.7833099  59.3599224  24.4984460
  82.2216129  41.2764215  21.3143802  81.8219471  40.9091949  20.5259395
  83.0892467  41.5647888  21.0310292  73.2657099  43.5723305  53.1136084
  73.7652874  44.3721151  52.9492950  72.8744316  43.7073994  53.9766788
  55.9896676  21.6259095  22.4076255  55.4733293  22.4153468  22.5701411
  55.6821076  20.9994694  23.0627711  76.5844822  45.7573080  46.7642117
  76.6970682  46.4534712  47.4114466  77.2849369  45.1344204  46.9581223
  70.5713177  35.8730769  61.5079403  70.7798147  35.0929856  60.9939241
  71.4223480  36.2092829  61.7889166  91.7129707  33.1313610  39.0736365
  90.9358311  33.6064625  38.7794042  92.2545910  33.7971830  39.4973850
  64.0558767  48.8692284  49.0066051  64.9522018  49.1931343  49.0955639
  63.9913845  48.5907984  48.0930662  18.0077470  62.1510544  17.6096519
  18.2065786  62.8452280  16.9813045  18.0423750  61.3448480  17.0948012
  89.2242908  30.4578185  41.2502480  89.4452858  29.5722198  40.9619617
  89.2231178  30.9779739  40.4467154  27.1806838   1.4704606   6.8053516
  27.8273895   0.8644339   7.1669181  27.6903942   2.0630166   6.2528022
  90.5450630  32.0717883  67.5642967  91.2299252  31.9120836  66.9149208
  89.7274303  31.8993115  67.0974493  32.6820485  16.4418837  12.9814418
  31.7463319  16.3357875  13.1529506  32.9740922  15.5744025  12.7014144
  46.7615223   9.2757130  31.7188978  47.4413157   8.8976586  32.2767448
  46.7966700   8.7582362  30.9144020  64.5070219  20.0238562  71.5830612
  64.4199371  20.7270098  70.9394598  63.6761713  20.0299168  72.0583248
  44.8630047  42.1657181  51.1005592  44.7769785  41.4799261  51.7627716
  43.9616585  42.3863792  50.8657837  23.8851142  47.7926922  44.9325085
  23.5807180  47.2618723  45.6685781  24.0805840  48.6468267  45.3178358
  41.7110252   2.3360810  53.2758617  42.0769024   2.0508415  54.1131210
  42.4279785   2.2261131  52.6512671  67.4431038  17.7103674  51.4724779
  66.9730854  17.1572268  50.8484983  68.3666086  17.5887954  51.2520266
  85.0644875  39.5978451  53.7286806  85.9631348  39.4094825  53.9991903
  85.1029873  40.4848099  53.3708525  25.0985646   2.3287027  42.9291153
  25.8140516   2.3247179  43.5649586  24.3062520   2.4061574  43.4605980
  80.1955465  81.7631545   7.9689677  80.0712922  81.5010324   7.0567783
  80.7043508  82.5723520   7.9184611  58.3252907  24.1382027  47.5452137
  58.7163496  24.9523330  47.2282028  57.3820162  24.2760587  47.4588299
  36.4106004  24.4486663   7.0490821  36.2676208  25.3660294   6.8161948
  36.8809096  24.0819785   6.3003715  75.6823492  17.1459341  41.6134787
  76.4538717  17.3196113  42.1527576  75.8543205  17.6085448  40.7933283
  82.3788741  88.7280789  22.8067668  81.8040374  88.0426875  22.4661239
  83.1483892  88.2577649  23.1275256  43.7047958  88.8322163  69.6199179
  43.7346745  87.9161549  69.3439388  44.3655348  88.8962841  70.3095198
  74.6073055   2.3157540  65.1404095  73.6737394   2.2238261  65.3307676
  75.0427675   2.0887470  65.9620380  73.2517958  30.0781751  61.4885426
  74.1066933  30.5026078  61.4161777  73.2135534  29.4868755  60.7367897
  79.4968033  30.7498813  52.1501160  78.9866352  29.9698234  51.9322443
  80.2500248  30.4152250  52.6368427  61.4550161  45.8009624  57.5178576
  61.1773300  45.8700418  56.6044331  62.2993422  45.3517771  57.4781990
  72.5398016  35.7575083  67.5321436  73.2144451  35.1684809  67.8699827
  73.0257654  36.4277577  67.0516872  87.1435547  23.2773447  36.8475819
  87.9049873  23.7943840  37.1105075  87.4032402  22.3700690  37.0077276
  62.6668739  24.2505360  42.3268032  62.6405621  23.8105035  43.1764555
  62.8109264  25.1727271  42.5390339  70.3925991  34.8577642  66.0524464
  71.0615969  35.1584959  66.6674519  70.8877420  34.5223069  65.3050947
  41.5589857  82.5905418  38.3613324  41.7619610  83.0331135  37.5372171
  40.6038284  82.6163960  38.4181595  27.4508391  52.2112989  36.9383502
  27.6157484  52.2026348  37.8811979  27.7535353  51.3556051  36.6343832
  27.3287484  88.8735418  68.5458660  27.1406647  88.1547397  69.1493416
  27.6181981  88.4418979  67.7420425  75.1472425  38.8796258  68.4766817
  75.3125334  39.6301937  69.0472555  75.5288124  38.1357694  68.9428473
  69.0463543  25.5638289  57.9168320  68.4682465  25.1706362  58.5706091
  68.9627361  24.9960613  57.1507549  61.3628960  36.3975620  57.4501085
  61.9310999  35.6275606  57.4283791  60.4994106  36.0650301  57.2050667
  61.7175484  62.7054453  59.3439627  61.4131308  62.0580578  58.7080050
  62.1996546  63.3462763  58.8213396  73.3549690  38.2282662  66.2098885
  72.8263426  38.9170408  65.8069324  73.9956522  38.6989951  66.7429638
  80.2457428   3.4969091  55.3601551  79.9283600   3.9830476  56.1211872
  79.4529152   3.2640839  54.8769903  44.2608595  17.1251988  71.3774776
  44.0053415  18.0471122  71.3455629  43.6655712  16.7336547  72.0166588
  23.3971129  34.3472838  76.0543585  23.8910494  33.9383698  75.3436899
  24.0413485  34.8841929  76.5157890  57.5832192   6.3818118   6.0275443
  57.9603497   7.1264931   6.4959987  56.8703191   6.0806319   6.5908321
  10.8823551  24.7943121  70.3866577  10.8549989  24.6662909  69.4384527
  11.6286672  24.2703158  70.6776524  12.5935278  24.3034911  74.2536497
  13.0824671  23.7711167  74.8811388  12.7344237  25.2048826  74.5432568
   9.2032156  59.1988659  30.4761219   9.4884310  59.1120720  31.3857126
   8.9057742  58.3219576  30.2336645  89.8306370  57.3200035  63.6918402
  90.6455708  57.7544546  63.4401131  89.3200684  57.2814178  62.8831005
   3.4702979  34.0495992  74.2467356   3.4657107  33.9466381  73.2951021
   2.8911505  33.3572841  74.5653534  41.0389341  85.5709019   4.4121154
  41.4437402  85.6752005   5.2732070  40.3329862  86.2172165   4.3994601
  73.3978510  26.1644912  55.3030396  73.7953329  25.2949095  55.2576065
  73.6787319  26.5986109  54.4975090  65.8433549  24.7518679   1.6181167
  66.7029874  25.0283238   1.3005574  65.9859578  24.5384118   2.5402530
  90.3599981  72.0986095   0.9958680  90.9607652  71.4121929   0.7057984
  90.9034541  72.6865735   1.5204461  75.1057053  70.6612349  65.4846334
  75.8197165  71.2980890  65.4557180  74.3104696  71.1936665  65.5031872
  93.6903858  40.0171804  56.2507439  93.4604168  40.9342432  56.1012650
  93.1575298  39.5310044  55.6215191   5.0244583  53.7241563   5.1697047
   4.2811550  53.7239286   4.5666011   4.6409715  53.5196724   6.0225566
  71.2269831  50.6885815  46.5514994  70.8796167  50.1274300  47.2448111
  70.5449009  51.3451815  46.4105272  25.0781641  65.1266098  34.1376495
  25.2638350  64.8569679  35.0371218  24.1383467  65.3080606  34.1311646
  55.3444862  29.7770524  58.6427164  55.7085848  30.6226516  58.3807564
  54.5462179  29.6883392  58.1220102   8.4305773  48.3830833  43.6375475
   7.7823077  48.4884071  44.3338823   7.9385004  48.0087185  42.9068279
  92.3270229  14.9284178  30.1982594  92.4781993  15.4654795  30.9760380
  92.7813676  14.1063792  30.3828096  14.0358267  29.9789357  64.2628622
  14.3431006  30.8762097  64.3921661  13.7528716  29.6950603  65.1321030
  36.6909003  16.4873266  61.7243147  36.5902972  16.6821933  60.7925749
  36.7034173  15.5312550  61.7690611  90.0049976  85.8855858  15.8017715
  89.2833808  86.0715857  16.4025195  90.2827266  86.7459622  15.4873641
  85.4899788  46.8384838  47.8139973  86.4471340  46.8449640  47.8206444
  85.2553177  47.0480442  46.9099808  63.2761495   5.2757785  55.2280982
  62.4734704   5.3386876  55.7457622  62.9730145   5.1114508  54.3351539
  23.8089667  82.5378036  36.4434075  23.0261813  82.6905632  36.9726896
  24.0578661  81.6344738  36.6390848  74.3543100  39.8744011  54.1004562
  73.4703684  39.8679900  53.7332582  74.2483807  40.2529955  54.9731922
  20.9638796  74.0816116  42.7125502  21.5665160  74.5669413  43.2760382
  21.3397417  74.1605091  41.8357706  93.4770775  54.0497446  56.4945793
  93.7759686  53.5770082  57.2713804  94.2739201  54.2053890  55.9875727
  85.3762054  46.6045618  71.0941982  85.5693054  45.8103609  71.5923834
  84.5082569  46.8718815  71.3965797  91.0376740  84.4262886  48.9092731
  91.9692230  84.2426014  48.7880039  90.9916973  84.8887920  49.7460604
  75.3702275  34.5765063   4.1057380  74.5832364  35.1102349   3.9961417
  75.5954568  34.2968604   3.2184394  15.6308089  23.3527136  45.7453966
  14.8237524  23.8673925  45.7475185  15.8510790  23.2564926  44.8188686
  17.8038226  80.3251362  72.7890110  18.0656634  79.4789267  73.1517744
  18.6260519  80.7358551  72.5216246  57.0302963  44.6886730  54.0922642
  57.2614622  45.1687860  54.8874235  56.3695621  45.2347660  53.6663008
  83.3262348  87.1407700  47.1346903  82.3884869  86.9575119  47.1919489
  83.5679531  86.8774796  46.2467241  59.4246817  39.4219422  53.6507273
  59.7239256  38.8418770  54.3508816  58.8532877  40.0521278  54.0895987
  69.4388103  44.1140747  65.0036383  70.1133251  44.7192574  64.6953917
  69.6629953  43.2776403  64.5957804  51.1462419   4.5213315   3.8678439
  51.7946546   4.1504523   3.2693179  50.8016698   5.2847716   3.4045299
  54.7441292  62.3036528  54.5398235  55.5313396  61.7954874  54.7355223
  54.9901819  62.8479433  53.7918711  63.9990632  20.3500268   6.7917998
  63.8839452  19.5331713   7.2773154  63.3329217  20.9370896   7.1493514
  92.8593445  48.0650377  64.0639544  93.6730480  48.5662460  64.1177988
  92.2274113  48.6745310  63.6826229   3.8028822  42.4318218  55.1606703
   3.2424174  42.8770494  54.5251560   3.2825671  41.6850901  55.4571438
   1.5831290  50.7156563  47.4662685   1.0198031  50.9828663  48.1925583
   1.6251383  51.4860582  46.8997478  82.2454739  81.9314289  40.9532166
  81.5938282  81.3302422  40.5924416  82.8563976  81.3665867  41.4264631
  33.1765665  72.7602330  11.7530616  33.7770761  73.4858838  11.5826305
  32.3902239  72.9774275  11.2523349   4.9408350  49.1199255  61.0528994
   5.6709109  48.6162663  61.4128256   4.4084750  49.3480444  61.8149948
  60.1964808  71.8861580  69.0011168  60.9240484  72.0602131  68.4039688
  60.5660152  72.0191193  69.8740387   2.9149593  47.4160108  25.6176932
   2.3157562  47.1060127  26.2967284   2.4918092  48.1982684  25.2637847
   1.5608988  27.6622272  36.5462160   0.7196532  27.6295710  36.0907221
   2.2108946  27.7132249  35.8454061  76.8232489  49.7593355  43.6576033
  77.1869421  49.4763184  44.4965696  77.4149656  49.3887329  43.0028057
   7.0190344  72.2209024  71.9316959   6.6295062  71.3470650  71.9617605
   7.5628767  72.2678900  72.7179909  10.3583250  65.1592255  49.2041397
  11.3144694  65.1551580  49.1593361  10.1226721  64.2473412  49.3749285
  34.6755378  46.0395381  15.2025207  35.3800456  46.4608809  15.6948264
  33.9925258  45.8771846  15.8532031  52.7680413   8.6512658  23.7231715
  53.2434098   9.2777392  24.2688640  52.6280610   9.1120765  22.8959544
  91.4017487  46.5053034  38.4798622  91.0481358  46.9119644  39.2709494
  90.8142662  45.7699966  38.3054447  63.1622314  64.5713615  58.2212353
  62.9545975  64.6156025  57.2878742  63.0367231  65.4661512  58.5372019
  78.3466434  52.7009821  65.1288843  77.6266575  52.9576492  65.7050610
  78.9211893  52.1736050  65.6838655  45.1677465  18.5238576  68.5259199
  44.5350504  19.0990150  68.9561796  45.6513405  18.1187046  69.2457962
  73.2904768  61.5934992  61.2946224  72.8007412  62.1407843  60.6807232
  73.7973213  62.2147036  61.8175411  82.5147820  68.3808470  42.8247976
  82.5945377  67.4544621  42.5974751  82.9379368  68.8424110  42.1008301
   1.0983000  70.8835077  38.9336538   1.2699423  69.9433708  38.9876127
   1.7926226  71.2841606  39.4567466   7.0243178  51.7078638  61.8376303
   7.2770033  51.1674452  62.5861883   7.2655974  51.1854124  61.0727358
  23.4894190  48.4533644  58.3631945  23.5860548  49.0346336  57.6088619
  23.7641917  47.5949717  58.0408621  78.3697844  17.3639214  38.6354852
  77.9998016  17.2945583  37.7554107  77.6759911  17.7691984  39.1557145
  92.5536251  14.5125556  61.5832710  91.9578838  15.1524234  61.9729996
  92.0526123  14.1248465  60.8657074  19.1101469   3.4106547  40.7541132
  19.4213785   4.2360026  41.1258173  19.8044885   3.1420046  40.1524878
  51.9903851  53.5143852  58.4978008  51.4974642  54.2934322  58.2402277
  52.8566217  53.6401129  58.1104279  74.9455309  69.6645975  41.4301968
  74.3270922  69.9658823  42.0957756  75.8020067  69.9404001  41.7567158
  63.1684017  35.2017999  70.7600355  62.3378658  35.4350352  70.3452539
  63.8257885  35.3513861  70.0805473  39.2868055  51.9929752   0.5364545
  39.5876993  51.5974864   1.3545545  39.2614759  52.9321578   0.7195552
  91.4042664  29.8784995  68.9056206  90.8511543  30.5267549  68.4696627
  92.2989655  30.1542497  68.7063885  86.3906670  57.0039225  63.3883047
  86.7402267  57.2344398  62.5275469  86.5228271  56.0582447  63.4550667
  93.9004040  47.0579958  72.5058603  94.6308517  46.8284655  73.0803108
  94.2501926  47.7425146  71.9355011  79.5744085  61.7011786  39.4918728
  79.6951342  61.6200972  40.4379606  78.6297417  61.8066931  39.3791389
  15.6754408  36.1471820  65.9626913  15.1316176  35.7298255  65.2946377
  15.7757388  37.0498133  65.6603193   6.4084731   0.2593922  48.2230949
   6.0318385   0.9473220  47.6743412   6.4784918   0.6568369  49.0910625
  78.0438423  74.1302204  40.4851532  77.4958038  74.0947723  39.7011709
  77.4818993  73.7984037  41.1854076  39.6456255  65.9701457   0.7271798
  39.4309820  66.5767613   1.4358218  40.4312051  66.3403907   0.3246625
   6.0299597  31.7952585  49.0583563   5.4095946  31.8143082  49.7870588
   6.8346129  31.4422059  49.4379950  20.4842387  64.8972082  39.0635443
  19.6825514  65.0647593  39.5589876  20.1807414  64.6908760  38.1794906
  64.5826149  61.9014597  20.1902270  64.8025846  60.9776688  20.0699973
  63.8991261  62.0712519  19.5419645  32.0289819   7.5433585  12.8989394
  32.7498500   7.2071835  13.4314521  32.2916333   7.3597810  11.9969733
  57.9209821  32.3510882  10.7732375  57.3975865  32.9537627  10.2449687
  58.8267533  32.6136967  10.6094154  19.2323981  51.3851976  68.1078243
  18.5161410  51.8049622  68.5842609  19.5753107  52.0724821  67.5366116
   8.2613669  28.0528975  66.3350582   7.9913149  28.7845564  65.7801008
   9.1145335  28.3161497  66.6800737  82.3849964  13.2271349  72.5748396
  82.1373081  14.0048623  72.0748186  82.0116043  13.3723450  73.4441662
  31.5044032  68.5276747  42.8410387  32.3781310  68.8397121  43.0765581
  31.3581953  67.7724218  43.4106398  78.7874317  11.6116095  29.6449590
  78.4803915  10.9708488  30.2863526  78.5548687  12.4595523  30.0232959
  81.2512779  21.4149499  58.6677265  81.5572834  20.6147861  58.2407236
  80.4204655  21.1672258  59.0734625  90.7098198  62.7234030  69.9713230
  91.0286903  63.1686831  69.1862869  90.3754330  63.4274960  70.5269051
  89.9557972  78.9559317  70.1592493  89.0389633  78.7850857  70.3748226
  90.1071072  79.8547363  70.4516172  72.0279138  12.3035237  18.2547935
  71.2654130  12.7866122  17.9362853  72.6407353  12.9824349  18.5372432
  17.8666697  67.7374554  34.7347808  17.9697237  67.5359249  33.8047266
  17.3778449  68.5603046  34.7488165  80.4830551  65.5411720  52.8848696
  80.6587219  65.6684065  53.8171673  80.8890152  66.2964249  52.4593973
  88.6492920  33.6576009  39.3631148  88.1242466  33.8077235  40.1492596
  88.8940144  34.5344925  39.0674806   4.3957816  63.8242722  42.6765108
   3.7487326  64.3081522  43.1897640   5.2292452  64.0031385  43.1119204
  89.6255302  42.6899052  31.5653753  88.7583256  42.4643755  31.2287593
  89.4508839  43.2571220  32.3163700  28.3828608   7.6929137   5.0406631
  27.5308530   7.2839686   5.1925738  28.2188813   8.6310145   5.1371558
  70.4982710  32.7554417  46.2275076  71.3525867  32.3262787  46.1807251
  70.6865692  33.6263680  46.5771627  68.3900182  25.2221677   5.3739532
  68.4883038  25.9705016   4.7852595  67.4631040  24.9907920   5.3145202
  93.1757450  60.0111151  14.3181872  93.3447456  60.9463549  14.4321632
  94.0418816  59.6255302  14.1863966  79.6966362  33.5237074  61.0820675
  79.4117594  32.8450251  61.6940022  80.5086422  33.1826377  60.7071590
   1.5089331  66.6587305  48.1301117   0.8719645  67.1202946  48.6755085
   2.2491179  66.4934397  48.7140989  23.3341608  61.5507269  64.5920897
  22.9543410  62.4278212  64.6437407  24.2575560  61.7011309  64.3897295
  87.9375267  36.7094970  31.7355967  87.8048897  37.6255798  31.4918113
  87.0595837  36.3857865  31.9372582  84.7645760  41.9181728  51.9967270
  84.1768837  41.9914341  51.2447357  84.4293880  42.5570440  52.6257896
  71.3656616  30.9408164  53.3758354  70.6277609  31.5495133  53.4107685
  70.9631586  30.0845575  53.2307768   6.3427267  69.5764303  66.5569162
   5.8960066  69.8983049  67.3399067   5.6641589  69.5644474  65.8819056
  89.9244404  52.6065111  44.9460649  90.0814342  52.4606705  45.8789730
  89.2580986  53.2931948  44.9197960  59.4062424  53.6814737  58.3400106
  59.5151997  52.7305222  58.3468485  60.1934767  54.0158510  58.7697601
  12.6356993  68.1825399  64.4030666  12.4751292  68.1733513  63.4594774
  12.8703223  67.2790432  64.6149063  75.6607199  64.0861320  58.9485550
  75.8753586  64.2617464  58.0324078  74.7190952  64.2470980  59.0090466
   2.3915110  48.8329887  44.4550943   1.4956198  49.0024424  44.7464657
   2.8155528  49.6909475  44.4731236  61.2394762  60.3801918  36.8510485
  61.4660358  59.7463894  37.5316358  60.6162786  60.9718847  37.2726607
  76.1770535  35.3381562  73.1839895  76.7260122  35.0107336  73.8964987
  76.7988729  35.6369877  72.5204611  55.6063001  30.4371640  19.8610480
  55.9011094  30.9259030  19.0926345  56.3945500  30.0007960  20.1842769
  13.2423411  61.2793207  65.6359816  12.9968844  60.4645014  65.1977444
  12.8583250  61.9681358  65.0934887  80.7489967  65.9721231  26.4779592
  81.4604187  66.3230276  27.0136690  81.1027145  65.9594107  25.5886006
  87.4201679  68.5267544  54.7872829  87.5773144  67.6666641  54.3976831
  87.9337120  68.5212421  55.5950403  87.0952241  11.3276288  12.7650436
  87.2594945  12.0143506  13.4113105  86.9698636  11.7989012  11.9413837
   9.9237929  62.6473475  34.0925169  10.0095473  63.2576275  34.8249364
  10.8243952  62.4741507  33.8183689  25.3418932  36.3673472  77.0392990
  25.7887659  36.7558050  76.2872124  24.9010096  37.1039820  77.4626493
  77.3141527  52.8701019  32.4424934  76.3794327  52.7550650  32.6136541
  77.3483849  53.3970976  31.6441584  65.0042582  50.3806400  63.7506533
  64.8032188  50.7475281  62.8897190  64.1534185  50.1240778  64.1062975
  64.7216892  21.4722800  46.9477654  65.3728199  21.3199186  47.6326418
  63.8956451  21.1805081  47.3334503   1.5476046  46.2694645  52.9902554
   1.1509047  45.7403755  52.2982073   0.9593974  46.1654854  53.7382030
  54.6137060  45.1925725  17.3298152  53.9558710  45.8574477  17.5333579
  55.1080431  45.5610100  16.5976222   5.8969508  69.6862650  72.0162773
   5.8263407  69.3010998  72.8897190   4.9941359  69.8863363  71.7690372
  17.3636828  87.6155949  60.2147198  16.4637576  87.3717499  60.4313231
  17.7979193  86.7840767  60.0243235  62.2886753  47.2015905  50.3056431
  61.8899965  46.6385078  49.6421528  62.6566362  47.9328156  49.8095131
  76.2505865  65.3621483  41.0781765  76.1201382  64.5326376  41.5376663
  77.0214415  65.2138948  40.5304241  62.2268438  49.3421412  52.2826815
  62.3071289  48.4486103  51.9489336  61.6199827  49.2690468  53.0193043
   7.1621142  52.6917124  31.3072753   6.6922961  53.2243443  30.6655526
   6.8658266  51.7972136  31.1390209  10.4114641  89.0465727   5.9412654
   9.9046148  89.2427483   5.1533301   9.9669613  88.2935706   6.3306792
   2.6599322  87.1172905  48.7526083   3.2687006  87.7699375  49.0985775
   2.2356139  86.7506027  49.5283175  31.9182078   3.1892010  33.4770759
  31.6821067   3.7605092  32.7462562  31.1274020   3.1490752  34.0148910
  11.4130507  38.7945604  21.6700149  11.6826735  39.4289541  21.0058737
  10.4572306  38.8456106  21.6759443  90.0265884  49.8435163  53.4665155
  90.3288174  49.7061157  54.3642950  89.4131851  49.1260242  53.3078384
  32.1524538  68.3518448  10.6891330  32.5156988  69.2299190  10.8043368
  31.4212431  68.4727159  10.0833686  44.1510598  12.0668694   3.1309684
  43.7754981  12.8648087   2.7588399  43.7238662  11.3557669   2.6533969
  14.1873656  59.7501326  53.8946438  13.3156691  59.7643518  53.4994507
  14.4462405  60.6706905  53.9368868   5.6387294  85.3414860  28.4599002
   5.9693302  86.2014904  28.2004245   6.0926784  85.1478472  29.2800601
  58.6467123  54.1832638  67.9662085  58.0818367  54.4735384  67.2500467
  58.1967592  53.4220362  68.3326864  85.4049873  71.6078615  48.5635853
  85.3029156  70.9103489  49.2111111  86.2653828  71.4498997  48.1750011
  59.9275064  43.8659143  51.9992447  59.8743486  43.1865597  52.6714659
  59.0525055  43.8884926  51.6118193  86.0362816  52.7346992  49.2504692
  85.5810833  52.6949406  48.4093761  86.8871689  53.1216097  49.0442562
  88.4706497  66.4811563  76.5703630  89.3840408  66.1980724  76.6129923
  88.4971428  67.3025894  76.0796690   4.0784369  64.4804430  30.2625155
   4.9636565  64.7759295  30.4753733   3.7285910  64.1551304  31.0919785
  92.6698303  36.5183401  37.8879547  93.3920670  35.9394264  37.6441121
  92.4309635  36.2434864  38.7731838  88.6759090  57.3682499  66.4260149
  88.1066513  56.6490126  66.1523914  89.3748760  57.3825264  65.7721949
  82.3495388  52.0289040  75.5938387  81.9275570  52.2270632  76.4298391
  81.7993927  51.3501883  75.2027893   6.6087733  33.7561417  47.0024824
   6.2532340  33.1562042  47.6581526   7.1190653  34.3886232  47.5082541
  94.5700836  38.9198446  65.3971386  94.1382599  39.5993924  65.9147930
  94.0380192  38.8480234  64.6046877  89.6516228  44.6950006  41.4049864
  89.3659210  45.2129316  42.1575499  90.1614666  43.9800453  41.7859459
  31.4679442  30.2717376  45.9112835  31.3908587  30.1346159  44.9670982
  31.9195948  31.1114955  45.9952688   6.7199336  40.6403542  65.6772947
   7.5622950  40.2592993  65.9251833   6.0838805  40.2052832  66.2450790
  16.6593657  30.3635287  51.2020302  16.9407282  31.1554313  50.7438231
  17.4564944  29.8406482  51.2881708  56.0279322  83.1439209  47.4557877
  55.1754570  82.8407288  47.7681875  56.1773968  82.6494980  46.6499138
  43.8659620  13.2603812  57.7570438  44.4581842  14.0011001  57.6272821
  44.3939209  12.4912250  57.5428247  71.0558987  51.1540508  74.1844082
  70.7984686  50.2693748  74.4438505  70.2288437  51.6011286  74.0045977
  46.1289660  42.6105258   3.6826499  46.3583390  42.3412081   4.5720847
  46.7121427  42.1008631   3.1201728  79.0873098  81.6309547  61.0238600
  79.0338516  82.3151398  60.3565741  79.3157005  82.0977211  61.8277216
  67.8115940  57.9464960  75.4078150  68.6201811  58.4454536  75.5238295
  67.1568918  58.4310913  75.9105682  19.9386896  15.8657748  76.4935350
  19.0621103  15.5676848  76.7364025  20.4547323  15.7694918  77.2939444
  31.5022097  74.9420357  48.7792683  31.9480906  75.2475452  49.5692587
  30.6217490  75.3121567  48.8428688  67.0034599  57.0815372  48.1713915
  67.7751827  57.4799919  47.7690125  66.3619852  57.0327950  47.4626160
  14.6204768  45.2102804  66.4354897  14.8009406  45.6774807  67.2512007
  15.3803549  44.6414232  66.3121367  87.7810955  13.5863340  58.4077787
  87.9478168  12.9367828  59.0908003  86.9919395  13.2724547  57.9662466
  48.1996409   8.5955378  12.9552444  48.5464541   9.3209025  13.4746631
  48.9233987   8.3443639  12.3813804  76.4749861  55.7621241  64.7086859
  76.1045361  56.4455271  65.2672195  77.2649384  56.1567688  64.3392801
  13.8091479  85.2665043  76.8292093  14.4452773  85.1603889  76.1218882
  13.8932715  86.1832333  77.0914602  76.6689444  14.9514008  59.3269014
  76.5942621  13.9971495  59.3345833  77.5818014  15.1183224  59.0922499
  62.4754524  68.2137012  52.2547340  61.8129253  67.6443911  51.8633556
  63.3065033  67.7759266  52.0705080  43.0858867   8.3839032   9.9439891
  43.0397622   7.8373143   9.1595538  42.5722377   7.9090115  10.5973514
  35.1882086  79.9039745  45.8047199  35.9102068  79.3765497  45.4629993
  35.5878077  80.4438019  46.4867258  51.0372782  67.5649595  46.1473989
  51.6167116  67.5670719  45.3855038  50.1762342  67.3433018  45.7928514
   2.3017989  40.1760530  56.1290932   1.4181910  40.2460337  56.4904213
   2.8075800  39.7412634  56.8156576   6.0680495  56.3780975  34.3380284
   5.6770716  56.7927599  35.1070642   6.2772189  57.1066141  33.7534404
  57.9819679  26.6853046  40.4976463  58.4304619  27.5288749  40.4386950
  57.0532370  26.9014668  40.4141998  18.8771449  74.1087198  46.3161659
  18.3215056  74.4671965  45.6240702  19.2361746  73.3039856  45.9423542
  92.7163601  65.7644415  51.5983200  92.4632549  66.5714931  51.1501694
  91.8869495  65.3270340  51.7906189  13.7379275  48.9239073  38.7887931
  14.2589007  48.5285378  38.0898595  14.0636645  49.8217773  38.8516974
  24.5668898  68.9301252  26.8237066  25.2215300  69.1149664  26.1502790
  23.7517748  68.8055897  26.3375854  10.7207117  41.6145468  46.9305420
  11.3573943  42.0037460  47.5300360  11.2523947  41.1398983  46.2915993
  16.7362325  13.8200900  29.8563560  16.0118119  13.2209870  30.0367053
  16.6083257  14.5425030  30.4711707   2.2618304  71.6322231  13.3691108
   1.6328726  71.6120815  14.0903914   1.8765459  72.2339010  12.7321041
  56.3147068  52.0369101  52.3915720  56.2413216  52.4818611  53.2358837
  56.0630417  51.1318159  52.5751448   4.4542799  45.4804802  42.4020338
   3.6914072  45.8478928  42.8484392   4.8384962  44.8791361  43.0399942
  49.5219628  50.8420035   8.6019500  49.1559998  51.4924666   9.2012961
  48.8249795  50.1944205   8.4966834  36.8075721  19.5056149   9.8117431
  35.9356706  19.1453835   9.9737723  37.1546714  19.6941039  10.6836494
   0.1294051  83.9223766  64.9664021  -0.1417627  84.3641758  65.7710838
   0.4042063  84.6312809  64.3848848  34.5030610  31.2568757  19.1802104
  34.2404382  32.0201108  18.6656840  33.9793603  31.3150117  19.9793323
  88.6258793  76.7682314  53.6821222  89.1106129  76.5706348  52.8807354
  88.0237484  77.4687576  53.4312677  17.7264128  21.1672425  36.0605526
  17.8345404  20.5235243  36.7606735  18.6192904  21.4291000  35.8359599
  92.9307842  53.7001991  73.9820957  92.6581097  52.8747892  73.5813761
  93.8869190  53.6821747  73.9407253   4.6678362  49.5165253  68.8847303
   4.6058283  49.8813200  69.7675180   4.3177710  50.2029228  68.3168030
  28.1097517  44.2634821  64.7329903  27.9985247  43.9173698  65.6184673
  27.5236521  43.7331200  64.1931438  83.8512611  80.0391674  18.9479375
  84.7933006  79.9823856  19.1078484  83.4581184  79.5110703  19.6427643
  28.9491663  47.1034813  68.5050106  28.0894957  46.7747498  68.7679672
  29.3249236  47.4615526  69.3092585  76.7438841  68.3866787  58.9554262
  77.1252728  68.9540577  58.2854605  76.2628412  68.9832211  59.5289850
  89.6163464  38.1746840  52.7520514  89.1468143  37.9368305  53.5515499
  89.6224976  39.1318631  52.7536726  81.2881088  75.6256056  48.6583138
  80.5651093  75.0049925  48.7496281  81.1454105  76.2640667  49.3570518
  86.3224220  58.0212259  67.6159334  87.1996307  57.7946091  67.3070908
  85.9323120  58.5102415  66.8914223  26.3192190  81.9821277  13.8491519
  26.3164819  81.8617979  12.8995402  26.9146455  82.7171174  13.9957221
   1.5586958  70.4565763  17.4666214   2.4455653  70.1183176  17.5902057
   1.2073908  70.5372477  18.3533621  65.8784437  51.2335014  47.0746040
  66.0431862  50.6467009  47.8126812  66.5190935  50.9721184  46.4131784
  47.2528188  13.5081479  21.0048850  46.6875760  13.9804026  21.6161998
  48.1109254  13.9203259  21.1048682  93.3393860  43.1297493  57.9861116
  93.7323475  43.8637781  58.4583569  93.7181950  42.3515749  58.3949852
   6.2172995  60.2121925  70.1259422   5.5279932  60.3923368  69.4866991
   5.7756911  60.2587891  70.9739065  35.8964742   0.4571444  38.5099030
  36.0404218   0.4242998  39.4556475  35.6417669   1.3636309  38.3377409
  12.8262148  58.4982538  64.9525118  12.4829588  57.6816750  65.3152847
  13.5880957  58.2304573  64.4386387  30.9855093   8.1158453  53.5530233
  30.8446039   8.1983286  54.4961929  31.9294466   7.9854494  53.4623718
  39.8312299  44.4952914  25.7367404  40.4463498  43.9395949  25.2581390
  40.3596751  45.2352664  26.0357745  55.8621229   5.1932150  68.5073805
  56.5463842   4.8730189  67.9195976  56.1455549   6.0756117  68.7466955
   2.9261408  57.7710915  71.7653704   2.8041087  58.1465340  70.8933735
   3.4421835  56.9790459  71.6150475  65.6384230  56.1446905  27.2447753
  66.1058331  55.3660059  26.9424391  66.3063812  56.8297911  27.2712255
  49.5797841  20.5514523  55.1638587  49.2842595  20.5344006  56.0741313
  48.8130586  20.8394524  54.6684631   6.2139521  88.2975674  49.1803455
   6.6158400  89.1663074  49.1840696   5.9947024  88.1311607  50.0971174
  83.0223863   6.7548033   1.1276610  82.1101205   6.4716479   1.1896022
  83.0735604   7.2165152   0.2907403  50.9723473  87.3403072  48.1610918
  51.6417408  87.9628944  48.4448719  51.4641428  86.5601540  47.9047203
  58.1029050  16.3247916  13.1715282  58.3851544  17.1029994  12.6909431
  58.5263936  16.4044282  14.0262492  58.7171173  69.8673582  68.3994246
  58.0323124  70.0783920  69.0340471  59.4026518  70.5151844  68.5624886
  86.5960312  75.3943443  37.1437216  87.2078228  76.0804033  36.8767476
  86.2117100  75.0838614  36.3238883  87.7917293  11.1148268  65.3221083
  88.3907989  11.7959124  65.6278419  87.5015262  10.6748110  66.1211109
  53.2527558  39.5217463   7.1694072  52.5121419  39.0004584   6.8596061
  53.7746255  39.6867892   6.3841327   5.1126967  26.2232709  27.5034261
   5.5975256  26.3128519  28.3238792   5.7805453  26.2951970  26.8214893
  64.3647207   1.6547686  51.7127848  63.9237417   2.4569994  51.9923925
  64.4956793   1.1592203  52.5211906  91.1060238  49.3813705  10.1280332
  91.1796093  49.0207338   9.2444277  90.3208542  49.9280930  10.0989616
   9.3021021  53.9056396  41.1222219  10.0687418  54.3956470  40.8249187
   9.5827780  52.9906130  41.1089945  22.4136458  73.7006140  75.1147318
  22.9895888  73.1104612  75.6007814  21.7847262  73.1211567  74.6847057
  74.5793295  58.4356642  70.2869654  74.3778467  57.6050806  69.8559523
  74.7007179  59.0554810  69.5677137  63.0724955  84.0201283  57.7429581
  62.1785545  83.7684536  57.5110960  63.5624886  83.1978893  57.7350664
  83.4038067  82.7235699  69.8295641  83.2688618  81.9168854  70.3268385
  82.9913330  83.4044266  70.3610945  87.9726601  63.5337877  21.0546660
  87.2743225  64.0161371  20.6120539  88.0016518  63.9083338  21.9350672
  57.0633046   7.4329564   3.6606391  57.2258489   8.3743188   3.7209685
  57.2006814   7.1086499   4.5506938  71.2775373  75.1446009  49.5571613
  70.4146957  75.5477810  49.6529865  71.0943365  74.2572784  49.2484188
  29.9423991  63.0619001  48.4025335  29.7470675  62.1818304  48.7243319
  30.3491126  63.5045195  49.1474485  84.5457077  41.5578413  59.0606451
  85.4477119  41.4082623  58.7773609  84.6080399  41.6699696  60.0092077
  10.6648932  38.7756610  69.6270657  10.4544840  39.0373921  70.5234194
  10.8851538  39.5949364  69.1837740  90.8875847  51.8367338  47.7519035
  91.7531586  52.2324610  47.6498795  90.6341457  52.0436478  48.6514521
  66.9833183  75.8280945  34.3676662  67.7746391  76.0652447  33.8841367
  67.2632599  75.7921457  35.2823114  67.3055124  73.1630659  60.7943583
  67.7705431  72.3267555  60.8179855  66.4322710  72.9611301  61.1303663
  89.1688442  50.2794695  64.8867607  88.9394474  51.0947466  65.3327703
  88.9067841  49.5904779  65.4973698  80.9841442  64.9338102  19.3050706
  81.2597370  64.2490435  18.6956668  81.5639877  65.6712627  19.1148412
   4.0242014  58.7358046  42.8264284   4.0540896  58.1015730  42.1101236
   3.3866797  59.3900871  42.5405598  33.1414903   6.5608317  73.8556433
  32.5874914   6.1964804  73.1653070  33.9991487   6.1614233  73.7102747
  44.1380326  29.1098782   3.7610896  44.5806424  29.6628711   4.4049247
  43.8008563  28.3726308   4.2700275  65.0826566  20.2244851  10.8258708
  66.0197465  20.3424546  10.9813483  64.7881429  21.0692403  10.4854472
   3.6731253  38.6485577  37.3809505   2.7999316  38.6457348  36.9888306
   3.5711585  39.1513109  38.1890798   4.7496046  21.6438299  70.5005217
   4.9840320  22.5232703  70.2041006   3.8271011  21.7119986  70.7466364
  27.3701204  81.9550004   2.3005517  27.7806963  81.9033757   1.4374240
  27.9379953  82.5406900   2.8012689  31.3019003   6.0957915  28.6260414
  31.5776361   6.7897803  29.2248487  32.1163667   5.7783324  28.2360554
  59.5738506  25.7312894  36.9171166  58.6219358  25.7008862  37.0128703
  59.8319960  26.5461659  37.3478937  87.9793644  66.8511105  62.5685406
  88.6907673  66.4379740  62.0792103  87.5401878  66.1250925  63.0115461
  56.0987329  80.7847500  60.5389261  55.8835363  81.4277554  61.2145519
  56.2438297  81.3062477  59.7494888  63.1390779  47.4542090  16.3664611
  62.1918981  47.4348876  16.5032561  63.3047788  48.3038184  15.9578593
  45.0323118   1.6485411  69.9691010  45.9491934   1.4755350  69.7555208
  44.5777811   0.8350855  69.7502041  11.4211283  76.8928480  56.9957495
  12.1142397  77.3751831  56.5449905  11.4582358  76.0131979  56.6201496
  39.7673238   6.9582564  55.6884241  39.0898718   6.9340712  56.3642216
  40.0290312   7.8779417  55.6444454  82.8760163  28.0260417  21.8205817
  82.6159207  27.6043889  21.0015662  83.8197820  27.8767344  21.8776496
  74.6383715  49.1464996  67.3817682  73.7232351  49.4262743  67.4037170
  74.5982790  48.2117987  67.1793747  10.0388362  36.7737338  13.2841094
   9.9503257  35.8207366  13.2701381   9.1677310  37.0985457  13.0562766
   7.8796874  45.8449125  45.9050179   6.9745360  46.1404896  45.8071947
   7.8767500  45.3266287  46.7097569   2.4246798  35.4843283  30.4971123
   3.1460772  35.9946442  30.1291537   2.6168738  35.4387069  31.4337063
  53.3577490  66.9913816  60.7175303  53.4247351  66.5145636  59.8902512
  52.8845787  66.3964462  61.2992477  59.7642912   1.7413527  45.4797649
  60.4006971   1.7522913  44.7648525  58.9692129   1.3808543  45.0871754
  59.4574976  61.9630098  53.2834196  60.2352762  62.4766397  53.0655146
  59.6514750  61.0843897  52.9568720  72.3934094  27.2169587  26.3640960
  72.3861329  26.8643090  25.4742606  71.4873712  27.1348187  26.6617091
  19.9505816  87.8418636  64.1807461  19.6527968  87.7595329  65.0867128
  19.1697417  87.6677132  63.6552048   9.4485960  47.8860283  70.2093792
   9.3526564  48.7110615  70.6851387   9.7827731  48.1426382  69.3498945
  33.2215704   5.5255705  76.8888140  33.2591261   5.7630545  75.9623051
  32.7886308   6.2686068  77.3091650  12.6972304  70.1632977  59.9199963
  13.5958205  70.1144457  59.5938206  12.2051154  70.5691671  59.2063284
  85.1939869  50.7227087  66.2303448  85.8269978  50.2017069  66.7243910
  84.4274902  50.7730436  66.8014717  55.3373541  11.1985880  66.4627457
  55.4361452  10.3271300  66.8461990  55.6589426  11.7954451  67.1384525
  35.7936351  42.1345565   4.9029239  35.4384295  41.8902442   5.7575400
  35.6255452  43.0743262   4.8334582  64.4852781  82.3707771  42.8089142
  64.0111399  83.1989765  42.8831244  63.8197088  81.7368698  42.5416946
  43.4522260   0.1088625  55.2124691  44.2970957   0.5585486  55.2270651
  43.5312284  -0.5262941  54.5007372  30.2040971   5.5761725   5.4829901
  30.8746160   6.1569220   5.8426720  29.4686617   6.1549574   5.2820754
  58.3181684   7.3669812  12.5042804  57.8572862   8.1226393  12.1398528
  58.9041154   7.0826718  11.8028052  29.2740072   1.9008261  52.5584316
  28.9541353   1.8073756  53.4557486  30.2112211   2.0699698  52.6546478
  65.2557659  44.4850683  62.8158283  65.8110952  43.9116240  62.2876263
  65.8676052  45.0868464  63.2398033  58.6548440  57.6656482  11.6007884
  57.8274552  57.6841494  12.0817550  58.3991067  57.5213382  10.6897433
  20.8595286  57.6130295  73.3104229  20.9325991  58.2915688  72.6392508
  20.0763045  57.1192646  73.0675459  76.3346577  53.2055044  59.8334742
  76.4526033  52.6120043  60.5751467  75.7904959  53.9137793  60.1776743
   5.2081500  63.2961750  59.1509247   4.4324980  63.6598587  58.7239122
   5.0420103  62.3542070  59.1873264  78.1890488  70.9925556  63.0045605
  78.5781288  70.2245903  62.5861359  77.6286697  70.6326008  63.6920452
  25.7738225  37.1059558   2.8923972  26.3573806  37.5459525   2.2742589
  25.5419270  37.7839896   3.5270007  27.0737753  80.1977921  52.8898668
  26.8945704  79.4167519  52.3663330  27.0034800  80.9233189  52.2694540
  64.0813541  77.8039694  40.0665045  64.8203182  77.8137875  40.6748390
  64.4542265  77.4926233  39.2417264  66.2250042  31.5629673  66.2669659
  67.0995378  31.7338967  65.9173870  66.2759829  31.8349385  67.1832991
  87.8085041  77.1239805  62.8051615  87.4120712  76.5765095  62.1274090
  88.2643986  76.5056849  63.3762169  47.9593865  59.6278235  24.5120223
  48.7524335  59.7290179  23.9856513  47.2527568  59.5600363  23.8699134
  80.3722095  51.1271954  50.1785660  80.0427723  50.5967999  50.9040880
  81.3063526  51.2288284  50.3610325  11.5168391  55.7559729  71.1686039
  10.5924616  55.8321857  70.9320974  11.9232474  56.5415668  70.8026648
  93.9812946  57.7675486  40.5963469  94.6975803  58.0955029  41.1400461
  93.5801983  57.0746851  41.1210299  37.9584233  14.5746943  14.8045524
  38.8751571  14.4542548  15.0521930  37.8347747  15.5238482  14.7981151
  78.8034582  67.3649263  32.6548839  78.1737900  67.4285746  33.3730078
  79.6111298  67.7351522  33.0110049  14.3126402  50.8666849  44.6103048
  13.7849532  51.1430883  43.8610411  13.7065611  50.3697300  45.1597977
  67.7301645  79.0782547  63.1862020  68.0357504  79.9644518  63.3798456
  68.1526756  78.8550901  62.3567915   5.0549803  57.1287775  56.9376183
   5.6723795  56.5312481  56.5156984   4.3386565  56.5654802  57.2305393
  33.1045529  80.7690221  48.2947111  33.2947299  81.0717809  49.1826296
  33.0424306  79.8171681  48.3743763  33.6671638  18.9119172  42.9656124
  33.0910254  19.4573653  43.5011292  33.6005282  18.0396891  43.3542109
  82.4956036  45.0608301  44.1938210  82.0267773  45.2821445  43.3891726
  82.6732731  44.1233778  44.1173840  71.0115290   9.6735001   4.0649685
  71.1561680   8.9693707   4.6970397  70.9179211  10.4610121   4.6009669
  81.3225396  73.3237651  75.4363659  81.9219192  72.5776795  75.4181546
  81.8286975  74.0467289  75.0657434  93.3045444  28.2042003  48.6772633
  93.0188051  28.1616998  49.5898342  94.1456421  27.7473617  48.6681223
  19.2872473  84.9160212  59.2421293  19.5863482  85.3221467  60.0556612
  19.3281075  83.9754218  59.4148540  71.1620331  15.0481129  22.9526138
  70.9326506  15.9683764  22.8232741  70.4879236  14.5639396  22.4757671
  49.0419102   8.2298607  66.3928652  49.4268227   7.4358231  66.7637825
  48.1405878   7.9842275  66.1842632  25.4188725  71.1025578  58.0294132
  25.7073924  71.8616861  57.5227451  24.4720933  71.2160498  58.1128025
   3.0332654  31.3606671  74.4359801   2.6864379  31.0987011  73.5831509
   2.9296058  30.5838576  74.9855748  38.8915536  75.1660842  20.8779955
  38.1127688  75.5595404  20.4843974  38.9626881  75.5831367  21.7366219
  87.3665237  16.9493949  41.6180849  86.9265461  17.3129797  40.8496714
  87.6046467  16.0592520  41.3589096  34.7666594  82.5803143  73.9465475
  34.6235511  81.6778022  73.6615467  35.2599427  82.4983770  74.7627497
  46.9991684  10.9758055  67.1625471  46.4633942  11.7624557  67.2643232
  46.5358400  10.3040683  67.6628733  59.6463773  77.3833901  58.4202194
  59.5315453  76.4337820  58.4561396  59.6382996  77.5904447  57.4857187
  14.8053786  87.9123895  58.2465696  15.0369307  87.4970403  59.0772915
  14.6186444  88.8223284  58.4775972  12.0147130  74.4922179  55.5265570
  12.7652404  74.4002455  56.1134911  11.8296620  73.6002010  55.2328014
  74.1298628  14.4516170  41.2630463  74.9378300  14.9158418  41.0441542
  73.4466314  14.9213982  40.7847881  92.6469231   9.6520382  25.3439021
  93.3054638   9.8918140  24.6919346  92.6796532   8.6959708  25.3769970
   5.6503687   8.1933737  60.8084917   5.2559100   8.4382105  59.9714184
   5.0302515   7.5741106  61.1934662  54.8404217  19.7842741  37.8696299
  55.3058910  20.3306389  37.2363377  55.4395866  19.0590048  38.0463123
  19.3439528  74.3324476  55.5619574  18.6116788  74.1744810  56.1578226
  20.0203654  74.7263616  56.1128902  73.2997894  28.4688950  35.4057527
  73.5813189  27.5745678  35.2130032  73.0012894  28.4353995  36.3146019
  75.9461641  20.4588675   6.0593522  76.2176085  21.0229492   6.7834789
  76.1897421  19.5763898   6.3388753  39.9249646  65.4790133  61.4068651
  39.5524403  64.9411410  60.7081842  40.7983681  65.1144379  61.5499830
  25.7777402  78.3110183  70.8741140  26.1460158  78.6464661  70.0567532
  24.9030015  78.0047685  70.6347942  91.0572770  63.9661637  15.7088931
  90.7596448  63.4499183  14.9598010  91.1344960  63.3317438  16.4214786
  63.9423272  74.3838960  38.2395482  63.3534142  73.7953979  37.7672315
  64.7634408  74.3454033  37.7491069  48.2494259  29.1042185  41.3078356
  48.9205122  29.6721911  40.9293079  47.8926086  29.6091557  42.0385551
  42.9845142   9.5828879  28.5024309  43.4131384   8.7407380  28.6550665
  43.3976460   9.9214202  27.7081060  55.8008572  72.1473390  30.8107209
  56.0613534  71.4279240  30.2355576  54.9454972  71.8845457  31.1506200
  61.7744827  28.2763624  45.6716490  62.6114368  27.8544354  45.4774380
  61.6199875  28.8564444  44.9260807  44.2866564   8.4981275  75.5880070
  44.2922974   9.4551873  75.6033802  44.6869278   8.2428712  76.4191866
  42.4803302  87.1940011  24.8807311  41.6520545  86.7147776  24.9038386
  42.3144385  87.9307752  24.2926216  91.2316895  36.1250687  12.2866273
  90.5963326  35.4270792  12.4459004  90.7751751  36.9270778  12.5408161
  33.1128240  13.7966025  48.3223963  33.1067061  14.5266140  47.7033043
  33.0020285  14.2083824  49.1793633  21.2534213  46.1482000  59.5804644
  20.7532334  46.4766455  58.8333559  21.9017863  46.8308210  59.7533417
  23.5679960  18.6891854  62.8380299  23.6173868  19.1270030  63.6877966
  22.9811478  17.9473174  62.9845715  74.7092867   1.4435348  32.5765276
  75.4518080   0.8541074  32.7087188  74.0517092   0.9053037  32.1359277
  30.3540990  71.1609811  20.2285314  31.0455796  71.8188161  20.1554775
  30.6713340  70.4214472  19.7101867  34.6627709  84.1443056  55.2608538
  34.8441693  85.0356394  54.9627781  35.5148741  83.7085181  55.2454185
  60.8925152  13.2039106  40.0247765  60.2605915  13.5275555  39.3827772
  60.5017805  12.3967779  40.3595829  68.8480568  54.7771168  52.9291153
  68.3660364  54.9297714  52.1163511  68.2190609  54.9783278  53.6220169
  18.9796254  85.2543384  61.8912649  18.4150740  85.8444184  62.3905802
  18.5713193  84.3939316  61.9872665  47.1421849  62.0878738  44.6171474
  47.7966117  61.7938560  43.9834976  46.8564104  62.9401916  44.2883301
  23.0274786  57.1235516  28.2227786  23.9583029  57.3281184  28.1336959
  22.8258527  57.3187986  29.1379054  68.7670565  25.2699518  29.7273540
  68.2142591  24.8128343  29.0935659  68.2087326  25.3794217  30.4971099
  86.3039398  20.3195620  18.7469363  86.6390896  20.7777715  17.9762506
  86.2006950  21.0050035  19.4070435  23.3503434  87.1828793  37.8464723
  23.5801360  88.0355662  38.2157326  22.5098798  86.9658133  38.2498693
  39.0403744  73.8893193  55.0280523  39.7272822  73.6991757  54.3891191
  38.4852216  74.5389229  54.5967102  88.4301662  23.3014131  18.6537158
  88.4914494  24.1625166  19.0672135  89.0963745  22.7753496  19.0960574
  64.9915791  11.2508881  52.5665188  64.3163681  11.2901771  53.2438517
  65.1231718  12.1626019  52.3063421  34.4190976  74.3358070  41.0697746
  34.6950194  74.8639530  41.8188858  34.4533583  74.9380130  40.3265381
  82.4751472   8.8667881  57.0386791  81.5576649   9.1282582  57.1167564
  82.8066730   8.8852060  57.9364443  32.5440598   2.1020377  67.1869516
  31.7393255   1.8407218  66.7393494  33.0259395   1.2842211  67.3102427
  25.9112144   9.1928947  41.3704348  26.6448689   8.6147088  41.1614275
  25.8055592   9.1126722  42.3183966  61.4088297  12.0144856   7.5845641
  61.0449171  12.1503556   6.7097265  61.6380644  12.8929985   7.8877097
  94.0900766  83.6354047  54.4979572  93.2687365  83.7484306  54.9763489
  93.8447820  83.1448322  53.7134838  13.9647338  89.1239249  44.5293713
  14.2209813  88.2455651  44.8105383  13.2861325  88.9761142  43.8706732
  51.8495989  35.9432721  73.4621191  51.4394426  35.1439929  73.1317282
  52.4707317  35.6380320  74.1233730  21.0668847  82.0110273  42.1055555
  21.5369698  81.5457278  42.7974749  20.2666995  81.5020680  41.9755888
  57.4192953  15.4099488  46.4514875  57.7655411  16.1220741  45.9136915
  58.0504942  14.6986771  46.3423252  67.9662180  13.7755537  24.1453385
  67.4486256  13.2253587  24.7332287  67.6697063  14.6670246  24.3286180
  66.3153458  44.8384094  23.6506248  67.1965742  45.1177311  23.8989258
  66.2504387  43.9384270  23.9700794  73.9373684   4.4239128  39.9595618
  73.2009745   4.4717064  39.3499136  74.6486759   4.0406117  39.4463778
  20.1524302  77.1395642  29.8598957  19.3087956  77.1959108  29.4111872
  20.5169436  76.2998933  29.5800495  93.7117290  14.3385541  40.3892374
  94.6066189  14.5884037  40.6194115  93.6198139  14.5954132  39.4717360
  64.5229721  35.2598715  16.3002038  64.9282598  35.1090717  17.1541572
  63.9777327  36.0362196  16.4275992  58.8979923  78.8235956  52.3276234
  59.2203309  78.3023149  51.5923691  59.5541089  79.5115352  52.4393463
  62.4982068  84.4334635  50.5669689  62.9093167  83.6051041  50.8140326
  62.1939751  84.2918682  49.6705198  92.6589714  58.3994526  59.6594048
  93.3684574  59.0256971  59.8032045  92.8467714  58.0174702  58.8020515
   3.5731421  32.8774810  36.4867663   2.9375945  33.3939433  35.9912014
   3.4722529  33.1765318  37.3904371  76.5325689   8.7221831  50.6877708
  77.4623680   8.7774342  50.4671907  76.1195278   8.3721983  49.8983765
  78.8773680   3.3064473  23.7365627  79.6517515   3.5775554  24.2295766
  78.2655048   2.9953188  24.4036889  60.1536080  72.7277726  64.5709085
  59.4292351  72.4450654  65.1291132  59.7665211  73.3820361  63.9892435
  19.2333327  18.3623433  66.2305307  18.9730654  18.8028443  67.0395088
  18.8039599  17.5079632  66.2742186  67.1682262  25.4082298  44.2141294
  67.7133846  24.9842715  44.8769236  67.5670147  25.1585937  43.3805370
  75.5676842  16.2392771  10.4650891  75.2155781  15.6677461   9.7827369
  76.5042257  16.2912810  10.2742434  54.8058793  72.0093006  43.9170265
  55.2395817  72.4202114  43.1691694  55.4141709  71.3272124  44.2015743
  44.9056721  22.6797819  22.1375465  44.1799879  23.2704926  22.3392248
  45.6911707  23.2075715  22.2813010  17.4613044  80.5700749  63.0169678
  16.5735385  80.6726956  63.3598471  17.9909798  81.1722445  63.5395288
  26.6806313  67.7854270  51.7191458  26.8337914  67.8121751  52.6636314
  25.7493874  67.9842657  51.6217899  91.0519086  74.6309465  45.3244257
  90.6555449  75.4990011  45.2495289  90.3162013  74.0239423  45.2437258
  18.1414652  33.7289143  42.5092459  18.2725728  34.4739389  43.0957460
  18.9855647  33.6168456  42.0720196  42.0650336  81.6230106  26.6078353
  42.2493502  80.6837606  26.6160941  41.8849608  81.8398064  27.5226045
  79.0311670  10.2630639   8.8332534  78.7183571   9.4002175   8.5614473
  78.8156366  10.3135478   9.7645056  81.3327026  28.2305932  36.2900233
  81.8439388  28.1216526  35.4881501  80.6482506  28.8569117  36.0544634
  54.5085144   8.7437826  44.1944695  55.0925159   8.8655770  43.4459114
  54.2907238   9.6325243  44.4754267  23.3501619  66.3598588  68.0277048
  22.9890150  67.1970609  68.3190743  23.5844224  65.9054378  68.8369350
  85.5879548  45.0329213   1.9638236  85.1282314  44.2233375   2.1862109
  86.4994815  44.7659159   1.8452390  12.4619099  88.8458700  19.5079970
  13.2551905  89.3204893  19.7563457  12.6490733  87.9337959  19.7300863
  26.4451885  28.4471321  24.3091369  25.9425783  28.3502507  25.1179814
  26.4226317  29.3860126  24.1241336  44.5543381  75.7502633  67.7613592
  45.5032536  75.7243425  67.6384163  44.4046303  76.5216213  68.3080101
  84.6557617  41.9835281  61.8165827  84.0223217  42.6668310  62.0358562
  84.7001266  41.4372969  62.6013708  14.9909888   6.5397894  31.4573836
  15.6483946   6.6399193  32.1458721  14.8034964   5.6012940  31.4399099
  63.7677953  67.3672956  73.7936640  63.6965939  66.8967479  74.6241713
  62.9663750  67.8883713  73.7441397  64.0864274  87.6910582  42.1649361
  64.0861794  88.5126826  42.6560211  63.3038232  87.2306830  42.4679327
  26.3271996  88.3235638  34.3538833  25.3804299  88.4076171  34.2407894
  26.4472386  88.2179264  35.2976346  13.6170590  42.8501797   5.3158700
  13.2915378  43.0374908   6.1963141  13.5000014  43.6710072   4.8375687
  77.1424630  57.1826711   9.5021136  77.7300456  56.9644812  10.2255519
  77.6926282  57.1249440   8.7209495  85.2175000  40.6029013  18.0012019
  85.7614616  40.1899335  18.6718734  85.8322576  41.1157998  17.4765761
  54.5986268  80.1025099   6.6244841  53.8949486  79.8839968   6.0134912
  54.2854020  79.7885477   7.4727446  67.4184990  26.0162187  32.0169663
  66.5568542  25.6064200  32.0935607  67.4873257  26.5755582  32.7906799
  91.8898678  20.5436611   9.9526072  91.0069942  20.4750013   9.5892048
  91.8877220  21.3720655  10.4321635   0.6096087  37.7499986  50.1548719
   0.2072440  36.8926883  50.2939844   1.3476954  37.7698493  50.7640219
  87.6595211  25.9405208  11.9032717  87.0587158  25.9505773  11.1581790
  87.8663349  26.8624401  12.0566511  62.4852705  14.1903651  72.6714134
  63.1525803  13.5932374  73.0095959  62.9402542  14.7054136  72.0051193
   0.8379183  15.9102774  49.4268131  -0.0767412  16.1600423  49.5581627
   1.0716353  15.4304039  50.2213717  50.2224493  10.9600973  55.0655985
  51.1589479  11.1559427  55.0948191  49.8680782  11.3659728  55.8567476
  26.8241927  85.2473509  49.2745876  26.5208527  86.1481386  49.1614532
  27.1354720  85.2112549  50.1790380  49.8764703  77.6612109  40.4255676
  49.2116067  77.3406559  41.0350180  49.6886536  78.5955113  40.3359079
  66.5093946  34.2355227  61.8169832  66.0328531  34.0269589  62.6204967
  67.3608923  33.8122916  61.9268036  93.0354404  24.3585539  27.5830150
  92.4528885  23.5995197  27.5559616  93.9073467  23.9970827  27.4238396
  66.7468309   9.6743476  25.3161669  66.8793488  10.5962181  25.5371332
  67.6261425   9.2963308  25.3283763   8.7522071  66.2898615  70.5417393
   8.0990880  66.9476226  70.3029625   8.4081787  65.8895877  71.3402734
  23.4524168  20.8520737   5.9459670  22.7233137  20.9827223   5.3396972
  24.2257703  21.1266056   5.4532416  87.3002911   2.7628034  33.2965493
  87.0826721   3.3270678  32.5546074  87.2338963   1.8735191  32.9487038
  41.6158101  84.0621075  36.0268617  41.9738480  84.6996722  35.4091597
  41.3955876  83.3030480  35.4868960  51.5832996   1.6273056  40.8237219
  51.2869358   0.8966634  40.2809811  52.4880171   1.7776848  40.5496693
  42.0251608  32.2451711  32.7462244  42.0154762  33.1325531  33.1049538
  42.2682238  32.3608065  31.8276477  85.9008363  81.2397972   6.1891254
  84.9541763  81.3360682   6.0852130  86.2348226  82.1368256   6.1837848
  74.6006250  32.8925896  49.1520596  74.8445225  33.7575364  49.4816256
  73.7323904  32.7315950  49.5214891  69.9755430   4.2109108  63.5864162
  69.7629166   4.0169060  62.6735163  70.8319950   3.8062215  63.7240696
  64.3932343  16.7575049  16.8621731  65.2932262  16.6016221  17.1484268
  64.4400120  16.7428851  15.9062290  53.0177972  71.2616533  20.5027151
  53.0083749  71.1786574  21.4562654  53.8637921  71.6637582  20.3056479
  39.0494561  32.8074670  38.0990243  38.9123631  33.6226010  37.6163340
  39.6533608  32.3043180  37.5527906   3.1010256   6.4689988  34.1035461
   2.6326285   6.0253358  34.8106551   2.7342329   7.3530459  34.0910387
  25.1735970  71.5728944  70.5279446  25.5202386  72.0540088  69.7765493
  25.5646321  72.0026475  71.2886238  81.5654615  55.5118790  12.8833373
  82.1992067  56.2089959  12.7141555  82.0231345  54.7075656  12.6387103
  61.0561609   9.9796122  65.8688211  61.6929150  10.5285299  66.3264942
  60.4982662   9.6298677  66.5635586  19.3605134  66.1796802  27.8240967
  19.3297717  67.0715064  28.1704116  19.1596266  66.2771338  26.8933010
  42.8580300   1.6692254   8.9408858  42.5569503   1.3045213   8.1086715
  43.6966388   2.0809933   8.7325175  51.8607187   8.9418423  61.0800123
  52.3125601   9.3147999  60.3230619  51.9476748   9.6072084  61.7626238
  70.3456068  28.3193207  67.9286432  70.7100868  28.9913416  67.3526430
  69.6898079  27.8739953  67.3921299  32.4650809  65.2587789  56.3766861
  32.0192382  65.2095741  55.5310869  31.9028851  65.8191436  56.9116211
  84.6379182  84.8542866  48.4996986  84.8227212  85.6472287  47.9963827
  85.2666756  84.8765239  49.2210865  79.7052145  11.1974049  37.2845840
  79.7814083  10.3286326  36.8900466  79.2904854  11.0397446  38.1327462
  21.5494833  47.3825169  75.2634764  22.1740256  47.8744555  75.7965565
  22.0863448  46.7449856  74.7927666  88.1593323  32.9847288  45.7209682
  88.0818653  33.0527377  46.6726017  88.5725212  33.8061690  45.4549885
  51.6529989  21.1058092  41.0488224  52.3115635  20.4178524  40.9527016
  52.0054865  21.8456054  40.5541706  38.7623988  20.1209927  39.5496702
  38.3687792  19.9112058  38.7027454  39.5028696  20.6885481  39.3356323
  59.8830986   4.1251725  51.1032104  59.6917677   3.7097600  51.9440794
  60.6828594   4.6270472  51.2604809  22.1772684  47.8683901  10.3604110
  21.3929571  47.4671364   9.9861320  22.2786535  47.4459764  11.2133582
  53.0664778  13.0214536  73.7273550  52.3958588  12.3528469  73.8668966
  53.7723398  12.7816665  74.3277645  73.8767481  46.7208099  66.1938000
  74.1184425  45.9213257  65.7262135  73.4745455  47.2764492  65.5261707
  64.0974855  12.6752019  62.2344351  63.2782602  12.2291625  62.0196247
  64.7171640  11.9668949  62.4091721  73.3334589  20.3515983  18.5553980
  72.6423788  19.7008693  18.4321475  74.0646219  20.0269651  18.0298030
  92.4376297   6.0873747  62.5868273  92.3396301   5.9569985  61.6436243
  93.1800842   6.6857630  62.6700354  51.1326313  13.7812674  53.1805086
  50.9169912  13.0711043  52.5760269  51.8641996  14.2366636  52.7637911
  48.6681414  17.6003885  26.2285829  48.9391851  18.5028625  26.3968396
  48.5131693  17.2308290  27.0978594  50.1256561   6.5169442  46.5265942
  50.5297422   6.0918516  47.2830629  49.7528458   7.3258334  46.8772268
  14.9328089  33.9907861  39.2944288  14.9427593  34.7939706  39.8150301
  15.3818524  33.3456898  39.8407245  61.7267752  18.5076737  23.3960295
  62.5424147  18.3061218  23.8546610  61.9776964  18.5623157  22.4739218
  71.8926382  39.4031191  35.1544452  71.6947556  39.2181969  34.2363596
  72.7863503  39.0826273  35.2760887  40.8962488   1.4858530  46.6927671
  40.1725864   1.3654049  46.0779238  41.6393566   1.7333655  46.1425304
  54.4244337  10.4758787  18.9726865  54.5323753  10.5649483  18.0257726
  55.2774286  10.7159603  19.3346179  72.8134871  28.3992434  72.8348970
  73.0024481  28.4777451  71.8998241  73.6722994  28.4316444  73.2563496
  11.8249522  16.8570960  42.1469259  11.7623339  17.7983975  41.9848728
  12.7336417  16.7201042  42.4147892  71.8573189  29.4368744  32.9615736
  72.6292086  29.8034525  32.5302434  72.0846939  29.4266725  33.8913202
  75.0683784  17.0756221  51.0758972  75.7822800  17.4143207  51.6161346
  75.1461220  17.5526917  50.2497053  90.8891201  13.0435193  35.1587415
  90.6464863  12.1622944  34.8744798  90.7905674  13.5837245  34.3747139
  83.4733391  31.5437484  45.8191109  83.6372662  31.9905639  46.6495991
  84.3453693  31.3577247  45.4710102  15.2076286  66.4655498  68.3497320
  15.1433700  65.8570793  69.0858482  14.3014186  66.6062287  68.0754636
  57.5296307  18.4932828  51.0140038  57.9153299  19.0055156  50.3033113
  57.0131874  17.8200030  50.5710506  58.2840157  34.3053555  58.5020399
  58.9379072  33.6364794  58.2989120  58.3425856  34.9259615  57.7756453
  55.7123181  83.7897348  52.1645021  56.1869237  83.4473711  51.4070272
  54.7932717  83.7765884  51.8972731  42.9930159  66.4689392  56.9719601
  43.7803313  66.9971007  56.8400192  42.3050448  67.1073669  57.1599531
  61.9052458  24.9259758  64.3006754  61.1355829  25.0333834  64.8595285
  61.7126703  25.4515648  63.5242081  29.3480253  16.8882859  46.2827063
  30.0308442  17.2579432  46.8424797  29.8265314  16.4457798  45.5816698
  80.9399223   5.1521820  32.1189046  81.3876724   5.6048769  31.4041877
  81.6419601   4.8950303  32.7166057  27.7863309  83.6376542  54.1653299
  27.0578953  84.2165959  53.9407396  28.0130955  83.8757086  55.0642967
  66.8359518  34.3386745  48.1343699  66.4853477  33.4556055  48.2505512
  66.8755627  34.4577193  47.1854258   9.0626904  78.8571662  23.0787683
   8.9451453  79.5483935  23.7303948   8.2302281  78.3846873  23.0779600
  85.0056553  58.4062004  65.3443575  84.7444916  59.1408968  64.7891617
  85.5619144  57.8670263  64.7821331  25.8374211  85.2246785  66.4050293
  26.6751286  84.9286535  66.7611933  25.9845731  86.1429664  66.1784744
   0.4964457  40.7554531  71.1278105   1.0687266  40.5916214  71.8774033
  -0.2764310  40.2157784  71.2940693  -0.1015558  18.6135864  30.3707743
  -0.5525484  19.2638433  29.8322487   0.7329855  18.4701777  29.9244452
  64.3482256  30.7584190  23.3691645  65.0798655  30.1472783  23.2828832
  64.0318394  30.6285667  24.2631841  71.2810183  23.5014725  35.9604549
  71.2063885  22.7711487  36.5746903  72.1663618  23.8390779  36.0961890
  93.8419437  10.5266023  49.7779512  93.8527584  10.1856816  48.8835859
  93.7857628  11.4762187  49.6716309  84.9056530  19.0709913  57.8939152
  85.0727177  19.9428689  58.2518959  85.6091595  18.5275209  58.2488060
  28.6530314  34.0588927  27.6817846  28.2322894  33.4122825  28.2484460
  29.5087538  33.6801815  27.4804330  17.1874282  58.4167546  64.7638941
  17.2717282  59.0421504  64.0441704  16.6639802  57.7024954  64.4004822
  88.5631657  15.5297768  61.3481283  89.3282700  16.0458410  61.0941362
  88.1723118  15.2565253  60.5181885  10.2844725  22.4066019  23.0368471
  10.4907237  21.5371609  23.3800125  10.3373537  22.3076367  22.0862460
   3.0650816   3.3065635  64.4105434   3.3803378   2.4057516  64.4839144
   3.1715308   3.6699262  65.2896738  59.3158817   8.7685245  21.8422604
  60.0587749   8.2625443  21.5131235  59.4641161   8.8252246  22.7862120
  63.8519907  16.0843873  46.3148069  63.3187962  16.8787789  46.3444042
  64.6683455  16.3274550  46.7515182   4.3037234   8.9550585  58.5350275
   3.8640128   8.6439335  57.7437735   5.0218878   9.4990957  58.2117558
  28.7527701  56.0215205  45.3994846  28.6571690  55.0708002  45.4562616
  27.8759572  56.3614887  45.5779457  56.9345045  11.7268503  41.3437605
  57.8475189  11.6476512  41.6201067  56.9790268  11.8117189  40.3913736
  81.4912891  61.4219189  48.0017567  81.5172482  60.5999660  48.4916115
  80.6111622  61.4493895  47.6264668  89.7795391   0.7489563   8.8520366
  89.5709133   0.3906733   7.9892856  89.9389935  -0.0204238   9.3987179
  74.1400337  26.6257906  42.3569250  73.4782839  26.9950724  42.9416895
  74.5876694  25.9668112  42.8875828  83.6596489  19.0478814  22.0680571
  84.0725613  18.1890547  21.9777441  82.7916241  18.9383245  21.6797924
  81.4960670  12.8634584  32.6199269  81.9110298  13.2478845  31.8477488
  80.8305168  13.5016191  32.8768754  87.8042793  37.1142960  50.6336451
  87.1383381  37.6996422  50.2729130  88.0720043  37.5317574  51.4523458
  77.3936367  12.2900009  34.4882107  77.5383043  12.8136659  35.2762961
  78.0044174  12.6507020  33.8455057  18.7267123   3.7461218  64.0073776
  18.9392004   2.9745281  64.5324755  18.1449805   4.2626056  64.5651150
  41.3680121  73.4984559  53.4096289  41.3180968  73.5377818  52.4545383
  42.2226378  73.8744575  53.6204910  75.3648663  32.4762726  45.7565212
  75.5746222  32.9034448  46.5870380  75.6916332  31.5822887  45.8577681
  59.1091442  25.4135418  62.0700264  59.4930840  25.4084730  61.1932135
  59.1940355  26.3207054  62.3634243  61.2471294  37.7660966  55.1067924
  61.7060614  38.3762980  55.6840849  60.7615948  37.1936369  55.7007408
  18.8636920  76.1698371  60.0612020  18.6224410  76.9129282  60.6142378
  18.4112546  76.3306898  59.2331553  77.4458408   5.6007099  42.5883579
  77.0999384   6.0466039  41.8152046  77.1362209   6.1258900  43.3262920
  60.4087257  26.1704588  42.9200363  59.6676826  26.6559434  43.2825136
  60.9094620  26.8255424  42.4338675  67.1606827  35.2691388  72.1266174
  66.4973354  34.9728847  72.7498627  67.0906591  36.2237072  72.1379805
  14.6337411  74.0673548  27.7736664  13.9205596  73.5927945  27.3465872
  14.2020604  74.5933360  28.4468865  69.9350834   1.2246044  28.9560485
  69.4958639   2.0648903  29.0873528  69.6690941   0.9498531  28.0785561
  88.3562565  42.4901581   3.4393188  88.4440136  43.2655096   2.8849182
  87.8426933  42.7891588   4.1897136  47.1602201  24.1191888  30.3634906
  46.4952135  24.8071742  30.3375602  47.9919672  24.5913672  30.4018497
  70.9761190  21.5118670  37.8542638  70.4845142  21.5464902  38.6748481
  71.8641472  21.7751384  38.0957794  19.3893732  76.3742652   7.5770553
  20.1199068  76.5289202   6.9781955  18.7010874  76.9659415   7.2730525
  70.2590367  83.2179505  41.5636110  70.7400986  83.6407113  42.2749996
  69.6238896  82.6545530  42.0056581  46.7163944  14.8534274  46.6069746
  47.2293997  15.1071012  47.3742437  46.0138798  15.5021214  46.5634155
   2.9292689  42.7066755  43.8428307   3.8318072  42.9947376  43.7061357
   2.9974089  42.0041561  44.4894075  50.6257534   6.4890945  59.7552919
  51.1288452   7.3033535  59.7660255  49.7116089   6.7720437  59.7778416
  80.7580617  37.0892039   2.5798925  80.1329997  36.4158591   2.8484758
  81.4908460  36.6001519   2.2056134  63.4906384  85.0573462  54.7951221
  63.3967396  84.2060143  55.2224970  62.6191231  85.2488530  54.4486856
  48.7580919   3.9894888  48.5343742  49.4631958   3.7129110  49.1196680
  48.9683056   3.5791585  47.6955271  25.3434382  47.6062632  60.7346630
  24.9497137  47.5568533  59.8635864  24.7123251  47.1710157  61.3078022
  45.5025816  15.1552546  28.6024952  45.9724474  14.9401331  29.4082117
  46.0570192  15.8030879  28.1675887  91.3661753  77.6861435  34.4941187
  90.4682528  77.3545307  34.4934702  91.7594301  77.3142034  33.7046599
  80.0771332  41.0398579  54.6245813  80.7507706  41.5902519  55.0239849
  80.1667595  40.1944447  55.0644302  38.7271428  25.8145070  49.0558147
  38.1134439  25.2055550  49.4666433  38.5621262  25.7241178  48.1172895
  76.4148143  37.7295473  10.2358516  77.2801259  37.3206565  10.2192100
  75.8686689  37.1563592   9.6978839  69.9284697   7.1977538  62.1987629
  69.6179962   8.0573601  61.9143057  69.5479202   6.5852851  61.5692425
  85.4984951  57.6859951  17.4670553  85.1565838  58.1906509  18.2050574
  85.0402069  56.8471622  17.5176859  92.6504707  47.7979517  18.6459374
  91.8324757  47.3011065  18.6297238  93.1895065  47.3941278  17.9657900
  77.6693010  13.0373788  37.3672438  76.9838238  12.7062607  37.9475117
  78.4505749  12.5415182  37.6121283  84.5444393  14.5860970  28.6388636
  84.9791241  14.7596049  27.8038931  85.0035477  15.1424718  29.2680669
  61.5450191   8.0313838  17.6389635  60.6001616   7.9136157  17.5409198
  61.7502356   7.6290357  18.4829021  82.6349735   4.8311770  55.1531076
  83.0138493   4.3425569  55.8838177  81.8058109   4.3881282  54.9730158
  80.1182461   3.6127663  35.0567842  80.1430798   3.7147400  36.0082126
  80.9494591   3.1908238  34.8393488  87.7151254  32.4113729  10.1257308
  88.1313184  31.6537013   9.7146972  87.4511865  32.9668823   9.3922694
  50.8968592  25.0787401  41.5108967  50.0505924  25.5041909  41.3728380
  50.6837845  24.2633009  41.9646502  59.3324086  82.0080143  46.5956306
  59.9601742  81.8023765  45.9029150  58.5507485  82.3053038  46.1299610
  36.0688206  87.5939605  67.2000885  36.8060538  87.3267199  66.6511774
  36.2442204  88.5120699  67.4063444  58.4514761  13.3464944  62.8722239
  59.1554832  12.7575576  63.1438160  57.9286528  13.4757161  63.6635447
   1.4683257  11.7123294  40.7205629   1.4625655  11.6043091  39.7694921
   1.9861327  12.5036502  40.8686066  54.1961956  14.8272574  38.9314818
  55.1249313  14.8462081  38.7005591  53.7502861  15.1757383  38.1594992
  83.8237286  38.3694696  35.4205155  83.6730289  38.1177402  34.5093894
  84.6483517  37.9429650  35.6535816  13.0425559  38.2492733  43.9817810
  13.4768496  37.3968482  44.0132856  13.6021243  38.7824488  43.4171247
  78.2598829  11.0645986  52.7087307  79.2138577  11.1399329  52.7307940
  77.9679012  11.8528616  52.2508860  67.8295851  18.3590055   9.7100496
  68.5756969  18.3786285  10.3093493  67.1786308  17.8168726  10.1556754
  39.6574780  85.7291225  54.1575813  40.3883597  85.7366261  53.5395288
  38.9059874  85.4465073  53.6364126  24.0041444  87.6663197  46.9828606
  24.3179700  87.9620989  47.8374147  24.7968528  87.5800113  46.4533377
  90.4326725  42.9497290  47.9518938  90.0767899  42.1160364  48.2593727
  91.3687229  42.7838707  47.8399658  64.8806572  15.5920792  38.7222409
  65.5041027  15.4842818  39.4405222  64.3251276  14.8139489  38.7684608
  76.8575573  15.6908798  13.2206142  76.4606142  16.0206330  12.4144316
  76.7857409  14.7389221  13.1509757  53.2072115   1.7315932  20.0765491
  53.0551100   2.5719738  19.6442807  54.1410780   1.7358392  20.2865672
  52.4561262  29.2796946  52.9515743  51.7904425  29.7171450  53.4823608
  52.8552723  29.9835229  52.4401665  66.8421888   3.0048773  33.5500503
  66.4989710   3.7394455  33.0412841  66.7610502   3.2860759  34.4614077
  26.2803027  68.0002946  70.4126263  25.8262440  68.3907551  69.6658993
  25.9557482  67.1004313  70.4464626  73.0704686  80.9181714  37.8896499
  73.9778229  81.1821932  38.0420566  72.5576684  81.4727324  38.4776378
  93.2297421  16.6326094  55.4248381  93.6963844  16.6787410  56.2593174
  93.3361530  17.5036359  55.0424480  51.6215035  79.7031826  39.7842574
  51.6309926  80.4202551  40.4182529  51.9201848  80.1020837  38.9670038
  57.8650522  15.8518016  38.8729048  57.7241039  16.7534864  38.5842347
  57.9330921  15.9132135  39.8257065  35.6980035  66.1992019  62.6938868
  35.6444928  65.2481764  62.5994396  36.6075703  66.3644403  62.9421186
  64.5860097  82.4698812  36.1726880  64.9886510  83.3355522  36.1039782
  65.2661320  81.9195193  36.5609694  82.4525261  27.6666164  43.6941910
  82.6929474  26.7844176  43.4110832  83.2312870  28.1949186  43.5190678
  44.0464258  34.8127604  47.8552437  43.4333706  34.8562264  48.5890722
  44.2312670  35.7276607  47.6430559  56.4548969   2.7369469  46.8269730
  56.5879726   3.5352826  47.3380327  56.0934734   2.1093541  47.4528599
  71.3936472  50.5755424  50.6940126  70.8100462  51.2714195  50.3916883
  71.1818123  49.8264503  50.1370430  58.5811663   3.7624097   8.5821325
  58.1162834   4.5990953   8.5736316  57.9443550   3.1311652   8.2471251
  54.8877045  79.0479749  24.0912938  54.7892567  79.9760085  23.8784742
  55.4148671  78.6927444  23.3756471  78.3204126   7.7628052   8.2584667
  77.5539780   7.4851251   7.7567691  79.0207815   7.1779716   7.9691857
  84.8306084  18.7871993  46.4951944  84.4809341  17.9690909  46.8482637
  85.2481556  18.5337102  45.6720114  63.3393002  21.0230947  25.7014418
  63.9597082  21.0938525  26.4269185  63.7548161  20.4157305  25.0893259
  90.8225060  33.7286568  18.6825037  90.8167076  34.1665363  19.5336556
  91.7126369  33.3878279  18.5945535  26.4856192  71.2723011  19.1476035
  26.3325021  71.3125008  18.2035851  27.2936007  71.7680150  19.2805147
  43.3133173   1.8705954  31.1028743  42.5152636   1.4720559  30.7557249
  43.2415724   2.7953798  30.8665299   6.0046304  78.0330911  26.9214805
   5.1143993  77.7773347  26.6800101   6.0834898  77.7852598  27.8426726
  21.5468690  75.9419018  52.5997066  22.2176978  76.2221903  51.9770813
  21.3708398  75.0300604  52.3677778   0.7461939  30.7209563  27.3888850
  -0.1195612  30.9050107  27.7533269   1.3220511  31.3635397  27.8032708
  68.8482046  15.9494972  68.6315298  69.1581631  15.7981575  69.5244217
  69.1988564  15.2145112  68.1284666  74.6224308   6.3895667  16.1754310
  74.4558334   6.5490162  17.1044374  75.5668116   6.5109241  16.0771751
  79.3367290  15.3318238  41.2684155  80.1984406  15.7440376  41.3298512
  78.7228107  16.0213459  41.5211821  39.1866442  83.0802441  51.8797684
  38.3399436  83.1871825  51.4463043  39.8131892  83.4958321  51.2873459
  37.5182530  80.0738293  58.9381933  38.2739255  79.7768193  59.4451237
  36.7656466  79.8908240  59.5006227  56.9615889   7.7602369  55.9584427
  56.1005211   8.0680275  56.2413883  57.5508404   8.4906620  56.1468410
  45.6902218  32.3820710  65.6885958  45.5183077  31.5387511  66.1075068
  46.5827513  32.3045516  65.3515387  13.8136137   6.6230220  55.3563404
  12.9170275   6.8503737  55.6026745  13.7167990   5.8853716  54.7540712
  83.6439660  36.5116075  17.9158004  84.1174892  35.7790914  18.3100494
  83.1298593  36.8791702  18.6347087   3.8740073  14.8497355  14.7489989
   4.5823584  15.4919410  14.7941995   4.0640746  14.3384612  13.9624226
  84.7677994  25.1213861  74.9257660  84.1692162  24.4846606  75.3163004
  84.6582508  25.9101701  75.4568529  23.8549246  46.3348885   2.5789674
  24.8116316  46.3489060   2.6063569  23.5859693  46.8491265   3.3401855
   6.3108055   4.2600724   0.5784543   5.8598725   3.9032218  -0.1867549
   7.1024315   3.7281224   0.6596358  60.6169605  24.8066163  26.3668489
  60.6430960  23.9478326  26.7887950  60.0866175  24.6715832  25.5815244
  26.7907473  69.2031997  49.3640995  26.1584470  69.6643788  49.9152231
  27.2307679  68.5970968  49.9601269  14.1613290  87.9622327  22.4460125
  13.7415120  87.1429881  22.7083564  14.8029706  88.1339815  23.1352377
   2.7458296  15.2920079  23.0713058   3.2070837  15.4413605  22.2459793
   3.3536444  14.7691202  23.5941625  59.6890736  20.9395552  44.9461985
  58.7788439  20.6448388  44.9755621  59.6322155  21.8948889  44.9644709
  71.0309505   5.7027799  13.9734435  70.3824043   5.6400162  13.2722449
  70.8945179   6.5727139  14.3487203  77.0769739  10.2917516  70.2548552
  76.5706158   9.4901204  70.3860998  77.6531792  10.0929487  69.5168209
  26.3047671  20.0038052  36.8046427  26.5086818  20.8365774  37.2302461
  26.5525007  19.3392944  37.4475169  80.7758331   0.5183676  35.3263545
  81.4555645   1.1686166  35.1492214  80.6200790   0.5852442  36.2684274
  73.8334846  32.8410411  59.6776295  73.8166571  32.2492552  58.9254761
  74.6873331  32.6892519  60.0827599  32.2353837  84.8195463  44.7948217
  32.6542327  84.1195145  45.2955723  31.2984654  84.6943226  44.9456024
  72.0026112  24.6849632  49.9780893  71.3607645  25.3368902  50.2596188
  71.8983221  23.9629841  50.5978489  47.9512736  85.7105872  54.3519497
  48.8641068  85.9927890  54.4097233  47.6330086  86.0949051  53.5351038
   4.9050201  80.5475417  19.9277003   4.6472086  80.5948725  19.0070899
   5.7517494  80.1012698  19.9166663  55.5334756  64.6204728  75.5025339
  55.9378907  64.6800107  76.3680649  55.1384827  63.7488097  75.4821682
  80.1968479  61.6338015  61.2072182  80.0447750  61.6880894  62.1506977
  80.1247978  62.5376940  60.9005976  36.4001761  57.5631571  48.3297682
  35.6252585  58.1236219  48.3698940  36.4527235  57.1645689  49.1984463
  79.1319036  35.2024961  55.4927111  78.9386749  34.5768046  54.7945690
  78.2733154  35.4561329  55.8314228  82.7726173  65.9956169  41.4457703
  82.4977875  65.0920868  41.2897778  83.7014008  66.0067606  41.2145519
  65.8814383  65.7387400  56.4532423  66.0727453  65.6273794  55.5219889
  65.2563667  66.4629936  56.4844131  27.7243913  79.6752253   9.3003352
  28.0083860  80.5330697   8.9846118  27.5005830  79.8203984  10.2196105
  18.3193503  13.2885444  52.4473381  19.0212450  13.1554806  51.8102598
  18.7492667  13.7062359  53.1936216  89.6593952  28.3259583  20.5672288
  90.5907154  28.4678459  20.7367778  89.3748760  29.1194940  20.1138163
   4.3129168   4.5415980  50.1417828   4.4365321   5.1346284  50.8829069
   3.8787566   3.7757856  50.5176401  37.9722227  49.6318498   5.4185088
  38.2518305  49.7383740   4.5092757  38.7881864  49.6011057   5.9179862
   0.7305155  35.7613254  65.9701729   1.2119017  36.5821314  65.8664036
  -0.1061620  36.0214376  66.3555908  92.8658962  27.1372938  36.1088753
  92.4767399  26.6789198  36.8536448  92.3753071  27.9570460  36.0492253
  65.4749012  24.5846772  56.9303894  64.7803450  24.3789601  56.3046885
  66.0085917  25.2443981  56.4874792   5.7900340  87.0893869  63.5634232
   5.4303844  86.2696135  63.9023304   5.1065929  87.7382347  63.7311745
  58.7742707  82.3040926  26.3900185  58.5783669  81.3674843  26.3651872
  57.9172703  82.7290422  26.3555408  17.8248702  41.5763807  58.4100294
  17.9051123  40.7698631  58.9192724  17.7132616  41.2793303  57.5069618
  85.7298946  32.2415686  56.7134619  85.7346153  31.6762233  57.4858570
  86.3305187  32.9534864  56.9340563  93.7756348  14.9986422  37.6994348
  94.5101833  14.7274256  37.1488833  93.1170368  14.3155146  37.5736737
  10.8969889  26.5691900  23.2870340  10.8876334  25.9254718  23.9953923
  11.7327795  26.4249325  22.8433323  84.0563107  15.2027249  68.8109446
  83.6358070  14.3529701  68.6793089  84.9080372  14.9917948  69.1934538
   1.4652548  12.3008394  67.4728394   1.0774718  11.5175390  67.0825863
   2.0700941  11.9646096  68.1341648  69.3627647  61.1562779   0.1289924
  69.2542175  61.3921740   1.0502990  70.0265387  61.7639103  -0.1972262
  44.4626853  59.8959631  45.0735664  44.7718856  59.3546790  44.3471813
  44.6978757  60.7894796  44.8234749  74.5986366  28.8308430  26.3631630
  73.7831402  28.3471727  26.2317967  74.6650314  28.9350986  27.3123503
  85.5966091  23.7435079  41.7240286  85.8250809  24.4098973  42.3720694
  85.1472282  24.2273927  41.0311031  54.2041445  70.4196167  34.2462969
  55.0302172  70.0211334  33.9723563  54.4456911  70.9988022  34.9690890
  70.8231497   4.5626563  22.6237965  70.1426125   4.1308549  23.1401753
  71.5270185   4.7328523  23.2497668  50.5971622  49.3113661  63.3115053
  50.5933571  50.1984262  63.6711454  51.3691282  48.8990498  63.6991882
  92.0416260  25.9605908  18.3295321  92.8316116  26.5010715  18.3353925
  92.3466969  25.0878310  18.5774410  94.2426014  21.7415309  35.7556915
  94.0988827  22.6523376  36.0126162  94.0600109  21.2373424  36.5485883
  87.3396683   4.1181260  73.8485765  86.7945194   3.4050199  74.1810322
  87.5159931   3.8804328  72.9382753  61.3425970  15.1664090  41.9562387
  62.2809696  14.9781775  41.9402885  60.9488821  14.4656909  41.4364147
  54.3170370  79.4556132  16.2235911  54.5528043  78.6597052  15.7469543
  54.1410841  80.1013484  15.5392631   9.6514044  60.2671242  53.7264967
  10.3405772  60.6430387  53.1788015   9.2049895  61.0252047  54.1036654
  83.6511993  34.6522593  45.1127338  83.5066319  34.4056916  46.0262632
  84.2207050  33.9652395  44.7664690  17.0267531  84.0267751  66.4743900
  17.9797980  83.9977410  66.3901138  16.7534348  83.1110781  66.4193630
  79.9808359  42.3716259  37.2436261  79.3291330  41.7928457  36.8479872
  79.4682932  43.0854082  37.6231647  86.3370514  14.6314061  63.3704567
  85.7647514  14.2449129  64.0332747  87.0888233  14.0403438  63.3290243
  18.4601984  36.2968874  43.4225035  18.2919798  37.2328830  43.5313654
  18.8805590  36.0323262  44.2407560  13.4656153  62.8255177  41.3838243
  13.8030920  62.4445295  42.1944952  13.3657275  63.7569857  41.5803623
   3.3271227  69.9655151  44.7901821   3.5208521  70.7047129  45.3666306
   2.6983366  70.3133059  44.1578054  91.1927525   7.7021119  11.5704330
  90.5964868   8.4348914  11.7244800  90.8085935   7.2322652  10.8302291
  37.2925210  18.8160992  32.0603371  36.5295935  18.2550979  32.1998000
  36.9829893  19.4973004  31.4633560  76.6774559  45.3641605  61.5717745
  76.2749624  45.7819700  60.8104181  76.4537144  44.4377422  61.4827919
  25.3336058  21.9011021  17.7112746  24.8362933  21.4849353  17.0071983
  25.6920538  22.6949978  17.3144495  82.8620625  22.6323414  39.0292931
  82.4286366  22.9969263  38.2576370  83.3212185  23.3759165  39.4198155
  90.3734684  25.6576061  68.4636021  90.6688404  25.6339359  67.5534248
  89.6308041  26.2614679  68.4587717  91.6909885  55.8335209  46.1998796
  92.0427418  56.5847158  46.6775942  90.7418919  55.9544563  46.2286472
   8.4309683  52.6589012  57.8959560   9.2158614  52.8500128  57.3824930
   8.1453715  53.5118294  58.2233429  90.1609325  22.1493554  76.9415665
  89.9560642  22.1880341  76.0073471  89.4602108  22.6484036  77.3612928
  30.5319128  37.8455901  68.7953043  30.7325659  37.8442740  67.8593683
  30.7203303  36.9519520  69.0819073  54.9221815  55.3569355   7.9076751
  55.3864111  56.1582759   8.1496986  54.8845686  54.8480323   8.7175067
  71.3816977  26.1496925  12.0453501  71.7775869  26.6120791  11.3066328
  70.8595133  25.4563332  11.6418576  88.6187363  33.7352896  42.4789143
  88.1204605  32.9217887  42.5573969  88.2085037  34.3290520  43.1077051
  25.9273825  59.9810266  62.9579067  25.3910933  59.8790741  63.7441874
  26.2252627  60.8902168  62.9873943  42.6089586  76.7309776   5.7445510
  42.5656332  75.8204499   6.0366042  41.9137777  77.1723714   6.2325366
  66.9825724  82.7068105   5.3034194  66.8939474  82.3867002   4.4056972
  66.1372784  82.5163618   5.7101520   6.4277945  47.3469067  41.5595770
   5.6471358  46.8591404  41.8220425   6.4441214  47.2771788  40.6050587
  62.8026676   3.4655842  49.3943930  62.2549438   3.9895883  48.8098860
  62.3009205   2.6630610  49.5373487  92.4620914  35.4942489  40.3168106
  91.6854286  35.6034088  40.8655405  93.1923771  35.4801321  40.9354544
   4.8307715  47.8832483  38.8462329   3.9682684  47.8378391  39.2588592
   5.0917254  48.7997150  38.9369321  84.6905422  47.3424864  68.4011555
  85.2343178  47.0145941  69.1174126  84.0617180  47.9261160  68.8256454
  79.7855377  10.9233809  59.0701675  80.1382256  11.6440356  58.5481453
  79.0786457  10.5632496  58.5345936  80.6484222  38.0626488  66.3369846
  81.5265179  38.1244779  65.9609938  80.5778122  38.8278747  66.9076586
   2.0930205  36.9010377  11.8095493   1.6466246  37.7464795  11.7627585
   1.3857851  36.2607646  11.8876326  39.1120046  75.7971862  72.0336069
  39.7898859  75.2162698  71.6882787  38.2908910  75.3369716  71.8598275
  63.6165635   7.0506999  10.3013309  63.9058034   6.7663380  11.1683448
  63.7166230   8.0025479  10.3157123  67.4013472  10.8878553  54.5825911
  66.5759087  11.2657166  54.2791033  67.1825123   9.9834800  54.8072004
  42.0435057  34.9043775  49.8855209  41.2820826  34.4888163  50.2902174
  41.8619547  35.8425736  49.9408150  24.2227186  64.0723601   4.7096904
  24.4527734  63.7356058   3.8437255  24.1752828  63.2938471   5.2645763
  92.1367455  48.9003181  13.9129758  92.3824596  49.1943884  14.7901177
  91.7114067  48.0545378  14.0543139  70.9657669  35.1814842  46.9299603
  71.0300827  35.4117513  47.8568220  70.3805923  35.8419967  46.5591192
  16.5870295  49.0475988  34.4181514  16.9490920  49.1501713  33.5380268
  17.3349867  49.1766691  35.0013685  10.1762019  19.7210240  29.7259545
  10.1533328  20.4491830  30.3468370  10.5769930  19.0021133  30.2145886
  89.3515587  67.8003216  56.9335604  89.9919319  67.4492168  56.3147879
  89.0185738  67.0311689  57.3959017  75.6177139  47.6483917  48.8916111
  75.5416489  46.8406773  49.3995905  74.7995234  48.1155586  49.0605974
  56.1420819  83.4755677  26.2827563  55.5348012  84.1703686  26.0284138
  55.5989072  82.6889706  26.3322806  63.7822390  35.4402137  75.6427145
  64.5342588  36.0310125  75.6834078  63.6972952  35.0989723  76.5329790
  21.6034708  19.1930199  65.5023479  21.9804678  19.0174186  66.3644791
  20.7293425  18.8047528  65.5395889  74.7613668  36.5559793  64.6334457
  74.3159819  37.2011566  65.1826382  74.9443769  35.8247709  65.2234221
  67.9255390  33.7500238  16.8426216  67.8576517  32.9431129  16.3322115
  67.2918558  33.6391187  17.5514078  86.7075443  27.9071832  49.6250153
  87.1053505  27.7673721  50.4843426  87.1757889  28.6599135  49.2639351
  22.6212798  19.4946933  37.6555967  23.2469950  19.6069002  38.3712244
  23.0923758  19.7911215  36.8768549   7.8632460  26.7387199  48.0371380
   7.7551470  25.9381700  48.5506201   7.5011740  27.4297428  48.5917711
  78.1016779  14.2350399  30.6330824  78.2596779  14.5276165  29.7354937
  77.1792412  14.4356620  30.7915163  88.5005379  28.1624222  51.8368721
  88.8003254  27.2655916  51.9853783  89.2968082  28.6488986  51.6235113
  73.3790541  37.9721332  41.7886782  74.0995407  37.6075864  42.3027134
  72.6318312  37.4090171  41.9906521  62.5087309  14.9975789  62.5477839
  61.9524765  15.0134027  61.7689610  63.0253744  14.1969228  62.4568844
  17.8831479  77.2270125  56.7493916  17.2765156  77.0590061  56.0282755
  17.6437089  78.0980986  57.0657969  13.8395319   4.5253599  53.3550549
  13.0137644   4.9117148  53.0633831  13.8235579   3.6342487  53.0059147
   7.3817549  28.5642600  58.4493351   7.8575049  27.8359294  58.8486147
   7.5117121  28.4479547  57.5081539  81.5630150  23.0928588  66.3850832
  81.4607239  22.4409056  65.6917429  81.1196518  23.8716936  66.0488129
   3.6886702   5.4321301  22.8773475   3.3113299   4.5751530  23.0759287
   3.3538828   5.6452239  22.0062923  78.2309675  35.2487063  31.1050057
  79.1190100  35.5943847  31.1950970  78.3537245  34.3155432  30.9307432
  27.6334296  34.4124627  76.4714718  27.2027312  35.0181174  77.0747232
  26.9232283  34.0685439  75.9296608   4.7888289  63.8671112  26.7766070
   4.7333155  64.4656801  27.5215006   4.8026858  64.4397449  26.0097122
  16.7560492  36.6671038  13.4487140  17.4983797  36.5835190  14.0471983
  17.0772944  37.2322440  12.7461123  29.4716327   2.9643008   5.4129871
  30.3305022   2.5432917   5.3766330  29.6656434   3.9002320   5.4641803
   2.2419749  30.5715966  66.5995550   1.5448580  30.7270861  67.2368097
   1.8419943  30.0039339  65.9407568  85.7371235  21.7881989  43.8878679
  85.4015446  22.1819735  43.0825329  86.2575912  21.0418415  43.5907316
  60.0547743  21.1651397  50.8537292  59.9230003  20.8177900  51.7358923
  60.0968122  20.3893232  50.2946472  87.2943974  13.4904659  49.0241671
  87.7453136  13.5895813  49.8626614  87.1876240  14.3856037  48.7023544
  80.1915741  50.7733727  73.9479780  79.8154116  49.9083471  73.7853098
  79.5930052  51.1809874  74.5739174  92.4453354  15.1663399  42.6099825
  91.4995289  15.0303173  42.5535583  92.7827930  14.8535264  41.7706394
  87.3394966  25.5164289  45.0783253  87.7098560  26.1530471  45.6897020
  87.0996475  26.0340118  44.3096781  88.1801414  46.4298439  57.0259380
  87.3212624  46.0510397  57.2132206  88.7714100  45.9999371  57.6438475
  79.3048716  69.2194891  37.1779680  78.8047409  69.7385883  37.8077579
  79.1203928  68.3109713  37.4162793   7.3634253  68.7900829  48.3589697
   6.4310465  68.6178637  48.2277012   7.5803290  69.4494200  47.6998329
   1.4493285  30.2510691  31.9194937   2.0381174  30.1808572  31.1680698
   1.0897932  29.3702745  32.0251751  76.9758126  85.4876903  59.4554186
  77.1592614  86.3506192  59.0840292  77.6881119  84.9333909  59.1366529
  33.9322863  55.1293659  56.9476891  34.2158423  54.2240047  56.8206406
  32.9768000  55.0793886  56.9758224  86.7285919  45.2198601  27.9497457
  86.5493011  45.2816010  27.0115161  87.6814556  45.1494074  28.0073762
  94.2414761  33.1011057  35.6434655  93.3689880  33.2601118  35.2832961
  94.6720123  32.5469995  34.9924374  64.9527359  45.0255966  71.6565943
  64.9449968  44.0790462  71.7987633  64.8541594  45.4000902  72.5319672
   6.6843138  14.2994475  42.8172731   5.9532175  14.6395004  42.3014402
   7.1808920  15.0774944  43.0708265  82.6767635  35.9642291  52.9963398
  83.6031437  36.2046146  52.9803419  82.6209927  35.2690578  53.6519766
   3.6280165  55.2353716  32.8523016   4.5244513  55.2911949  33.1832480
   3.3048068  54.3948603  33.1768179  81.8402004  85.4524899   9.3110245
  82.5654888  85.1178074   8.7835985  82.2030735  86.2158203   9.7603267
   6.9381628  12.5011277  44.7140598   7.1368990  12.9951668  45.5094624
   6.8184195  13.1702507  44.0401411  86.5478516  43.0789661  56.9423866
  85.9395218  42.3399353  56.9418764  86.0058689  43.8351536  57.1674919
  50.7085702  86.7744937   6.8468028  49.8472497  86.4557192   7.1165156
  50.5214688  87.5424921   6.3069850  91.2161350  21.3190246  63.7663794
  90.3900146  20.8679557  63.9404392  91.0084248  22.2476625  63.8699293
  49.0924978  25.2086473  63.0933714  48.2094765  25.5250287  63.2841682
  49.5197678  25.9427094  62.6519775  92.6825237  34.2792249  64.9636221
  92.5007153  34.9927735  65.5751991  93.5421944  34.4895029  64.5989704
  64.4707346  37.8973126  63.8413858  65.2647400  37.7325058  64.3499422
  64.1705465  38.7565589  64.1377163  18.8128195  39.5056963  32.5170898
  18.8592921  38.7019181  31.9993925  17.9438792  39.4825482  32.9178762
  39.2776505   9.6509310   0.2505096  39.8376243  10.1412722  -0.3513448
  39.8871200   9.2395493   0.8633311  53.4111595  42.4643326  22.0573568
  53.0313587  42.8735828  21.2798619  53.2297421  41.5306997  21.9494104
  81.5955067  30.4204345  22.3864055  82.2012806  29.8750091  21.8846250
  82.0486069  31.2584662  22.4793720  70.7719994  41.4976168  39.4339848
  71.2265015  40.7436943  39.8098350  69.8939466  41.4615202  39.8133945
  66.4368057  47.7364349  56.6905975  67.3314762  48.0435848  56.5441370
  66.5354967  46.9752645  57.2625303  84.9227905  47.8242493  45.4338646
  84.2049313  48.3947372  45.1591730  84.9882126  47.1698284  44.7383881
  48.7914705  25.6507874  76.2912941  49.7225761  25.7719684  76.4772701
  48.6653376  26.0494900  75.4302692  83.9992905  56.0351849  38.1102371
  83.7464046  56.7940331  37.5844693  83.3407784  55.9940958  38.8037109
  15.3638659  34.8780656  50.5900669  15.8020506  35.5826545  50.1128006
  14.7537432  35.3279829  51.1744928  73.5002613  42.7006435  48.2834959
  74.3170500  42.2093153  48.1958437  73.2296085  42.5555897  49.1901016
  77.5121546  20.5189490  37.6902890  78.3793306  20.9072852  37.8061581
  76.9656610  20.9535766  38.3450222  91.0241225  58.7091735   5.5076869
  91.9313625  58.5680094   5.7782729  90.9629634  59.6525565   5.3576263
  22.3847529  78.5664493  23.8615894  22.0124766  78.6454064  22.9832888
  22.3671576  77.6272768  24.0456462  24.6856699  29.8508501  37.2024012
  24.3717966  29.3749404  36.4334869  25.5652533  30.1416230  36.9615436
  79.1211224  21.2758207  67.0586491  79.8292494  20.9635973  66.4953566
  79.3839741  21.0142183  67.9410934  63.3002186  23.6307454  51.4910269
  62.4126244  23.4876704  51.8195581  63.1771469  23.9222884  50.5876493
  92.4493599  12.5043952  37.3884988  91.8076992  11.9665611  37.8524446
  92.2197151  12.4074209  36.4643264  81.3779640  55.9908342  34.0107608
  81.3003349  55.9606504  33.0571914  81.6313648  56.8938589  34.2019749
  63.6814070  10.3740418  13.4892166  63.7100077   9.4315934  13.6541581
  63.4420395  10.7576895  14.3328691  87.7363014  24.3704414  65.9281063
  87.6113510  25.0824046  66.5555811  86.8674469  23.9803910  65.8322859
   9.1184963  63.4417203   0.3407844   8.9284433  64.2963603   0.7276996
   9.4132580  62.9057076   1.0770162  14.5234785  25.7770634  55.4558325
  15.4659758  25.8028197  55.6209993  14.2268286  26.6720200  55.6209993
  11.5998710  65.1714602   1.6627439  11.4982237  64.2254367   1.7673286
  12.2979845  65.4063716   2.2740491   5.8417426  35.8230686  34.4829655
   6.4175711  36.4864302  34.8632336   5.1942263  35.6480789  35.1658487
   2.0086966  62.4869108  45.8515644   2.7554999  61.9280577  45.6366396
   1.9965849  63.1473684  45.1588249  68.7733507  33.0834198  62.7206659
  68.7313795  32.9844809  63.6718130  69.5727444  33.5870814  62.5672960
  85.4010963  41.3896656  28.3990383  86.1474514  41.4809752  27.8067136
  85.1104641  42.2876596  28.5583019   8.4693823  78.1561184  33.2146573
   9.0100012  78.6537790  32.6012278   9.0553675  77.9598999  33.9456463
  54.3194818  66.3585854  54.7228909  54.4030142  67.3082781  54.6372318
  54.7498560  66.1542082  55.5530977  23.2775892  65.9024873   2.8501399
  23.4465612  65.3099862   3.5826858  23.3007063  66.7768231   3.2390292
  84.4287888   5.8750436  11.4357551  83.9646642   6.7115065  11.4697345
  83.7755696   5.2277276  11.7013057  60.3996420  59.9590540  74.3179464
  60.9621525  59.1869640  74.2572212  60.7033920  60.5326223  73.6143923
   7.1682368  37.4039030  73.3479643   7.5273047  37.9120636  72.6205921
   6.3584433  37.0291138  73.0015612  28.2040323  77.2098651   8.3876689
  27.5204481  77.1781602   7.7183898  28.2009519  78.1179443   8.6903461
  58.6885262  65.8405018  58.6859560  58.2801628  66.4804125  59.2690420
  59.5442295  65.6697464  59.0794563  83.2103348  38.2953143  42.1547699
  82.8229141  38.5001063  41.3037729  83.2382870  37.3388886  42.1812868
  85.7275200  22.3216748  66.7158318  84.8592377  21.9873953  66.4909744
  86.3193893  21.5912676  66.5357494  87.3497677  50.8194876  54.9294281
  87.6650047  51.4684057  55.5585194  87.5347137  51.2060928  54.0735292
  67.0839783  85.3787327  64.4174194  66.2499997  85.7671502  64.1531610
  67.1868703  84.6192545  63.8439751  81.0864735  50.4562998  62.4075222
  81.0707283  49.5807219  62.0210648  81.9638538  50.7872009  62.2153044
  67.6581952  85.9991378  57.5639915  68.0919549  86.4039925  58.3151102
  67.6648137  85.0622314  57.7599382  54.4737145   7.6384649  62.7915172
  53.7739560   7.9460535  62.2153549  55.2534482   7.6272258  62.2364299
  13.5112963  51.1705065  22.7415204  13.1196032  50.7420111  21.9804668
  14.4141016  50.8528185  22.7569795  85.0108051  44.9413681  73.9597464
  85.2353287  45.8172083  74.2739630  85.2857685  44.3559647  74.6653843
  17.7065287  54.7783518  35.6645036  17.9838477  53.8875723  35.4504251
  18.3757601  55.0987387  36.2692475   4.4768916  66.2702560  24.9641800
   4.0554057  67.1241522  24.8670173   5.3894339  66.4243937  24.7197556
   2.1992312  54.0554142  49.3642473   1.5621481  53.5347939  49.8534393
   2.9894934  54.0359068  49.9040031  29.4789785  74.1057161  64.5064406
  29.7090429  73.6433128  65.3123478  29.3230241  73.4102824  63.8674704
  91.9478416  15.0959802  52.4009752  92.8892708  15.2204251  52.5211477
  91.7279625  14.3624890  52.9753256   1.5422450  49.1751766  66.4224815
   0.8634863  49.6176672  66.9321203   1.3800536  48.2428169  66.5661430
  26.9776068  23.6347055  65.7294559  26.7755137  24.4836903  65.3362417
  26.4283667  23.0128407  65.2521086  73.5108852  17.6724637  56.7761374
  73.0015230  17.2550976  56.0814524  72.8548384  17.9878104  57.3977375
  38.5055587  72.8619236  61.7732620  38.3493611  72.7374595  62.7093935
  38.9572331  72.0642585  61.4976740  78.0541182  15.9809458  45.5609941
  77.9063511  15.0963604  45.8955193  78.8345194  16.2850046  46.0244179
  69.2826796  24.5306420  37.5301647  69.1018581  25.4370022  37.2810674
  70.0916386  24.3119478  37.0675731  38.6929131  20.9201932  22.1784568
  38.7631416  20.7080317  23.1092024  38.6415172  21.8756938  22.1538186
  62.4326897  27.9440355  62.7455854  62.7356005  28.8306022  62.5494337
  61.5620136  28.0666256  63.1238985  19.1537962  19.1341186  48.6951208
  18.8277445  20.0241899  48.8281345  19.8977480  19.0597439  49.2928171
  68.7790394  48.1102562  64.8398638  69.4511986  47.7889299  65.4408550
  67.9695225  48.0845356  65.3500175  13.7119112  21.3253236  61.1148405
  13.5643111  21.4859748  62.0468473  14.1335402  20.4665494  61.0836554
  89.0825844  19.9200666  47.2256947  88.9764214  20.8329630  46.9581413
  88.7049007  19.4141471  46.5062284  83.9729217  88.2689085  16.1697372
  83.5291723  87.8757897  15.4182132  83.7029508  87.7322379  16.9149383
  75.8142042  30.3334713  53.7243938  75.6796360  30.1358819  52.7975273
  76.2322521  29.5485139  54.0783834   7.6210509  10.5159128  43.2022429
   8.4660922  10.2504003  43.5650730   7.3233233  11.2196290  43.7787580
  65.2714252  62.4384546  74.1629267  65.0060654  63.2566214  73.7428999
  66.2201786  62.5170898  74.2625237  80.9847546  27.1214700  26.8317628
  81.4262390  27.6984239  27.4550152  81.6355705  26.9653177  26.1474514
  55.4148684  15.6545329  62.7179384  55.8524619  16.4765871  62.9392385
  56.1183558  15.0056291  62.7013969  89.9227142  64.9688101  60.4272079
  90.5512333  64.8203707  59.7206974  89.1419601  65.3043032  59.9866438
  90.1640511  30.4784846  50.9866095  91.0088253  30.3461313  51.4168262
  89.6394348  30.9545755  51.6303062   1.7936812  48.0175734  50.2915668
   1.2582598  48.0709314  51.0832167   2.6788912  48.2315683  50.5862427
  92.7902317  29.7075987  33.5296035  92.8404808  30.3383732  32.8113890
  92.3933983  30.1965618  34.2504859  16.9952498  72.8632736  49.7303486
  17.1483336  72.5785685  50.6313133  17.6202212  73.5754919  49.5947599
  92.5966549  25.4083967  64.4551039  92.5619793  24.8718667  65.2470398
  92.4193859  26.2980533  64.7605801  69.6216440  34.9229646  39.1168475
  69.4171476  35.2126479  40.0059462  69.2045879  35.5729294  38.5512996
  22.6372252  20.5080366  42.0910454  23.2419787  19.7662044  42.1049690
  23.1659518  21.2422442  41.7786026  72.5680923  37.3351884  50.9787512
  72.2420549  37.4867368  51.8658590  72.8127861  38.2045865  50.6617260
  63.8632104  79.6680880  43.3571148  63.3215996  79.0106392  42.9204798
  64.7627732  79.3881929  43.1877756  85.5252266  33.4310246  68.3759689
  86.1708927  33.5856485  69.0654802  84.6795177  33.5226798  68.8148546
  60.9484498   0.4535195   6.1537440  61.8426816   0.1840445   5.9441074
  60.8386342   1.2906787   5.7028087  44.8912824  47.6835826   0.1895316
  44.3972982  48.3601501  -0.2735726  45.6324018  48.1502408   0.5758031
  24.3415270  29.8489118  59.7403765  24.6108542  30.4571247  59.0520668
  24.4618712  30.3390956  60.5536842   2.1056090  26.4294958  67.0061398
   1.8831644  27.1723127  66.4449120   2.7107344  25.9055066  66.4812660
  25.5043707  50.6376123  42.5970125  24.5571433  50.6267643  42.4596357
  25.6475172  50.0345707  43.3264542  63.3539772  40.3558779  64.6277666
  63.3365297  41.1902618  64.1590166  62.4569035  40.2378178  64.9400949
  86.4488792  46.0722733  43.9206934  85.9472084  45.4764128  43.3643627
  86.6096783  45.5736828  44.7218037   6.2499628  56.1220884  39.4202733
   7.1790514  56.3516808  39.4378781   6.2366782  55.1957035  39.1797304
  75.4843473  71.3433123  37.5108910  75.4029131  70.3905153  37.5530338
  74.9868536  71.5919924  36.7318583  57.2801924  47.9141808  25.7529426
  56.5993309  48.4890795  26.1024451  56.8264818  47.3686457  25.1104712
  57.1094319  32.4032602  53.3859841  57.0628640  32.9982767  52.6376383
  57.7722451  32.7896747  53.9583413  30.4868327  78.9882851  36.8482113
  30.9753142  78.1705761  36.9428873  29.5752821  78.7128544  36.7510104
  71.4481926  35.2990699  49.7476149  71.8232870  34.5400453  50.1941729
  71.9025469  36.0501719  50.1292372  81.9432163  32.4356008  19.8486543
  81.7146015  32.7171087  20.7344985  82.4907017  33.1423283  19.5065558
  94.1496849  85.8260918  67.7937412  93.3880043  86.3501549  67.5458717
  93.8039017  85.1746655  68.4039116  76.8575112  39.9063918   2.5199206
  76.8114583  39.0144488   2.1756251  76.5473287  40.4569575   1.8009694
  89.5607853  16.3203216  39.4690657  89.3482304  16.8584156  38.7064981
  90.4345608  16.6104734  39.7309041  72.2439671  47.7960825  47.1041489
  72.7398014  48.0109596  46.3140821  72.6581717  47.0002699  47.4378395
  66.1635415   4.2464206   3.1916888  66.0013024   3.6136672   2.4920304
  66.7887895   4.8653838   2.8146108  93.5661125  34.9840140  42.8522635
  92.7350903  34.5742178  43.0924749  94.2297173  34.3353534  43.0870056
  81.1839581  43.5655212  67.7971792  81.2240505  44.4791555  68.0798435
  81.9966221  43.1782722  68.1225061  19.8908339  72.4507570  35.6802225
  19.4762240  72.6937962  34.8524141  19.6299181  71.5405655  35.8206224
  67.1295071  45.7443142  64.1993141  67.6827574  46.4859152  63.9540148
  67.7339745  45.0047112  64.2612505  54.4739866  30.1835537  66.0522318
  55.1819754  30.3031516  66.6852236  54.3192530  29.2390037  66.0415792
  36.5695773  41.4655304  44.1833448  36.5720282  40.5635166  44.5036459
  36.8244276  41.3937521  43.2634926   1.7461405  62.4448919  51.2223577
   0.9993849  62.9383326  50.8830929   1.6034613  62.4147940  52.1683884
  56.3329141   4.2064378  22.2696956  55.3934590   4.0242764  22.2914394
  56.4508836   4.9300286  22.8851016  87.9628563  74.1995621  71.2020731
  88.7250900  73.6592674  71.4102077  87.3275948  73.9916229  71.8872261
  52.7671194  22.0234776  69.2344427  52.0608759  21.4656997  69.5605373
  53.5536289  21.4832878  69.3107939   8.2258807  30.6264591  50.2288580
   8.7693224  31.3657331  50.5015802   8.8527975  29.9494886  49.9740696
  14.9061976  43.8454771  54.3617249  14.7013102  43.9727688  53.4354162
  15.8268366  43.5835648  54.3696022   6.0012637  36.5730715  38.5848761
   5.8889018  36.0358047  37.8006864   5.9628401  37.4744797  38.2651591
  80.4535484  27.9209805  40.3139496  79.6712303  27.5129509  39.9428415
  80.2464390  28.0365086  41.2413025  89.6904087  52.5248241  41.9907379
  88.8924122  52.0240641  41.8213892  89.7744560  52.5262451  42.9442406
  83.7814045  70.6329489  75.9716940  84.6492672  70.8794785  75.6518745
  83.4704590  69.9817753  75.3427887  75.4061460  35.9083319  67.0989037
  75.4229689  36.1419988  68.0269909  76.0448599  35.1999283  67.0186520
  78.4028006  51.5845251  34.8428774  78.2368517  52.2172117  35.5417347
  77.8208017  51.8542671  34.1324210  29.2214880  39.1504526  59.7446060
  29.5457468  38.4369755  60.2941847  28.2725821  39.0261364  59.7259331
  81.0792637  61.4712477  71.6200876  80.8240414  61.8665361  72.4536610
  81.5318298  62.1723318  71.1511612  90.2587700  61.8979311  74.6649885
  89.5467377  61.5461063  74.1306925  90.0241375  61.6615915  75.5623865
   9.8556433  58.4357548  76.8427038  10.6543169  57.9262304  76.9795609
   9.1469202  57.8401375  77.0859957   4.2645369  47.0813894  52.8913879
   3.3423052  47.0841169  53.1477308   4.7059260  46.5985632  53.5901594
  37.1834193  44.7310591  37.4803281  37.3393164  44.5953131  36.5457153
  38.0584441  44.7615480  37.8671575   7.3194514  60.0236797  47.4130869
   6.4526282  59.9617100  47.0118284   7.4110804  59.2118692  47.9118824
  20.7983981  59.9353743  41.6229868  21.1738406  59.5983505  40.8095455
  20.9418784  59.2361593  42.2607517  58.1359768  80.8948421  30.0207996
  58.2143116  79.9654627  29.8054934  57.3966455  81.2009048  29.4954920
  81.9198227   9.0010095  35.7865071  81.5710354   8.1631327  35.4823089
  81.8962860   9.5650691  35.0135159   7.3633681  48.9872122  22.3335648
   7.5278006  49.4684458  23.1444955   8.1307612  48.4246969  22.2290659
  70.9486246  74.4769287  32.0154786  71.6820192  75.0435877  32.2547770
  70.1956701  75.0661659  31.9697499  47.7380572  84.5798302  71.9281530
  46.7988882  84.5292664  71.7502975  47.8061114  85.1461983  72.6968050
  75.8402061  71.9708729  23.0589938  75.7577038  71.0245228  23.1766725
  76.5429688  72.2261763  23.6566377  19.4849310  50.8660316  73.7693882
  19.4771300  50.6675243  72.8330326  19.5385561  50.0104284  74.1951799
  66.0230303  32.4964166  43.4463787  65.5587912  31.7591286  43.0499983
  66.9289017  32.3938155  43.1546593  23.7206374  48.9456177  28.1805611
  24.3464480  49.2107391  27.5065374  24.1479884  48.2170773  28.6309218
  79.7732496  19.3571770  14.8636949  79.4021749  18.6003017  14.4101834
  80.6958103  19.1338301  14.9870968  10.5047236  29.7870135  11.7107189
  10.6890402  30.0384927  10.8057237   9.7063647  29.2618394  11.6555142
  66.4963055  76.9349718  57.3650932  67.1924353  76.9172764  56.7083406
  66.8896723  76.5372705  58.1418371  12.4614439  73.6155319  41.7454529
  12.5070105  74.5443821  41.5187407  13.0179892  73.1832886  41.0976458
  65.2093124  47.0703602  50.8344650  65.8935785  46.7163372  50.2664137
  64.6276951  47.5457239  50.2411795  88.1626987  25.7521820  63.5756588
  87.3325253  25.8852267  63.1181049  87.9235744  25.2801895  64.3733263
  79.4495916  61.3505411  42.5291491  80.0533581  61.5131569  43.2538939
  78.7797928  60.7758665  42.8997517  38.7444274  22.1442076   2.8445228
  38.5574786  22.4226138   1.9479879  39.3617503  21.4192817   2.7464040
  83.0722427  51.4493132  50.0592661  83.3549976  51.6688442  50.9470081
  83.6143303  50.6995821  49.8137522  21.4043532  35.4368186  27.1608853
  21.3873206  35.9293628  27.9814601  20.6045065  35.7010484  26.7062926
  93.6837578  62.4324989  28.0605221  94.5732117  62.2062445  28.3324122
  93.1735897  62.4132156  28.8702059  81.9294739  64.3984509  63.7288952
  82.7142811  64.0412331  63.3133268  82.2433662  64.7716856  64.5525455
  80.8212948  18.5819709  27.5844741  81.7556095  18.7594688  27.6929712
  80.6276989  18.8571310  26.6883469   9.4970046  53.1419897  37.7243209
  10.1446543  53.5740280  38.2812190   8.9145956  53.8474655  37.4426651
  10.8602915  72.6795387  39.4158888  11.1557970  72.8955269  40.3003407
  10.0591765  72.1726274  39.5481348   5.3351508  28.8470173  65.4535675
   4.9978743  28.0519962  65.0407505   5.9948359  29.1733193  64.8415470
  21.3370428  84.3863487  63.2495546  20.5770693  84.8320389  62.8753424
  22.0350752  84.5246887  62.6093578  83.7465858  44.3587923  68.7571001
  83.1610489  45.1072788  68.8717890  83.7425995  43.9190960  69.6073246
  55.4105295  87.2128334   8.3636745  54.6025003  87.4704256   7.9198535
  56.1002268  87.3792496   7.7211364  86.6864204  56.7422438  44.7524118
  87.0273972  55.9791088  44.2859411  86.2041378  57.2336292  44.0874529
  54.8511426  45.0537822  21.9170268  55.1960103  45.1159808  21.0262855
  54.3699376  44.2264411  21.9303306  14.9754630  39.6196461  47.2225046
  15.0121413  40.1830959  46.4495802  15.6659518  39.9534726  47.7952385
   1.3993750  32.4312234  13.0942202   1.8513499  32.3908639  12.2514164
   1.6682158  33.2693982  13.4702778  28.1620036  39.8360872  69.9569035
  27.8708182  38.9266872  69.8902845  28.9600192  39.8713064  69.4294930
   6.8210135  38.6175656  46.6718102   6.4211474  38.8652873  45.8381605
   7.7627573  38.6905575  46.5167904  34.3649213  23.1963345   0.6843837
  34.8289506  23.3989903   1.4966853  34.8729293  23.6356398   0.0023444
  33.6136542   8.8871616  58.2840919  33.6068163   8.7263507  59.2276669
  34.5039950   8.6670572  58.0100679  72.6905107  69.5151758  21.0028434
  71.8879271  69.6123219  21.5153408  72.3865795  69.3763065  20.1058626
  84.7756195   6.0759592  57.6370955  85.4340076   6.4817667  57.0731115
  84.9389076   5.1361156  57.5579691   5.9096823  41.5214586  49.0580368
   6.7956744  41.2151527  48.8645649   5.3951941  40.7201910  49.1555309
  86.1999035  62.8956509  29.2023969  86.7115116  63.5339928  29.6993923
  85.9936142  62.2084999  29.8360372  65.4609203  69.1602278  61.5686607
  66.0239267  68.7197828  62.2052622  64.5777941  69.0689564  61.9264078
  92.2565556  27.9923415  56.6747332  92.0421600  28.2486582  57.5717115
  91.5082455  27.4676251  56.3902235  14.9269019  72.5576258  54.1384411
  15.5282507  71.8350554  53.9581585  14.2246733  72.1617222  54.6545506
  85.9082127  65.1377344   3.2243729  85.6739616  64.3646908   3.7379476
  85.4625797  65.8616543   3.6643589   0.9090529  35.4104209  37.2414804
   0.8146105  34.4654751  37.1215081   1.7984114  35.6019449  36.9438243
  72.0222044  33.3461237  39.3674684  71.3329840  33.8686156  39.7775960
  71.7316532  32.4403453  39.4741249   0.4041637  72.4708953   6.3334067
  -0.4906832  72.1763888   6.5029605   0.3334345  73.0111399   5.5464061
  43.1153117  52.8166437  30.3376460  42.5036250  53.0064869  31.0489988
  42.5764189  52.8360128  29.5467925  50.3758828  42.1645591   4.5676120
  51.0629479  42.2349402   3.9048656  50.2026765  43.0686614   4.8299869
  24.2068491  86.8518639  51.2574816  24.9811755  86.5258598  50.7988167
  24.3520174  87.7950478  51.3320351  51.7844213  78.9277974   2.7563985
  52.6130212  79.4069448   2.7650293  51.6059698  78.7746230   1.8285354
  55.0629231  82.4139839  16.3389313  55.7575604  83.0689585  16.4076841
  54.4113728  82.8153193  15.7639217  84.2408562  19.4062257  42.3869991
  83.6081123  19.9868977  42.8097153  84.2312717  19.6706331  41.4670944
   8.3310042  30.2266240  35.4518366   7.7989207  30.7834005  36.0202646
   9.2292414  30.3679562  35.7508874  36.6867155  42.3819238  66.5212719
  37.0098489  42.7107054  65.6823902  35.7699769  42.6558900  66.5488212
  78.5344362  25.5375528   5.1942271  78.1109762  25.1862669   5.9774983
  79.1802788  24.8735666   4.9529031  50.8467245   1.5440401  27.1776843
  51.7076874   1.5110953  26.7606854  50.4392481   0.7077581  26.9522381
   7.7241812  36.5443707  15.2703893   7.7965842  37.4084258  14.8649299
   8.3432398  35.9992719  14.7847402  61.3703489   3.7082210  25.8706498
  60.6019306   4.2186812  25.6153202  61.8053484   4.2452028  26.5329647
  84.3805535  68.4286478  67.9766695  84.2711719  69.3517044  68.2052158
  84.4954474  67.9857257  68.8174145  79.4632244  32.8514671  30.5484033
  80.2839279  33.3265424  30.4180789  79.7131348  31.9280624  30.5152321
  44.2865896  18.1586647  41.5163946  43.3729458  17.9538190  41.3175726
  44.5672226  17.4565256  42.1033144  82.3736286   4.6029016  21.1929798
  81.5808392   4.1990608  20.8399606  82.6951218   3.9743984  21.8393993
  79.3328094  12.6345003  24.4565892  79.6953392  11.7982161  24.1643047
  78.9984417  12.4564600  25.3356409  25.0005910  61.1177915  69.7066784
  24.7305295  60.2070135  69.5892906  24.4132277  61.4565986  70.3822899
  37.9429337  87.5989103  24.4028687  37.0664021  87.9835200  24.4041467
  38.4537455  88.1650434  24.9814844  33.1447309  53.0546972  74.1658078
  33.1490510  53.5107443  75.0073741  34.0664190  53.0139485  73.9107404
  26.8119427  82.6126134  51.5817785  27.4399516  83.1892610  52.0168781
  27.2139832  82.4155432  50.7357502  38.9129111  88.5445780  19.2263305
  39.5110032  89.2741140  19.3884897  38.4860703  88.3928310  20.0695467
  39.5638670  61.9703331  31.2256129  38.9774431  61.8717757  30.4755386
  39.6719087  61.0813311  31.5636047  28.4395453  82.5152624  75.4547501
  28.0009314  82.0970261  74.7138548  29.0306231  83.1528598  75.0543404
  62.9591367  71.7502838  25.7761288  63.1977364  72.5354570  26.2688851
  63.3949563  71.0350472  26.2395239  14.5271820  46.3466789  62.0430974
  15.1081079  46.1015508  62.7632849  14.2654222  45.5130763  61.6521756
  52.4025628  86.5385248  40.3549910  53.1153580  86.5588152  40.9935379
  51.6281983  86.8023182  40.8519840  71.9666195  27.8791857  43.2549143
  71.8177176  28.7559295  42.9008245  71.1054039  27.5951743  43.5613060
  34.0341292   3.3045807  29.1431999  33.9256583   3.1545541  30.0823259
  34.7241793   2.6950443  28.8814068  78.2383490  26.7532611  61.0951328
  78.5508776  26.3652253  60.2778292  77.2869730  26.7877245  60.9954786
  74.6950150  16.9194889  32.2692394  73.9243650  16.8122041  32.8267550
  74.6786261  17.8415537  32.0128059  31.3108536  43.9424843  32.5711274
  31.1110827  44.5016283  33.3219123  32.0562789  43.4145683  32.8572702
  82.6665592  46.1874247  22.6474786  82.7111530  45.5126858  21.9700050
  83.5759354  46.4560509  22.7782130   4.5162402  24.1306520  51.5317154
   4.0529261  24.0634823  50.6968117   3.8627348  24.4733810  52.1413851
  68.7354612   4.4353938   5.3891987  68.0686426   3.7568760   5.4950196
  68.3307886   5.0805330   4.8093110  72.9183102  28.3447075  59.3525743
  72.1055698  28.6413503  58.9430714  73.4684134  28.0675912  58.6198902
  11.6753493  53.0616331  42.9362392  12.0088587  52.7052593  43.7596464
  11.6966067  52.3219538  42.3290682  49.3924046   7.4130505  23.4422445
  50.0136185   8.0158502  23.8508534  48.5717154   7.9042304  23.4042573
  24.8143781  55.5181756   4.9363216  25.6387533  55.3372815   4.4847472
  24.3502058  56.1207798   4.3552478   0.5795203  53.6872196  21.6599369
   1.2483893  54.3662739  21.5720057  -0.2373018  54.1703558  21.7849493
  70.8173132   5.7961500  18.8972676  71.0631752   6.6441512  18.5275686
  70.5887747   5.2607846  18.1374073  50.7983395  86.8736511  37.8690386
  51.1289784  86.5312168  38.6994910  50.0539490  87.4225452  38.1156802
   1.3628111   9.4001937  54.1223764   1.6530810   9.8361439  54.9235773
   0.4418192   9.1940385  54.2820740  58.5473537  20.3799152  21.4516497
  59.2564201  20.8834815  21.8514991  57.7474737  20.8015251  21.7657638
  91.6131783  34.6027851  31.9297719  91.2243176  35.2942610  32.4653769
  90.9383869  34.3914795  31.2846065   3.1101141  30.6181335  22.0837688
   3.1278716  31.4998913  22.4558139   4.0056429  30.2963805  22.1873665
  72.7387521  81.7800909  25.5822754  72.6580140  81.2569624  24.7847486
  71.8834683  81.7051560  26.0054827  63.2194424   1.5135632  54.7195244
  62.4815607   2.1204430  54.6606731  62.9863930   0.7953843  54.1311884
  46.3996932  87.9540935  47.3334360  46.6819045  88.8653602  47.4120712
  45.8284947  87.8142339  48.0886889  53.0882359   5.2743214  51.1867666
  53.0923748   4.8167741  50.3460121  53.1617641   4.5775887  51.8389845
   7.9130850  21.5455818  43.4085512   7.9937277  21.2631249  42.4975395
   8.4443770  22.3400807  43.4609032  76.3295174  31.8182755  24.5187950
  75.4888678  31.6304159  24.9362254  76.4476728  31.1081409  23.8879371
  89.1973495  19.9595022  29.6193981  89.1806889  19.2912912  28.9342356
  88.3082485  20.3139114  29.6299863   7.8039847  22.4401283  56.2770700
   7.0950518  23.0827403  56.3035917   7.5184641  21.7950845  55.6300545
  90.2048111  38.9113212   1.1071253  90.8716106  38.7660599   1.7783235
  90.6507969  38.7221980   0.2815595  78.9127445   2.8943196  40.1219606
  79.2650795   3.2769185  40.9255219  78.4424305   2.1136668  40.4145622
  19.5690833  18.8269579  28.1901860  19.5470725  17.8932905  27.9803967
  19.5300303  19.2645156  27.3397446   1.6909323  27.1520329  28.6621070
   2.2847948  27.2256541  29.4092011   1.9321261  27.8818226  28.0916071
  17.2801886  23.4068584  37.8792286  17.7254496  23.8381243  37.1498609
  17.3392973  22.4730301  37.6774859  54.6766472   5.7801855  15.3082347
  55.0907707   5.4271364  16.0956919  54.0319443   5.1179290  15.0592291
  32.1834561  49.0462393  36.0691071  31.4667365  49.5410484  36.4662361
  32.9638669  49.5716232  36.2456393  86.1298752  41.1313057  44.0447712
  86.8221092  41.6999340  43.7075758  85.7104683  40.7744312  43.2618475
  30.4181681  15.9088123  43.9991760  30.0148211  16.5779841  43.4462261
  31.3588343  16.0664177  43.9183521  84.3412495  21.6293216  46.3997269
  84.7805691  21.8423533  45.5764103  84.4570827  20.6839848  46.4953899
  70.7811928  16.2647212  13.8849378  70.4653454  17.1599770  14.0073788
  71.7322540  16.3326466  13.9691901  44.6344563  88.7536688  26.2504029
  44.9165150  88.5412320  27.1400905  43.7162348  88.4850512  26.2196827
  93.3459091  31.4115500  31.3009262  93.4962082  32.3550916  31.3589644
  94.1947269  31.0206175  31.5080976  59.3049192  19.9229670   8.7036937
  59.9597549  20.5518889   9.0068096  58.5012102  20.4359555   8.6192566
  91.0438633   4.3196338   8.4308118  91.7486668   4.4411123   7.7946311
  91.4770508   3.9511386   9.2007387  34.1695592  84.6781650   9.9181908
  33.7601563  84.7131228  10.7827115  34.4296929  85.5818716   9.7396505
  47.5677395  37.9352474   9.7162038  48.0008173  37.7756023   8.8776410
  46.9257498  38.6197615   9.5277256  32.3129508  84.3072143  34.0730429
  32.9861924  83.8712180  33.5506606  31.6658875  84.6017888  33.4321284
  87.9371834  42.4891472  13.7909758  87.2501087  42.4208021  14.4539154
  88.1559658  41.5818644  13.5783672  10.3047508  30.3984264  54.5270674
  10.4648488  29.4940093  54.7965662  10.3528923  30.3756538  53.5713498
  90.6623363  21.6000462  35.6959200  91.3130188  21.3046145  35.0590801
  89.9668121  21.9883204  35.1651502  84.8453045  36.2501788  13.4816396
  84.5549297  35.5516696  12.8951240  84.9583435  37.0104313  12.9111409
  88.4369850  28.9488339  35.8007264  88.5719585  28.0014992  35.8246231
  88.7897301  29.2621064  36.6335940  57.0936871  22.9628658  12.2695267
  56.2523937  22.6699781  12.6197755  57.3671436  23.6654353  12.8593135
  54.7376169  51.3703683  10.1111968  54.0174211  51.8728593  10.4920562
  55.3329385  52.0329627   9.7607692  66.8383265  12.2932804  26.6761947
  67.7534914  12.5467682  26.5560007  66.5710402  12.7358174  27.4817705
  80.1147270  69.7429085  15.9479558  79.3304729  69.4894028  16.4346921
  80.8364773  69.3379974  16.4289641  83.2787037   1.9339047  35.6764483
  83.5615349   2.1287934  36.5699005  84.0554333   2.0912555  35.1396418
  81.0127068  45.6923866  46.3696766  81.1748314  45.1068974  47.1093702
  81.5805912  45.3618336  45.6736279  41.7058655  79.3067855  34.1831613
  42.2270533  78.5675687  34.4964600  41.0481307  78.9108759  33.6114383
  82.3988342  28.1562543  73.1618309  82.3284245  28.3544731  72.2280312
  83.1156826  28.7102008  73.4708786  66.3788509  18.3179295  75.2962923
  65.4726028  18.2294178  75.5914497  66.5055227  19.2608786  75.1912546
   4.5472953  71.7324835  25.4711580   4.9531790  71.6884786  24.6053910
   4.2247268  70.8453506  25.6298304  75.0434780  12.5873077  20.4255128
  75.8205032  13.0084836  20.7930422  74.3328428  12.8395343  21.0150981
  43.2531929  42.8080130  27.4507427  44.1909647  42.6808310  27.3070765
  43.1866503  43.0891657  28.3632970  82.5871658  10.5783117  25.2479506
  82.2085190  11.3951278  25.5730176  83.0953979  10.8389246  24.4798255
  48.0087611   4.0059766  75.9447990  48.1725117   4.9413929  75.8247514
  48.6803147   3.7229738  76.5654075  70.7786512  27.3956752  29.3617201
  70.2186012  28.0900025  29.0146089  70.1917887  26.6477060  29.4729114
   8.8426600  13.8198650   9.0931141   8.1883822  14.2148685   9.6694165
   9.5941458  14.4105923   9.1435730  88.5811043  39.2152143  24.7266936
  89.2714310  39.8684192  24.8406982  88.1343365  39.4769096  23.9216161
  55.5854031  76.4361948  58.1328487  55.3967187  75.5998379  57.7072477
  56.2013909  76.8713039  57.5433874   3.7281809  23.8116217  32.2952199
   3.1343756  23.6670470  33.0319214   3.2631216  23.4538317  31.5389538
  72.6510620  28.3858728  23.3809924  73.3217192  29.0625072  23.2881737
  73.0554819  27.5967455  23.0205035  63.3578110  58.7089443  68.6408329
  62.8840780  58.0133629  68.1847906  64.2527246  58.6481428  68.3066654
  63.0711651  24.1808319  11.9060159  63.5309839  24.0534139  12.7358127
  62.2006893  23.8118005  12.0554233  12.9823409  24.3274379  45.7130241
  12.8384505  24.0447974  44.8098946  12.5885401  23.6365795  46.2458229
  68.4979296  39.8953295  47.5765991  68.1312227  39.7941279  48.4549618
  67.8162670  40.3519821  47.0836163  84.2553234  31.2460399  54.4767189
  84.8560619  31.3970923  55.2064657  84.7212410  30.6355262  53.9053774
  79.4709730  21.4724946   4.8946327  78.7284279  21.1704230   4.3715554
  80.1014996  21.7958379   4.2511159  55.9999272  83.4922337   0.6096346
  55.5166623  83.9198992   1.3165930  55.3245637  83.2200772  -0.0116878
  79.1015673  49.2062521  41.9961739  79.1224909  48.2543898  42.0949173
  79.6377325  49.5338058  42.7183008  78.3454227  26.0533524  50.6010151
  78.0667353  26.1982274  49.6968174  79.1795111  26.5175772  50.6718731
   4.3651781  33.1793618  58.9335489   4.9020205  32.8253937  58.2245064
   4.5004855  32.5732279  59.6619225   6.9294939  18.7651658  37.6758695
   7.7581320  18.9004576  37.2162080   6.8356238  19.5379460  38.2328510
  75.2143478  20.6231618  33.8929510  75.1254272  21.3971329  34.4490933
  76.1590242  20.4852653  33.8236713   5.1525126  49.2492008  28.0668116
   4.5659743  48.5766315  28.4130144   5.8666144  48.7581348  27.6604319
   8.9990435  22.2743058  16.0311794   8.5154543  22.1605659  15.2129912
   9.6895323  22.9013610  15.8161008  59.8440361  53.5206318  24.5940614
  59.9042368  52.7599382  24.0161753  60.3678799  53.2823992  25.3589559
  46.5917969  15.7463467  35.3285956  45.9142542  16.2511480  34.8787665
  46.5169859  14.8652375  34.9621511  31.9493338  88.2871923   5.2658111
  31.2318942  87.6633467   5.1547998  32.6654383  87.7664350   5.6294560
  67.7754545  18.3396244  31.7545033  68.5449171  18.8952947  31.6304398
  67.7944613  18.1080484  32.6830745  59.9565789  81.9128108  66.4361477
  59.8399731  82.1326280  65.5118561  59.0775677  81.6889101  66.7418337
   1.7617617  33.7186503  50.6898642   1.9201765  32.9371786  50.1603031
   0.8356867  33.6643887  50.9258366  73.4953114  75.4445618  23.7912941
  73.8256833  75.2314776  24.6640372  73.5772607  74.6282059  23.2982635
  72.6362133  22.7331591  28.2250047  72.2789335  22.0936394  28.8411212
  73.5046482  22.3954344  28.0059385  65.2114582  29.7600245  11.3139558
  65.5012131  29.1970444  12.0318198  65.4826164  29.2964721  10.5216026
  14.8711596  22.9670048  26.7001009  14.4831667  23.7968779  26.9776082
  14.3115054  22.6688647  25.9830713  62.3640251  39.8316240  56.2360811
  61.9534063  40.6888771  56.1231804  63.1088305  39.9970675  56.8141127
  87.9702759  33.7149024  14.0158832  88.5901546  33.6962128  13.2867455
  87.6976109  32.8035021  14.1218638  48.4527394  86.5245810  34.4665122
  47.9873845  87.3414111  34.2863321  49.3449017  86.7989713  34.6786404
  60.3051186   1.8670759  37.7235007  60.8509350   2.6021808  38.0026722
  60.5798483   1.6931084  36.8232298  32.8729769  84.4769984  12.3579645
  32.8226563  84.3819258  13.3091009  32.2121140  83.8718027  12.0214689
   2.0073615  33.2176232  28.7480474   2.8296862  32.7509022  28.8970065
   1.9756041  33.8747692  29.4433045  21.6857062   8.4382927  31.1755443
  21.8121634   9.3854892  31.1202383  20.7373343   8.3197826  31.1227489
  28.1943140  65.4312277  20.8887148  28.6699496  66.2598991  20.9462547
  28.5944758  64.9763393  20.1476479  76.4017057  59.6208429  26.9153476
  75.5262327  59.9072218  26.6550350  76.4697790  59.8669434  27.8378606
  80.5866623   3.1468800  47.1167326  80.7801247   3.3043197  46.1926031
  80.5656147   4.0197089  47.5091076  61.6643095  18.7351894  69.9266338
  62.1549416  18.3600008  69.1953707  60.7871103  18.8857257  69.5743656
  59.9059963  15.8559299   2.3748614  60.5089331  16.1971593   1.7143600
  60.4720926  15.4307771   3.0190769  39.0988077  80.2217308   5.6212123
  38.9242376  79.2989889   5.4359897  38.2404817  80.6425085   5.5717071
  82.2933197  32.0178628  39.8609757  81.8460464  32.8559113  39.9786663
  81.6124153  31.4257383  39.5416260  39.4299119  31.4896408  71.4804069
  40.1709264  31.9935611  71.8168573  38.8350767  32.1485189  71.1222492
  53.2195756  74.6215624  15.4447079  53.1622884  75.4532808  14.9743927
  53.9745995  74.7254008  16.0238326  78.4342337  15.7500529  51.0734034
  78.1084585  16.6253853  51.2829161  79.3743658  15.8701146  50.9393597
  80.2783108   2.5816119  20.6303906  79.5114994   2.0116439  20.6884980
  80.8642673   2.2656450  21.3181782  73.5553026  25.9301591  33.8529539
  72.6996136  25.9896040  33.4281135  74.1693211  26.2736511  33.2039332
  25.3136359  25.0412941  42.7686071  25.7594119  25.6026387  42.1342516
  25.7505331  25.2255845  43.6001062  93.2657623  56.8274307  23.2933640
  93.9908409  56.3829660  23.7326145  92.5789547  56.1634159  23.2332540
  14.8144350  57.2452450  33.3067513  14.2045031  57.9712486  33.1758571
  14.6153746  56.6343117  32.5972676  55.2315378  40.0539875  17.8815651
  54.9495840  40.9466124  17.6816726  54.4693327  39.5112252  17.6798642
  62.0534945  20.6756425  39.4377780  61.4302349  21.3987446  39.3677330
  61.7511654  20.1711631  40.1929808  80.3183079  35.3655362  33.8803887
  80.5035973  35.9145975  34.6422505  80.7845783  35.7899618  33.1601906
  18.6529776  74.6764225  48.9463234  18.6005828  74.6317834  47.9916000
  18.9807078  75.5573767  49.1272783   2.9476271  24.6549821  75.6843090
   3.7175761  24.6507955  75.1156378   2.8644762  23.7489104  75.9815550
  91.9520855  39.4873095  30.1557899  92.8126431  39.2089272  29.8424697
  91.3315296  39.0408397  29.5797682  70.9757233   9.4217151  23.0811000
  71.2439346   9.9996531  22.3667598  70.6176853   8.6496508  22.6429701
  35.9172624  52.7518883  73.4893606  36.5918916  53.2830772  73.9123754
  35.8660882  53.0955544  72.5974486  82.7794647   8.1000650  26.5618753
  82.8886223   8.8257611  25.9473181  83.0174446   8.4687543  27.4125600
  92.4198627  46.5613365   2.8610551  92.3672104  46.3321924   1.9331802
  92.0467854  45.8061838   3.3157980  76.1809826  15.2149630  62.0487595
  76.9002199  14.6283996  62.2829962  76.1538506  15.1905799  61.0922527
  11.8279753   2.9599407   7.5384504  12.2485648   2.5322947   6.7924911
  11.2412463   2.2939253   7.8967929  25.7373629  42.5313091  54.8044395
  25.7172308  43.0216169  55.6262827  26.2897025  43.0567169  54.2255545
  65.2235699  58.7797689  53.9671993  65.3198957  58.8621950  53.0184364
  64.4682312  59.3279457  54.1797829  87.7171135  42.8165483  19.1550553
  87.7444744  42.9088449  20.1074028  87.8160477  41.8767691  19.0025580
  84.6382332  20.7104182  55.1802921  84.0141106  20.0607610  55.5038023
  84.6455097  20.5838585  54.2315245  61.4532372  66.6534275  18.0418706
  60.8471772  67.2154325  18.5246444  62.0268151  66.2862462  18.7144899
   2.9348956  35.9064412  49.6356249   2.9291068  36.4556909  50.4195404
   2.5988207  35.0609732  49.9330616  91.0404396   3.1390068  24.1116929
  90.5613136   3.3319890  24.9175644  90.6584167   2.3200116  23.7962008
   4.4949542  36.7473316  43.2009411   4.3124495  37.0133519  42.2997427
   3.8762389  37.2514296  43.7294340  22.9143916  36.7436838   2.4509604
  22.9071150  36.0234380   1.8205446  23.7127695  36.6074204   2.9611021
  87.2729301  31.7517424  21.7196012  87.8384781  31.3424826  21.0647011
  87.8304195  31.8464375  22.4919200  48.3863729  77.7433756  62.8794376
  47.6129716  78.3068326  62.9039876  48.2203477  77.1401718  62.1549980
  16.7285357  18.7816966  41.7225409  17.2640334  18.0532336  41.4081907
  17.3610316  19.4631195  41.9502163  50.8653164  33.4090376  11.0038161
  50.5413342  34.1340351  10.4693604  50.0928164  33.0931044  11.4724958
  78.0252740  86.4027630  20.2787638  78.0706689  85.4693800  20.0714803
  77.2344586  86.7085721  19.8345518  11.6774474  48.2638025  23.7273717
  11.2760172  48.9184284  24.2988205  12.6099692  48.4796667  23.7339759
  22.1777640   9.8376626  28.2622600  21.9454585  10.3965271  29.0038371
  23.0727683   9.5533955  28.4477019  84.9064827  34.5940399  19.2977405
  85.4472637  34.0624428  18.7136221  85.1339245  34.2908669  20.1767111
  22.0590125  38.2019758  18.5913110  22.7671824  37.5581980  18.5747790
  21.2833224  37.6984692  18.8383353  67.8881836  29.6372962  37.9599357
  67.8350830  30.5370808  38.2821107  67.3499918  29.6341658  37.1683717
  13.2913313  33.0781460  67.5319862  13.4406672  33.9164972  67.9691362
  12.7538023  32.5795436  68.1473637  91.0024071  22.7315474  17.5815117
  91.0072041  22.0478940  18.2514584  90.0845528  22.9947686  17.5144851
  66.4591360  17.7619708   6.9734877  65.7537317  17.1193254   7.0485801
  66.8218756  17.8238070   7.8571343  67.7983281  88.5043043  20.1988959
  68.3436295  89.1018092  19.6871650  66.9352338  88.5566839  19.7883499
  85.1565647  21.3333535  21.8293858  85.9053707  20.7975650  22.0910144
  84.4158077  20.7271242  21.8317199  24.7059546   5.7208443  16.9185448
  24.6101675   6.3404876  16.1952889  23.8909350   5.2188975  16.9134319
  91.1207294  34.0412807  54.5650244  92.0687103  34.1464376  54.6456242
  90.8644676  34.6806812  53.9003944  93.7831688  -0.1113577  61.6520834
  93.2046604  -0.5528145  61.0302496  93.4701538   0.7930423  61.6699123
  80.4837799   2.5461614  31.7411566  79.5277357   2.5170451  31.7780423
  80.7236958   3.2721481  32.3170209   1.7701350  57.8693914  24.4049048
   2.0242987  57.6962948  25.3113651   0.9380923  58.3374405  24.4746614
   3.0665408  41.7835665  64.8279715   2.4823485  41.7809439  64.0697241
   3.8850317  42.1546650  64.4984388  80.9187317  65.3085136  34.4966435
  79.9785614  65.1294613  34.5123386  80.9820080  66.2371349  34.2732787
  82.4511433  49.7634315  41.4326620  82.0612144  49.8694038  42.3003912
  82.8504658  48.8937664  41.4541054  24.2787215  68.4497848   9.9957545
  24.7045431  68.5277381  10.8494647  23.5722116  69.0951195  10.0206836
  12.2554830  55.8503654  12.4892219  12.9095903  55.9103516  11.7929633
  11.4173034  55.8168545  12.0281776  26.4961827  74.3341961   1.0388406
  27.0915532  73.5917392   1.1414226  27.0158652  75.0954023   1.2971624
  34.7193891  87.2786179   9.9470885  35.4925022  87.1855059  10.5037387
  34.9532372  87.9682103   9.3257888  70.7723751  38.7754774  57.5843382
  70.0553765  38.3216238  58.0272388  71.4572372  38.1125927  57.4961329
  36.6909316  42.8065646  29.8194678  35.9854105  42.7698505  29.1736110
  37.4894086  42.6680825  29.3100627  36.0243872  70.4608169  15.4390700
  36.3126660  71.3596383  15.2801784  35.8945182  70.0928822  14.5650085
  49.8204750   7.8432748  10.6599887  50.0232524   8.2510039   9.8180469
  50.3293866   7.0325705  10.6622584  66.4587286  87.0241681   0.7326444
  65.8980587  86.2701407   0.9151967  66.7857841  87.2928801   1.5911658
  30.4223494  76.3939968  10.1478370  31.0493940  76.8797126   9.6119960
  29.5684376  76.7439070   9.8936160  13.6929858  19.7942865  52.7877760
  14.3513632  19.1016984  52.7321577  14.1308987  20.5697656  52.4369240
  55.6008380  78.2061762  72.6854849  56.2102513  78.1687039  73.4226751
  56.1557155  78.1133336  71.9110680  92.6367555  31.4650106  65.8161402
  92.7463902  30.7953429  65.1410437  93.0152606  32.2560787  65.4325008
   3.5206622  16.7205811  62.4057913   3.0191207  15.9251964  62.2267675
   4.2093503  16.4390111  63.0080032  59.0918699  11.1278769  16.9829352
  58.2540524  11.3606688  17.3830588  59.1201484  11.6370961  16.1729224
   3.3859709  23.4785414  67.7891016   4.2078739  23.0516839  67.5472307
   3.2558236  24.1464758  67.1159315   0.2949595  45.7316065  55.5991793
  -0.0675108  46.2296391  56.3318539   1.0783008  45.3142309  55.9575176
  48.8898277  75.5250597  76.6977215  48.7994385  76.3330364  77.2029257
  48.3651829  75.6744289  75.9111643  92.6539776  36.1347842  67.1134901
  92.2201594  35.5536652  67.7382565  92.3536818  37.0114207  67.3534107
  85.9650358  22.5638461  74.4719791  85.7089164  22.9588652  75.3054047
  85.8893528  23.2755041  73.8363314  56.9179446  37.7834365  22.5220950
  56.6398591  37.7872226  21.6061862  57.8728086  37.8374335  22.4827083
  52.7876380  54.4745388  25.8900340  53.0548242  54.7731474  25.0207408
  53.4955266  54.7579065  26.4686854  68.7657836  84.3774214  10.9210189
  69.4873670  83.8833943  11.3102325  67.9787758  84.0060535  11.3196929
  33.2760835  41.6872311  71.2216711  33.1310844  41.9488382  72.1309376
  33.7373757  40.8508158  71.2837458  35.3054917  70.1212612   5.3220733
  35.7405958  69.4822064   5.8864577  35.9095052  70.2445713   4.5898231
  84.8855406   2.1310279  21.3306506  84.2549545   2.4593112  21.9716056
  84.4492299   1.3800093  20.9283717  16.2804294  16.4064717  60.3913689
  16.0032821  16.0224938  59.5595169  15.9154069  17.2912681  60.3801727
  60.1242045  77.8670540  20.2906497  61.0099796  77.7338591  20.6281360
  59.7516278  76.9866982  20.2417548   8.5363972  45.5550337  64.8106003
   8.4338260  44.8251200  64.1999149   7.8025919  46.1371851  64.6134615
  17.8634918  32.6104283  75.6736517  18.7513590  32.2663808  75.7714033
  17.8961420  33.4764981  76.0799551  83.1807667  14.8882052  21.1760982
  82.2406680  15.0178477  21.3011439  83.4905273  14.5540330  22.0178874
  62.9951071  82.0610261  54.9981070  62.6745732  81.6023326  54.2215204
  62.6521468  81.5542787  55.7341909  18.2940078  19.4275582  75.5131912
  18.6631215  18.7224388  74.9814081  17.6714933  18.9892662  76.0933733
  86.2399473  52.5758600  58.4352589  86.3902833  51.6460657  58.6058712
  85.6724300  52.5892544  57.6645613   7.4451256  21.9587779  34.2586255
   6.6760004  21.4004302  34.1449332   8.1029308  21.3836670  34.6494865
   3.3529410  42.9752636  76.0249901   3.2955858  43.7494946  76.5849113
   2.4536484  42.6519489  75.9704828  38.6472091  80.8235374   1.9507106
  39.2648015  80.2284422   1.5256580  39.0603820  81.0406843   2.7863963
  32.5517556  87.1273842  11.6308768  33.3958012  87.1364727  11.1795028
  32.5792022  86.3398591  12.1742614   6.6344134  11.0747191  19.5734866
   6.8243854  10.4585025  20.2808936   7.4250953  11.0712001  19.0340026
  62.3876140   5.9591243  14.5545276  61.4384997   6.0577914  14.6298869
  62.5827407   5.1506469  15.0283702  53.4276051   3.9337489  22.5239738
  52.6084262   3.9480731  23.0189212  53.1820065   4.2249772  21.6458591
  89.0495743  19.5244026  33.7275672  88.3102049  19.8540127  34.2383718
  89.2164226  20.2082872  33.0789566  34.5507941  86.7173281   2.7968009
  33.6922065  86.4776507   3.1455310  34.4252399  87.5935307   2.4324687
  78.8984603  40.6456038   5.7480319  78.3853156  39.8563430   5.9211619
  78.7165255  40.8533236   4.8315318  32.9660344  36.4344573  71.2741089
  32.4838614  35.6078625  71.2960529  32.5167942  36.9907594  71.9104624
  77.4048180  37.7374217  30.4614623  77.9460353  37.9741713  31.2146266
  77.4088782  36.7802569  30.4550250  88.2282563  57.1490049  61.2948465
  87.6560976  57.3766327  60.5620098  88.6224314  56.3145638  61.0407495
  54.1704809  74.1113096  68.6077118  54.2290341  74.7087890  69.3532467
  53.8061755  74.6447259  67.9013252  71.8943971  78.7026205   7.5807841
  71.0328477  78.2907191   7.5152095  72.2993224  78.5481396   6.7273219
  83.8213998  11.2020489  22.9418262  83.2317263  10.8883235  22.2561916
  84.6933514  10.9405276  22.6459487  52.1445564  86.2645235  15.1827129
  52.2829941  87.1123782  15.6048568  51.5253881  85.8105841  15.7543834
  77.5502545  24.6246049  11.2565120  77.8101880  23.7078521  11.3472446
  77.7751929  25.0217339  12.0979007  84.3007543  49.2307854  76.7266369
  84.3443974  49.5357132  77.6329184  84.6489801  49.9588394  76.2119436
  48.0521840  33.8459107  26.5998157  48.9916820  33.6633536  26.5840133
  47.9211265  34.4877097  25.9018500   1.3169805   6.9954488   9.7660525
   1.4825003   6.1366507  10.1550181   0.6379978   6.8347499   9.1107734
  79.1147775   8.7146279   0.9339269  79.4537598   9.6010157   1.0589822
  78.2284648   8.8426348   0.5958446  78.0524797  63.7949607  14.4138225
  78.1850213  63.6709925  13.4739764  78.9362377  63.8834235  14.7707160
  92.1309406  10.7664248  20.2973922  91.7588526  11.4970586  19.8034747
  92.1422893  10.0383851  19.6760543  20.0132775  31.8889570  51.5061808
  19.6900678  31.7246747  52.3920584  20.0419593  31.0238981  51.0974264
  17.4155056  62.9260254  59.8655081  16.7347193  62.5767660  60.4406404
  18.0497205  63.3260107  60.4605007  28.6379451  59.2996755  12.7712329
  27.6981077  59.4548741  12.6771529  28.9432168  59.1307750  11.8798717
   4.8447368  59.1549444  73.3459759   4.0830535  58.6972761  72.9901552
   5.1489913  58.5945225  74.0598297  47.4803117  51.2977114  25.3522475
  47.2200468  51.8466487  26.0919555  48.3546260  50.9837285  25.5829509
  91.8639404  10.2848861   9.5944388  91.6845209  10.4934928  10.5112441
  91.0359842   9.9391314   9.2610152  21.1877537   8.6762393  71.1420250
  20.6294417   9.0771049  71.8082285  20.6445265   8.6571389  70.3541327
  31.5060054  69.7808948   0.8860190  31.9282211  69.7677031   0.0270684
  32.2314747  69.7551289   1.5099271  60.9451392  16.6325861  50.8595705
  60.2784780  17.3177058  50.8106184  60.5060652  15.8473593  50.5326605
  90.4110915  40.9210822  21.0673030  90.4432494  40.6385562  21.9812949
  89.7734291  40.3361270  20.6581004  87.5778308  34.3357468  69.9354982
  88.3663287  34.7427201  70.2944946  87.1580674  33.9209175  70.6891251
  18.8004732  68.0208302  73.0646896  18.3337522  67.6866245  73.8306618
  18.9807999  68.9370584  73.2750177   0.8231815  41.4332056  68.4702635
   1.0333219  42.3640251  68.5453844   0.7807967  41.1234617  69.3749714
  61.6055236  25.0695130   5.7988628  61.7079553  25.9974334   5.5874236
  61.7396355  24.6177909   4.9656757  49.7550303  28.6615750  23.8062080
  49.4808597  28.9279792  22.9286559  50.1273781  27.7880046  23.6859305
  52.0710758  85.8187142  12.2803577  52.1933201  86.0109845  13.2100471
  51.2455347  86.2469235  12.0537551   5.7436180  47.8501701  72.2479153
   6.5092951  47.6879501  72.7989674   5.7832360  48.7863541  72.0524216
  33.4238173  79.8336425  19.0538867  34.0360886  80.5038157  19.3575748
  32.7553950  80.3206220  18.5719188  15.7346192  59.6154204   3.1622394
  16.5372458  59.7192183   2.6511129  15.3216902  60.4786220   3.1376441
  76.0764760   7.6482579  36.1277278  76.1094350   7.7224061  35.1739772
  76.9597239   7.8778836  36.4164813  64.3492320  79.0202847  31.5761932
  63.5119942  79.4793621  31.5090163  64.9000624  79.6021071  32.0999320
  11.0515320  61.4078665  70.0336552  10.3121638  61.3200188  69.4321203
  11.7917025  61.0276890  69.5605373  31.7007327  25.8322501  37.3207498
  31.0835528  26.3397956  36.7937613  31.6624832  24.9501610  36.9510388
  50.1152945  35.6498766  63.0610991  50.5127239  35.9895658  62.2592926
  49.4800806  35.0013971  62.7574444  15.4548955  34.7821569  58.6889458
  16.4025533  34.8605680  58.5792685  15.1805341  34.1921806  57.9868889
  45.2403119  86.4794627   5.4846366  45.2468661  85.7820263   6.1402019
  44.9705747  86.0450497   4.6754630  36.3725418  57.5336066   6.6839393
  36.6999868  56.8215743   6.1343749  35.8263472  58.0570403   6.0974868
  60.3344038  71.4131370  14.6245463  60.1656345  70.9723702  15.4572948
  61.1676410  71.8651452  14.7573550  21.2148190  27.0910645  73.3853292
  21.6655421  27.6405430  74.0265417  21.4698124  27.4543333  72.5372458
  83.1479603  36.0147902  29.5405658  83.0596525  35.8324954  28.6050399
  83.5707122  36.8727443  29.5785316  39.6754837  33.3260083  73.7595940
  39.7568226  33.9982367  73.0830431  40.5741358  33.1666183  74.0481281
  37.4206266  75.5239001   4.0269359  37.2387675  76.2394991   3.4177764
  36.9094101  75.7379547   4.8073657  66.1211923  68.4022155   2.6900848
  66.2360600  69.3522587   2.7114661  66.9624975  68.0661335   2.3810752
  57.8403166  75.7391229   9.2240794  57.1752933  75.5762616   9.8930057
  57.5539997  75.2224317   8.4708961  75.4247946  14.9071213  49.5274146
  74.7575671  14.8840758  48.8414844  75.1729852  15.6457087  50.0817760
  22.5131425  71.6840926  36.1132796  22.5483224  71.2953988  35.2392562
  21.7240676  72.2258344  36.1029037  69.6586946  76.9372001   7.1908362
  70.1858595  76.1759630   7.4334224  69.2785958  77.2381511   8.0161746
   8.1411416  11.2291714  59.2853816   8.8704592  11.8491074  59.2826446
   8.3320767  10.6315371  58.5624583  18.3795679  55.4980946  61.6151428
  18.5926926  54.6298122  61.9570446  17.4420905  55.5973434  61.7810249
  90.5204207  21.5533063   4.2909797  90.3837711  20.6306693   4.0758117
  90.1980382  22.0281836   3.5249599  53.6302083  79.9853313  72.3354340
  52.9597573  79.8836678  71.6598654  54.1113596  79.1579628  72.3217964
  91.8986899  55.3422972  32.4773677  91.4448124  55.5485770  33.2944854
  91.3660318  54.6569011  32.0739539   8.9728515  46.7219970  19.2287429
   8.1032602  46.3434455  19.3581374   9.1310279  47.2351214  20.0211604
  41.6699678  17.5785872  40.5003341  41.6096503  17.3963162  39.5625861
  40.8067876  17.9199979  40.7339748  11.5295088  30.8583856  58.7398815
  12.4017978  30.6865382  58.3851814  11.3909185  31.7939091  58.5921574
  53.2419008   4.3314692  12.1043571  54.1669548   4.5770165  12.0897277
  52.8029949   5.0216672  11.6071494  72.7364022  13.7323758  34.5771011
  73.5038358  13.2410714  34.2840274  72.0006234  13.1384799  34.4282897
  20.5281401  59.6435404  71.3603687  20.3449726  59.2529821  70.5058813
  20.6013346  60.5815458  71.1842489  26.1854527  87.8548613  11.0364898
  25.3202346  88.0311528  10.6669601  26.7263320  87.6251545  10.2809032
  59.2601732  77.8359094   5.9504111  59.1082910  77.0619526   5.4080566
  58.6312273  78.4814587   5.6280406  92.3478800  23.7565753  14.4562038
  91.5082246  24.0382239  14.8193629  92.7601558  23.2601067  15.1631530
  93.3077606  54.4866371  59.1728115  93.7714382  54.7952604  59.9512625
  93.6041090  55.0670147  58.4716892  30.9335477  61.7043331  29.6520980
  30.1954874  61.5338912  30.2372916  31.2123977  60.8367172  29.3593200
  49.2855644  63.5007954  75.3669596  48.6773968  62.7645588  75.3012657
  49.5594883  63.5040808  76.2841225  20.5191676  26.9843289  35.0403483
  19.7286574  26.4528605  35.1345142  20.5740230  27.1679446  34.1025336
   1.9601321  38.9436150  68.5493898   1.5362482  39.7961855  68.4510183
   2.1161290  38.6487508  67.6522017  85.4004461  26.0753819  22.4096377
  85.9537775  26.8416735  22.2584422  85.9634382  25.3290841  22.2039493
  91.6860801  23.5830352  58.1128867  92.3414284  24.0597007  57.6034244
  92.0363766  23.5724684  59.0036185  56.7950607  18.7355229  33.8989909
  57.5618840  18.2713267  33.5632308  56.1403626  18.6490914  33.2060798
  52.6545409  72.5668660  13.0625709  53.1239370  73.1663409  13.6426814
  52.9529384  71.6962352  13.3256229  67.6551011  25.2775141  25.1861270
  68.3429712  24.6504447  25.4093822  67.8053707  25.4791257  24.2625411
  80.3812617   7.4745461  19.8844035  80.7841331   7.7674720  20.7017882
  79.7172720   8.1371209  19.6937450  62.7207587   4.5427844  28.2040580
  62.3114587   4.8650738  29.0070804  62.9342944   5.3341862  27.7097781
  58.8791946  77.6432958  12.2177489  59.7293404  77.2568646  12.4278815
  58.7576941  78.3273259  12.8762134   2.9218666  16.6721961  43.2917674
   2.1438877  17.0941350  43.6563857   3.6058204  16.8269011  43.9433177
  32.9866187   1.2788913  23.2819732  33.1262080   1.2111995  24.2265208
  32.8510253   0.3759763  22.9945834  93.5257441  10.5804440   5.9254726
  93.7351853  10.5580994   4.9917396  93.4248048  11.5109250   6.1260970
  44.3309119  66.2055459  20.7389529  44.4283274  66.5967384  19.8707946
  43.7941423  66.8316164  21.2249072  69.9331573  86.1252394   6.0473998
  70.5939844  85.4351511   5.9897979  69.2235091  85.8253088   5.4793532
  14.3585598   7.6012087  61.6111279  14.8033834   8.3050931  62.0832586
  13.6001551   7.3896623  62.1554613  20.1391042  88.1115427  11.7587550
  20.3600134  88.0895939  10.8276542  20.7206548  87.4646416  12.1582015
   3.2172076  20.8463713  24.1230376   3.0578033  21.5330550  23.4755118
   4.1655342  20.8549926  24.2527850  27.8663754  67.7335358  75.6363058
  27.5688028  68.3781672  74.9943256  27.2904873  67.8625679  76.3899231
   3.1089321  44.0765619  68.2259941   4.0004414  44.0624380  68.5741949
   2.7449429  44.9068451  68.5331917  81.3902802  46.7677542  15.5401977
  81.2458688  45.9020564  15.1581653  82.0956856  46.6354129  16.1735423
  31.4271331  50.7550144  72.3736191  31.9267917  50.3245258  73.0673409
  31.6341066  51.6844988  72.4708557  86.8502003  26.2990138  39.6659358
  87.4944002  25.8764931  39.0978511  86.8314463  27.2094723  39.3710693
  19.6672742  20.7894131   0.6916888  19.3213717  19.9072835   0.8274253
  19.3029944  21.3030764   1.4125760  35.1927447  64.7541142  74.6398115
  35.6083131  65.5635214  74.9371290  34.3220925  64.7719288  75.0371504
   0.1564829   1.7323586  17.0759948   0.3909175   1.6948935  18.0032809
   0.7419984   2.3938605  16.7074569  27.3067546  54.6810627  68.0934286
  27.7295184  54.4069815  68.9072990  26.5543818  55.2002287  68.3773899
  87.3041024  50.8783388  72.1647120  88.1775482  50.8592129  72.5558138
  87.4646523  50.9201097  71.2220001   7.5637118  33.5997674  38.0068763
   8.1013743  34.3306634  37.7020248   7.0852582  33.9512393  38.7577327
  73.4910348  70.6452265  24.4125445  73.9019922  69.9848500  23.8546451
  74.2088559  70.9908643  24.9431117  92.7874071  34.2605016  27.2198661
  92.5865561  35.1955363  27.2598537  91.9497067  33.8282534  27.3861583
   5.2800483  57.7379942  75.6264591   6.1789519  58.0400944  75.7566071
   5.1238388  57.1319056  76.3506746  24.8797265  74.9670401  38.5703261
  24.8321989  74.9036112  39.5242389  24.9715784  75.9038988  38.3968623
  71.9064516  16.1047789  18.9872058  72.6584810  16.1292550  18.3955272
  71.7030293  17.0250890  19.1541942  88.0729719  37.3227167  60.5119085
  88.8994147  37.5994492  60.9076929  87.7462347  36.6369987  61.0943747
  64.8458083  15.1814601  14.3555148  64.0150607  15.2762553  13.8895686
  65.2895114  14.4599482  13.9096625  17.6549187  85.7583132  15.2975352
  18.5421208  86.0476056  15.5106528  17.4506036  86.1997405  14.4731410
  40.3900909  36.2927389  74.3681574  39.9468327  36.0373878  75.1772022
  40.5649567  37.2276688  74.4756746  43.0948204  17.4364945  19.6281798
  42.4191696  17.6748320  18.9934142  42.6395470  17.4262616  20.4701121
  75.2363676  40.6505152   4.7154601  75.7102031  40.0964114   4.0952285
  75.3044814  40.1877257   5.5505832  30.5756593  83.2325649  62.6749516
  31.0623384  83.2696152  63.4983635  31.1575246  83.6413670  62.0342159
  19.1732614  48.5159632  24.1041644  18.9017932  48.7433001  24.9934562
  18.9443080  49.2836329  23.5802348  82.5307161   3.9989897  11.5940841
  82.1853644   3.2579657  11.0962375  81.8037349   4.2708060  12.1543010
  23.3332896  73.7067509  57.1738529  23.9170671  74.4474411  57.0101070
  23.1697607  73.7345219  58.1165695  13.5639255   1.7990300   5.7434066
  14.2230908   2.3284241   6.1922629  14.0557782   1.3175341   5.0782188
  88.0248481  27.5623223  46.9032653  88.5456664  28.2627532  46.5103515
  88.5716301  27.2270009  47.6137717  61.5131000  69.6579996  30.7651694
  61.9952181  69.4304743  29.9701675  60.6459311  69.9170771  30.4535182
   0.7236770  85.8250332  57.0141220   1.5223385  86.2179279  56.6619873
   0.9066097  85.7048321  57.9459620   3.5112968  73.6058331  69.1447401
   2.8841913  73.3008957  69.8004723   2.9723191  73.8439322  68.3903885
  13.5740542  27.9344821  53.9361143  12.7060997  28.0491304  54.3230820
  13.4828007  27.1718192  53.3649302  10.3527467   8.1640097  12.5801452
  10.7899205   7.3554417  12.8472121  11.0671918   8.7568137  12.3469527
  14.5590138  51.5714264  74.6555710  13.7247860  51.1550522  74.4389439
  15.2221370  50.9531498  74.3485975  23.9673018  52.1179533  73.7922525
  24.0643597  51.2046146  73.5227680  23.1136394  52.3799658  73.4475183
  93.7087328  35.4578254   8.1110843  94.1222650  35.8252475   7.3299201
  94.3892008  34.9152562   8.5095962  94.2233140  13.9813468  15.7122405
  93.8844234  14.5380065  16.4133247  94.4308216  14.5894286  15.0027259
  33.2836866  33.9194703  66.1587334  32.3394370  34.0645623  66.2184954
  33.5425258  34.3577600  65.3480911  66.6290522  55.6701800  60.9012874
  67.5418872  55.5720469  60.6304820  66.2551740  56.2810561  60.2662452
  23.2259560  40.6719303  75.3687811  22.2925878  40.4633713  75.3292799
  23.2752013  41.4440680  75.9323502  39.8276544  34.7297740  71.4652252
  40.6634283  35.0799298  71.1568308  39.1706562  35.1639819  70.9211159
  85.7617000  71.3043323  19.3933471  85.1373580  71.8895975  19.8221763
  86.6092304  71.7350021  19.5048888  79.1767325  53.6303663  58.7358332
  79.9656715  54.0240431  59.1084290  78.4545912  54.0764952  59.1782284
  79.1666654  78.2477632   4.2756541  79.1707710  78.6115566   3.3902915
  78.3226970  77.8019014   4.3474849  92.7084428  20.3222272   0.9672196
  92.5475031  19.5753905   0.3905328  93.6234314  20.5544087   0.8087237
  81.8862134  44.8617980  13.1902011  82.5407523  44.4493243  13.7538226
  82.3974020  45.3839919  12.5719531  24.4926333  58.5064459  69.5507812
  24.3874264  57.5793552  69.7644854  24.1771317  58.5819530  68.6502314
  17.6262204  51.4474913  15.6344874  17.8312604  50.5130431  15.6660922
  17.3539035  51.6024920  14.7300323  84.4205958  16.3654992  23.9298900
  84.1858536  15.4611251  24.1378291  85.3748971  16.3543746  23.8562854
  68.7805182  22.5506827  14.2331489  68.9152152  22.9626939  15.0865729
  69.4824261  22.9009434  13.6846240  77.5285486  86.0824576   3.7553199
  77.7154306  86.5865078   4.5472987  77.6434472  86.7084208   3.0403407
  88.9707715  41.6753337  57.2706588  89.5050937  42.4462268  57.0797332
  88.0682284  41.9813868  57.1813281  38.2789547   4.7133109  12.1831306
  38.0524546   5.3470132  12.8638251  38.7280637   4.0093705  12.6510985
  38.8773942  31.2312269  75.5250788  38.5445333  30.6125021  74.8749924
  38.9922547  32.0488334  75.0407648  72.8712017  15.4455563  37.2500213
  72.6505411  15.2720067  36.3349136  73.2654637  14.6302935  37.5600894
   7.5625770  27.5063941  35.2924522   7.6163761  28.4497401  35.1393684
   7.0760385  27.4242160  36.1126693  59.9336329   6.2367675  44.7780974
  60.7433118   5.8188054  44.4849094  59.4762573   5.5544993  45.2695735
  36.7211342  33.0675292  59.8904705  35.9581923  32.4979401  59.9890709
  37.0468783  32.8812742  59.0098858  90.9278757  10.3913638  41.9291099
  90.7099849   9.8870084  41.1452849  91.8002755  10.7434556  41.7525275
  36.6518354  75.3359222  75.1344061  36.3693643  74.4214010  75.1435757
  37.6001358  75.2949476  75.2580214  94.3056399   9.5009038  10.9073814
  93.6169726   9.4427773  10.2451213  94.7142273   8.6352965  10.9046538
  85.1891381   3.2061908   4.1938861  84.9381048   3.1828353   3.2704814
  84.9460680   2.3435637   4.5300658   2.2311974  84.1652107  48.4741879
   2.5778291  84.8249912  47.8735495   2.9547644  83.9835644  49.0739250
  89.9241832  59.7225478  11.4186748  90.5028299  60.4841617  11.4553054
  90.4870561  58.9828780  11.6473468  42.0268297  69.9184990  56.0290670
  42.9187393  70.2526999  56.1241293  42.0318222  69.4578362  55.1900196
  72.7938128  26.3176390  39.8674090  71.8696797  26.1512038  40.0531753
  73.1444031  26.6642329  40.6878932  79.4331450  30.2773616  35.9835132
  79.6092040  31.1098620  35.5451282  78.4788019  30.2034756  35.9829028
  85.1776320  15.4363105  16.7768272  85.5411798  14.6259496  17.1337302
  84.7370535  15.8487889  17.5197776  39.2081073  87.5072756   4.0877231
  39.1131506  87.5674000   3.1371482  38.3465901  87.2276345   4.3972762
  20.6882238  29.7714043  57.7343988  21.1161327  28.9716911  57.4284840
  20.2865100  29.5244861  58.5674000  37.4767640  85.5839243  14.5945819
  37.1282897  85.0575486  13.8750537  37.9392263  84.9554482  15.1490005
  36.2723750  54.2104199  37.9771979  36.2154496  53.2652524  38.1173785
  35.8918551  54.3472257  37.1096023  76.6463071  36.1534831  12.8825172
  76.6647131  37.0471236  13.2250007  75.7746417  36.0623881  12.4976428
  74.3712467   2.5304505  43.8882430  74.0784496   2.2428033  43.0235084
  73.9001996   3.3497283  44.0403350   0.0197034   9.7734064  47.3477077
   0.0472893   8.8701010  47.6631594   0.7922365   9.8555243  46.7885303
  87.0250340  69.6918154  61.9772530  87.4617304  69.1410208  62.6269913
  86.0965159  69.6390629  62.2037554  24.6161175  65.8504438  65.0043011
  24.4430947  65.8793020  65.9452915  23.8845277  65.3510904  64.6414566
   6.5751794  33.0338961  63.4812927   6.7896894  32.9818732  62.5498867
   6.1966518  33.9061266  63.5915375  15.0729339   0.6947514  27.5402434
  15.3060643   0.1943108  26.7582973  15.3679912   0.1500937  28.2699855
  24.1369841  78.5029712   3.0979999  23.4482172  79.1521421   3.2408603
  24.9505952  79.0062848   3.1287368  16.5533984  46.4915705  73.6839581
  16.2738621  46.9121218  74.4971132  16.7041910  45.5779362  73.9263725
  12.3341072  77.4807930  75.6738758  12.5867891  77.1216679  74.8233366
  11.7455757  76.8239498  76.0459232  68.8885239  79.7140327  20.0915321
  68.8445142  80.6655469  19.9971088  68.2939342  79.3789831  19.4203933
  13.3297269  19.0741679   7.4649890  13.1307427  19.6077821   8.2343371
  13.1010930  18.1822249   7.7265151  51.8145684  87.7138796   3.9441283
  51.7913631  86.7571297   3.9621719  50.9474853  87.9802981   4.2497810
  10.3838730  43.3099651  42.7345181  10.0455332  43.5493040  41.8716860
  11.2143898  42.8702259  42.5525761  85.6368667  27.9157683   7.4722751
  86.2121994  27.7003571   6.7382320  84.7653157  27.6492450   7.1797069
  92.0257728  86.6171646  66.0649347  92.6370657  86.9082165  65.3882885
  91.3351037  87.2798920  66.0648489   9.2597930  16.9640967  24.4731219
  10.0336329  16.5861604  24.0553077   8.6445205  16.2341353  24.5425780
  72.9656536  41.0543486  24.9237521  73.2694823  41.2005946  24.0279182
  72.4829454  41.8505046  25.1459296   1.1324708  52.2189951  60.5863476
   1.8259254  52.8306913  60.3389978   1.2126739  52.1375656  61.5366983
  83.2170919  76.2296906  13.7572082  82.3331693  76.5966478  13.7414821
  83.7260059  76.8530121  14.2755778  66.3173998  30.7236239  62.2346385
  66.3871661  30.5662390  61.2930472  67.2095365  30.9362933  62.5086768
  24.4673276  53.9577246  39.4596672  24.7276974  53.0370712  39.4306493
  24.7307658  54.3080664  38.6087322  56.3567379  77.1770969  18.6931117
  56.4348653  78.0799141  18.3848079  56.9743279  76.6849819  18.1521495
  39.5176172  77.6455879  65.6273413  39.2919946  78.5018778  65.2638912
  40.1234722  77.2670746  64.9902391  58.5357693  79.2555323  14.4639190
  57.7844694  79.8479977  14.4362147  59.2942217  79.8340645  14.5431884
  87.5749713   8.4660098  33.2181151  88.1215555   8.3754822  33.9986785
  86.8223864   8.9798924  33.5109885  84.1053921   7.4960276   4.7341045
  84.1729051   7.8678557   5.6135448  84.9462420   7.6977250   4.3235858
  11.6855781  -0.2312616  14.9761184  12.1954171   0.5547902  15.1721175
  11.0126273   0.0662181  14.3638499  69.9560049  87.0346060  14.6848472
  70.5876020  87.5000468  15.2331908  70.4920319  86.4663592  14.1316779
  76.4206118  20.5554148  17.7413543  77.3071820  20.2160117  17.8639587
  76.4922065  21.1474559  16.9926246  85.0367025  86.1795702   9.4727119
  85.0440934  85.6021586   8.7093146  84.8332790  87.0445481   9.1168197
  37.4033999  69.5921230  61.9642639  37.9699826  69.9456739  62.6499891
  37.9934597  69.0924263  61.4000273  79.2324903  46.2779856  62.2366762
  79.5440557  46.8522501  61.5371180  78.4345688  45.8832121  61.8849564
  29.9117208  51.4725542  70.2622795  30.6112432  51.2074661  70.8594608
  29.1057754  51.3265228  70.7576180  87.6101285   6.9219062  27.2401889
  88.4543377   7.3145100  27.4624713  87.2207862   7.5305983  26.6123851
  48.1719178  42.1332499   8.7207587  48.5778362  41.6118762   9.4133170
  48.0716068  43.0044600   9.1043838  61.6791728  50.2569750   5.8920558
  61.6802338  50.3758123   6.8418487  62.0450714  51.0719481   5.5483039
  35.4860687  55.0422001  76.0538197  36.3941860  54.9413061  75.7685566
  35.4693317  54.6704388  76.9357157  87.3161462  81.1645689   9.2386993
  88.0384305  81.7848435   9.3377002  86.5284732  81.6893926   9.3814071
  15.6501071  15.1788995  16.5480121  16.6005675  15.0678155  16.5252956
  15.3104369  14.4395348  16.0438235  80.4201764  70.2429911   7.2607215
  80.7637912  69.4523474   6.8447383  80.7167417  70.1840159   8.1689056
  61.7085589   4.5659539  46.8807300  60.9103671   4.0491912  46.7708285
  62.0929179   4.6022031  46.0048373   6.0181133  13.0152079  50.3427680
   5.5607192  12.1744630  50.3559383   5.3873174  13.6250779  49.9601634
  62.2225836  75.7798901  31.4295371  62.3009136  76.0321346  30.5094989
  62.9827002  76.1789647  31.8528445  65.5212178  52.5009966  50.2807999
  64.8884954  52.1561003  50.9108305  66.3096060  51.9767570  50.4216862
  27.4361205  37.2390890  69.4948435  27.4855375  36.9789600  70.4146910
  27.7786469  36.4855623  69.0141106  53.5106433  26.4575812  24.5609172
  52.5752360  26.5968177  24.7087558  53.6134655  26.5107056  23.6107429
  13.6740565  66.7498589  73.0933332  13.7261975  66.1431074  73.8318253
  12.7776992  66.6576576  72.7704239  93.9212376   0.3628871   2.5664933
  93.2604605  -0.1012710   3.0804618  93.9125949   1.2545249   2.9145415
   4.5730035  16.5700814  10.5572494   4.7638194  17.2608372  11.1918147
   4.3884437  17.0375439   9.7426017  39.6537876  52.0477438  70.6206417
  39.7679996  51.8743610  71.5550566  38.7084436  52.1488619  70.5096006
   4.9563329  21.4873311  28.7801154   5.2785794  20.6196877  28.5360034
   5.1279036  22.0315120  28.0115779  93.3073479   6.6939399  49.2230495
  92.8860098   5.8465764  49.3668445  92.9500610   7.0007321  48.3897098
  53.9594412  46.4254236  62.4075937  53.2778549  46.9368458  62.8436279
  53.5733509  46.1792612  61.5670156  19.0090765  83.8949767  17.6887878
  18.3699335  83.8699403  18.4008964  19.1548265  84.8276701  17.5304492
  76.0370869  15.3130862  38.9317401  76.9908208  15.3186509  39.0129264
  75.7875258  14.4047734  39.1017707  60.3949118  34.4012332  61.1571312
  59.5886230  34.8715210  61.3691759  60.1543808  33.4764028  61.2125015
   1.8083444  33.2351327  58.1954765   1.5155084  34.1198540  58.4139872
   2.7234367  33.2098222  58.4751129  32.9698703  78.8930979  31.1876948
  33.0427896  78.2206097  30.5104335  32.1162941  78.7352195  31.5910705
  30.0386930  19.4766128  75.1981878  30.4399157  18.7887430  74.6670675
  29.4308114  19.0115201  75.7729912  12.9387832  47.2661018  73.4494877
  12.6968789  46.3408852  73.4904814  13.2592535  47.3905230  72.5561523
  32.3384809  35.0197053  31.2250614  31.5384126  34.5090652  31.3490176
  32.0510840  35.9313226  31.2759614  71.0785498  69.2727804  53.3700180
  70.1541390  69.0701485  53.5136700  71.3207306  69.8259068  54.1127348
  27.9915166  71.2196732  47.7167225  27.3011088  71.8131638  47.4211836
  27.6408339  70.8223724  48.5138416  30.1676385  12.4521682  24.5462688
  29.8635308  12.7151677  25.4149421  29.9859731  13.2092997  23.9895232
  39.5895815  39.2850471  50.8343458  39.2573881  39.6605921  51.6497231
  38.8493109  39.3331432  50.2294302  57.8505329  26.4745566  21.1322005
  58.5594124  27.1146390  21.0687812  57.2895485  26.6631266  20.3798850
  83.5075569  41.7959023  67.2000933  83.5258579  42.6893520  66.8570995
  84.4011307  41.4746666  67.0793962   6.1175148   6.6006610  13.2857211
   5.2466051   6.8877742  13.0112918   6.6857140   7.3482796  13.1001075
  17.6132028  12.1432540  33.5926898  18.3480947  12.2944638  32.9983028
  17.0494811  12.9079911  33.4759696  20.0551764  36.0643050  38.1425555
  20.5798070  35.5185267  38.7283118  19.2570321  36.2486312  38.6377605
  26.6219902  33.2682228  69.7118378  27.2357225  33.8684964  70.1351976
  26.5331864  32.5418854  70.3289127  89.7423178   8.7633273   8.4627708
  89.2406136   8.5800359   7.6684650  89.8185593   7.9147527   8.8990577
  91.1171109  17.5873324  22.3998626  90.5664546  17.3909423  21.6419395
  91.9769174  17.7823588  22.0271285  23.5062377   9.3256184   4.4928344
  23.8569800  10.2106568   4.3932422  24.1034333   8.8990542   5.1073440
  43.3083248   3.4942845  56.9701290  42.7275276   2.7584755  57.1637535
  42.7832127   4.0756109  56.4200878  84.4020278   0.4529378   9.8077663
  84.5075065   1.2081095   9.2291244  84.0546090   0.8205601  10.6204017
  87.6612790  69.1093254  69.7582102  86.7562224  69.4080639  69.6695518
  87.9517021  68.9549780  68.8592911  31.9542837  48.3326054  43.2036209
  32.8342938  48.3066893  43.5793066  31.3772678  48.0916929  43.9283609
  91.4217790  54.1180182  76.0732651  91.8730255  54.0335417  75.2333403
  90.5026897  53.9443731  75.8699036  55.3428272  72.2329536   8.5157092
  54.5708588  72.5805083   8.9623721  56.0836366  72.6289049   8.9746936
  62.4326124  15.7455012  13.1073840  62.3057552  15.3995511  12.2239478
  62.0541705  16.6241929  13.0771525  89.1118457  62.0937681  56.9195938
  89.6084072  61.3176060  57.1788836  88.1958242  61.8216181  56.9750118
  53.4949353  75.3550640  12.0152457  53.0168083  74.5511332  12.2185214
  52.8324965  76.0447517  12.0569118  66.0498428  63.9696026  62.9938173
  65.9250736  64.3637085  63.8571501  65.9061289  64.6890783  62.3790550
  12.6438165  53.8444424  73.5606909  13.2533813  53.8060427  72.8236771
  11.9183278  53.2764435  73.3013153  71.1663658  17.8597495  23.0364688
  70.5131561  18.5511395  23.1438621  71.7262870  18.1678435  22.3238738
   7.2917573  27.0608804   2.2097905   6.5773479  26.6895673   2.7274545
   8.0754225  26.9055888   2.7370341  74.9565536  26.9933221  12.3302539
  74.4277329  27.7910468  12.3154910  74.7579068  26.5898844  13.1752475
  36.2879801  32.3360205  42.4215841  36.1731386  31.3892484  42.5032139
  36.5871358  32.4642682  41.5214205  21.6736333   7.0473811  23.8699992
  21.0064952   6.3837239  24.0452750  21.8329350   7.4572417  24.7202190
   8.1440036  16.0826537  18.6112197   8.8123528  15.4620978  18.9018233
   7.3454301  15.8010337  19.0575393   7.2413246  42.2767588  28.6853583
   6.5430109  41.6470572  28.8644298   7.8942577  42.1100756  29.3651565
  12.9337680  71.1018181  55.0140142  12.3654413  71.0954857  54.2438221
  12.9097569  70.2010059  55.3368092   6.7116481  38.2624078  49.3405962
   7.4164152  38.9080572  49.3922758   6.5784222  38.1278467  48.4023142
  46.6245812  31.6249129  19.5223888  47.5193435  31.3385293  19.3390353
  46.0715586  30.9791943  19.0825637  64.8911481  19.2538354  31.5234073
  64.7562383  20.1926896  31.3946326  65.8362848  19.1619775  31.6438659
  89.2009765  29.6065184   9.9803908  89.4950182  30.2004239   9.2897018
  89.9640137  29.5042035  10.5491908  10.4389255  30.9396121  64.7788890
  10.4540174  31.8966910  64.7764476  10.8551471  30.6914040  63.9534267
  75.1066402  35.4448706  50.2412891  75.6155923  35.3937346  51.0503531
  74.3503955  35.9861666  50.4678631   4.7770206  18.2282540   8.1955703
   5.1534454  17.6265094   7.5533565   4.1662280  18.7655494   7.6911052
  11.3195884  29.6574306  67.0964861  11.5381074  28.7637281  66.8323278
  10.9847641  30.0677633  66.2991428   0.7506148  35.0287768  22.6472076
   0.0503628  35.4412553  22.1414931   1.5540878  35.2753159  22.1890815
  42.6380804   0.4048544  73.8498116  43.2794586   1.0933501  73.6742067
  41.9366160   0.8472353  74.3278027  29.9675338  36.7900798  16.2856563
  30.3126542  37.6699969  16.1344226  30.6616609  36.2050864  15.9819968
  14.8987353  72.2357368  73.2926702  15.3931189  72.9152107  73.7510777
  15.0959396  71.4312220  73.7723541   3.6337435  78.4002447  74.2128325
   4.2728204  79.0916967  74.3851900   4.1634300  77.6342249  73.9917612
   8.3126728   6.9780442  33.3780082   7.9367988   7.3071763  34.1944774
   7.5653808   6.6239402  32.8959258   9.7864692  29.8871133  26.9581874
   9.0671842  30.3319976  27.4064525  10.4846780  29.8424384  27.6114352
   7.2570126   4.3787381  37.5156291   6.6742007   3.6360595  37.6737102
   6.7745726   4.9360511  36.9049819  22.7721357  87.3248291  72.2745752
  23.0586886  87.1344852  71.3813305  22.5309038  86.4717960  72.6356363
  50.2717781  70.9120321  52.1847773  49.7843409  70.1987314  51.7726660
  50.4516888  71.5232229  51.4704180  26.4849257  52.5332880  74.3139935
  25.5723333  52.7117252  74.0869141  26.8433785  52.0976543  73.5407066
  93.4458916  58.1146336  57.0931339  93.1659474  58.6679792  56.3639784
  94.2845203  57.7507210  56.8094110  42.4311781  83.2985592  43.8863182
  42.8548050  83.7724113  43.1706047  41.8834066  82.6458454  43.4502745
   8.5565536   7.8797766   5.0318797   8.4646551   8.3212277   5.8762153
   7.6604216   7.6584145   4.7785457   7.0425333  82.9849401  17.8243430
   7.3930658  82.2648349  18.3485683   7.3456539  82.8032675  16.9347652
  35.5879712  29.5061851  53.7533665  36.1710691  30.1495123  54.1563034
  36.1340213  29.0605474  53.1057024  83.0780083  28.0144212  17.7282699
  83.5396534  28.8169572  17.9712852  83.5903532  27.6530453  17.0049842
  34.5960450  84.3243313  65.0799561  33.8845611  84.9605560  65.1523590
  34.4458127  83.8916302  64.2394638  59.4178298  59.2027584  51.9048579
  58.7473491  58.9417091  51.2735541  60.2463368  59.0589228  51.4475616
  85.0722033  20.4642436  11.6470607  85.7330042  21.0035607  12.0814593
  85.5059606  19.6230742  11.5037997  31.7268292   3.1120774  12.3793204
  31.8275086   2.1749684  12.5464042  30.8549039   3.3226249  12.7134593
  20.4681270  19.0045258  21.9362434  21.3951604  19.2078921  21.8118079
  20.1747577  19.6235511  22.6047977  12.8199450  33.4288880  47.2834380
  11.8915383  33.5389182  47.4888309  13.1025760  34.2923781  46.9822105
  88.5400969  48.8017604  38.4370788  88.9432246  48.2972667  39.1436370
  89.2531210  48.9591548  37.8181632   8.5167376  15.5923507  15.9163077
   9.2962186  15.0380179  15.8795150   8.2696835  15.5971429  16.8410667
   7.0453501  60.0784540  63.7745571   6.7800558  59.1875935  63.5460567
   7.0346093  60.5523014  62.9429388  10.0003736  32.7287814  22.3062976
   9.8513667  32.4359700  23.2053550   9.8355166  31.9524714  21.7711433
  84.4142610   2.7120682  18.6804183  83.7546498   2.8636309  18.0035289
  83.9361316   2.2802827  19.3883594  29.2537284  54.0129232  73.1219625
  28.4353352  53.5207701  73.1871557  29.4827819  54.2179537  74.0284538
  10.0343657  88.0290699  58.7694311   9.2867517  88.2981873  59.3031740
  10.3480875  88.8405037  58.3701992  85.2096608  65.4996124  44.2774852
  85.5266479  65.4752984  43.3746226  84.8355106  66.3750806  44.3764766
  92.4600846  63.7465998   1.5082725  92.9749638  64.2237326   0.8575280
  91.6103369  63.6111876   1.0889609  94.1290289   8.5141656  44.2221816
  94.0365273   8.2567975  43.3048804  94.0410501   9.4672772  44.2135699
  43.2208586  37.1251774  52.7162552  43.1208944  37.9894829  53.1152773
  42.6881933  37.1650171  51.9219542  90.1002652  32.7634045   0.1593431
  90.6415540  33.2450196  -0.4661862  90.3716189  33.0944154   1.0155185
  33.1323838  16.6030985  53.2311344  32.2368699  16.8763357  53.4302044
  33.5939708  16.6677386  54.0671921  27.4266450  19.2442271   7.2475036
  27.4475162  20.1579282   6.9629844  28.3105199  18.9195630   7.0754989
   5.0522435  49.5844316  55.2804565   5.7163274  49.9729824  55.8498859
   5.2464747  49.9358368  54.4115353  22.4849479  45.1322982  11.7629512
  23.0599229  44.3753096  11.8752368  21.6136376  44.7552439  11.6409572
  14.7550981  38.2747790  24.3082126  13.8139216  38.1049392  24.2684920
  15.1570718  37.4780223  23.9620574  84.6509964   6.0267779  21.2444385
  83.7995678   5.6468341  21.4610847  84.4473559   6.9082877  20.9318622
  40.4503584  71.3629246  57.8161907  40.7710648  70.7729769  57.1340322
  40.1869011  72.1532965  57.3448849   2.4624984  68.6305854  29.7983153
   2.9674737  68.0089232  29.2741283   1.7064754  68.8458106  29.2521079
  10.2088706  45.5941054  54.5108684  10.9858815  46.0002372  54.8949702
  10.5139176  45.2333209  53.6783870  21.3556051  63.4269333  57.9665422
  21.7511797  63.6080647  57.1139336  21.9285679  63.8666773  58.5946894
  42.5738079  45.5572745  16.2134441  41.8828661  45.9009406  15.6471141
  42.2441727  44.7070548  16.5044864  27.6991240  35.9884021  13.3973392
  27.8507058  36.8514010  13.0120071  28.1672923  35.3835437  12.8218349
  77.7741912  13.1515700  62.7741385  77.9206613  12.2354895  62.5383997
  78.2646755  13.6487109  62.1195316  93.3991102  87.8277197   1.1779769
  93.9186099  87.2276249   0.6429608  92.8132919  88.2579365   0.5551084
   2.9047863   1.7444417   4.4071468   3.5923211   1.9167182   5.0504573
   2.2177927   2.3775956   4.6154388  71.8141177  12.8633505  71.9208622
  72.1452955  12.8730589  72.8188944  70.8694890  12.7408892  72.0152569
  33.0752730  17.3519599  58.7900114  33.6282516  17.5697863  58.0396795
  32.4876451  16.6700613  58.4645319  24.9278085   3.9780947   2.4690469
  24.5765988   3.1387707   2.1717055  25.5961530   3.7434956   3.1128772
  26.9308869  34.8682400   9.1045650  27.7388398  35.3738877   9.1926940
  26.6410701  35.0342700   8.2075389  87.4351818   2.1326920   8.5551723
  88.2636673   1.7834422   8.8836082  87.4269921   3.0442473   8.8471015
  71.9238189  70.2781907  30.0680431  71.8660358  69.3971720  29.6983035
  72.6354745  70.6954613  29.5825942  57.1814203  84.3758869  63.3319998
  56.6777802  84.3550491  64.1457224  58.0560255  84.6589088  63.5988235
  36.9623439  41.0966822  19.9712642  36.8057458  41.0193106  20.9123881
  36.7114608  40.2440688  19.6158202  12.9731242   2.9295012  44.5120509
  13.1461589   2.2288987  43.8831981  13.6920230   3.5485408  44.3847545
  65.1507330  61.6055012  61.5731525  65.3577089  62.5353718  61.6666079
  64.4555330  61.4494514  62.2123528  33.8634896  69.4442940  66.0370302
  34.4168806  68.6721706  66.1545515  34.4774604  70.1507378  65.8365059
  38.9902687  42.2653675  67.9533243  38.4122777  42.4679852  67.2177267
  38.4354520  42.3614311  68.7273932  47.4405622  85.3665447  29.6503758
  47.6448298  84.6099854  30.2000308  48.2743788  85.5970764  29.2406988
  49.1996288  76.8421459  54.9417067  49.3707705  75.9041214  54.8577261
  49.2316294  77.1727657  54.0439892  84.4750649  25.4411694  24.8795493
  84.9535662  25.8784243  24.1752227  84.3635065  24.5419499  24.5710166
  66.5845421  53.8791707   8.9315494  67.2726658  53.9313122   8.2682212
  65.7750824  54.0529039   8.4511073  84.0276557  37.7270648   9.5249160
  84.5670635  38.0583712   8.8069327  83.4607917  37.0728060   9.1164477
   7.9059975  17.8795621   1.4786990   8.7213723  17.6868245   1.9415744
   7.4576275  18.5143134   2.0375283   9.6528022  46.7477175  29.5943149
   9.9430911  45.8665797  29.8300346   9.4786708  47.1748969  30.4330237
  17.1126525  22.7190634  23.3472045  17.0336787  21.9537637  23.9166816
  16.6626899  22.4654004  22.5413402  15.1991403  50.1336002  76.9046402
  15.2158082  50.8124399  76.2300062  14.8921359  50.5848789  77.6909781
  34.9992728  48.1330061  72.3241854  35.8003044  48.3634520  71.8535757
  35.1797199  48.3691072  73.2340908  89.8573762  35.8365485   8.2422526
  90.4025728  35.1043555   8.5301478  90.2842385  36.1547324   7.4467738
  92.5775415  50.4945800   1.0753759  91.8906099  51.1117503   0.8234723
  92.2668082  50.1122138   1.8960317  63.8048472  22.5509402   9.7000869
  63.6584218  23.1511733  10.4311832  63.5246196  23.0416629   8.9274963
  45.9382677  77.1345043  72.3485565  45.5990744  76.4377451  71.7866802
  45.2069616  77.3540449  72.9258156  73.3220628   4.0786654  76.0304928
  72.6531127   3.5030371  75.6598330  73.0135444   4.2644125  76.9173622
  32.5512187  51.3755748   6.6896422  33.2993524  51.0831496   7.2102244
  31.9027345  50.6786677   6.7897113  59.3132782  30.7373500  75.9102631
  59.9971390  30.9936619  76.5290260  59.2973757  31.4438748  75.2646589
  52.4967973  24.8398492  28.1602176  53.1170480  25.2837416  27.5818713
  52.5470464  23.9190146  27.9037555  11.7390144  60.8247232  52.0243263
  11.5095747  61.4482021  51.3352251  11.8788636  59.9980450  51.5625000
  11.2344520  20.0138470   5.4870494  11.9504325  19.7056147   6.0425647
  10.9575383  20.8375832   5.8883174  75.6763953  12.5393578  10.0987800
  76.0758597  12.3138282   9.2586597  76.3435072  12.3175952  10.7484038
  77.1596244  62.5057152  31.3293918  77.6010898  62.8019658  30.5334266
  77.8633359  62.1622088  31.8798717  47.8125381  79.1611862  72.7547979
  47.2758484  78.4081507  72.5075483  47.2497988  79.9189615  72.5956392
  81.8359965  29.0607497  28.8482936  82.3631329  29.6551415  28.3143886
  82.4569434  28.6848304  29.4722732  17.5020186   1.5623948  21.6839011
  17.8233687   1.5377709  20.7825931  18.1605308   1.0824677  22.1861632
  45.5903286  29.6066186  23.8784011  45.2790302  30.5115554  23.8988479
  45.2498657  29.2179534  24.6841701  12.2672574  20.7736060   9.3972953
  12.5868241  21.3720176  10.0725921  11.5234820  20.3289077   9.8038467
  16.1077011  86.5919781  71.0032177  16.1472178  86.5140629  71.9564247
  16.3185465  85.7151699  70.6822920  70.9530819  43.4540126   4.8361476
  70.9151978  43.4548804   5.7925971  71.3009346  42.5911471   4.6110042
  92.6637155  45.1856086   9.2434390  91.9552285  45.0429770   8.6157973
  93.1050021  45.9754988   8.9310725  19.4074225  85.2936077  75.2308226
  18.9514709  85.7099724  75.9622526  19.7830999  86.0223103  74.7367620
  12.2405021  12.3944089   2.5705226  12.0228164  12.4129245   1.6385921
  11.8282859  11.5945527   2.8969272  79.2038411  39.9948069  34.3187507
  78.4280998  40.4548022  34.6394618  79.6340782  39.6703860  35.1098712
   4.7048476  82.5978851  62.3583984   3.7811291  82.7163029  62.1371412
   4.7102600  81.8738556  62.9844809  18.9489905  37.5343367  64.5976432
  18.7184541  36.7562529  64.0900310  19.8141305  37.7843234  64.2731841
  35.0644827  74.4983625  61.3689137  34.1440535  74.3575907  61.1470461
  35.0405240  75.0353241  62.1609545   0.8249418  26.7038724   3.5749992
   1.2899558  26.8603656   2.7531083   1.4369552  26.9873616   4.2541869
  42.0505694   4.9919039  71.0240078  41.5189365   5.2009398  70.2559566
  42.5887445   5.7713419  71.1621284  32.1611834  73.8868237  60.6431055
  31.5276313  74.3676758  61.1756706  31.7033219  73.7190437  59.8194313
  63.6959961  80.2583232  15.9518226  63.9361432  80.9201780  16.6002925
  63.1053999  79.6678987  16.4196094  79.2933226  88.4275341  76.6698647
  78.5659170  88.4326363  76.0477018  79.2840672  87.5456619  77.0419455
   8.2693426   7.0077750  39.5716079   8.0140035   7.9251096  39.6692069
   9.0599029   6.9212338  40.1042922   8.8919942   0.0471255   0.3943999
   8.8516776   1.0015818   0.3342565   8.0360190  -0.2075198   0.7389196
   9.0976588  38.2700774  31.1551364   9.5834271  38.2248446  30.3316005
   8.2583229  38.6637160  30.9168037  90.0551683  41.2731978  43.4474834
  89.5036084  42.0525500  43.3795436  90.9180028  41.6106364  43.6880668
  51.5815783  76.6397381  52.8993225  51.8403482  76.8164825  53.8037729
  52.1364021  75.9076500  52.6301622  21.9353692  47.8874633  24.2994197
  20.9823100  47.9121920  24.2140086  22.1362130  46.9684550  24.4764026
  70.1644400   0.2551085  76.0112572  70.2384952  -0.4930109  76.6037607
  69.2486742   0.5251414  76.0797310  10.7191014  62.5926352  61.3592386
  11.6181862  62.7862740  61.0939455  10.6877053  62.8256750  62.2871065
  66.1206569  69.5846462  71.8969536  65.9822573  69.5478249  70.9505320
  65.6074538  68.8543415  72.2426558  72.5957540   4.3511397  55.4400635
  72.2620061   5.1243311  54.9850702  72.8973344   4.6825510  56.2859058
  89.1371304  40.9834239  49.6547301  89.8053414  41.4746711  50.1326450
  89.0474516  40.1645228  50.1421626  66.1644438   6.2484747  29.6015429
  66.8905571   6.8689638  29.6646667  65.3982785   6.7937476  29.4229388
  36.7333505  68.7924853   7.2079642  37.3980329  68.8143530   7.8964027
  36.6689441  67.8684869   6.9664844  75.6495860   3.9488131  60.4755402
  75.2037195   3.1035715  60.4207516  75.9842447   3.9854342  61.3715839
  25.7641808  14.3210265  17.9796394  26.2368028  14.2691085  18.8104041
  24.8640458  14.0821597  18.2008346  21.1051766  18.8846490  54.8769839
  21.9866721  18.6137959  55.1335700  20.5237500  18.3047339  55.3687938
  17.9991210  53.3585548  63.4671974  17.4951208  53.4594107  64.2746925
  17.6484692  52.5645971  63.0635881  82.6807756  24.3842503  21.2422832
  83.5624200  24.6838614  21.4640220  82.2880107  25.1211354  20.7743438
  22.4134734  82.6748267  33.4444984  21.8399605  83.4349266  33.5422977
  23.2974997  83.0268469  33.5484775  90.0810629  30.2350089  31.0563548
  90.8795148  30.5755851  30.6529697  90.3921825  29.6303794  31.7300494
  85.0221116  55.1573989  14.5198711  85.2237493  56.0730597  14.7126086
  85.8359510  54.8032519  14.1614421  84.4972974  14.2401740   8.0960162
  84.7563631  13.8833091   7.2464450  84.1996914  13.4792849   8.5947307
  44.5195389  63.9432240  68.5000181  45.3157377  64.1852522  68.9730167
  43.8277578  63.9809322  69.1605091  38.8915920  64.5578003  71.2309885
  39.0473986  63.7054968  70.8241320  38.7738347  65.1570892  70.4939556
  86.4885000   1.2587744  73.9804363  86.5033439   0.8395201  74.8408031
  85.7929281   0.8047682  73.5047340  81.6802854   7.9349276   3.9396365
  81.5321785   7.5756737   3.0648597  82.6063258   7.7667615   4.1139873
  53.4643701  86.2763777  20.9673198  53.0068258  85.5742588  21.4298328
  53.5723332  85.9452382  20.0757392   5.0944511  42.6850268   7.5750716
   4.5769970  42.9647204   6.8199237   5.9833805  42.9811236   7.3792155
  52.1608400  71.5991116  67.1707821  52.2382641  72.5176430  66.9128180
  51.4296675  71.5845919  67.7883625  90.4944045  59.4950339  24.4359763
  90.4010374  59.2485568  25.3561767  90.2456790  60.4189631  24.4090732
  74.6645168  12.8480631  76.2794352  74.1957191  12.0308691  76.4487123
  75.3529886  12.8713232  76.9440413  52.9834986  41.8323755  76.7730808
  53.7958479  41.4533234  76.4374685  52.8528309  41.4068699  77.6204920
  90.9546835  29.0485427  47.1488746  91.8867976  28.8816020  47.2886069
  90.9310872  29.8403880  46.6116126   2.2771399  12.0583054   3.9325889
   1.9332330  12.1415898   4.8219855   3.1635849  11.7166087   4.0495856
  63.1527499  64.6211019  31.6869720  63.4160450  65.5136314  31.4626964
  63.3440426  64.5426526  32.6215728   6.6547741  81.5546313   1.6541370
   5.7605327  81.3018480   1.4246448   6.9216026  82.1519771   0.9554179
  12.2711818   0.4536340  21.7327579  11.3185327   0.4649541  21.8252547
  12.4693124   1.2241360  21.2004932  85.3568512  38.1622454  21.1192878
  84.6442062  37.7243277  20.6538852  85.7811576  37.4645278  21.6186793
  21.1895673  33.2510325   4.5555862  21.2757699  33.2149216   3.6029609
  21.9768922  32.8168341   4.8839458  15.0297940  69.9440098  70.4304647
  14.1003752  70.1666212  70.3770018  15.3817284  70.1771688  69.5713902
   2.9374020  40.2910373  19.5425780   3.0164067  39.3374583  19.5685561
   1.9946568  40.4523131  19.5044597  65.7702107  41.8613669  -0.0847785
  64.8154393  41.9129512  -0.1293055  66.0262728  42.6151606   0.4466804
  84.2672831  54.9658534  18.9345439  84.3994481  54.4509837  18.1385120
  84.9898726  54.7101733  19.5078929  86.7611915  35.8594939  10.7692321
  86.0586030  35.2387807  10.9624084  87.5217134  35.5133149  11.2361320
  20.0638406  73.6898467  38.1513007  19.7716252  73.1963298  37.3849662
  20.4755370  74.4741008  37.7884276  13.1826226  48.8558242  48.8446506
  12.4020879  48.8264510  49.3979438  12.8640000  49.1669032  47.9973300
  10.8628003  44.1950461  30.7192596  11.5028779  44.9049804  30.7695277
  10.6121079  44.0337321  31.6288455  88.1225425  17.1641824  26.8641837
  88.4604103  17.9882190  26.5134128  88.7962991  16.8708083  27.4775489
  18.8001935  27.4598738  13.9095958  19.0447823  27.0992419  14.7618564
  18.4554307  28.3305213  14.1079505  94.4004137  36.5392348   3.2184108
  93.8139540  35.9309146   2.7686914  94.2433864  36.3795039   4.1490348
  14.4538371  17.4865290  42.3657878  15.2513139  17.8006646  41.9396575
  14.5665328  17.7204224  43.2871039  56.5193918  79.0136352   2.1907886
  56.5464929  79.3340364   1.2892087  57.4164513  78.7334505   2.3724683
   4.3868105  11.9568536  20.8481773   3.5094707  11.6743418  20.5899222
   4.9684898  11.5475270  20.2076038  51.9409180  67.3771763  73.3602428
  52.1411562  67.4326229  72.4258661  51.8254709  66.4414167  73.5253334
   0.1466362  48.6574313   5.9494384   0.6841509  49.4470927   5.8883079
   0.2299420  48.2438800   5.0902160  36.4346320  27.6578185  26.3340839
  37.1054083  26.9922683  26.4868243  36.9262845  28.4412143  26.0875114
  13.2918517   6.3726947  33.9182265  13.3241240   7.1597239  34.4620879
  12.5662581   6.5288398  33.3137782  14.1849772  25.4229352  11.5518458
  14.2169969  25.2878186  10.6047710  14.6293704  26.2594601  11.6896041
  22.3399901  64.3174791  73.4151459  22.7224851  64.3398285  74.2923164
  21.5903282  64.9105215  73.4655666  64.7750950  74.3896151  64.8596430
  64.9813128  74.4361162  63.9260769  64.5844460  75.2941132  65.1081610
  38.1923482  86.2138358  17.7740653  38.6761972  87.0380202  17.7207645
  38.0994776  86.0509005  18.7127097  82.9617980   1.7862612  52.9467583
  83.5872272   2.3075873  53.4500265  82.5002626   1.2656027  53.6041212
   3.4927909  29.1974303  14.9557384   3.0531947  28.3964679  14.6703418
   4.0859787  29.4143721  14.2365058  50.9736243  77.5352827  19.8033031
  51.5367559  78.1505838  19.3337043  51.3584712  77.4779168  20.6778510
  59.1601896  55.0017405  62.6730919  59.4453669  55.9100580  62.5737762
  58.2043505  55.0509119  62.6866055  29.1459577  19.7785565  31.6418346
  28.3235423  19.3508717  31.8804725  29.4604508  20.1657101  32.4587997
  77.5691468   4.4132611   9.1069491  78.3234853   4.0078160   8.6793788
  77.4037963   3.8634154   9.8728164  11.1201310  51.8329716  45.1701689
  11.3493907  51.2295341  45.8769464  10.9026587  52.6518774  45.6155109
  59.5314041  29.1664311  24.6417220  59.0221253  29.7182986  25.2352698
  59.0466106  28.3418414  24.6061881  78.2651141  21.7451960  45.2958965
  77.9378131  21.1217028  45.9442520  78.1997398  22.5967223  45.7281637
  89.7368270  41.5769908  11.2607844  89.4113046  42.2178504  11.8928893
  90.6224925  41.8744513  11.0525973   0.9166557  64.9987745  61.3349247
   0.9823258  65.9486008  61.2362194   0.3470880  64.8757029  62.0943213
  53.6624676  28.9801308  13.0628665  52.9571063  29.3354747  13.6036380
  53.2125587  28.5284755  12.3488505  63.3732799  72.8359547   3.2095416
  63.1472996  72.0100441   2.7817138  62.6839212  72.9646793   3.8610347
  45.5848530  77.3717227  39.3191226  44.8714391  77.2898403  38.6862167
  45.6639710  76.4993444  39.7050365  83.8655621  40.9483763   5.9757979
  84.3509513  41.7649028   6.0937961  83.3998329  40.8249327   6.8028911
  10.3009367  67.0165491  68.1663275   9.6171868  66.5656471  68.6617136
   9.8251688  67.5242567  67.5089788   8.7705199  39.2188117  20.9486087
   8.5841863  39.6630522  20.1214679   8.1955878  39.6450469  21.5842231
  57.1529865  59.6484566  50.4285526  56.8079185  59.2799616  49.6153069
  57.3995352  60.5446196  50.1997852  17.7981985  15.2937484  73.8847923
  16.9911993  14.9494326  73.5021353  18.2969642  14.5152402  74.1325617
  63.5635689  66.5227285  39.8096736  63.9419869  66.0696998  40.5631908
  63.5797599  67.4481645  40.0536712  75.7494289  35.2208754  44.5621760
  75.0985915  35.3971192  45.2415736  75.7090873  34.2734477  44.4318565
  51.7552662  84.0153027  76.8839979  51.9361401  83.5678387  76.0573864
  51.6289520  84.9316025  76.6376877  68.3718061  37.0990682  75.2132607
  68.2510281  36.5393472  75.9803057  69.3117666  37.2788167  75.1935387
  66.0629100   2.6024195   8.9197333  66.1607632   2.5970980   9.8719104
  66.9028750   2.2822329   8.5908492  24.5087640   9.2913815  24.6875270
  24.7261111   8.9950988  23.8036616  25.2171246   9.8917910  24.9198325
  24.6875731  16.5978810  46.0127910  25.5105082  16.9752881  45.7020267
  24.9531333  15.8386084  46.5316470  90.8014328  56.0950610   0.7951434
  90.5223519  55.2521083   1.1526092  90.4471785  56.1072585  -0.0940053
  65.7539845  79.0200710  69.4724178  65.9998512  79.5484638  70.2317476
  64.8474216  78.7640429  69.6421957  23.5353351  53.5766554  62.1460533
  23.2963824  53.5763073  61.2191629  22.7552271  53.9032459  62.5943851
  80.0176007  41.7568442   0.2935298  79.9654323  40.8440062   0.5767711
  79.4463569  41.8027541  -0.4731528  24.4623637  73.9437962  54.0667152
  23.9627814  73.6640310  54.8337746  24.3049121  73.2598448  53.4158278
  -0.0092824  58.1639621   5.6018336   0.7919638  58.2123706   6.1232646
   0.1996319  57.5496146   4.8981650  35.5731130  88.3891869  74.5465374
  34.8422599  88.3213711  75.1609373  35.9510636  89.2516994  74.7181845
   2.5516479  34.2807481   6.3681300   2.3511140  33.5473201   5.7866653
   3.2397358  33.9482495   6.9445117  78.1720978  19.2650553  31.5936835
  77.2680980  18.9810178  31.4582618  78.1047851  19.9903771  32.2146495
  10.5600993  39.8072192  33.1391223  10.7811038  38.9599368  32.7524741
  10.1310174  40.2886626  32.4317821  83.5287669  19.4909769  62.4418020
  84.1368488  19.4065291  63.1761980  84.0651801  19.3256289  61.6664600
  75.2597192   5.7311350  54.6511698  75.0110629   6.2176138  55.4371357
  76.0519031   6.1686522  54.3393040  16.1219041  64.8797843  18.8819488
  15.2528493  65.1692340  18.6041053  16.2310092  64.0217444  18.4719546
   6.8109099  21.7521998  13.8613685   5.9582679  21.8258569  13.4326442
   7.3671905  22.3778245  13.3972819  19.8527622  51.5726280  55.3513145
  18.8957644  51.5583277  55.3378773  20.0797725  51.5393972  56.2806129
  52.8207350  69.4970846  74.6117401  52.5119019  68.6790514  74.2222881
  52.0285845  69.9164629  74.9476862  93.5179788  47.1942755  41.2684043
  93.7889558  46.4619109  40.7148440  93.5785014  47.9607150  40.6981929
  21.9154085  11.3358408  75.0314903  22.0681204  12.2505003  75.2687979
  22.7766622  10.9237295  75.0995445  35.9808938  39.8608062  17.2986396
  36.7129533  39.2659995  17.1357711  35.4123227  39.3814704  17.9012855
  30.0256602  15.3957745  23.1684383  30.7913796  15.6941935  22.6776679
  29.9532239  16.0120198  23.8972934  37.6794307  24.2513367  14.9071487
  37.1805160  24.9510762  15.3286727  37.1876018  23.4541985  15.1044067
   1.7009274  38.2426974  35.4229625   1.9403808  38.5524794  34.5495017
   0.9126226  37.7180239  35.2832492   3.0632154  29.1354129  50.0936587
   2.7685205  30.0035903  49.8186000   3.6066739  28.8261935  49.3689044
  23.8380544  42.6963660   6.0732444  23.7230126  43.6170146   5.8378490
  24.7324864  42.4897715   5.8020671  41.6222207  35.5206105  16.8331893
  42.2543399  36.2338492  16.7440684  40.7838027  35.9114978  16.5872272
  83.5733015  44.8008391  20.2100070  83.4618527  45.4905555  19.5557101
  82.9236490  44.1389033  19.9733050   1.6277258  17.9320571  47.6023181
   2.4744718  17.9358050  48.0486854   1.2500684  17.0779368  47.8122790
  87.0053560  39.1010424  15.6913455  86.0873729  38.8709399  15.8348449
  87.1065384  39.1001174  14.7395022  42.2862101  54.2720795  49.1011286
  41.8542051  53.5563898  49.5673800  42.3470068  53.9661598  48.1961727
  32.1777026  27.0554921  14.7214778  32.5034921  27.3769185  13.8807757
  31.2674014  26.8147322  14.5493682  39.5514059  43.9143419  74.3478251
  39.8806453  43.3548117  75.0512171  39.5181751  43.3414507  73.5817194
  37.3649518  58.8006064  25.0488742  38.1039397  59.1823146  25.5226119
  37.2352807  59.3814704  24.2992004  67.0466566  67.5047207  70.1387787
  67.6376724  68.0711794  70.6348181  67.6052284  66.7951584  69.8213673
  75.1650435  28.5938212  28.8771422  75.5680400  29.4619033  28.8931735
  75.9033019  27.9861733  28.9215644  86.7490101  57.9334116  76.6332006
  86.7066669  58.8028669  76.2350988  87.5478268  57.5451946  76.2762547
  63.9091277  82.3992774   1.2456735  63.1566401  82.4540755   0.6566127
  63.5407374  82.5372741   2.1182998   3.4169833  11.5903661  26.2508662
   3.1418602  10.8169171  25.7585986   2.6082198  11.9314477  26.6326888
  24.4756524  47.2964999  12.2796901  23.8477151  46.6443488  11.9688495
  23.9904325  47.8058573  12.9288085  93.7747985  56.3802382  35.2967437
  93.9992005  57.1428916  35.8298858  93.6260945  55.6795356  35.9316714
   4.2909615  33.4144255  17.3564132   4.9293582  34.0626809  17.0590098
   4.0495579  32.9349276  16.5639194  87.9730636  59.8392150   5.6080325
  87.9451782  60.2405593   6.4765819  88.1736714  58.9184615   5.7759841
  19.8798482  49.7008178   9.8664077  19.1515128  50.1015326   9.3918784
  20.1814763  48.9969012   9.2921622  33.2508898  80.4304409  61.2129545
  33.7108040  80.1348877  60.4272318  32.3263144  80.2705193  61.0237026
  90.9862715  28.5628840  16.8688758  91.2603170  29.2081448  17.5206168
  90.8383423  27.7621648  17.3720534  87.5067526  48.7276408   3.2652648
  87.5378758  49.3133780   4.0216907  87.4861509  47.8486583   3.6436732
   8.1546367  18.5216242  66.5641546   8.8638509  17.9121023  66.3598728
   7.7171768  18.1345850  67.3224831  92.3361972  33.2690817  60.6288385
  91.5679696  33.2288367  61.1984348  93.0768111  33.1099230  61.2139845
  10.3084339   5.5873591  70.7216787  10.6781210   4.7965533  71.1143351
  10.6186928   6.2998205  71.2805796  92.0524031  23.1537959  37.5393470
  91.7695648  22.6928899  38.3291515  91.6158611  22.6922127  36.8233760
   5.6591145  24.4293544  23.7207301   6.0059802  25.1240680  24.2804416
   6.3103787  23.7300107  23.7755473  18.7865798  18.1343743  53.0754836
  18.9801614  17.7024409  52.2434981  19.6267526  18.1596514  53.5334094
  31.4383475  50.2196929  11.8577941  30.9631268  50.3515670  12.6781638
  31.6567151  51.1037013  11.5627177  12.2445981  22.9266164  11.1985095
  12.9724090  23.4786078  11.4845641  12.0683257  23.2088181  10.3009971
  70.5578333  58.2309195   2.4260648  71.2108922  57.5743720   2.6683219
  70.7616020  58.9862868   2.9775460  88.3848673  41.7963168  27.3592075
  88.1925422  41.9648120  26.4367850  88.8110835  42.5969359  27.6651271
  55.5369759  39.6639752  70.7946396  55.5533886  39.6355844  71.7512798
  55.9866905  38.8636732  70.5235243  86.0181934  54.9416301  33.2664664
  85.6057245  55.5280349  33.9006885  85.3922016  54.8916671  32.5440677
  48.6621562   9.8955637  46.3437939  48.2912031   9.8455244  47.2247696
  47.9070225   9.8154932  45.7610464  19.4272010  33.6526105  10.5284675
  19.0562551  33.4316251  11.3827403  20.1621072  34.2321631  10.7291301
  47.3404935  71.1428705  10.4013332  48.0768314  70.6371847  10.7453139
  47.2392932  71.8681636  11.0177310  52.9129556   5.6054026  68.2396603
  53.8368991   5.7301718  68.0228806  52.8759197   4.7363669  68.6392069
  26.6551208  79.7185946  68.5796595  26.2232900  80.4111958  68.0796003
  27.5233603  80.0705814  68.7758684  62.7052263  33.8718420  51.3485861
  61.7672709  33.6862379  51.3936281  63.0719975  33.1349665  50.8599854
  85.0153214  16.8993994   8.1253989  84.2918068  17.3898360   8.5155662
  84.7749430  15.9808442   8.2466682   4.9456684  26.4495227  40.0147517
   5.1096765  25.6775281  40.5563815   5.3173630  26.2266728  39.1612800
  81.3052610  14.6175009  65.4001856  82.2574809  14.7132593  65.4186392
  81.1609462  13.6753565  65.3120232  52.5595204   6.6319224  17.3181899
  51.7194669   6.1738011  17.3439868  52.8967874   6.4643523  16.4381869
  86.9307405  13.5843608  22.7845367  86.8206889  14.5318219  22.7042945
  86.2490016  13.3153483  23.4002479  84.1948921   9.3238255   7.2757133
  83.5256392   9.7095105   6.7103942  83.7901908   9.2980286   8.1427653
  50.6655025  57.6673603  55.4401827  50.9796953  58.2085562  54.7158766
  50.0099230  57.0936108  55.0436258  26.3668506  25.6768843   1.2570508
  25.4476516  25.6187484   1.5176805  26.8540494  25.4066464   2.0354064
  83.9025408  52.6458785  30.2520259  84.2955214  53.4986445  30.0660403
  84.2026359  52.4313781  31.1353000  91.0971052  19.2397830   2.8234323
  91.3591415  19.5479819   1.9559177  91.7577201  18.5870740   3.0553611
  20.1507581  16.2788779  56.5221930  20.8772291  15.9377486  57.0438337
  19.8096193  17.0106608  57.0363379  69.2629030  19.5745283  71.2641144
  68.3428195  19.3290526  71.1670780  69.7308210  18.9906222  70.6671715
  37.3841706   3.8739306  56.5819407  36.9967476   4.0152270  55.7181311
  37.4882081   4.7536379  56.9445848  24.0017955  31.9655654  30.8490260
  23.9906136  32.6845595  31.4808066  23.1407849  31.5565821  30.9363540
  68.9069891  73.7990665  57.4688101  69.8391199  73.7157774  57.6698732
  68.6310482  72.9114771  57.2401619  61.9053459  86.7468452  72.2964954
  61.5239382  85.9791183  72.7223635  62.2923183  87.2504711  73.0126238
  73.4340096  43.3590364  65.9931660  73.6875439  44.0002155  66.6571283
  72.6199102  42.9801130  66.3246584  20.8959262  23.0493685  24.6992095
  20.1240699  23.5736129  24.9128421  21.4794700  23.1656691  25.4489978
  52.3671262  13.1545636   9.5132907  51.9677274  13.8750502   9.0258391
  52.7285592  13.5673758  10.2976211   1.2488501  37.2968814  26.2983783
   1.4177482  36.3637301  26.1682208   1.2879602  37.6723334  25.4187568
  93.5766570  78.7627602  70.9205961  94.4507628  79.1503334  70.9648514
  93.2939253  78.9119005  70.0183487  15.1990334  37.1051165   2.4639495
  15.6315677  37.9585311   2.4926885  15.6853120  36.6122672   1.8029912
  75.7262042   7.6321703  56.5863752  75.0441268   8.1898028  56.2121439
  75.6023601   7.7046782  57.5327539  73.2130384  69.4360590  71.9788074
  73.7828445  70.1370907  71.6624069  72.3428965  69.8331499  72.0161819
   4.4947140  66.8167540  11.1430915   4.2178289  67.4874350  11.7673858
   4.0483515  67.0486876  10.3287204  84.7675759  15.5122563   2.3625882
  85.6929356  15.5161902   2.1177943  84.7622305  15.7745597   3.2831367
   9.2319600  67.4642035  10.6073554   8.4425299  67.9963061  10.7068236
   9.7618358  67.9391429   9.9671348  16.1365525  48.4353205  13.7599071
  16.6936604  47.9171035  13.1791194  16.5045802  48.2955405  14.6324046
   1.8105118  49.6361491  13.4753783   1.0173480  50.1133963  13.2317432
   1.5743510  48.7136504  13.3781608  26.7139546  38.2761809  32.6768287
  27.3489539  37.5604579  32.6494487  27.2277467  39.0598056  32.4814494
  90.4245454  25.2077863  15.6817515  89.7936327  24.5060441  15.8421977
  90.8035976  25.3902861  16.5415366  36.3215920  88.3686963  27.8496345
  36.0669366  88.3018914  28.7699111  35.4920015  88.4120932  27.3741038
  48.3461905  83.3086014  52.6349497  47.5210619  82.8234482  52.6385641
  48.1626034  84.0971947  53.1454945  87.7165491  64.2162558   6.8874343
  88.1507880  63.9635321   7.7021678  88.1310970  65.0432727   6.6416247
  31.2123919  76.0124397  68.2635498  30.5068350  76.5373182  67.8855038
  30.9682226  75.1075220  68.0692959  82.0551926  14.6757075  15.5107673
  82.7482885  14.2356345  16.0028823  81.8381256  15.4444930  16.0381015
  34.0837073  78.7769699  59.1823721  33.6193943  77.9608059  58.9965630
  34.4717908  78.6403322  60.0466347   5.1839937  26.4104372  53.6756277
   4.4433559  26.5245825  53.0800915   4.7838224  26.3141543  54.5398140
  10.4318786  17.7068317  37.7630424  10.7001746  16.7915809  37.8440595
  10.7741511  17.9823804  36.9126582  27.0373559  71.3285246   2.7688439
  26.9907868  70.6352272   3.4271796  26.1329028  71.6257778   2.6696618
  19.5536566  21.4449549  62.6839399  20.4277730  21.6182852  63.0333805
  19.6984494  20.8145332  61.9783688  14.1094124  22.0571923  48.0591488
  14.4548225  22.5904655  47.3432255  14.8139751  22.0404935  48.7068701
  81.5099575  26.2149572  65.6982899  81.4294459  27.0483112  65.2343178
  82.3965075  25.9143209  65.4985905  31.7655683  37.9442239  73.1883764
  32.5092721  37.9599810  73.7907791  31.5591288  38.8668084  73.0385303
  14.2827392  42.3090696  59.6644926  15.0519609  42.6166296  60.1440096
  14.6408606  41.8766403  58.8892651  78.2806720  47.0518970  52.9002333
  78.8267805  46.4191008  52.4337959  78.7761380  47.2574186  53.6930180
  90.9689145  15.6561446  69.8064995  91.8468865  15.2972913  69.6775723
  90.5177387  15.4884124  68.9791298  59.1540494  18.8031185  53.3682299
  59.1317858  17.9132521  53.7201881  58.6760845  18.7454915  52.5409079
  45.3507987  72.1339980  17.6387866  45.6250551  71.2193766  17.7057345
  44.4150236  72.1187582  17.8396018  40.0965129  85.9856844  25.0934839
  39.8006712  85.0753701  25.0995946  39.4324933  86.4499091  24.5837736
  55.5484496  82.5800532  55.8745813  56.1369948  83.3254963  55.9935808
  54.8207014  82.9292107  55.3600883   3.0064726  18.1731904  64.7244024
   2.9608119  19.1064870  64.5167923   3.3052626  17.7617586  63.9134312
   3.5329515  36.1461282  36.4145899   3.3040524  36.9468260  35.9426570
   3.8080209  36.4485669  37.2800946  33.9417562  40.4429900   6.6419204
  33.8407807  39.6899676   7.2241576  33.1039930  40.9026724   6.6973956
  51.0002995  20.6024218  62.3250675  50.6262493  21.1518574  63.0138636
  51.6518688  21.1606789  61.9007492  68.6813405  41.7529335   8.0986770
  68.3447030  40.8741525   8.2737525  68.1710437  42.3237447   8.6731418
  33.5879207  23.3248091  60.8388805  34.1971564  23.1628299  60.1185846
  34.1502166  23.4828639  61.5972185  56.5498093  26.7384329   3.8582881
  56.8073037  27.6417211   3.6739047  57.3558715  26.2332049   3.7522681
  80.9808019  78.5213247  16.2731250  81.9217828  78.3501854  16.2344726
  80.5890182  77.6664343  16.4517196  92.1735643   9.7491574  69.5835638
  91.5161615   9.8341542  68.8930368  92.1930315  10.6093836  70.0029230
  31.1472581  79.1236678  23.1423076  31.9654313  78.9863267  22.6648601
  31.4230042  79.3345991  24.0343364  78.4870389  87.3310557  34.7165950
  79.1413644  86.9654122  34.1212733  78.7852100  87.0720425  35.5885108
  87.3561319  29.5008612  68.4650564  88.1639590  29.3436599  67.9762459
  87.5982799  29.3583441  69.3800879  78.9646878   4.1895613  74.8573160
  79.1332688   5.1007247  74.6173286  78.0196013   4.1515085  75.0042629
   3.9544407  83.0671215  59.0410614   3.3264849  82.3556995  59.1666603
   4.7675106  82.7395916  59.4256067   8.6966637  82.1344200   3.5597785
   8.4865478  82.1985593   2.6281245   8.4935716  81.2275925   3.7892326
  71.3297357  16.5435576  45.5031252  72.1858778  16.6049433  45.0794697
  70.8730878  15.8538067  45.0215149  91.4988976  30.5602336  74.2284775
  91.8844028  31.2249207  74.7992754  92.1552593  29.8643732  74.1938543
  58.6285782  33.3148217  55.5557537  58.3160877  34.1351175  55.9374523
  59.5357990  33.4954476  55.3096771  88.0417525  77.2390789  73.2904243
  87.1973192  77.6096600  73.5470009  88.2198297  77.6212019  72.4310637
  78.2498684  27.3297167  56.7316866  78.0565121  28.0226564  57.3631001
  78.5181584  26.5842605  57.2688532  84.6853991  36.8441057  74.8823261
  83.7952163  36.5986919  75.1344776  84.8852446  37.6085377  75.4226398
  12.4416733  44.1160536  58.5481024  12.3550689  43.7170792  57.6823330
  13.0476296  43.5421276  59.0167761  88.8968523  41.0967922  69.2403364
  89.0383418  41.0960531  70.1870251  88.5974499  41.9844198  69.0436077
  21.0938385  51.4751956   1.6421159  21.4032856  52.1306470   1.0169299
  21.5111801  51.7170045   2.4689086  60.0588563  62.1850875   3.0811294
  60.3438714  61.5285304   2.4455722  60.3869513  61.8637338   3.9209540
  79.0379861  69.7914186   1.9552119  79.7439721  69.8482409   1.3113292
  79.0692762  70.6279483   2.4194034  63.5978249  50.1832530  15.3536304
  64.4512656  50.5455735  15.1157268  63.2252506  50.8250502  15.9582027
  48.0226854  73.8095322   8.8015349  47.7214161  74.0234294   7.9185184
  47.2298494  73.5435000   9.2672237  20.9280601  59.3127206  11.0989459
  20.8983281  60.0141290  11.7496188  21.6327980  59.5679965  10.5036243
  36.7371446  11.4040181   3.5680278  36.8257505  11.9595429   2.7935775
  35.9039694  10.9497210   3.4428580  41.9195223  27.1035528  52.3654699
  41.2292576  26.4526081  52.2388506  41.9097185  27.6225829  51.5612650
  76.6769161  26.4196491  36.1268497  76.2162163  25.6591272  36.4812398
  76.4306249  26.4393735  35.2020884  75.4949166  15.2932739  73.5027313
  74.8452463  15.5390060  72.8441143  76.1810615  15.9556794  73.4211445
  17.7875054  28.3301950  47.0882988  17.9587173  29.1814446  47.4911547
  16.8444109  28.2022285  47.1904182   7.5117999  16.1217654  71.8168545
   7.9938740  16.8201697  72.2596502   8.0885845  15.3599107  71.8727922
  91.7605560  44.3512344  77.0809031  91.1338585  43.6679935  76.8428612
  91.4918451  45.1124573  76.5665483   6.3112819  20.3895807  31.0702729
   5.6127882  20.7033014  30.4958868   5.8524287  19.9941194  31.8114161
   6.6653609  53.8393593  37.7322030   6.7143667  53.5728121  36.8141699
   5.7740068  54.1718769  37.8378057  37.3691806  50.7232192  31.8183215
  37.7247343  50.9003845  30.9474452  37.7442113  51.4066735  32.3737224
  15.9421003  57.6347971  41.9100237  16.3805282  58.4856462  41.9183397
  15.1484036  57.7793598  41.3948727  76.2929058  31.0252285  49.4702387
  75.6428766  31.7277527  49.4824886  76.1740446  30.6037474  48.6190891
  49.8971743  11.8120953  21.0108550  49.6732527  12.5844332  21.5300735
  49.9781245  12.1406647  20.1154597  12.8064326  30.6710556  21.4919456
  13.1866875  31.5343979  21.3298495  12.0854011  30.8370998  22.0992168
  35.1894394  60.6820956   3.8929446  35.9936604  60.4453805   3.4309657
  35.4907888  61.0973373   4.7010215  58.1818342  15.1014185  60.6540728
  58.5320520  14.4883931  61.3004303  57.8401804  14.5434940  59.9553442
  39.1257009  41.7290854   0.3111394  39.4695655  41.9869868   1.1663993
  39.4757328  40.8498403   0.1674779  84.4476158  15.4112670   5.2290805
  84.3322236  15.8672616   6.0627444  83.6153084  14.9609467   5.0851901
   8.0100071  25.2706957  66.5455675   7.1640676  25.5584669  66.8887997
   8.4191692  26.0705805  66.2154150  46.2073565  24.7878027  42.4932051
  46.8695498  24.2635798  42.9436779  45.6624746  24.1457653  42.0380926
  70.9615626  61.4837265  76.5892315  70.5680575  60.7522154  76.1135483
  71.1093964  61.1437511  77.4717236  22.5911593  19.4315112  71.9816208
  22.5769353  19.4455612  72.9386091  22.7753425  18.5191584  71.7581892
  63.1679596  64.4809645  68.1918001  63.7262206  64.8051637  68.8985300
  62.4639519  64.0112513  68.6389828  48.6231378  71.8294611   0.3140290
  47.8993002  71.2137070   0.4286464  48.6037961  72.0512309  -0.6169240
  63.3796968   3.1081071  32.3091364  62.9711117   3.4130237  33.1192684
  64.0749731   3.7432805  32.1377373  15.2315184  88.2761349  65.4145050
  14.5910832  88.9834724  65.4903030  15.4444119  88.2447191  64.4818068
   2.2967173   9.7101682  45.7430124   2.5156006   8.8170356  45.4772377
   2.0677349  10.1537752  44.9263048  12.4913752  50.4783297  42.3637629
  12.9233909  49.8130369  41.8280506  12.0611691  49.9825716  43.0604553
  90.3513505  48.9094305  44.6121597  90.3809666  49.2997742  43.7386703
  90.1358681  47.9899025  44.4564009  81.0632183  53.4238386  63.0084181
  80.9647896  52.4907589  62.8189278  81.9739475  53.6184025  62.7871799
  76.7247823  77.0135894   0.4411967  75.8515266  76.6271129   0.5067380
  77.3032335  76.2706032   0.2691587   7.5534797  17.0962644  42.7612114
   7.4285108  17.9980278  42.4655104   7.7482843  17.1752393  43.6950445
  78.5211756  28.6694598  73.7018871  78.0472340  27.9733300  73.2469034
  77.9356529  28.9335990  74.4115543  36.5092373  38.2045317  51.6152859
  35.9393835  37.9340482  52.3352432  36.0302544  38.9118814  51.1834717
  15.5153632  22.8381014  58.8588524  15.0264680  22.2463226  59.4306993
  14.8444891  23.3857274  58.4510946  34.1875771  70.3264561  10.6686004
  34.2012656  70.4810777   9.7240718  33.9953190  71.1835900  11.0488494
   6.6205880  84.3665487  72.2817087   7.1413180  84.8700225  72.9074764
   6.2930986  83.6222565  72.7866936  85.6627260  86.8949124  74.0078068
  84.9074923  87.4285462  73.7606478  85.6736838  86.1839828  73.3669567
  55.4205778  63.6471501   0.9332545  54.9205330  62.8324452   0.8838208
  55.8952025  63.5869351   1.7623122  21.6214380  52.8976628  10.8181365
  21.9244960  52.0703873  10.4439624  22.3900214  53.4676507  10.7931407
   3.7023017   6.4402479  47.9664516   3.4030691   5.9791678  48.7500954
   2.8969321   6.7117131  47.5260925  33.2886343  44.0054559   2.9298957
  32.8618670  43.3014044   2.4416192  33.6485483  44.5809721   2.2550090
   7.8471124  11.2715518  52.5580645   8.0230427  12.0230889  51.9919586
   7.0110077  11.4772117  52.9762316  38.3935335  64.8721900   7.3148330
  37.7831140  65.5500093   7.0246966  38.3443675  64.8987070   8.2704051
  28.2070080  42.3275424  12.6070197  27.4453908  41.7558250  12.5105270
  27.8800228  43.2006973  12.3904212   8.8874662  20.3919554  75.3348017
   8.4579885  20.6986165  76.1333847   9.2912215  21.1764455  74.9636030
  10.0925541  40.8673429  18.0008161  10.8948302  40.7082176  18.4980714
   9.6245474  40.0327969  18.0277848  10.8291507  48.8637495  38.2148004
  10.6312144  49.4877481  37.5164628  11.6294825  49.2007923  38.6174178
  20.2897143   0.6865838  67.3574972  20.6561923   1.4349173  67.8285837
  19.3785369   0.6438229  67.6476049  60.4192904  63.2663801  28.3838256
  60.1140979  62.7068320  29.0979655  60.1999334  64.1546562  28.6650355
  22.8816056   9.0080762  66.6523981  22.3215842   9.7472692  66.8894625
  23.0914330   9.1527927  65.7297564  89.0560263  67.3833218   0.0255807
  89.9915426  67.3358837   0.2225335  88.6741417  67.8276697   0.7825168
  15.5297196   6.2451172  57.4136591  14.9545097   6.4593488  56.6791725
  15.0553191   6.5512514  58.1866121  16.9683969  36.6764188  73.0119085
  16.3960397  36.6367555  72.2457075  16.3854277  36.5195704  73.7547255
  37.0144096  46.1776885  24.2076953  37.0424888  46.1498892  25.1640781
  36.0810912  46.1734220  23.9952548  55.8986425   2.8573105  72.4549055
  55.3298473   2.3231730  71.9004631  55.8277845   3.7397757  72.0909452
   0.5441278  34.0315080  74.1723776   0.2577794  33.5711884  73.3834934
   0.8074492  34.8978233  73.8619137  27.2440037  64.3510440   9.4232829
  27.8217095  64.8560014   8.8510020  26.4762417  64.9101773   9.5422061
  29.2554235  66.7070389  51.4643526  29.7449064  67.4963951  51.2329340
  28.4145379  66.8072176  51.0181379  20.6966519  48.9905024  59.0869522
  20.3349543  49.8068333  58.7419701  21.5929747  48.9652491  58.7519979
  42.2966480  64.5669508  62.8577805  41.8879938  64.3884373  63.7047577
  43.1492090  64.9425125  63.0776072  20.3790644  79.9932590   0.3401931
  20.8731356  79.1782442   0.4289468  20.9903351  80.6753841   0.6181939
  90.3580215  59.2376089  36.9340897  89.9530690  59.6401453  37.7023411
  91.2865554  59.1748905  37.1579719  21.5835587  14.4710585  15.9627231
  21.4355437  15.0819918  16.6845878  22.4080102  14.7587964  15.5706580
  12.0395672  26.0566187  49.3918037  12.7634609  26.6599393  49.2238283
  11.4103997  26.2370729  48.6933613  32.8078651  25.5449247  55.3512573
  33.2516909  26.1813498  54.7907066  32.3363256  24.9768925  54.7419786
  40.8761320  58.1272605  22.9046805  40.8836880  58.9464763  23.3997138
  41.7313364  57.7342108  23.0789550  17.2345090  38.9388514  44.2525482
  17.9007339  39.0477085  44.9311686  16.8590510  39.8125196  44.1431665
  75.9331706  68.6160317   7.5042136  76.1396507  68.8449135   8.4104140
  74.9817470  68.5114565   7.4944194  61.4823082  76.9753519  24.5967754
  60.9034136  76.2137118  24.6286471  60.9137872  77.6972595  24.3287070
  87.6748470  74.1728797  19.9326594  88.3529666  73.6508742  19.5038303
  87.7161935  75.0239935  19.4966205  48.5594061  81.3671771   9.1769012
  48.4406331  82.2860661   8.9365466  47.7361265  81.1216751   9.5990069
  82.2361282  67.8402057   3.0037768  82.0377448  68.7460461   2.7664359
  82.2394040  67.8386250   3.9609702  16.0289288  22.5193262  69.3057299
  16.9795179  22.5562334  69.1996622  15.8660638  21.6677022  69.7112465
  85.2877947  36.2313390  58.5829258  84.9066623  35.8618808  59.3794632
  84.5577874  36.6758871  58.1520033  16.2791514  49.6174860  69.1500139
  16.9086397  50.1037979  68.6175871  15.7174504  50.2916956  69.5323277
  18.3329093  64.0401363  73.9920473  18.5942984  64.4999838  73.1942701
  18.5596013  63.1250668  73.8262415  35.5020708  38.5664072  25.5738052
  36.2266946  38.1595477  26.0488017  34.7874257  37.9329279  25.6387599
  81.8077674  56.2432575  67.1779203  81.8013479  56.7621756  67.9822302
  81.6666045  56.8823385  66.4794397  40.8697572  70.5967131   6.9741328
  40.5318138  70.7881036   7.8490050  41.8104640  70.7611242   7.0394881
  56.8155479   2.6526737  61.8796444  57.2917604   2.9891163  62.6387596
  56.0240221   3.1891859  61.8363905  27.8379390  37.3234382   6.5197547
  28.4730616  37.2957071   7.2353538  27.8308690  36.4320192   6.1711104
  40.4073790  81.7904010  29.6831401  39.9721328  82.1097246  30.4736026
  40.0296965  80.9233585  29.5354064  62.5114563  59.2406383  20.1836856
  61.5675643  59.1178134  20.2847465  62.6643923  59.1574195  19.2424472
  19.4056439   8.6401814  74.8057222  18.7127268   9.2914015  74.6961355
  19.8693573   8.9146698  75.5968332  40.5551291  20.1465487  64.9228334
  39.7201872  19.9707258  65.3566456  40.8046436  21.0187769  65.2280998
  29.8887442  67.8449407  29.8375590  30.3844760  68.1946435  30.5779632
  29.0635298  68.3297720  29.8514445  62.0422056  53.7783238   1.8701060
  61.8567541  54.7077802   2.0040925  62.6209620  53.7570014   1.1079963
  51.1000243  76.0868993  43.7302955  51.8070606  75.4700199  43.9194759
  50.3235820  75.5368057  43.6265357  63.2024874   6.1938268  74.9743366
  62.2617449   6.0646224  75.0949335  63.4993424   6.5771508  75.7996702
  11.7207181  44.3455553  38.2092857  12.3358047  44.1469479  37.5032735
  11.0719883  44.9227238  37.8064680  49.3579856  60.4873636   9.6956332
  49.1751769  61.3658967   9.3624862  49.3735328  60.5904665  10.6471427
  23.7179232  44.7445250  68.8011360  22.9119825  44.7545433  68.2848120
  23.6372519  43.9687586  69.3560314  11.9378173  11.8918431  41.3724804
  11.6729629  10.9782720  41.2653780  11.1296165  12.3909426  41.2543964
  43.8824502  58.7952235  30.2676185  44.1910151  58.9876428  29.3821796
  43.6095086  57.8784457  30.2321990  57.9450634  14.9349067  31.9069274
  58.1201285  14.9647137  30.9663470  57.3120868  14.2243573  32.0103438
  43.4026766   8.5878778  56.1680746  43.9292526   9.3500900  56.4088678
  43.8597488   7.8461093  56.5644264   6.0222547  28.7072179  18.4209331
   5.7723038  28.7647530  19.3431266   5.1925985  28.6101100  17.9535182
  91.7610442  58.9078522  62.7499199  91.0569527  59.1479874  62.1475744
  92.0074204  59.7314501  63.1708860  27.9554796  18.1869686  58.9673710
  27.6108360  18.9599490  59.4145346  27.1880007  17.6349747  58.8173389
  89.9244362   0.6731126  23.2720454  89.0068800   0.8671281  23.0805095
  89.8904258  -0.0405696  23.9090140  76.5273716  35.6523585  52.6066685
  77.3931243  35.9167433  52.2955370  76.2330105  36.3853598  53.1473112
  40.9898376   2.4631689  60.4081154  40.3635168   1.7963955  60.1263952
  40.5512047   3.2948238  60.2287292  34.8242197  79.7163740   4.9792274
  34.6397779  79.8180023   5.9129794  35.2610055  80.5312195   4.7312911
  80.5178243  -0.0431350  41.5936072  81.3281590   0.4542825  41.4833053
  80.2322156   0.1588246  42.4846061  39.3793014  69.1978398   0.9358199
  38.7142202  69.0253082   0.2693875  39.4548676  70.1518074   0.9574493
  51.8255237  49.1204524  29.7324355  52.2841337  49.9508640  29.6046622
  51.4695838  48.9081847  28.8695987  31.4583921  34.7826481  69.8460293
  31.4483714  34.9748445  68.9083767  32.1154785  34.0932870  69.9422073
  20.6916666  15.5423033  65.3190470  19.9370146  16.1133313  65.4627800
  21.3306427  16.0976875  64.8724031  34.2065597  34.1242409  48.7564421
  33.8782763  34.9728394  49.0536642  35.1386547  34.2710137  48.5955429
  27.1204114  28.6755109  65.6540346  26.2779570  28.2933545  65.4081535
  27.6820374  28.5267830  64.8933220  27.6172352  15.1345074  50.9171915
  27.1616912  15.1450682  50.0754070  26.9224882  15.0110412  51.5639639
  48.5372543  16.4897299  55.2346659  48.2460499  16.8827426  56.0574484
  49.0931606  15.7579148  55.5023336  14.8312843  46.4044189  45.4919338
  14.4920886  46.3012981  44.6028090  15.7315755  46.0829020  45.4436159
  64.1917446  78.3384767   1.7404492  64.2036250  78.8155809   0.9107144
  63.8800314  77.4635020   1.5091785  30.8622456  30.6320620  59.7259188
  31.3892794  29.8623681  59.9404812  30.5973101  30.9852648  60.5752039
   6.8903607  37.8868914  56.4869499   6.3919109  37.1089697  56.7371893
   7.6109052  37.5488567  55.9551811  22.7936468  87.6965800   4.2367347
  23.0799344  88.2656756   4.9511607  22.4808285  88.2986775   3.5615619
  58.4794095  51.1287221  10.8910735  58.3313897  50.2421620  10.5619414
  59.2996195  51.0685512  11.3808425  20.0794959  46.8442917  57.1120262
  20.6824231  47.4350739  56.6607094  20.2238035  45.9931231  56.6985989
  36.9452572  20.6346416  51.2613535  37.8425407  20.3027225  51.2920618
  37.0359612  21.5809226  51.3734102  10.2893412  26.7282319  47.2910070
  10.4051578  27.6775527  47.2508907   9.3437380  26.6056395  47.3748875
  15.6676018  25.6732774  64.4413376  16.0901189  25.4659867  63.6078262
  14.9642015  25.0288725  64.5200920  38.4124008  66.1348548   9.9408706
  37.6396015  66.5962258  10.2666743  38.6350957  65.5183688  10.6384261
  63.2464865  88.7073079  11.9112762  63.9090112  88.0736962  11.6359027
  62.5648287  88.6472550  11.2419685   9.0438336  18.9728165  72.2483540
   8.5075796  19.7611809  72.1638250   8.6680323  18.5064411  72.9950142
   5.8787066  27.3488092  61.7263746   6.4907438  27.3001266  62.4607229
   6.2534475  26.7689109  61.0634089  70.2527669  35.3322086  16.8253024
  70.5636671  35.4870537  15.9333404  69.5843843  34.6534565  16.7315372
  21.0248712  84.1114059   9.2289432  21.2612918  83.8469782   8.3398898
  20.6390181  83.3264056   9.6176894  42.6913261  40.4377174  75.5999851
  43.5765123  40.7920504  75.6844091  42.1192741  41.1543465  75.8746290
  51.4661026  26.6792417  43.6401224  51.0794401  26.1211085  42.9654312
  51.1113262  27.5503659  43.4626150  54.2689183  59.8109141   3.3246501
  55.0737265  59.3337288   3.1226428  54.2894080  59.9236086   4.2749770
  19.4402874   7.5258774  55.5702686  19.2377949   6.6455293  55.8868361
  20.0457621   7.8810406  56.2210321  20.2809453  29.9238658  49.6388102
  19.4474840  30.1652718  49.2347097  20.1940203  28.9894247  49.8272085
  46.3489726  54.3519506  17.2710689  46.8359116  54.9117544  16.6663058
  46.9191781  53.5956296  17.4091800  23.6559749  38.3825588  53.6534595
  24.1461635  37.5694704  53.7752628  24.0275884  38.9850736  54.2977524
   8.1098223  78.4505796  46.0819054   8.7300545  79.1680574  46.2114096
   7.3067677  78.8787889  45.7853079  24.5732212  19.0689194  69.3923378
  24.8127961  18.1462586  69.3055439  25.0840712  19.3797302  70.1397753
  35.3953460  85.4979220  40.1898463  35.5307695  85.7845059  41.0930427
  34.4511253  85.5751982  40.0530704  88.8566031  48.0736589  66.4013290
  88.4224935  47.2205782  66.4070797  89.5988732  47.9686975  66.9965172
  27.6837358  60.2604690   1.5072282  27.9509699  60.9630135   2.0998939
  28.4941909  59.9898246   1.0757812  90.7024609  84.0165660  66.4298105
  89.8190914  84.3632397  66.5551424  91.2307369  84.7825476  66.2052441
  66.1362410  18.7050140  64.7688580  65.5550814  18.5358191  65.5103827
  66.9686699  18.3052886  65.0208807  57.6014328  40.6285143  66.5947771
  57.4443769  40.3226233  65.7014751  56.8034029  40.3982782  67.0705652
  36.5753791  85.0846472   1.7424043  35.8904317  85.6062451   2.1607478
  36.8644920  85.6183758   1.0022815  16.3727474  54.1305208  70.9720230
  16.2485540  53.9254999  71.8987226  15.4992080  54.3664122  70.6597471
  40.5427876  74.6595850  39.7507461  40.1216641  75.4976263  39.9419864
  39.8730377  74.1547289  39.2894538  13.0417895  35.9226084  59.9483252
  13.2355034  35.7457113  60.8688784  13.6547887  35.3695297  59.4640017
  53.8397843  15.5466697   5.6833442  54.3440092  14.8715255   5.2292903
  52.9636723  15.4882380   5.3022369  72.1415237  70.2305665  13.5012897
  71.4358428  70.7620492  13.1328185  72.9385904  70.7248106  13.3098777
  23.8489699  23.0736160  40.9962559  23.6199260  23.6935616  40.3038406
  24.0781426  23.6244798  41.7447615  29.0711045  60.1056528  72.7754068
  28.1939030  59.8116207  72.5298548  29.0879750  61.0329103  72.5384665
  67.3849535  15.0986111  57.7151060  67.7567291  14.2532718  57.9669333
  68.1206608  15.5810225  57.3379517  75.0862135  12.4419212  70.7241011
  75.9300317  12.0062923  70.6039762  74.5401802  11.7895448  71.1628294
  87.9633504  23.4294411  28.3132442  88.0945355  24.3681046  28.4471686
  88.6434490  23.1793830  27.6878150  11.4694545  85.1957366  52.3304605
  11.0058543  84.7697356  51.6094685  10.9634063  84.9657395  53.1097221
  59.1309264  87.7696743  15.7865604  58.2381585  88.0809775  15.9358581
  59.1153601  87.4148741  14.8976882  16.0721293  78.1721178  11.5253432
  15.9749392  77.5721183  10.7858928  15.9120682  77.6290002  12.2971137
  12.5961387  18.1688535  58.5023880  11.8554103  18.4646428  59.0315962
  12.9168367  17.3883605  58.9542913  52.4591425  58.7445310   1.6765674
  52.9827741  59.2230764   2.3192485  52.9483012  57.9361775   1.5232022
  57.9210681  17.2656342  18.1492408  58.1769774  18.1659695  18.3496078
  58.0323845  17.1902653  17.2015269  37.4576208  57.9067507  16.0352214
  36.9858959  57.9847184  16.8644508  36.9303563  57.2997013  15.5158790
   7.4179500  32.8459692  61.0189676   7.6153928  33.6077285  60.4740191
   7.4697965  32.1021628  60.4187250  33.7147450  34.3938828  61.4005756
  34.2002416  33.5885334  61.5792799  33.0247760  34.1277599  60.7928324
   2.5991071  56.3935044   5.2407153   2.2251524  55.5909207   4.8770602
   2.3032488  57.0851818   4.6488650   3.2605189  37.0591021  32.8276896
   4.1016936  37.3419785  33.1863499   2.9193193  37.8325438  32.3786879
  68.6947325  65.2297011  23.7972148  69.5702103  65.0446024  23.4573444
  68.6647132  66.1832514  23.8751300  55.8692292  77.7866426  26.6405089
  55.6188730  77.9627386  25.7335647  56.2222794  76.8971005  26.6231139
  83.1617918  56.2049484  57.3389721  82.9100921  55.6273842  58.0595970
  82.9300060  57.0824337  57.6431608  68.9074707   0.3476012  62.0989847
  69.0438890   1.1906102  61.6665983  69.5741367   0.3197747  62.7852869
  77.6829106  18.8255641  24.1289790  77.0635110  18.8982054  23.4028228
  77.4243194  18.0247828  24.5851691  34.5080161  14.2419875  61.7410517
  34.0640044  15.0479805  62.0046091  34.4896936  14.2603374  60.7842016
  51.9399813  59.8856583   8.7705215  51.0489157  60.0168660   9.0945895
  52.3849657  59.4167581   9.4764693  35.2886605  72.9101911  16.5779479
  35.3796598  73.3981624  15.7595142  34.9721748  72.0478692  16.3087447
   9.9084920  37.4101639  62.8855848   9.9552476  37.7017903  61.9750929
   9.1783661  37.9044342  63.2582045  91.4023020  62.8816462  55.5761194
  90.6469800  62.6636410  56.1221886  92.1309861  62.4052715  55.9740114
  77.0740560  55.7967916  13.3945354  77.4880508  56.3751104  14.0351470
  77.6324323  55.8590904  12.6195701  81.7405536  72.3225212  66.4109850
  81.7483892  73.1913280  66.8126535  82.2332980  72.4303055  65.5974627
  32.9791346  56.5044656   6.6423782  33.4830226  55.7937506   6.2458690
  33.1466517  57.2600487   6.0791095  55.7789040  13.7657654  42.9524326
  56.0788870  12.9960871  42.4688673  56.4548206  14.4252682  42.7961349
  29.7835775  75.3588739   6.9444545  30.4506102  75.7710996   6.3954814
  29.2862123  76.0915199   7.3078902  80.6905403  69.2522669  64.4987011
  80.4729857  69.8015451  65.2518225  81.1636402  68.5090828  64.8729801
  36.1387375  66.3655129   6.2547572  35.2681625  65.9718886   6.1965259
  36.4583483  66.3745394   5.3525432  88.5449177  39.7169158   7.4014457
  88.2572228  39.3761489   6.5544780  88.3992654  38.9944884   8.0122645
  80.1915290  55.4218149  36.6434431  80.4233923  54.5845222  37.0452023
  80.4505863  55.3275299  35.7268000  83.5091986  72.5154352  73.9903498
  83.2417538  73.2525015  73.4413195  83.5008134  71.7618036  73.4002686
  28.8691902  34.3852139  71.1871338  28.7966847  35.2312469  71.6289520
  29.6856260  34.4433618  70.6908655  40.5678241   4.3400046  31.9828971
  40.4648511   3.3905169  32.0469649  39.7911708   4.6335456  31.5065749
  41.8460670  75.7210794  13.0804427  42.7384094  75.8739844  12.7696689
  41.2889901  75.9829703  12.3474296  53.1947735  69.2101970   3.3130344
  53.3142379  69.7475400   4.0961154  52.2569946  69.2614427   3.1281646
  22.8817487  50.3512573  42.3332024  22.5693011  50.5458450  43.2168007
  22.3761225  49.5844460  42.0638132   5.1995599  11.1079574  47.5386906
   4.6646848  11.1431599  48.3317232   4.6078795  10.7719803  46.8654394
   5.9323514  25.0223708  75.5856705   5.7196921  24.3934846  74.8960972
   6.4933211  25.6681800  75.1561594  76.7021230  51.7222348   7.5996192
  75.8565620  52.1411136   7.4390109  77.2529414  52.0072433   6.8705161
  43.6563054  60.4376176  17.9347404  43.5919956  60.9861544  17.1529468
  44.2789915  59.7512451  17.6951869  56.6273689  66.7430305  40.1932287
  57.4152470  67.1839714  39.8753500  55.9264612  67.0681429  39.6281981
  79.6310428  86.9718447  15.0134643  79.4612363  86.0486403  15.2007754
  78.9165929  87.2337666  14.4327815  43.6529589  32.5339818  27.7332711
  43.4820604  32.3911428  26.8023443  44.3035412  33.2358408  27.7524185
  57.6529625  88.2567301   2.0624192  57.6343158  87.9750052   1.1478074
  56.7908099  88.6451140   2.2110255  62.2041324  72.1601263  36.8595298
  62.9604176  71.5763417  36.8007072  61.4756420  71.5854063  37.0945438
  23.1341839  41.0570955  59.7655058  23.6755323  40.4846239  60.3090525
  23.2066751  41.9177961  60.1780272  18.7400353  23.0384707  50.1980782
  19.5146871  22.4784350  50.1480103  18.8896930  23.7139797  49.5366240
   8.8334620  51.0021210  43.3411264   9.3219537  51.2984514  44.1091108
   8.7372690  50.0582552  43.4679890   9.1301608  29.6220708  62.1281481
   8.8388163  30.1846790  61.4106369  10.0672150  29.8006940  62.2072411
  89.1633620  34.4103527  75.1867533  88.8266810  35.2236009  75.5629253
  88.3893182  33.9707994  74.8347855  93.6991158  24.7643113  57.0809269
  94.0717212  25.4842448  57.5899410  94.4589233  24.2695618  56.7740917
  58.8672021  86.9501820  24.1093333  59.0429476  86.7145291  25.0202735
  58.1597808  86.3632527  23.8423045  87.7482312  84.7417918   8.2259925
  88.0789321  85.6390992   8.1846603  87.9650777  84.4471159   9.1105064
  41.5405443  81.2700406  21.6349967  41.4530113  81.2305561  22.5873740
  42.2094241  80.6171503  21.4286788  37.2547910  56.1443809  24.5948585
  37.3460880  57.0967272  24.6254142  38.1543747  55.8173159  24.5977958
  46.5728071  73.7770119  36.1100276  47.2260800  73.9787951  35.4401382
  45.7506731  73.6968866  35.6263908  19.0189242  22.4034214  55.3856802
  18.6241233  22.7721977  56.1758518  18.3642328  21.7880535  55.0556231
  61.0996917  87.0966235  22.1977218  60.3839567  87.2346297  22.8181346
  60.8079937  87.5295058  21.3953765  85.3844244  11.2041280  10.4121383
  84.5969469  10.8235881  10.0231631  85.9553486  10.4542443  10.5793174
  66.1547855  77.6898017  29.9387916  66.3347128  76.8596378  30.3800281
  65.4885343  78.1104413  30.4823001  53.8255623  56.4459112  16.0412772
  54.3382290  56.9733217  16.6538509  53.1073192  56.0966077  16.5688594
   4.8821482   3.6332777  69.9254417   5.3127426   3.5671934  70.7777643
   4.5528728   4.5314541  69.8924446  18.9775670  78.1981087  73.7282276
  19.8815155  78.3896923  73.4784269  19.0529656  77.5166893  74.3962240
  85.3937115  17.5817156  71.5753794  86.2400838  17.3753250  71.1787796
  85.2921941  16.9347465  72.2734880  66.6226629  46.7791271  21.5540107
  66.8984202  47.6426688  21.8613990  66.4104131  46.2969422  22.3531898
  35.1306701  47.4007302   3.5612758  35.5245766  48.2709887   3.6222633
  35.8202049  46.8513021   3.1885799  14.7460143  49.3081137   9.9507697
  14.7469775  50.2278086   9.6854575  13.9517848  49.2112300  10.4761584
  32.1392775  47.6816702  68.4454536  32.5023198  48.2217932  69.1473770
  31.8472815  48.3107805  67.7857637  18.1693482  23.4047794  57.6840639
  18.5461843  24.2754889  57.8109121  17.5351310  23.3123851  58.3950233
  84.1500642  74.1840553  49.2813492  84.1745784  73.2627869  49.0227127
  83.3429410  74.5206881  48.8921642  71.5213063  80.9007039  44.9932082
  71.4569667  81.0534039  45.9359630  72.3918918  81.2212649  44.7575172
  27.1771288  39.6206617  62.0432949  27.1175599  38.8555169  61.4712477
  26.4822102  39.4917750  62.6888227  30.3691220  20.0209141  63.8327408
  30.3176713  19.8672545  62.8893566  31.2994552  19.9317837  64.0395403
  27.7081203  15.7563138  48.1243324  26.9342947  15.3750634  47.7095127
  28.1853580  16.1709762  47.4056292  50.2199459  68.7056446  53.9736843
  50.4176569  67.8897858  53.5137701  49.5423603  69.1225052  53.4413910
  10.1387231  20.1316783  26.9150813  10.4629962  21.0237881  26.7916949
  10.1595847  19.9981734  27.8626903  76.9280409  87.5369888  71.5090752
  77.7123915  87.2766276  71.0261297  76.3419246  87.8917621  70.8406162
   7.6489151  44.3269968  75.1405716   6.7841977  44.7364807  75.1691914
   7.5010669  43.4332848  75.4498529   4.7037032  61.8815759  12.9598506
   4.6301058  61.1103740  12.3976501   5.1351503  62.5371578  12.4118598
  20.7907653  46.2836790  47.7236080  20.1805258  46.0419178  48.4203053
  20.2439380  46.3585806  46.9415617  34.3980694  27.0522141  74.8224592
  34.7091699  26.2775946  75.2908754  34.6738100  27.7888155  75.3680038
  91.3622766  30.7032228  71.6849327  92.1484830  30.2537942  71.3748932
  91.3302081  30.5107760  72.6220417   5.3492016  13.2635581  63.0599594
   5.5560684  12.4263144  62.6446724   6.2010741  13.6735654  63.2097530
  10.5207717  35.8576393  73.4327507  10.4653215  36.6267562  73.9998627
  11.2819135  35.3758049  73.7563753   3.5747513  13.6234415  40.1880693
   4.0426019  12.9133677  39.7485900   4.2199728  14.3268061  40.2601719
  17.1919394  12.9837847  60.1460361  17.5893295  13.5221028  59.4615459
  17.0544410  12.1321070  59.7313404  28.0321688  86.6344777  12.5604613
  28.7279734  87.2465125  12.3206790  27.2287437  87.0512143  12.2488959
  70.1901617   1.9380194  43.6730814  70.9123196   1.9420655  43.0448246
  69.4898381   2.4226251  43.2361174   5.6654489  12.2421002  70.3047419
   4.8826736  11.8197501  69.9510288   5.3859907  13.1355274  70.5045509
  47.4843553  77.0662823  17.3190101  47.3154417  76.1666813  17.0389732
  48.3695379  77.0417920  17.6824458  48.1902209  66.6783014   0.1157649
  48.8216129  66.4911118  -0.5788819  48.2948485  65.9563127   0.7354577
  18.6448085  25.2330399  44.1546059  19.6010029  25.1896977  44.1612720
  18.3795762  24.5726800  43.5144424  63.8651303  87.1277180  26.0722430
  63.6206630  87.9342356  26.5261157  63.0987600  86.5611401  26.1611255
  15.1545334  57.8791904  70.6417894  15.0683367  57.3244143  71.4170456
  14.2822611  57.8771448  70.2476168  93.9040224  28.3112240  68.8109922
  94.3904544  29.1142368  68.6244822  93.4539677  28.4901094  69.6366310
  80.4240421  82.0129576   1.0232576  80.8038429  82.8914991   1.0355552
  79.9429801  81.9484201   1.8482717   6.6262524  31.0310885  16.3275512
   6.7429797  30.2694556  16.8954642   5.9158985  30.7822797  15.7361777
  44.1468096  16.6887021  66.2011766  43.2432127  16.7585242  66.5091896
  44.6638060  17.1337354  66.8726635   9.6673602  50.1974058  55.5616808
   9.1423666  49.4269991  55.3446913   9.9333674  50.0577402  56.4705086
  87.6605466  85.2400914  17.1390422  87.9425863  85.4620066  18.0264171
  87.7069810  84.2846289  17.1048625   3.0625090  36.8260694  63.4108496
   2.5006419  36.3037419  62.8383875   3.8388664  36.2825346  63.5452795
  71.8088010  67.5469246  19.2134936  71.7790797  68.2504836  18.5651477
  71.9386771  66.7511621  18.6976226  66.9095424  34.4985369   3.9861949
  67.5238612  34.8634317   3.3492454  67.4592999  34.0001228   4.5908244
  16.3659930  53.5298824  49.4188404  17.0837224  53.1607103  48.9042425
  16.7523038  53.7061548  50.2766991  37.7986875  65.2524939  22.9772361
  37.7739594  65.6653347  23.8404735  36.9670096  65.4965988  22.5710853
  45.6830931  19.5375836  28.3041668  45.3481340  18.6545134  28.1485319
  45.3975630  19.7488499  29.1930270  87.4436122  33.8953730   7.8361018
  86.7278678  34.0202519   7.2129233  88.0503804  34.6121022   7.6507171
  10.7198779  24.0270755  25.0388797  10.5515115  23.4062621  24.3300231
  11.6339223  24.2849061  24.9193938   6.2571113  22.5766083   3.4897407
   7.0311849  22.8949258   3.9541896   6.4569084  21.6620681   3.2899268
  23.6261439  55.6556368  55.6031227  23.9467239  55.3688812  54.7480059
  23.3787680  56.5709114  55.4715586  52.6273710  19.8605582  19.4711860
  52.6945073  19.6223637  18.5465320  53.5327488  19.8731896  19.7816070
  93.6674172  42.8509185   1.1785730  94.3645770  42.2893569   1.5174659
  92.8580648  42.4230620   1.4580615  29.7684574  34.7678232  36.9408631
  29.1239715  34.6749234  37.6424623  30.3464437  35.4705524  37.2380757
  41.4548445  50.8438015  76.6558552  41.4368057  50.2216816  75.9286213
  41.4563704  51.7037296  76.2354326  46.8352747  41.4137125  49.1607046
  46.8517113  42.3659182  49.0644741  46.1359739  41.2489414  49.7932100
  88.1469961  60.2063131  50.6458521  87.5294115  60.9253263  50.7794428
  87.5984623  59.4226122  50.6118870  80.9232190  54.6819916   0.8100398
  80.8754066  53.8191774   0.3983386  80.4076436  55.2496329   0.2371534
  19.4305873  54.0930414  71.4104748  19.1199768  54.8595762  71.8923187
  18.6334896  53.6785698  71.0802031  48.8884163  32.8555083  54.9755239
  48.6639643  32.8439450  54.0450811  48.8249493  33.7772322  55.2257776
  62.8188399  21.7518273  32.8365501  62.0997265  22.1750417  33.3055957
  63.4167364  21.4622798  33.5256942  23.5964060  80.0249195  56.5642071
  23.1402516  79.3135977  57.0138550  23.2340908  80.0195122  55.6782436
  81.2965775  77.5507593  63.5166645  81.4478111  76.8441296  62.8889418
  80.3553581  77.7177477  63.4671545  25.1252334  16.4646718  33.7901576
  25.7444207  15.9164950  33.3081420  24.7315471  17.0257375  33.1219848
  42.0253658  29.5142365  50.1841021  42.2268534  30.4153228  50.4364491
  42.6314592  29.3248725  49.4678450  80.2812678   6.3696381   1.4847930
  79.9162847   7.1494481   1.0665591  79.9018199   5.6374308   0.9988673
  43.4027624  53.7601566  26.2381983  43.8716412  53.1204939  25.7022738
  43.2088566  53.2947397  27.0518422  17.2563617  23.5604712   3.0468162
  16.4399116  23.5205170   2.5487741  17.1786324  24.3578717   3.5705932
  67.0571280  21.8339086  73.8298273  66.4733887  22.0519614  73.1032372
  67.7578497  21.3201690  73.4282255  47.9013348  71.0802698  65.5393028
  48.4231377  70.5136299  64.9710798  47.7724743  70.5666113  66.3366652
  11.4869608  87.5320330   3.4649833  11.3328565  88.0756989   2.6923831
  10.7292474  87.6941815   4.0269549   5.4497755  58.9788342  45.2464867
   4.9295747  58.8266563  44.4575214   6.0361135  58.2238626  45.2960873
  37.4382464   1.0920617   8.0932410  36.6587750   1.6308543   7.9577430
  37.6032178   1.1420056   9.0347942  51.5308908  58.3220890  15.1319583
  51.6774801  57.6048997  14.5152076  51.4277962  57.8910723  15.9803851
  43.6321497  19.9858630  70.6369543  42.9324293  20.6389880  70.6294823
  44.1638613  20.2132177  71.3997269  27.3279166  30.2117562  71.1225462
  26.4506865  30.5403376  71.3193560  27.8803992  30.5742025  71.8150949
  62.1834400   4.8346812  69.9950790  62.0734814   4.5784670  69.0793848
  62.9317096   4.3210989  70.2993011   6.9531441  69.7267199  63.4963465
   6.8857932  68.9159536  62.9920053   6.9253898  70.4211998  62.8381968
  14.5751540  17.5449130  17.2927077  14.9417655  18.3074948  16.8451675
  14.7779099  16.8083426  16.7160113  37.6489925  55.2867889  42.6279640
  37.7391434  54.4823837  43.1388807  38.1374454  55.1151752  41.8228579
  57.9093555  86.2547913   4.8774608  57.5603011  85.3818980   5.0576003
  58.7249258  86.0934105   4.4030841  73.4986642  76.0956445   7.5472911
  74.1842559  75.5595532   7.9457839  72.7014592  75.8544007   8.0189975
  15.3020704  18.2013428  67.7075148  14.3554103  18.2780790  67.5884390
  15.5461502  17.4302995  67.1955109  92.6054863  47.9531813  76.1286831
  93.1719205  48.7180328  76.0267735  91.7638563  48.3138895  76.4075756
  61.5546945  79.9278846  12.4646743  61.0127452  79.1802993  12.2124084
  62.3383573  79.5363012  12.8503783  49.1791725  48.6301088  40.7452965
  49.0282536  47.8052425  41.2068653  48.3129501  49.0329790  40.6853390
  16.2283580  17.0871827   3.2522376  16.6936986  16.7242667   2.4985965
  16.0150926  16.3256308   3.7914832  77.1511650  13.1101918  51.3278770
  77.7766848  13.8343740  51.3051176  76.4895821  13.3446062  50.6770372
  89.1182238  19.1018531   5.8844741  88.4150535  18.7333581   6.4192565
  89.9018175  19.0169951   6.4276202   3.1709568   5.7984158   5.5417045
   3.3869354   5.9792039   4.6268828   2.6572291   6.5563199   5.8208068
  64.7107917  35.8719298   2.9579290  65.4793331  35.3653428   3.2205089
  64.1218640  35.2275321   2.5653203  90.1318362  81.1232105  17.1573718
  90.8412221  81.7512956  17.2934230  90.5710557  80.2747240  17.0991786
  79.0933183  82.8258124  33.0939658  79.3286708  83.6448422  32.6580318
  78.3669570  82.4789253  32.5759872   0.3125684   1.3076731  20.0168212
   0.2749888   2.1923730  20.3803142  -0.1865800   0.7734868  20.6346686
  47.9130963  73.8201561  19.0772708  48.8060263  73.6515704  19.3780788
  47.9833761  73.8497963  18.1231101  24.3483233  23.9285731  63.9284372
  23.5205030  24.1215396  63.4883118  24.1310143  23.2390046  64.5557356
  67.5858238  39.6982243  -0.1139800  66.8789390  40.3151855  -0.3034703
  67.3720411  39.3471923   0.7504876  91.5005719  56.5593576  73.2596350
  92.1333285  57.1371317  72.8329897  91.8341095  55.6770468  73.0968189
  14.5104814  52.0731401  48.0904722  14.9784541  52.4225569  48.8488531
  15.0530732  52.3175430  47.3407459   6.3599408  50.6111479  57.7795172
   6.9109190  50.2754498  58.4865952   6.9127709  51.2481499  57.3269272
  67.4071312  12.7988255  49.9580812  68.1394720  12.7054811  49.3488216
  66.9619846  11.9519305  49.9290514  40.2045107  14.6535420  60.7755518
  39.4569921  14.6722341  61.3731289  40.3806591  13.7223053  60.6413794
  12.3010127  15.5446240  15.0242313  12.5162951  16.1255786  15.7538684
  12.9157369  15.7904383  14.3329127   8.2188575   3.9849374  12.6971992
   7.6224057   3.5349461  13.2955154   7.7215187   4.7419068  12.3875507
   2.5839107  10.4812142  42.9000171   2.8534524  11.1665818  43.5114463
   2.2865645  10.9560439  42.1238978  83.5866359  77.7549520  16.0559161
  84.1070798  77.2227493  16.6576846  83.9274696  78.6427036  16.1652930
  38.0351949  28.7028193  55.0587034  37.3054171  28.1134176  54.8682833
  37.6952410  29.2963886  55.7282829  93.2361990   2.7460715   4.0487178
  93.5674054   2.6619622   4.9428447  93.4479958   3.6453721   3.7984546
  45.9384298  12.6535225  62.1148014  45.1071501  12.7633047  61.6531181
  46.4296484  13.4507751  61.9164944  31.1058283  37.8807306  65.6356382
  31.3057160  38.8166714  65.6527472  30.5526304  37.7680540  64.8626518
  34.5074511  31.4172411  61.1771011  35.2038717  30.7614112  61.2104893
  34.2073655  31.4018893  60.2682829   0.6292471  52.2076178  23.9114237
   0.9562014  52.4842072  23.0553675   0.4372424  53.0255032  24.3701553
  49.6409321   3.0974686  51.0555029  49.3237305   3.9103472  51.4490032
  49.0886545   2.4151598  51.4371777   1.3201201  48.9119434  54.1115522
   0.3748675  48.8242769  54.2342043   1.5770969  48.1127882  53.6516094
  66.8428230  57.0700359  69.1956139  67.4447107  57.4881601  68.5798693
  67.2682762  57.1643448  70.0478601  90.1076802  65.1552391  63.1710005
  89.9412652  65.0791073  62.2314596  89.9041273  64.2880249  63.5213423
  20.0956872  83.1547156  21.2310107  19.9273530  84.0412202  21.5503963
  19.2569450  82.7030888  21.3246902  79.8212821  20.0996777  10.7766803
  80.7120687  20.4268119  10.6513198  79.8492521  19.1989896  10.4538711
  46.1566210  71.7626143  76.4327192  46.3944817  72.3345423  77.1624804
  45.9129095  72.3625660  75.7278061  42.4222755  14.6901500  70.2808380
  43.3365250  14.8085284  70.0232220  42.2891235  15.3211451  70.9881878
  85.2550085  65.0160789  47.8531933  85.1655765  64.7897673  48.7789440
  85.1919349  64.1782379  47.3946333  80.5804542  75.7180491   3.6904700
  80.1454881  76.5091935   4.0084727  81.2991193  75.5757609   4.3065150
  20.1132154  52.6547146  75.7359695  20.0003147  51.9199800  75.1329327
  20.8791280  53.1223774  75.4029560  81.8070668  20.5183789   3.3552917
  82.3990017  21.1694667   3.7320312  82.3205132  19.7107741   3.3357318
  79.1951412   2.7542254   7.7418025  79.8881430   2.8391644   7.0870002
  78.4727377   2.3362157   7.2731574  90.3034240  10.7080981   3.8438876
  89.9230010  11.1240384   4.6175178  90.0255472  11.2610242   3.1136211
  84.9576572  69.2364874  45.7922061  85.0805572  69.6843806  44.9552329
  84.0096954  69.1284075  45.8690818  20.5421233  32.2090244  56.0161495
  20.6711197  31.4574146  56.5946627  20.6591129  32.9709268  56.5836430
  10.7622170  40.0435352  72.5881338  10.6431770  40.7797766  71.9881248
  11.5364647  39.5879745  72.2576237  50.7479158  82.3265019   1.6350396
  50.0766686  81.6496792   1.7220386  51.2226251  82.3012248   2.4658521
  22.3016715  75.4198408  68.6537981  22.4225807  74.8016596  67.9330587
  22.2208285  74.8679495  69.4316864  67.5346911  15.5221221  49.3779548
  67.9530734  15.7257983  48.5414680  67.7424100  14.6004340  49.5315059
  10.8247296  14.6889207   3.5722335  11.0251586  13.8837001   3.0950721
  11.2925641  15.3734919   3.0939849  63.6259058   1.6876131  75.5130386
  64.3244150   2.1245009  75.0257540  62.9231337   1.5729815  74.8733521
  52.9562214  63.9296439  21.2713607  52.2111347  63.9872733  20.6732352
  52.9038647  64.7280183  21.7968066  28.3181977  37.0996857  18.6479473
  29.0539765  36.5303969  18.4226227  28.5064149  37.9235673  18.1984746
  48.9277458  27.5219321  56.5422106  48.4852886  28.2780862  56.1565971
  48.4938526  26.7645264  56.1493969  17.0656602  27.0603511  16.6740401
  16.5309779  27.8045365  16.3973888  17.5076692  27.3645255  17.4667152
  65.7923568   2.9491374   0.8450158  66.4665935   3.0133054   0.1686128
  65.1652140   3.6377141   0.6241449  78.7574580  67.6047793   0.3668483
  78.7134126  68.4731403   0.7671531  78.8155750  67.0019904   1.1081298
  38.7179184  37.9242420  48.2408762  38.9586377  38.6941791  47.7256250
  39.3252993  37.2431993  47.9519129  93.3615685  38.2882404  58.4795618
  93.6629963  38.7943316  57.7250814  92.4065399  38.3236074  58.4256077
  24.0709083  54.3300101   9.8916705  23.6368291  55.1789328   9.9761470
  24.3650786  54.3009516   8.9812644  21.1065245  36.3794231  67.8216887
  20.3448915  36.8888497  67.5448704  21.0771275  35.5909538  67.2797632
  62.3906946  44.3166542  73.9783859  62.6491308  43.6586666  74.6237469
  62.9817200  45.0527143  74.1369247  71.1650422  76.7551771  29.2634185
  70.4791787  77.3532405  29.5603068  71.7785362  76.7113009  29.9968608
  84.9573857  36.2112376  40.6909831  84.5291263  35.8458850  41.4651569
  85.8737451  35.9486052  40.7778152  17.1560657  24.4613457  72.7489281
  17.8785324  24.7736859  73.2936430  17.0077658  25.1674199  72.1198797
  35.5390470   0.4581782   4.3196471  36.2060134  -0.2241948   4.2437728
  35.9538524   1.1409661   4.8468764  60.8074999  68.5050488  66.3173485
  60.3789043  67.6871920  66.5696335  60.7073021  69.0734339  67.0809793
  85.9803775  83.1335655  18.7147220  85.0557760  83.1647983  18.4690173
  86.3353494  82.3961630  18.2182677  53.4745339  66.4613357  29.6376784
  53.7454918  67.0557681  30.3372939  52.8602746  65.8600202  30.0587924
   2.7596024  22.6059103  29.6852422   3.5730156  22.1840525  29.4084263
   2.5938538  23.2693052  29.0154171   4.4904057   1.3236043  23.5646995
   4.4272677   0.4239890  23.2438548   4.6524946   1.2322041  24.5036300
  55.6533459  59.8215416  20.3835567  56.1808136  59.5453182  21.1330302
  55.6488255  60.7774451  20.4331477   8.7213005  86.8895855  52.3406108
   9.3449129  87.4497500  51.8784888   8.2390608  86.4430705  51.6446956
  60.0855115  70.9238115  44.8223289  61.0357621  71.0175910  44.8891242
  59.7789887  71.7857233  44.5405753  17.9768205  24.7101212  31.5291500
  17.1910632  24.5446420  32.0501423  18.6880755  24.3214822  32.0383739
  31.9737832   4.6335503  45.7711394  32.7348964   5.1866385  45.9472926
  31.2215249   5.1897666  45.9735377  26.0579905  50.5688837  18.5320171
  25.5423662  49.9500665  19.0491565  26.9136742  50.5846366  18.9607223
   9.1195202  27.9375196  25.1563835   9.9546623  27.7814054  24.7154784
   9.3520260  28.4342408  25.9408855  16.1571872  40.4716206  72.8529692
  16.7000163  41.2505770  72.7313232  16.4920712  39.8439312  72.2125864
  82.6570514  80.6287566   2.1142467  82.4607852  79.6971479   2.2133239
  81.9994834  80.9476390   1.4960654  27.3491788  21.1247206  69.2245340
  27.2063065  20.4684329  69.9065208  27.0051527  21.9364142  69.5974016
  25.4393879  68.7129870  12.4404796  25.6544939  69.6345964  12.2969611
  26.0408875  68.4311643  13.1296905  49.2044640  39.0601444  67.6897764
  49.0410995  39.5734525  68.4810162  49.3132687  38.1627846  68.0046463
  27.8377530  11.5760142  73.4846926  27.6426834  10.6431681  73.3954573
  27.4828360  11.9721228  72.6888514  21.7960517   6.5680119  19.9637492
  22.2699182   7.3617789  19.7155173  22.3534219   6.1521289  20.6214793
  26.9225121  17.7888727  45.1979780  26.9107223  18.3436918  44.4180632
  27.8133535  17.4401891  45.2304220  15.2668250  22.4964952  72.6616383
  15.0372458  23.0583668  73.4017897  15.9931934  22.9494619  72.2333336
  30.0659943  28.8611460  76.6863632  30.8603644  29.3932414  76.6407394
  29.5799208  29.0879631  75.8935738  21.3778567  46.6220856  33.6426806
  20.8455563  47.4173450  33.6639071  20.7457614  45.9084225  33.7285519
  68.2836154  88.2396021   5.5568870  68.9164713  87.5241604   5.6191047
  68.0515078  88.2740441   4.6288951  48.4637302  17.5686642   4.4638332
  47.5649888  17.8857419   4.5530398  48.4360928  16.9793603   3.7100490
  44.7471952  78.8200569  57.2808504  44.0184832  79.4331312  57.3775291
  45.5240583  79.3771553  57.2322893  18.1918876  13.1830975  24.2425616
  17.2906081  13.3771989  24.4999583  18.3333413  13.7056157  23.4531386
  31.9953489  54.7715330  47.0022869  31.5086770  55.5943632  46.9539690
  31.7111921  54.3731451  47.8249502  30.3425550  43.5369205  68.2278156
  31.2632775  43.3830690  68.4395456  30.3651857  44.1400480  67.4848747
  14.5858133  47.6189423  68.1685829  15.2538037  48.2679605  68.3894920
  14.1336071  47.9891586  67.4105072  60.9911002  37.9733130   6.1361964
  61.3660947  38.7416217   6.5666850  61.6599491  37.7003237   5.5082210
  12.8683917   3.6331364  10.1393588  13.3876912   4.3971869   9.8887904
  12.4104516   3.3813283   9.3374141  60.8906821  86.7783490  17.4427302
  60.8191350  87.3851719  18.1795390  60.2569059  87.1026888  16.8029197
  11.4418427  29.6100470  29.0409263  12.3237292  29.9224183  29.2432578
  11.2554090  28.9622685  29.7205337  19.4142405  15.6115338  14.4157489
  18.9809529  16.1201665  15.1011642  20.2577941  15.3667447  14.7961696
  89.8877269  14.5065448   9.4551070  88.9330823  14.5710561   9.4281848
  90.1747710  14.8468014   8.6077197   3.2824389   1.2523314  41.0138305
   3.9551203   0.7679316  40.5352100   2.7794163   1.6995522  40.3332503
  21.5024209  39.6901369  68.7614393  21.0083747  39.7034740  69.5811796
  21.2146568  38.8902974  68.3213472  41.6909122  17.1133375  67.3172951
  41.5317488  17.9943442  67.6560116  40.9710121  16.5884876  67.6673031
   0.8456359  51.8151855  63.3780479  -0.0339382  51.9451427  63.7325811
   0.9933372  50.8717299  63.4436655  78.3056596  79.4972125  10.7816871
  79.0576223  79.1198149  10.3252299  77.6272538  79.5655098  10.1098712
  76.4362353   6.8456742  12.1726211  76.0035473   7.6423737  12.4796756
  75.7383198   6.3388345  11.7575820  13.6618678   7.5837228  28.0860599
  13.6907546   8.4013888  27.5892528  14.3641011   7.6702258  28.7307342
  34.7775531  37.0106149  62.7079725  35.1618767  36.2219596  62.3251534
  34.7592640  37.6416516  61.9884634  68.3939222  66.6512480   1.6775020
  69.0394047  66.9297877   1.0278876  68.9164570  66.3109556   2.4037202
  89.8172194  17.8295562  20.1086124  90.3092343  17.4629685  19.3739207
  88.9505321  18.0156180  19.7474082  80.4487088  76.8136111  21.4882453
  80.3237680  77.7158418  21.1939605  81.3709977  76.6292277  21.3104423
  21.0923934  47.7106190  62.3245287  21.0173798  48.0345392  63.2221270
  20.1887202  47.5559998  62.0493889  12.1976495  27.6423335  71.1653709
  12.9737389  28.0112696  70.7437038  12.1970189  26.7219114  70.9025955
   6.0671751  14.6222350  19.9454291   5.9806005  14.5584246  20.8965667
   5.9523670  13.7245223  19.6337207  77.2892574  74.7064510  12.2644408
  78.1453231  75.0197068  12.5564178  76.6633561  75.3048792  12.6723083
  45.0532773  76.3973823   2.2455104  44.9646726  77.3401680   2.3852714
  45.9974900  76.2408677   2.2595437  55.7762936  76.1395827   1.5074142
  56.0116962  77.0064345   1.8381484  55.8042959  75.5732646   2.2786029
  57.0018724  74.4043889   6.9096549  56.2270239  74.9364891   6.7287810
  56.8567041  73.5953799   6.4190753  88.6942533  83.1550827  28.7199576
  89.3470767  83.3605996  29.3891509  89.0164617  83.5888019  27.9298289
   9.1666190  27.1587130  17.3845466   8.9091985  27.2679278  18.2999976
   9.7377364  26.3905617  17.3863490  20.7339637  18.0043313   3.0131562
  21.0495536  17.4185797   3.7012942  21.5008418  18.1619164   2.4624332
   8.6677980  69.2017603  57.2828579   8.9417738  69.0626574  56.3763142
   8.8851714  68.3822823  57.7271938  32.6568580  39.2159963  37.0889592
  33.0296922  39.6950173  37.8290701  32.1265173  39.8648477  36.6264009
  78.6298561  54.7124100  73.5951328  78.5655928  55.6655884  73.5355663
  77.8028774  54.3935394  73.2336617  92.4636084  21.5934989  12.9786189
  93.2414371  21.6504475  12.4236663  92.2488219  22.5033852  13.1840594
  44.4486380  40.8703995  58.5731983  44.3010187  41.3809299  59.3693113
  43.5703659  40.6409216  58.2695341  74.6021846  83.4765044  14.4451125
  73.9062598  83.2839122  15.0734599  74.2805579  83.1231084  13.6157115
  27.9081440  45.9803820  70.9434652  28.4644222  45.2058411  70.8606005
  28.5131288  46.6866112  71.1703348  46.5329185  88.9394989   5.7906135
  46.0589627  88.1327715   5.5886539  46.0734752  89.3042603   6.5469821
  37.5769234  11.9187057  53.7441301  37.3390174  12.7697909  54.1119432
  37.3254204  11.9773602  52.8224230  66.6693735  40.6974602  53.1248951
  66.3910437  41.4745903  53.6094904  66.3285923  39.9624920  53.6347151
  94.2375762  44.5487830  14.5112498  93.6278111  44.6831652  15.2367576
  93.6921293  44.6039340  13.7265952  74.7922519  85.2458229   6.3002952
  75.2827314  84.7427884   6.9503863  75.3003696  86.0488882   6.1856826
  20.2280378  46.3502884  40.2016544  20.6564808  45.5125856  40.3774881
  19.2936182  46.1661959  40.2975845  91.7820399  38.4036684  46.2238789
  91.7775144  39.1738653  46.7922163  92.6554184  38.0283594  46.3360548
  64.5235065   0.1089579  64.7326517  64.9706772   0.5429751  64.0060854
  64.9775008   0.4224402  65.5148602  32.9326677  84.3358612  57.8806114
  32.9819250  84.8722076  57.0893192  33.3684802  83.5174847  57.6427746
   7.1289915  47.6913261  74.8205662   7.9312837  47.2814751  74.4971704
   7.3640150  48.0287218  75.6849480  27.9003382  44.5216990  52.7184486
  28.4018946  43.7457657  52.9686546  28.1653190  45.1916599  53.3486652
  64.2131409   2.3726317   4.2396911  63.9645956   1.6568753   4.8246272
  64.0184102   2.0434615   3.3622153  30.8926606  28.7330532  71.5395546
  30.8094072  29.6146369  71.1760855  30.0338054  28.3342409  71.3997269
  50.9235287  24.8098755  73.7847757  50.9560251  23.8909888  73.5186481
  50.7146263  25.2849293  72.9804659  81.7350197  19.8749447  69.0754938
  80.8827019  19.6451783  69.4456196  82.0599079  19.0579581  68.6970615
  75.8712930  18.0850646  14.5431693  76.3182408  17.5002667  15.1551231
  76.5696484  18.4261557  13.9844306  79.2285230  48.6172915  72.6009512
  79.5957722  48.9202070  71.7705250  78.2985010  48.4846830  72.4173594
   9.6525351  26.3448760   4.4873317  10.4521720  26.1559579   4.9783786
   9.1914432  25.5069348   4.4489272  31.0609198  70.2458763  68.4292841
  30.2062321  70.3793144  68.8390827  30.8812857  69.6776867  67.6802015
  42.3171377  18.7659872  49.7171831  42.3763227  18.6079836  50.6593943
  42.3836756  19.7168028  49.6291304  31.5836017  27.3818108  25.3199847
  30.7497184  27.1175811  24.9313338  32.1037833  27.6957556  24.5803340
  62.4787286  81.8068495  34.3851169  61.6256288  81.6421738  34.7867854
  63.0470684  82.0429554  35.1182445  33.9189959   9.4809639  47.6568842
  34.4858360  10.2381742  47.5100565  34.5230937   8.7449479  47.7547455
  55.4778624  34.9916339  72.2223902  55.2994728  34.3449283  72.9051638
  56.0943699  34.5552850  71.6343880  20.4963462  26.3914058  27.4863418
  19.8006885  26.1118027  26.8912681  20.1031892  27.0972964  27.9995425
  71.3328404  10.4494664  10.5558379  71.1410427  10.4256818  11.4933189
  71.7746121  11.2881610  10.4229434  31.5172935  86.6393089  62.0452261
  30.8322477  86.6288090  62.7136850  31.7061424  85.7153606  61.8812704
  17.2674100   4.9530694  38.8916190  17.4813191   5.8350178  39.1960033
  17.9567592   4.3993756  39.2582973  83.0298045  76.5169421  20.4218181
  83.3999017  75.8270159  19.8711284  83.7783674  77.0675722  20.6513579
  19.5788018  26.9829985  18.5420592  20.0147931  27.6851126  18.0591663
  19.5300357  27.3056409  19.4419177   3.3494482  61.6725349  54.5927477
   4.0682898  61.5720701  55.2167654   3.2177744  60.7942581  54.2356396
  49.3848085  69.6512318  72.5872946  49.7455025  69.8485804  73.4516954
  49.4614267  68.7004757  72.5071621  51.7884016  65.0478840  74.4875526
  52.5483513  64.6397543  74.9024534  51.0430193  64.7542286  75.0113869
  74.1670659  78.6514631  19.6095832  74.1741088  79.3126717  18.9175017
  73.2863811  78.7029233  19.9810489  42.4116850  79.5386457  47.8352785
  42.2857904  78.8028574  47.2361135  42.7352095  80.2475452  47.2793770
  56.6850090  68.5091686  48.0761909  57.2408104  69.2499113  47.8340769
  56.7104292  68.4933090  49.0329218  63.7597322  73.0284357  75.1884604
  62.9973125  72.4773264  75.0117731  63.8317919  73.5917711  74.4179440
  40.3800869  70.6752300  68.6749697  40.7995987  70.7658148  69.5305634
  41.0545254  70.2873135  68.1173992  17.7875964  39.6811244   7.2564681
  17.2059457  40.0168750   6.5744193  18.0557649  38.8187072   6.9393619
  93.2589394  13.8150546  19.2086585  92.9497057  14.7080371  19.0563567
  92.6866275  13.2683226  18.6703475  38.8787317  78.1168270  74.6850348
  38.9474344  77.7169991  75.5520105  39.5147181  78.8320446  74.7000408
  77.1925205   6.2256572  20.2507289  76.5396148   6.1829945  20.9493907
  77.9798264   5.8397910  20.6347640  18.7408845  21.6196486   3.2355006
  18.2328717  22.4289366   3.1788333  18.1895463  21.0259578   3.7451919
  78.5520032  70.1299420  23.4169467  78.1606105  69.7351351  22.6377376
  77.8734687  70.0583210  24.0882857  29.2891765  77.9010820  59.0427589
  29.8732638  77.7256107  58.3050013  29.1777682  78.8517714  59.0391874
  16.3050668  18.5533950  29.5955642  15.9824244  17.8773352  30.1914580
  17.1916644  18.7410208  29.9037440  65.2476501  57.2775269  59.2973566
  64.6920443  57.5790071  60.0161362  64.8098469  57.5941038  58.5072041
  67.5121871  13.5132119  13.7637313  66.9382897  13.7115189  13.0237659
  68.3738232  13.8271806  13.4894450  19.1479222  14.1508433   4.1870101
  18.2999961  14.1067120   3.7450774  19.3285100  15.0875518   4.2657550
  67.6443175  85.3949061  14.4937976  66.9545820  85.4560080  13.8329204
  68.3334258  85.9779969  14.1754134   0.6546323  34.0040633  10.4014571
   0.4314510  34.3227574  11.2760242   1.2935845  33.3082816  10.5559142
  34.8720519  17.8379246  23.0393870  34.9436299  18.2985303  22.2033580
  35.7453649  17.9051825  23.4254344  13.9410703   7.7866933  15.0585921
  13.9517896   7.6490971  14.1113933  14.2569463   8.6828706  15.1740153
  22.6234007  53.9743519  75.6535769  23.1415701  53.3610916  75.1323843
  23.1398726  54.1093349  76.4481020  12.4955189  63.8390827  70.6576204
  11.9780040  64.1520548  71.3995504  12.0680797  63.0241251  70.3942394
  85.2748871  71.5934801  65.6316090  84.6641731  72.0697165  65.0690603
  85.4166985  72.1756649  66.3780546  84.2680556  61.7201850  13.1962093
  84.4384653  61.6001364  14.1304381  83.3739311  62.0597121  13.1575378
  16.1484015  19.8511720  57.2170305  17.0124209  19.6370447  56.8651056
  16.1354208  20.8075428  57.2547102  68.9198971  76.1915922  49.3082476
  68.8172531  76.8565893  49.9890375  68.0351639  76.0586691  48.9679432
  85.1689056  73.6602583   5.2008994  84.9291852  73.6518946   4.2742332
  84.3338588  73.5997334   5.6648620  46.4830351  51.3352728  73.8100147
  46.3001442  52.2486305  74.0303898  45.7171154  50.8550072  74.1245651
  32.0376277  30.1666951  51.9045162  32.4773932  30.8120155  51.3509798
  31.2646770  30.6231761  52.2367811  21.7336750  83.4627914  75.6915140
  20.8834553  83.9024925  75.6869650  21.9137931  83.2992458  76.6172791
   2.1305935  37.7368972   8.4270080   2.2325699  38.6820170   8.5391029
   1.6491024  37.4540660   9.2044528   0.5819599   3.5348269   0.4185422
  -0.2981837   3.1786105   0.2973350   1.0926215   3.1610390  -0.2996079
   1.6294496  55.1216456  12.8733905   1.2223904  54.6370456  12.1552737
   2.5681202  55.0754306  12.6917632  28.3906762  34.6913335   5.4203017
  28.9906184  33.9568278   5.5499347  27.5397889  34.3589207   5.7061751
  32.9722691  68.7132406  69.9189806  32.2832084  69.1284323  69.4002867
  33.3695054  69.4329405  70.4093552   6.4351503  44.7573992  12.9091437
   6.6351120  45.4821727  12.3167403   6.4658205  45.1468608  13.7829955
  31.3381505  40.8564663  66.4336824  31.4865017  41.7383146  66.7751026
  30.3877926  40.7456398  66.4613914   6.4714281  51.7159983  53.9893420
   6.7653505  52.1952769  53.2146628   7.1728985  51.8406913  54.6285804
  69.6284342  80.3079605  43.2488012  70.2335167  80.5882454  43.9354992
  69.1415596  79.5826101  43.6400080  62.3642445  79.7921753  49.5167112
  61.5541887  79.5806742  49.0526915  62.4117517  80.7478809  49.4922304
  47.0722151  42.1350479  75.2080917  46.3117552  41.8606949  75.7206011
  46.9824409  43.0853176  75.1362467   4.2599575   1.6269299  15.1353438
   3.4557406   2.0124861  14.7877582   4.1697900   0.6895587  14.9637683
   6.1076559  12.1941286  74.2381382   6.7950405  11.5884215  73.9609146
   5.5309118  11.6656405  74.7897673   8.7267619  30.6932664  59.6293736
   8.1808281  30.1511002  59.0599489   9.5900524  30.6809044  59.2160845
  42.4518538  87.7773666  44.2085123  42.0608521  87.2128201  43.5417032
  41.7038345  88.1557465  44.6706057  53.3347273  74.6727085  44.2334795
  53.4965849  75.0601292  45.0936747  53.7877178  73.8299417  44.2612886
  30.9159994  62.1351051  74.2806959  30.9088874  62.3338270  75.2170134
  30.0225306  62.3182726  73.9901829  59.9561098  13.2809168  73.3683014
  60.7299236  13.7988478  73.1465197  60.1216915  12.4232584  72.9768467
  89.3316177  14.4557482  72.7898026  89.1562131  14.8345286  71.9284105
  90.2602819  14.2250544  72.7654123  51.3337533  20.5644986   3.0292018
  51.2557904  21.4887759   3.2655700  50.8770768  20.4922625   2.1910794
  92.9732609  57.5708246  47.7402163  93.5979176  57.0140219  48.2049751
  93.1507206  58.4533262  48.0657005  57.5844139  50.2060267   7.2004111
  57.9283804  49.5863864   7.8438171  58.1916219  50.9453341   7.2314723
  16.0841529  16.6108176   6.7646201  15.5220382  15.9649226   6.3367446
  15.5712335  17.4189278   6.7543872  23.4437323  70.9540129  62.1595192
  22.7822733  71.5316534  62.5403547  24.2781258  71.3711262  62.3740768
  78.1971267  10.3648192  62.0487690  79.1450885  10.3729349  61.9163561
  78.0823472  10.0293738  62.9378891  25.3406541  20.2189347   1.0785421
  25.9995715  19.5246264   1.0766967  25.7550733  20.9411713   1.5506251
   0.5374281  23.0024812  12.2269042   0.7244341  22.0637271  12.2257312
   0.7215969  23.2822654  13.1235870  55.3607321  64.3341017  56.4926863
  56.0798836  63.8083935  56.8429518  55.2666235  64.0381956  55.5872536
  59.4529438  43.3219147  64.9509811  58.8701963  42.5668287  64.8704481
  60.2023411  42.9941559  65.4481745  15.6011260  49.1728401  65.1592302
  16.4203835  48.7206650  64.9577713  14.9458039  48.7343073  64.6165752
  93.8428623  33.1000897  19.0035709  94.0408665  33.6886164  18.2751067
  94.6994216  32.8586718  19.3560680  79.1193295  73.2831335  64.0491295
  80.0140858  73.4496784  63.7526512  78.9468575  72.3771191  63.7929535
  57.9521179  48.1199741  62.9688740  57.5410843  48.7755680  63.5323286
  57.3089790  47.9607916  62.2780323  34.4025437  13.7279650  17.8896125
  33.9912812  14.3186757  17.2586139  34.1999118  14.1106459  18.7432654
   6.6559283  23.8407418  10.7903846   7.2284286  23.5491559  10.0808414
   6.3538782  24.7060248  10.5142005  67.0088816  65.7455206  45.4718637
  67.5400305  65.5501747  46.2438440  67.1450806  64.9965048  44.8916435
  11.0629737  45.8746719  47.4015856  10.5241561  46.6530514  47.2600603
  11.2171721  45.5271530  46.5231276  31.9827191   2.1546075   5.9556277
  32.1227042   2.9230544   5.4023440  31.9079415   2.5081012   6.8420203
  17.7441275  44.5588446  67.5936031  17.8940392  45.2822590  68.2022333
  17.8833556  43.7709856  68.1190777  66.6806078  49.4527102  49.0614748
  67.2334433  48.6767435  48.9693975  67.0094538  49.8892021  49.8473310
  35.3159587  11.0815284  12.7285178  35.6609265  11.8824431  12.3338492
  36.0433547  10.4608151  12.6855643  44.6200482  18.6028477  38.3122142
  45.0311486  17.7384612  38.3202346  44.3698518  18.7575385  39.2230971
  12.7305190  38.9026210  39.7541888  12.0045344  39.5108363  39.6153911
  13.1501119  39.2099044  40.5577834  15.3759877  31.4807126  45.4906829
  14.8279635  31.2455317  44.7419532  15.0033872  32.3019215  45.8116515
  19.2585484  37.3349997  15.0632175  20.1964299  37.4641463  15.2043803
  18.8561360  37.5675532  15.9000095  49.4409850  85.9608641  31.7574676
  49.8896662  86.7957631  31.8911155  48.8100782  85.9103766  32.4755557
  16.3774793  42.4537322  17.6044257  16.2499015  41.5530154  17.9022010
  15.7993237  42.9744670  18.1619151  67.0797348  27.4881646  20.5304225
  66.1865935  27.4397465  20.1895602  67.5253642  28.1033131  19.9479850
  38.1811142  68.0947971  69.7705078  38.1519699  68.8373232  70.3738642
  37.7742887  67.3764324  70.2549410   9.7128980   2.1959683  17.7544673
   9.2076604   2.9394051  18.0835040  10.0175445   2.4765584  16.8915160
  31.8913238   9.9250218   4.6601279  31.0293405  10.1065680   4.2856200
  31.7091720   9.6525618   5.5594714  74.4702083  39.7736499  11.5149863
  74.8277766  38.9868495  11.1035045  74.8506600  39.7785708  12.3933204
   5.9847586  29.8066661  20.9617980   6.7171256  29.9865386  21.5513023
   5.7342760  30.6657311  20.6219562   5.5975668   1.9793317   6.0140975
   5.6925504   1.0876700   5.6792052   6.4460842   2.1781489   6.4099773
   9.9412121  10.2051741  54.0933037   9.6760477   9.4300658  53.5982037
   9.4150079  10.9154898  53.7261486  25.2963988   1.5435550  16.8578895
  24.7705523   0.9389874  16.3342364  25.0966088   1.3111016  17.7646907
  54.4915390  55.6474161  43.3462811  53.7277508  55.5617332  42.7757359
  54.1583920  55.4555893  44.2228937  21.1147785  68.7026358  47.9947519
  20.9813070  68.0022526  48.6334038  21.3101435  69.4756699  48.5243607
  15.0862755   2.0218664  49.2687225  15.0956548   1.4452463  48.5047531
  15.6356014   2.7637583  49.0155983  36.4495198  47.5512358  16.3756831
  35.6667916  48.1020686  16.3633044  36.8289678  47.6937148  17.2428306
  35.4892127  52.2211310   3.3076842  34.5861260  51.9290587   3.1837352
  35.6794660  52.0282027   4.2257388  31.8117070  72.4352598  42.5237751
  31.8309593  73.3667231  42.7434063  31.0725951  72.0868540  43.0223370
  59.5166111  73.5085773  75.2211857  60.0896978  73.3139563  74.4796133
  59.1370344  72.6626492  75.4590082  25.4817597  18.7994000  18.2075770
  26.1818282  18.8880393  18.8543208  25.2648084  19.6994683  17.9645808
  74.7081760  20.4751498  62.6400423  73.8820699  20.5127341  63.1220913
  75.2698854  19.9106127  63.1710863  56.3254881  79.9613714  64.8000050
  57.1038437  80.2627659  64.3314362  56.4632607  79.0209293  64.9132299
  10.1228873  35.4836222   7.6885875  10.8216826  35.1794049   7.1094783
   9.3432395  35.0157353   7.3894866  60.8405018  54.6166706  69.6028519
  60.1689816  54.3320656  68.9829397  60.3534555  55.0638914  70.2949572
  62.9153395  56.2106133  62.9968357  63.3883476  56.0415268  63.8116407
  61.9950247  56.0730648  63.2211828  27.0292918  10.8050296  21.0135348
  27.2847430   9.9298522  21.3051494  27.8434293  11.3083073  21.0245784
  56.5797901  70.2917242  44.5727348  57.0501566  69.7023487  45.1623297
  57.0360088  70.2072620  43.7354994  57.6039426  56.2845942  21.2885173
  58.0510442  56.1814257  22.1285709  57.9365079  55.5662295  20.7503875
  79.0231371  48.5681915  60.3119612  78.2845211  48.4717941  60.9131145
  78.8712072  49.4080448  59.8786020  92.0983508  20.4896647  50.1489687
  92.5517324  20.2675539  49.3357372  92.4387601  19.8664957  50.7908583
  29.8109071  39.2560241   3.6063750  30.2027814  38.8175914   4.3616469
  30.5250661  39.3259475   2.9728730  37.7762890  75.1399946  60.3562069
  38.1224966  74.2886972  60.6239223  36.8481684  74.9785233  60.1866436
  23.5317771  22.8128335   7.8578265  24.1292397  22.3503157   8.4454902
  23.3909289  22.2046420   7.1322234  79.5640996   1.2818056  74.5587158
  79.5615724   2.2389418  74.5476627  78.6380199   1.0397726  74.5536947
  53.7995434  58.7868118  48.2730579  52.9580450  58.9535332  47.8484201
  54.2738342  59.6148634  48.1981754  70.4743242  54.5579338  56.3104677
  70.2135181  54.3308115  57.2030067  71.2973785  55.0351906  56.4155531
  64.1096783  55.0575399  75.3223324  64.3463373  55.9330463  75.0162077
  64.2083502  55.1015615  76.2734127  89.3444234  33.9390847  11.6001495
  88.5518319  33.4994408  11.2923415  89.8896057  34.0252253  10.8181079
   9.8076217  55.4251048   7.2586711  10.2028911  54.5534941   7.2414573
   9.0124957  55.3379390   6.7329295  59.8987818  77.6437759  50.1275730
  60.2017403  78.1511450  49.3745565  60.0305414  76.7312860  49.8702192
  36.9723821  71.5702629  59.2837524  37.4438739  71.2160730  60.0377274
  37.5690198  72.2197342  58.9116764   5.1657973  61.5425539  33.9782524
   6.0950671  61.4914846  33.7544513   5.0521861  60.8990765  34.6777248
  83.2285118  66.8682671  55.5415010  82.9116631  65.9924841  55.3204870
  82.5497723  67.4583054  55.2137756  65.8398703   5.8028323  74.2127848
  64.9145201   5.8053595  74.4576311  66.0433987   6.7213160  74.0361547
  52.1229362  85.3160477  62.8717279  51.3834858  85.5279636  62.3020458
  52.8848791  85.3363609  62.2927094  37.5986505  71.2860537  76.2958622
  37.6390433  71.4484453  77.2383213  36.9681215  71.9278193  75.9690475
  38.3651034  23.6687705   5.0540336  38.2766454  23.2365033   4.2045959
  38.8207833  23.0295655   5.6017573  15.8494486   1.5022951  58.9253330
  16.6649927   1.9476706  59.1550303  15.3745903   2.1350104  58.3864260
  26.2082338  56.5217304  36.1312556  26.3972878  57.1602249  36.8188715
  25.4067802  56.8440294  35.7189155  30.0081555  21.1011264  22.6225169
  29.5775477  21.8512627  23.0325206  29.7279660  20.3493306  23.1445678
  30.1753537   0.1104924   3.6339458  30.2940337  -0.2568963   2.7580627
  31.0428969   0.4330918   3.8779338  46.5244770  67.7065086  58.8061047
  46.4818859  67.3362446  57.9244471  47.3138762  68.2478476  58.8006639
  71.8570522   8.1361204  64.5432472  71.2036899   8.1760222  63.8448524
  71.9783834   9.0473372  64.8100662   7.9975046  12.0619208  63.5205746
   7.4220194  11.7182738  62.8372288   8.2885851  11.2867266  64.0007687
  67.3685360  75.6537390  62.8379869  68.1887865  75.1656961  62.9103184
  67.5494146  76.3308764  62.1860647  92.2066385  14.7158143  48.0290874
  92.9197890  14.0790507  48.0757220  92.4389440  15.3833100  48.6746200
  71.5253213   8.9015013  60.1423740  72.1203378   9.1496283  60.8499193
  71.1457947   8.0707651  60.4288435   7.1114175  34.1333672   4.4448550
   6.2364976  33.7546155   4.3594344   7.5746743  33.8459870   3.6580642
  16.5895574  27.2614476  21.9483264  16.1977689  26.3883063  21.9293960
  16.0007970  27.7762362  22.5002177  39.5608727  66.8971869  27.9419311
  40.4906098  67.1011779  28.0429633  39.1545741  67.2284362  28.7428172
  55.6499529  70.7848215  57.0231342  56.5229750  70.8951664  56.6464472
  55.7421923  70.0507736  57.6305056  54.9194734  21.6148326  19.8486217
  55.1608197  21.5639779  20.7735046  55.0654046  22.5310418  19.6130450
  54.2358415  43.5437915  19.4390662  54.6975438  42.8002211  19.0515597
  54.3802564  44.2625376  18.8236220  72.2081426   1.0904700  71.0406113
  72.2797540   0.1399428  71.1278677  71.4696697   1.3275248  71.6015816
  53.2188559  43.4957075  68.9535189  52.9788160  42.5863647  68.7754536
  52.5620127  44.0125656  68.4869909  63.2334879  80.3191081  38.9194091
  63.4053424  79.9956336  38.0350669  63.7187532  79.7238150  39.4906982
  29.8400371  63.0604693   6.9522555  29.6768872  63.6963698   7.6488479
  29.4537990  62.2465560   7.2756656  41.5755670  18.8635060  26.7253478
  41.5766351  18.9370486  27.6797183  41.9749419  19.6787545  26.4218600
  37.6534820  63.3061981  68.4407520  37.9018188  63.9102459  67.7409697
  36.6964436  63.3006954  68.4239817  11.4464395  13.3571574  12.0630057
  10.7149474  12.9333922  12.5119765  12.2270028  12.9596755  12.4489577
  63.6092806  27.2120309  51.7264605  64.0831709  26.5999627  52.2895193
  62.7062845  26.8945909  51.7342091  29.7287583  86.9164467  54.8975658
  30.1430583  86.8369102  54.0383434  29.3259597  86.0614872  55.0493050
  44.2621756  62.7245808  42.6588202  45.0344372  62.5946999  42.1083927
  43.6456394  62.0521879  42.3689842  91.3299018  33.7033126   9.0729030
  91.3729412  32.8478381   8.6456569  92.2205192  34.0481564   9.0087493
  43.0623579  69.6700621  27.9748726  42.9986382  69.9021578  27.0484257
  43.9788818  69.8305655  28.1995058  25.3110790  56.3360357  63.0384207
  25.9867072  56.8899536  62.6473570  24.6722221  56.2065125  62.3374844
  68.5139322  62.5479317  68.3881283  69.1253281  61.8469906  68.1620741
  68.8767147  62.9344130  69.1851568  75.5798769  74.7324800  49.8007631
  74.7550058  74.2844772  49.9881601  76.1487198  74.5044184  50.5360413
  29.0202045  64.9217415  35.4441142  29.8781323  65.1109266  35.8241153
  28.7597251  65.7401133  35.0214458  26.2759416  30.9736249   4.5669063
  26.9726579  31.4239451   4.0893825  26.3812654  30.0518462   4.3314155
  68.4065035  17.2636038  73.5721588  67.7749065  17.7068621  74.1385841
  69.0523723  17.9375178  73.3602142   2.1406810  50.7177493  15.9571250
   2.0533006  50.1385352  15.2000888   2.2504847  50.1251075  16.7007335
  27.8193105   2.6108939  69.0458584  27.5773634   3.0886847  68.2525063
  28.4888281   3.1561190  69.4590139  29.8498456  20.8213183   8.3247836
  30.6428353  20.9028336   7.7949222  29.8947970  21.5552232   8.9376433
  14.4081704  32.5414464   1.7580541  13.8561074  33.3014676   1.5741332
  15.2984492  32.8425357   1.5764459  73.0062437  66.5475464  41.3793516
  73.4247732  66.5213680  40.5188990  72.7851343  65.6351328  41.5660095
   6.8164150  60.7252356  19.3456824   6.3470523  61.0672805  20.1065620
   7.6931159  60.5265090  19.6745189  29.4103193  77.0581627  39.8096824
  28.6587477  77.5202894  40.1809072  29.0912676  76.1695051  39.6524262
  39.9623752  75.9076118  23.5139346  40.7468748  75.8112288  24.0538406
  39.3108988  75.3474951  23.9359283  30.0623004  50.8740947  14.1742118
  30.0758664  51.6213843  14.7722133  29.2160098  50.4558608  14.3326743
  15.4195706   0.3408906  22.7313407  14.5924775   0.6618926  22.3720344
  16.0929982   0.7879731  22.2186549  52.9546277  36.6576812  19.6617587
  52.1894853  36.9250438  19.1525443  53.0489747  35.7227752  19.4793304
  27.1098900  79.9826670  49.7417736  27.8293777  80.3430748  49.2234325
  26.5068913  79.6183634  49.0937662  41.2734318  65.4308891  40.6150913
  41.8128157  64.7047520  40.9281778  40.8590508  65.0959492  39.8198962
  55.3308800   2.5520903  68.1551361  55.3087762   2.3607737  67.2175074
  55.6443861   3.4549433  68.2080412  34.3525052  62.2553301  59.4057608
  34.2845559  63.1641054  59.1129541  34.7248554  62.3143768  60.2855921
   8.8416831  19.1877267  20.4849418   8.4079139  19.4959780  19.6892913
   8.1286256  18.8692614  21.0384448  29.4897699  51.1607742  67.3187160
  28.6947560  51.4904356  66.8997717  29.3463349  51.3075733  68.2536554
  49.7765255  73.9634895  57.5001764  48.8815832  73.8453150  57.8185177
  50.2981758  73.3514118  58.0192852  77.6660151  37.6058337   6.9213660
  78.1321162  37.4518439   7.7431090  77.3702258  36.7376754   6.6474517
  47.0815055  20.5966708   4.7593291  47.3261706  21.3872906   4.2783912
  47.8289716  20.4235217   5.3316386  11.2103288  52.4289080  30.4819377
  11.7009036  52.6446578  31.2750419  10.7314984  51.6309783  30.7060989
  62.4764827   1.1250597  62.6624966  62.9879788   1.8517500  62.3067951
  62.9124263   0.3402239  62.3305035  47.0643823  37.0401236  28.9428599
  46.2629859  36.8445727  28.4573157  47.7673261  36.6889617  28.3962424
  80.0690511  14.5493513  48.4456921  79.1120532  14.5509631  48.4259319
  80.3174451  15.4015070  48.0874157  12.1319689  11.1167246  75.4552794
  11.7616762  10.5045325  74.8194075  12.9916824  10.7523829  75.6659508
   6.4020912  29.6284911   1.4240106   6.7466323  28.7483784   1.5754397
   5.4513399  29.5223090   1.4560969   3.4765951  23.2254073   8.9529975
   4.0668814  23.5247704   9.6444972   2.8607981  23.9485118   8.8340743
   0.8065907  51.8048331   9.0600474   1.2747232  51.0128447   9.3243201
   0.5477778  51.6388461   8.1535705   9.2386262  25.7673976  33.8260158
   8.8608424  26.4517304  34.3784698   9.6989362  25.1927325  34.4376643
  71.4554122  21.0526282  66.1886215  71.2661937  20.2094275  66.6002369
  70.6688169  21.2535006  65.6815243  25.9540185   7.9207712  32.6338267
  26.6887722   7.3649126  32.3742318  25.2020607   7.5578409  32.1657777
   8.3759610  39.1939780  15.2887233   9.2832915  39.0876624  15.0029262
   8.4160225  39.1276118  16.2427791  49.4802666  80.5677128  52.3672009
  49.1367960  81.4608192  52.3422861  49.8779869  80.4881573  53.2342243
  49.0020704  66.4159775  66.3753223  48.8354826  65.7394314  67.0316458
  48.2569408  67.0120049  66.4512730   7.4846904  50.2141043  24.9086364
   6.7035334  49.6716639  24.8000796   7.8775708  49.9074218  25.7258399
  19.1415088  46.2643000  10.8993323  19.5538489  46.5257308  10.0760158
  18.3176343  46.7511698  10.9197696  27.7553002  24.4361254  19.0241225
  28.0353038  25.3120229  18.7583430  27.7720658  23.9237401  18.2157786
  82.5417519  43.3895111  59.8731613  83.0071068  43.6993599  60.6501245
  83.0418396  42.6267481  59.5827484  47.6546733  26.7307326  11.2754901
  48.2685916  27.4018618  11.5736945  47.3185460  27.0659301  10.4442866
  30.6228671  16.8886858  35.0703382  30.5169341  17.8364569  34.9882221
  29.8002637  16.5263468  34.7413063  18.6910645  16.9819590   5.3628905
  18.3852164  17.7158448   4.8298820  17.9024426  16.6557023   5.7963260
   8.7846292   9.9925619  65.2445841   8.7143720   9.2246634  65.8117008
   9.6245063  10.3873926  65.4790020  71.1939910  16.4312655  64.8753023
  71.2650135  15.4824263  64.7709608  71.1306527  16.7664915  63.9809608
  74.1738513   9.8314005  72.1681356  74.7087482   9.4204432  72.8472757
  73.3383277  10.0129134  72.5984621  79.7600985  80.5290794  66.4798832
  79.1035652  80.7754517  65.8283472  79.5653248  81.0815048  67.2369242
  39.2673461  50.9493491  37.7969630  39.5888965  50.8730551  36.8986209
  39.6294705  51.7777201  38.1114276  14.1851915  22.4011332  75.5354881
  15.0051511  22.2076041  75.9898520  13.5702337  21.7435938  75.8606148
  72.4580196   1.6300303  68.2717133  73.4134248   1.6365153  68.2134867
  72.2752336   1.6416746  69.2112255  61.8842125  73.2458544  67.4543190
  62.0083427  74.1166592  67.8318453  61.2400341  73.3761168  66.7583990
  78.9378614  23.6925837   7.2332557  79.3709201  23.0044982   6.7280467
  79.1481215  23.4889647   8.1446059  52.2403574  73.1925821  34.8109460
  52.8240347  72.8509665  35.4883313  51.3636732  73.1099415  35.1862216
  47.8075981  68.9362955  67.6820421  47.6704025  68.2103634  68.2906771
  48.5977793  69.3713236  68.0023432  20.1753776  79.8088786   7.4530871
  21.0927503  79.7878024   7.1806701  19.6827094  79.8415515   6.6330608
  79.7498888  40.6188723  19.3352588  79.7443325  40.2755114  18.4417804
  78.9987070  41.2111708  19.3689044  80.4466862  15.6026408  21.7939361
  80.1206988  15.5363127  22.6914676  80.5185575  16.5436646  21.6341479
  17.0236508  25.2701136  10.0672706  17.9362409  24.9816033  10.0541194
  17.0394771  26.0924861  10.5568584  64.6088362  88.5763836  54.8413467
  65.4125834  88.0636501  54.9269915  63.9926052  87.9852676  54.4088221
  30.6380240  38.8868090  24.2710670  31.1317031  39.3445632  23.5906489
  30.9367864  39.2815158  25.0903209  49.6350877  28.6431739  12.5180324
  50.1612107  27.9670998  12.9450591  50.2629773  29.3307444  12.2961410
   6.8604271  18.5382315  16.9390662   7.0536773  17.8055999  17.5239928
   6.0276501  18.3042714  16.5292152  36.2514615  88.4534645  45.4787254
  37.0414710  88.0071735  45.1738644  35.7903481  87.7955151  45.9990215
   1.9981197  80.3901768  52.1457386   1.2129147  80.7766914  51.7580605
   2.6846933  80.5399036  51.4957905  63.6313537   8.9945990  73.9657736
  63.7539628   9.3060881  74.8625326  63.6838129   8.0412871  74.0340757
   0.5166067   4.2941862  45.9955072  -0.3313624   4.0165526  46.3420534
   0.3543009   4.4555479  45.0660706   2.1355451  74.5397582   2.5051768
   1.9505132  74.8745671   1.6277392   2.9519190  74.9704686   2.7586539
  68.2804505  76.6170356  16.7212756  69.1911237  76.4392802  16.9564517
  68.3237855  76.9362780  15.8199199  78.1212187  86.9558907  40.4332447
  77.1715498  87.0626163  40.4877567  78.4565783  87.3916817  41.2167358
  19.0286128  16.1777398  27.5716003  18.2723777  16.6662499  27.2464927
  18.8792769  15.2799460  27.2751315  67.5700331  80.5257511  74.1324329
  67.8052807  81.3874817  74.4764042  66.6442728  80.4241753  74.3535185
  74.5059538  57.4796247  58.1855392  74.1715002  58.2571030  58.6326361
  75.0866032  57.8245878  57.5072479  71.8776506  60.4791304   3.6154826
  72.3854441  59.9141642   3.0330833  72.3997361  60.5287215   4.4162353
  72.7942801  37.3974395  45.4397774  73.2482386  38.2043600  45.6827450
  71.8708181  37.5808644  45.6124163  55.8991340  86.5733138  15.7673915
  56.2582305  85.6870499  15.8099635  55.1918176  86.5763846  16.4123138
  58.5882394  35.9987304  20.9824927  59.3224065  35.7162806  20.4370959
  57.8949563  35.3651139  20.7977374   9.7697557   6.1976725  58.6933756
   9.2240394   6.7440802  59.2589331   9.1742481   5.8911616  58.0095196
  34.1975904  62.8619385  65.2299643  34.8924494  62.6627684  64.6024847
  34.6268320  62.8185892  66.0844231   8.4590543   2.7728468  62.4748993
   8.5157312   3.2229239  63.3177805   9.2870105   2.9751116  62.0392227
  24.4067447  40.5901763  48.8367541  24.5805709  39.9787471  49.5524200
  24.5260398  40.0694129  48.0425151  91.8030074   5.6067950  72.7092266
  91.3649514   6.3754755  72.3438787  91.3799384   4.8633105  72.2797251
  30.3963105  15.3760049  27.3408874  30.0843255  15.9926841  28.0031665
  31.3187663  15.6010100  27.2197517  40.5309789  62.6892802   9.4480880
  40.1669709  62.7009722  10.3332980  40.9645955  63.5376689   9.3562015
   8.5199706  36.5318820  20.5424007   9.4013516  36.6172358  20.1789268
   8.3758370  37.3511073  21.0160239  49.4540218  32.1849734  67.7439117
  50.2508786  32.0447451  67.2324562  48.8024524  32.4638468  67.1005440
  65.4602146  34.9938178  68.8098192  65.8280849  34.9925804  67.9261351
  66.2133598  35.1385570  69.3825817  18.5253493  65.3751990  22.2369083
  18.6262099  65.6467482  23.1492217  17.7174918  64.8618552  22.2277148
  59.3703461  70.5361462  29.0940261  59.6827269  70.8953953  28.2636094
  58.4186602  70.5019665  28.9973211  16.7131154  42.7966353   2.4573548
  16.7957227  43.0305144   1.5328487  16.3359801  43.5744807   2.8684075
  44.3366957  69.8925781  53.4912157  44.9641132  69.7050571  52.7930641
  44.8719740  70.2271128  54.2107916  51.9181223   2.3294786  10.6417926
  51.3658495   1.8721250  11.2758716  52.4019547   2.9697755  11.1634811
  90.1555208   5.1002890  75.5594301  89.4587854   4.6348959  76.0222483
  90.7979730   4.4224459  75.3496265  81.6145706  59.0984106  66.6771889
  82.0373154  59.8700666  66.3002729  81.8015480  59.1565323  67.6141500
  46.0521936  72.9765224  65.7462549  46.7907047  72.3905611  65.9120083
  46.4198971  73.8559437  65.8336735  30.3282802  13.4982344   9.2680438
  31.2397735  13.2070252   9.2926581  30.2678411  14.1549775   9.9617751
  74.5473388   1.4225870  59.2942715  73.5999683   1.2868601  59.3113995
  74.8280433   1.0470873  58.4597397  69.2738485  64.8742056  76.0385180
  69.3543625  65.8013296  76.2625504  68.3347368  64.6961546  76.0895157
  80.4336265  36.7961603  45.6776285  81.3045028  36.4029414  45.7340670
  80.0151304  36.5716177  46.5086937  80.3518295  71.3957214  70.7694101
  79.8953629  72.1819544  71.0689020  80.2114010  70.7565165  71.4679289
   5.9537069   9.3775079  15.7460864   5.3649322   9.5308348  15.0071223
   6.7613117   9.8324439  15.5072673  36.2692237  88.7960434  57.1708393
  35.7175159  89.1844082  56.4918518  36.7234135  88.0785656  56.7290592
  83.9231807  36.5560481   4.2335399  84.7975093  36.5718314   3.8442691
  83.6253840  37.4647280   4.1904529  19.1032903  47.3183867   4.8912128
  19.6282975  47.8347346   4.2796691  19.3441979  46.4106128   4.7064288
  64.7265100  66.8246937  44.0490580  65.2855301  66.3353395  44.6526003
  65.0679684  67.7184629  44.0776014  80.3358459  69.4377661  68.8285398
  80.6295109  70.0768471  69.4778252  79.5824671  69.0108252  69.2364264
  77.8427458  79.0867949  71.9229555  77.9019737  78.1582069  71.6983652
  77.8738832  79.1043234  72.8794909  68.7916803  87.1152687  59.9260998
  69.6054029  86.8286419  60.3407431  68.2229090  87.3575592  60.6568718
  85.5824071  20.2080390  38.3633216  85.0765020  20.5960271  39.0772994
  85.1123482  20.4643437  37.5698646  60.0524282  87.0015240  60.5842495
  59.9375629  87.5826263  59.8323488  59.2163849  86.5418816  60.6616402
   2.8692190  61.6691920  21.5137275   2.1581141  61.4301059  22.1082004
   3.3615534  60.8576056  21.3905986  26.0779826  35.3564593  20.9588035
  25.1874177  35.7032534  21.0121997  26.6169373  36.0110137  21.4030059
  73.6455488  74.5518398  66.2942505  74.5070028  74.8016834  66.6284657
  73.0283546  75.0660992  66.8146706  50.3305261  26.4195058   8.6222537
  50.0283925  26.0689732   9.4601520  50.1523034  25.7212445   7.9922660
  10.1708047  21.6124770  20.1241859  10.7550828  21.7350718  19.3759807
   9.8475472  20.7163140  20.0313361  17.8537142  54.7521019  75.5086040
  18.2480061  55.6099224  75.6664467  18.5040522  54.1269970  75.8288097
  33.7689273  52.9741332  12.1374782  32.8297488  52.8563258  11.9950374
  34.0428512  53.5746333  11.4442237   4.1524307  15.7709405  26.1810954
   4.5866744  15.0866458  25.6717761   3.2187597  15.5796954  26.0921271
  24.6004502  51.7330882  33.8683398  24.5702760  51.5411422  32.9310687
  24.7421329  50.8819243  34.2826923  59.4863653  56.0445261  71.4456320
  59.5094490  55.8061123  72.3723793  58.6252069  56.4438486  71.3224316
  50.6434003   3.4412295  76.6674328  51.1086777   3.0858427  75.9101677
  51.0857752   4.2694765  76.8532896  28.7708449  80.6318855  26.8145823
  28.6433244  79.7095966  26.5924311  27.9958868  80.8644199  27.3260522
   8.6579196  33.3185002   6.5005954   8.0926744  32.5575969   6.6338332
   8.1460015  33.9020154   5.9405311  13.5680358  17.0868012  25.4147704
  13.2356898  17.0232484  24.5193656  14.0617530  17.9067132  25.4293616
  37.0879984  80.4088402  68.0122137  37.7050900  79.6828699  68.1038809
  37.1668291  80.8952618  68.8328314  25.4862563  78.1096789  13.0330546
  24.6868722  78.0165526  13.5512717  25.1765220  78.2749125  12.1425517
  24.5098369  41.3129946   8.3626254  23.8025348  41.1673400   8.9909156
  24.0692918  41.6362616   7.5767215  52.0906846  44.2888686   0.7211145
  51.7596356  44.8855635   1.3923677  52.9583756  44.6299598   0.5042966
  83.3192730  61.8133116  76.4975262  83.5886097  60.9124422  76.6767550
  83.5180759  62.2878265  77.3047113  56.2609117  52.9249999  23.8013251
  55.9384934  52.1869132  24.3185313  56.7376630  53.4675357  24.4294913
  76.5638638  76.7334318  74.8171091  76.7771578  75.9470940  75.3195143
  77.3872662  77.2194242  74.7718620  37.9032390  38.4268615  35.2593787
  37.1658866  37.8842017  34.9799808  37.5507752  38.9622447  35.9702666
  30.6395411  73.0921650  66.9769096  31.5448141  72.8124285  67.1127748
  30.1954794  72.8724527  67.7959156  54.3617201  62.7688551  40.3575468
  54.8456669  63.3818102  39.8040891  55.0084162  62.4549246  40.9895754
  89.6949727  18.1155059  12.7755912  90.4472333  17.5967118  13.0605205
  89.9264270  19.0166232  13.0006393  62.9284525  69.9390745  58.6722898
  62.3695803  69.6568632  57.9482412  63.5768890  70.5131769  58.2646465
  26.5579844  61.8557930  52.5142527  27.1073270  62.6258373  52.6608610
  26.5229845  61.4208317  53.3661985  32.9861562  16.1477610  25.5560096
  32.8868453  16.7449281  24.8145469  32.4280135  15.4011294  25.3386386
  93.2182506  16.1432654  72.8821611  93.8751176  16.1810118  73.5773802
  93.4562495  16.8556982  72.2888422  58.5976934  87.1470451  71.4323664
  58.5898495  86.6763783  70.5989170  58.7300730  88.0632305  71.1888075
  60.5365960  46.8467948  16.5793689  60.3895299  46.8424269  15.6335433
  60.5441396  45.9216449  16.8248637  88.1819204  39.5924860  31.6470265
  87.4428657  40.1204687  31.9491196  88.8289645  39.6623713  32.3489380
  14.6114267  39.6226984  41.6163874  14.7946466  40.5609042  41.5670633
  15.3427423  39.2113119  41.1557674   9.9336068  33.0901381   9.2657550
  10.5148665  33.7021920   8.8143619   9.3240468  33.6495063   9.7471889
  86.3277534  10.5909640  56.9413757  87.0636371  10.1192004  57.3314285
  86.7325500  11.3207918  56.4726257   8.0501382  55.3760192  20.1654609
   7.3989503  55.8957717  19.6942313   8.8775651  55.5738589  19.7267516
  51.7178154  86.2580013  73.2513046  50.8561850  86.3564396  73.6564445
  51.5299559  86.0655022  72.3326731  29.4312684  71.2135836  11.2913783
  28.7353961  71.2898680  10.6385596  30.0419538  71.9178530  11.0739024
  70.5060053  58.1626511  60.1817226  69.8502064  58.8508844  60.0699329
  71.0742950  58.2466841  59.4160748  85.3498843  11.7526537  75.8090019
  84.8686651  12.5758082  75.8931065  86.2100032  11.9384867  76.1857033
  88.3089572  50.2837321   9.5824035  88.1701809  49.6666762  10.3008922
  87.5192100  50.2091357   9.0467151  26.1011044  49.1167399  56.1549934
  26.6064183  48.4342429  56.5966876  25.4975430  48.6380717  55.5868228
  43.4063768  80.6345463  74.1378546  43.4803534  79.6941233  73.9754725
  43.6295176  81.0405159  73.3002234  53.9053933  17.3266885  18.1627257
  54.5722501  17.6923415  18.7439521  53.8696115  16.3983723  18.3933433
   5.8097423   8.5303503  69.4908285   5.5282177   8.8143450  70.3604937
   6.1826004   7.6601416  69.6320820  65.5974105  17.3245627  48.7833595
  64.8621491  17.2898966  49.3952608  66.1312607  16.5621764  49.0069771
  65.4619710  43.6762568  12.0400127  64.8884122  44.4278666  11.8905147
  66.3473622  44.0354964  11.9828399  27.3482005  49.1937587  21.8499549
  27.5394980  48.3628222  21.4150127  26.7330090  48.9635894  22.5462230
  44.1099575  20.8178717  63.1727123  43.9080420  19.8831755  63.2153034
  44.3190184  21.0591132  64.0751123   1.8308131  59.2016265   1.0105165
   2.0131199  59.1488978   0.0723203   1.7682449  60.1397654   1.1899980
  50.5618858  75.7601261  73.2203245  50.3570318  75.1631641  73.9399815
  51.4057541  76.1432505  73.4597731  69.5753742  81.2726447  11.8086799
  70.0863081  81.7146250  12.4867805  69.8459518  80.3561541  11.8640693
  85.8834174  11.6102320  47.4895716  86.3689950  12.0590884  48.1816483
  86.4735320  11.6229445  46.7360210  30.9597601   0.8000475  65.4186058
  30.1628984   1.0247046  64.9382114  31.2192548  -0.0516218  65.0671196
  72.6721764  75.3354406  74.9218893  71.9932985  74.6608448  74.9386644
  73.3037138  75.0562334  75.5847883  84.5678693  24.8966357   6.9708903
  85.2312976  24.4910189   6.4127048  84.8511631  24.6972605   7.8632053
  58.0191056  48.2127139  14.1977676  57.8811376  48.4722182  13.2867988
  58.8652913  47.7652976  14.1938193  52.4243466  46.7186019  18.4598716
  51.6330068  47.2565314  18.4343131  52.3814694  46.2694499  19.3040641
  80.1346257   6.3292128  65.9408712  79.3791345   6.7548567  66.3461876
  80.0404313   6.5133482  65.0062847  67.6057434  71.8692589  63.8074493
  67.1493959  71.8133450  62.9678917  68.0791855  72.7002287  63.7678385
  80.6884530  21.9225127  43.9541245  79.8338130  21.9283396  44.3851614
  81.1900094  21.2574583  44.4256878  43.1599808  81.7783070  46.3834906
  42.7218008  82.1212006  45.6046104  43.9957047  81.4422035  46.0597134
  29.3724455  17.4602038  71.6371298  28.7082018  17.5155264  72.3241091
  30.1972784  17.6456362  72.0860147  74.2176628  57.3088789  75.7237625
  74.3774986  57.3276234  76.6673374  74.7558737  58.0197048  75.3754997
  39.5206897  60.9790084   5.7663043  38.7419621  60.8545443   6.3088115
  39.3344466  60.4907271   4.9643500   9.3541158  18.0643755  50.6999969
  10.2125801  18.4326655  50.9088993   9.2023338  18.3128840  49.7881603
  37.8683869  65.8535525  25.6772311  38.2148807  66.7379138  25.7959445
  38.2260386  65.3555152  26.4122661  15.5284278  38.3641097  15.4093154
  15.6530206  37.7190634  14.7131618  14.5874707  38.3489653  15.5842670
  46.4892769  81.4642525  71.6158772  46.8936300  82.3120213  71.8003321
  45.5597496  81.6620636  71.5014839  67.4068812  16.9386107  44.1449213
  67.1992901  17.3080260  45.0032187  67.9061487  16.1455542  44.3399000
  19.1755308   7.9452044  13.3779311  18.5217870   7.3539835  13.0046821
  18.6772550   8.7202841  13.6371708  33.9382379  25.8095500  19.5275958
  33.5248725  26.3943383  20.1627238  33.8795011  26.2794492  18.6957439
  77.8102255  75.7091284  64.8384905  78.2522631  74.8664427  64.7349739
  78.3404160  76.3218975  64.3289423  84.3647496  77.2093150   0.8527787
  84.8374192  77.3829695   1.6668161  83.4697358  77.4993941   1.0289510
  58.2891655  64.3398046  50.8758545  57.8960896  64.8591280  51.5773010
  58.1576681  64.8650026  50.0864887  28.5278050  78.2703158  17.8351863
  28.6973445  78.8295504  18.5933097  28.5848634  78.8610980  17.0842250
  14.6496881   4.0238482  39.0498996  14.4162382   3.9973456  38.1219816
  15.5741752   4.2718417  39.0573025  54.0834978  11.4118868  60.3208733
  54.9998763  11.2413889  60.1031303  54.1215709  12.0401102  61.0420656
  15.3023113   8.2238394  39.7844625  15.5710615   8.9904791  39.2782426
  14.7147144   7.7448756  39.2000318   2.3201336   4.7282606  66.9084215
   2.7674164   4.7863394  67.7526951   1.4297403   4.4536024  67.1274853
  63.8921595  86.5084076  62.3991394  63.1450987  87.0192337  62.0873928
  64.1728497  86.0040855  61.6355228  43.8953725  13.2771403  44.8474550
  43.3269802  13.3379370  45.6152201  44.2704991  14.1531378  44.7571945
   2.2121303  64.2296168  20.5579551   1.2659113  64.3485114  20.4756911
   2.3143594  63.3301970  20.8691199   5.5495800  16.6888529  33.7809372
   5.4816593  17.2348601  34.5641971   6.4250482  16.8691450  33.4384727
  40.1697016  61.0534000  49.6305275  40.7932091  60.9223461  50.3448772
  40.6814241  60.9039497  48.8355207  60.3831549  10.2601674  13.7193759
  60.6409903  10.7048467  12.9118999  61.0793371  10.4708341  14.3416103
  23.1620423  47.8924605   4.6129974  23.9196650  48.1279322   5.1485236
  22.4090020  48.2135245   5.1090701  18.1664671  85.2282134   7.8730090
  17.8055109  84.5326939   8.4227355  17.9219927  86.0383311   8.3204158
  12.7739824  17.9419810  61.9799089  13.2823194  18.1087309  62.7736473
  11.9606842  18.4298331  62.1094465  65.7794383  53.8906771  71.5664482
  64.9073032  54.1994101  71.8120050  66.2218264  53.7342173  72.4007416
  41.0377900  45.0486800  19.7761233  41.3557403  45.2446505  20.6574519
  41.8239896  45.0583884  19.2302020  20.7249371  41.5414092   9.4966395
  20.3761785  41.7041442   8.6202224  20.3466098  42.2346446  10.0374969
  39.1046262  79.9600601  36.8799329  39.5600343  80.7097340  37.2631145
  38.1789589  80.1248074  37.0594573  25.9667556  24.5343920  30.7725509
  26.1287467  24.5259568  31.7159064  25.0481908  24.2798278  30.6849845
  60.8394861  44.5618629  76.2310505  59.9061298  44.5098877  76.0251999
  61.2706995  44.6087408  75.3777695  24.9518458  57.4122283  30.8053382
  25.2772300  58.1032035  31.3823112  25.6381576  56.7451426  30.8198245
  54.4365549  86.3879967  49.1776991  55.3613663  86.2621880  49.3901205
  54.2518616  87.2906685  49.4371367  70.1006603  83.8218403  46.7971516
  69.2458057  83.4181976  46.9472218  69.9847174  84.7341156  47.0627785
  74.3747810   1.5476233  73.9429951  73.5662463   1.6785342  74.4383383
  74.3282893   0.6394106  73.6442995  70.9771156  41.3869762  65.8137894
  71.7925072  41.2384367  65.3349304  70.2876711  41.1891747  65.1799297
  28.3419895  87.1148872  66.5642929  28.3095026  86.7568398  65.6771755
  29.2663360  87.0668983  66.8082428  40.7473469  66.9544411  70.1418209
  41.3550901  67.6685238  69.9495554  39.8926520  67.2870016  69.8677158
  44.1541055  29.0133387  69.3058395  43.2756582  29.1498190  69.6607113
  44.7162441  29.5811373  69.8329353  22.2825829  31.8643901  36.9643100
  21.9324319  30.9796187  37.0682605  22.6406209  31.8775222  36.0766872
   7.2864334  29.4329926  13.6722072   7.2918431  30.3857228  13.7644275
   7.1993272  29.2839858  12.7307017  45.9813404  83.9288902  58.9022827
  45.2069998  83.4730721  59.2322254  46.0345984  83.6745453  57.9810333
  93.5452560   3.0338198  54.8658705  93.0348733   2.2301298  54.9650002
  93.2082132   3.6170107  55.5459642  70.6046751   6.8889529  68.7363005
  69.8735169   6.2716872  68.7112904  71.1675576   6.6230780  68.0091763
  26.5216554  19.7338682  71.6560268  26.9926370  18.9983088  72.0476389
  26.2052549  20.2409941  72.4036551  46.2747812  67.8931952  71.1293697
  46.9614744  67.4384737  71.6171312  46.3580227  68.8088083  71.3957453
  20.1696027   5.8193690  68.6439896  20.4041589   5.7573801  67.7180481
  20.4067243   6.7129999  68.8918304   5.7425846  40.6401831  73.9328480
   5.1388181  40.4058081  73.2280302   5.5985082  39.9726015  74.6035337
  68.1475952  24.2382342  75.2759314  67.4041656  24.7906309  75.5176067
  67.7587012  23.5150343  74.7840261  56.9298458  87.2068596  66.9026089
  57.5724125  87.9056358  66.7798948  56.0931015  87.6065159  66.6651964
  73.1938982  76.9550943  48.9793444  73.3676004  76.9714308  48.0381775
  72.4683332  76.3386583  49.0783262  13.4189190  32.9674918  18.9902711
  14.0251602  33.6913592  19.1474855  12.5709165  33.2961470  19.2887831
  56.8340397  86.1726761  46.6470480  56.4187670  85.6335258  47.3201656
  56.3342142  85.9896564  45.8514929  16.7244921  51.9129658  55.4812574
  16.5928183  52.6473570  54.8816252  16.1890898  52.1283245  56.2449265
  79.5499471  22.0045096  73.6826277  79.7172025  21.1010844  73.4141445
  80.0256875  22.5360304  73.0443621  70.5119753  83.8395214  65.7387924
  69.6205759  83.7074852  66.0616064  71.0558176  83.8299942  66.5264368
  12.5986681  65.6355047  68.3993292  11.7153082  66.0035706  68.3785105
  12.7644358  65.4628897  69.3261290  70.3340535  83.1799722  36.2668204
  70.6015580  82.3154223  36.5786314  69.7794329  83.5257649  36.9661450
  21.0321236   7.5160342  47.4572945  20.8457541   7.1389049  48.3171034
  21.7994928   8.0701154  47.6000166  84.8303281  63.1177038  45.7017469
  84.1787278  62.5381821  45.3070259  84.7562825  63.9336652  45.2068138
  47.0038258  75.6900328  74.6213007  46.9753074  76.3582414  73.9365244
  47.0228540  74.8598498  74.1452026  86.0832866  26.6337371  42.2590637
  85.6427874  27.4258566  42.5668669  86.2587287  26.8016505  41.3331842
  31.3500094  40.5214643  73.3656311  30.8715653  41.2439299  72.9589844
  32.2038436  40.8937025  73.5861683  12.9478881  84.3241256  28.2820988
  13.7625262  84.6010461  27.8626823  13.0095908  84.6657559  29.1741252
  44.5093155   9.2290545  71.3276529  43.8002396   9.6393698  71.8227148
  44.2408800   8.3146560  71.2379408   7.3512733  10.7493532  37.8926539
   7.4398512  11.6953266  37.7763796   7.5330693  10.3835714  37.0269823
  70.8672527  50.0466153   5.3869136  70.0056699  50.3059628   5.0603564
  70.9322766  50.4616484   6.2470039  30.2810980   5.6995192   1.5990527
  30.9744774   6.3068095   1.8572314  30.5434982   5.3911415   0.7317098
  62.2816501  85.2434877  64.2847347  62.8132915  84.5168799  64.6097422
  62.8764768  85.7447091  63.7268925  34.8882651  28.9451313  69.4758797
  34.3327022  28.1727290  69.3710899  34.7472143  29.4518924  68.6761713
  56.8246698  17.8318131  43.7044001  57.1044970  18.7401211  43.5907888
  55.8684158  17.8742278  43.7061882  64.8658631  76.7811066  44.9931860
  64.4069490  76.8660074  45.8289051  64.7708574  75.8574885  44.7605181
  40.1480046  53.8353696  17.6022418  39.3726948  53.5569843  18.0897124
  39.8883811  53.7724462  16.6830714  14.4228232  11.1111641  69.1360569
  13.9222312  11.8011773  69.5713997  13.7593293  10.5560052  68.7264204
  63.8947275  76.4925828  23.2752307  63.0551461  76.8572679  23.5551246
  64.5169619  76.7854586  23.9410194  44.2528513  29.2915633  10.6625827
  44.6763507  29.2163613  11.5176948  43.4813610  28.7286427  10.7270511
  81.1070112  29.6396032   1.4990934  81.8184665  29.1989365   1.0344632
  81.1520389  29.2930010   2.3901971  93.5487266  19.2569602  54.3477345
  94.2387938  19.7250581  53.8777113  93.1357645  19.9251878  54.8946953
  24.1835070   5.2973115  70.6481600  25.1117158   5.0775415  70.5683947
  24.0696836   6.0637373  70.0861406  29.7311687  23.9754224  64.4609118
  30.0984478  23.4956408  65.2033043  28.7872362  23.9764261  64.6197367
   9.9611562   1.9042087  55.8086777  10.5885720   2.4079888  56.3271284
   9.2181534   2.4960116  55.6905794  79.8843776  63.0685657  26.8048024
  80.0073003  62.9345554  25.8650351  79.9974500  64.0108913  26.9291711
   9.4234484  22.0996952  45.9192467   8.6561722  21.5356517  45.8224297
   9.4208622  22.3511386  46.8428278  30.2450728  41.9326803  38.9453967
  30.8980507  41.7918187  39.6309646  30.5517562  41.4023474  38.2099231
  91.2468683  82.9799378  63.4025240  91.0547243  83.1201112  64.3297052
  90.4579459  83.2741946  62.9472780  47.0668772  27.5591603   8.7356742
  46.6261986  27.9627541   7.9879172  47.2870246  26.6770032   8.4364017
   0.1961354  65.8502021   6.2088378   0.5017355  65.2732530   6.9088252
  -0.2712557  65.2704158   5.6074889  76.0035767  13.9756024  55.2414703
  76.4535501  13.1829202  54.9492168  75.3657355  14.1572225  54.5512486
  66.2516955  33.5364023  12.8973659  67.0381645  33.2413140  12.4384387
  66.4690498  34.4170073  13.2031806   2.9350325   4.9816948  54.7875309
   2.5178921   5.4614544  54.0719509   2.5137293   4.1222584  54.7773027
  76.9927362  34.5619854  10.1677116  76.5296415  35.0424942  10.8539184
  76.8648628  33.6404159  10.3926356   9.4316798  14.1437280  23.4313822
  10.3615570  14.1057920  23.2075047   9.4052100  14.6111345  24.2662859
   1.5076658  74.4070834  67.5237274   0.9310719  74.6413308  68.2509804
   1.7134234  75.2417630  67.1027708  19.9585644  85.8210411  26.9459041
  20.3862944  85.9118309  27.7973922  20.6276587  85.4331532  26.3819106
  36.1511263  70.7656756  20.4212173  36.2452850  71.6024771  19.9661048
  35.7757986  70.9961477  21.2710651  75.2541422  82.9096150  47.5964308
  76.0998963  82.5972700  47.9179478  74.6094559  82.3748201  48.0596876
   7.8768277  15.7639909  36.1263704   7.4232233  16.3278246  35.4998183
   7.4584323  15.9538960  36.9660807  33.7846065  32.4343443  54.0211535
  33.9768767  32.6012373  53.0984354  34.1185331  33.2059216  54.4787502
  68.3685640  32.1043303   3.1536086  69.0759900  32.5095358   3.6551936
  67.5775388  32.2959402   3.6573966  42.2897163  28.6600354   0.4124959
  41.5708867  29.0666333   0.8964332  41.8586543  28.0700865  -0.2058713
   4.6674415  65.9548253  66.5209579   4.4243428  66.5241212  67.2510529
   4.2427036  65.1196617  66.7167425  57.7954769  12.9075885  67.8421831
  57.2373676  12.8935850  68.6197138  58.6834478  12.7991927  68.1827593
  32.8604984  11.4161408  57.8449774  31.9120073  11.4264536  57.7165556
  33.0801868  10.4886746  57.9331493  73.8639091  85.1527756  69.7139502
  74.3384658  84.5925900  70.3281355  73.5595762  85.8878156  70.2462387
   3.3989450  81.4566606  55.4560709   2.5821969  81.8282795  55.7893133
   3.2660457  80.5096775  55.4984093  16.1680126  33.7940741  73.7678576
  16.9371104  33.7680721  74.3371058  16.3113415  33.0866694  73.1391525
  69.3949227  69.2133313  70.3172159  70.0434946  69.5115906  70.9548903
  68.8353472  69.9758810  70.1701641   8.9499381  51.1167714   3.2233699
   7.9955700  51.1836234   3.1926330   9.1667560  51.2091866   4.1511043
  70.7195452  54.5360198   4.2407497  71.4754298  55.0622657   3.9801009
  70.2890757  54.3102583   3.4161552  17.3935786  67.1470013  -0.0173156
  16.6184667  67.0282975  -0.5662600  17.2630397  66.5445009   0.7149299
  49.3682957  19.2651892  60.6757832  50.0848436  19.7094190  61.1290550
  48.6562824  19.9048865  60.6686306   2.8008482  88.9022411  67.2477102
   2.7217886  88.1498263  66.6613245   3.7174889  88.8958307  67.5233221
  69.0493857  83.6804432  62.8959274  69.5987152  83.9969081  63.6130857
  69.2865865  82.7579033  62.8016472  66.1156626  63.0753988  37.4976683
  66.8869071  63.2712120  36.9656229  66.4154058  63.1781667  38.4008980
  12.1387661  33.0973577  51.4403200  12.0671654  33.0772614  52.3946238
  12.5505996  33.9399242  51.2487268   8.3322221  25.8793306  71.4401913
   8.0183089  26.7177224  71.1013794   9.1306150  25.7035995  70.9422731
  18.4880701  32.9927352  12.7970489  18.3028081  32.0751002  12.5974067
  18.0208913  33.1587556  13.6158355  63.7100466  28.5077432  76.6296107
  63.5470732  27.7823749  77.2325312  63.3321651  28.2184056  75.7991166
  49.3671274  13.6972368  44.2212915  49.6705818  13.6084390  43.3178186
  48.4989357  13.2941532  44.2230606  66.3937535  17.1115816  13.5385060
  67.1190538  16.5386009  13.2897806  65.7786884  16.5358734  13.9929152
  43.2317686  25.6297755  72.8165960  42.2996616  25.6850576  73.0272055
  43.6617231  25.5075383  73.6630154  78.3794998  65.1194495  47.8953028
  78.6502742  65.5587333  48.7014961  77.9355954  65.7999414  47.3892307
  47.8937626  23.3907270  48.3393908  47.4881315  23.5030103  49.1990948
  48.2710886  22.5114250  48.3655882  93.5186401  37.0438147  10.3341722
  92.6988544  36.9967723  10.8260775  93.4711059  36.3120842   9.7189122
  82.8000739  27.8625193   0.2619537  83.1942323  27.2240057  -0.3323285
  83.3007911  27.7757028   1.0731109  93.0133616  64.6110147  45.6382084
  93.0912958  65.5589288  45.7459879  92.0703541  64.4467992  45.6372166
   5.5619669  20.0246453  33.9033198   4.6362114  20.1224518  34.1261244
   5.8360356  19.2303348  34.3617845  41.6228962   5.5837548  36.4637613
  42.1869659   5.5676436  35.6905866  40.7730436   5.2781290  36.1466336
  17.5111556  10.6039572  76.3161087  16.6883230  11.0803807  76.4265490
  17.8707612  10.5387354  77.2007895  32.2615361  35.6957698  75.5646706
  31.4305997  36.1702514  75.5393028  32.9258823  36.3802767  75.6441975
  76.0147746  54.9038771  76.9863326  76.6114982  54.5526174  77.6472170
  76.5876658  55.1952282  76.2770095   5.0517392  18.1750858  72.0280266
   4.1535246  18.4957600  72.1093273   5.0353652  17.3103237  72.4380827
  64.5252304  65.1558131  37.0257425  64.9416194  64.3303460  37.2736406
  64.2352999  65.5362886  37.8548431  82.3578357  81.8586558  21.0617161
  82.4300956  82.1406716  20.1498628  82.7108096  82.5906545  21.5674996
  93.6475955  75.8766025  56.5286112  94.1698109  76.6579968  56.3470984
  93.9629470  75.2265900  55.9007072  31.2734056  23.0722833  46.2731886
  31.4683723  22.4589372  46.9817257  31.2868381  23.9332652  46.6912317
   2.2342655  79.5593691  41.1107349   3.1079575  79.1735262  41.1741209
   1.8165561  79.0891671  40.3891659  36.9969964  28.0988312  51.6019440
  36.4825702  27.6777148  50.9132814  37.7770853  28.4245586  51.1529493
  31.1642826  38.2273283   6.4450248  30.3067955  38.5784110   6.6852077
  31.6460100  38.1857374   7.2711261  36.0126114  30.5984810   4.0908702
  36.4356884  31.4476636   3.9638789  35.7483709  30.3286257   3.2113250
   2.5805700  34.3247485  33.6405253   1.7600259  34.5129371  33.1849766
   2.9947987  35.1805496  33.7512040  13.9931881  10.6680012  61.6232347
  14.3201125  11.4849162  62.0000648  13.9932191  10.8230555  60.6786776
  22.1618605   1.6468760  54.9632835  22.4975824   1.1679479  55.7210112
  22.4836397   2.5403976  55.0829124   9.6112710  11.4194024  76.5278482
   9.4979542  12.2636414  76.0912085  10.1457953  10.9062064  75.9219217
   4.1342753   5.1491982  74.7109699   4.8520929   5.6077754  75.1476383
   4.0801141   4.3059054  75.1605892  63.3688752  65.3786296  20.0320053
  62.6269683  65.5322713  20.6169844  63.9117887  64.7413272  20.4960346
  38.7857413  36.3217163  52.9928493  38.6519551  36.1961317  53.9322996
  38.1461358  36.9900966  52.7470779  85.9065774  87.9365721   6.0322555
  85.3385690  88.6327877   5.7022746  86.3090184  88.3077565   6.8174251
  56.6563562  57.3212686   5.4291614  57.3778728  57.3911455   6.0542758
  56.9563511  57.8083411   4.6617015  27.3773241  12.4208450  28.5944295
  27.2542262  12.2052884  29.5188832  26.5308714  12.7697062  28.3150673
   3.5964960  29.1272593  38.1648779   4.5460430  29.0223575  38.1049824
   3.4281728  29.2561436  39.0983057  12.0739281  49.4422245  46.3243771
  12.2860157  48.8072634  45.6402206  11.1179638  49.4326401  46.3720274
  36.4142922  73.5009256  22.2695621  37.1893367  73.9557114  21.9398578
  36.2436834  73.9045325  23.1205733  89.6705209  83.6921799  59.9166775
  90.1879607  84.4959560  59.9660063  90.3201615  82.9892307  59.9086666
  86.7936808   0.8844802   3.1923755  86.4129454   1.6198298   2.7122338
  86.9936902   1.2413213   4.0577586  54.4177106  87.0598879   0.6261666
  55.2497390  87.1364632   0.1591571  54.6256068  86.5394154   1.4021285
   5.7634557  38.6190435   6.7920669   6.7046608  38.6696473   6.9587978
   5.4668773  37.8755197   7.3168929  21.2437201   1.3047364  46.6519976
  20.7199192   0.6859200  46.1431408  22.0395350   1.4272165  46.1344004
  62.2084781  76.0595554  67.6587391  62.4044191  76.9372016  67.9867268
  62.0598930  76.1819154  66.7210960  36.5907264  11.6672587  61.4643049
  37.1847963  12.3660004  61.7383003  35.7164788  12.0087826  61.6521454
  16.1371756  40.3314734  38.9575171  16.9439125  39.8619652  38.7454534
  15.7925439  40.6107235  38.1092954  12.5790075  85.7390299   0.7757171
  13.3613482  86.2900725   0.7987102  12.4380496  85.4850474   1.6877778
  22.0771360  29.0686679  75.1212311  22.9917836  29.1970992  74.8699188
  22.1182513  28.5111094  75.8981895  74.0138732  76.9176644  62.6545048
  73.6952256  76.4882857  63.4484339  73.3533775  76.7161411  61.9916582
   4.7828883   0.4358635  53.2414961   4.9379337   0.1987571  54.1558123
   5.6097698   0.8200891  52.9501724   3.1702060  17.2233343  51.8509150
   2.6510915  16.4378762  51.6782618   2.9381412  17.8242218  51.1428785
  21.5975356  19.3539190  68.3342791  22.1742249  19.8272943  68.9339256
  20.8180213  19.9052620  68.2663774  82.6668714  47.9259628  48.5263824
  83.4766756  48.3715290  48.7752199  82.4850892  48.2370609  47.6395845
  17.6950204  16.3781834  64.9355841  17.6783073  16.1652136  64.0025282
  17.0784640  15.7630718  65.3327370  64.5143318  26.4747119  62.8882742
  64.2408943  25.7096815  62.3821163  63.7665892  27.0706868  62.8443813
  24.0046859  21.9861341  76.2844563  23.7682176  21.9277740  75.3587627
  23.3432317  21.4603877  76.7342377  25.7394695  72.9059601  62.7790976
  26.5916538  72.6091909  62.4598169  25.7163501  73.8392878  62.5679159
  83.8331043  68.9074665  72.8945732  82.9580747  68.8697642  72.5083971
  84.0573846  67.9934591  73.0692768  60.8191708  43.9169918  16.3605865
  60.9224585  43.1821555  16.9652160  61.4214805  43.7227469  15.6424411
  22.6416874  27.5650287  23.8958216  22.5385761  26.6146469  23.9445496
  23.2379246  27.7783728  24.6136069  10.3396746  82.9700673  72.2322607
  11.1864707  82.9235744  71.7884111   9.7091195  83.1268185  71.5293646
  60.5693153  77.8653064   8.3898910  59.9234727  77.7836051   7.6881488
  60.1648882  77.4287644   9.1396316  94.3824183  78.4792095  27.9590631
  94.2006217  78.9434892  27.1419787  93.8164626  77.7079004  27.9273009
  44.0690660  30.1049185  29.5817399  43.4439707  29.8232007  30.2496648
  43.5857105  30.7409263  29.0543914  43.6694574   9.6071434  49.9936581
  44.0569925   9.9115467  50.8142614  44.3068552   9.8514503  49.3226385
  30.4276061  13.1812823  56.1506081  30.4245472  12.4036264  56.7087078
  30.4971862  12.8368330  55.2602482  41.1819935  37.8488135  59.0400648
  41.8516397  37.5190973  58.4408188  40.4761600  37.2043180  58.9885044
   2.0723316  68.1590480  39.1581249   1.9159052  67.3002237  39.5507884
   2.8935858  68.0565375  38.6772227  52.2966364  67.7428260   8.3890422
  51.5831998  67.9350534   8.9975627  52.6299408  68.6023775   8.1315311
  30.8898759   7.5146687  56.3018513  30.4715252   7.0889026  57.0501423
  31.6086793   8.0182636  56.6838741  62.2227821  63.1559008  49.2393541
  62.0657647  64.0341395  48.8925505  63.1047564  62.9345101  48.9404583
   8.1882495  39.5964932  71.7614412   7.5267816  40.2193213  72.0627356
   8.9467829  39.7633410  72.3209238  26.4509225  33.6342144  41.7705536
  26.5038061  33.2510042  42.6461029  26.5405011  34.5761180  41.9155502
  42.9061769  70.2476567  36.4550042  42.8195964  69.9511152  35.5490232
  42.5377070  69.5346659  36.9766426  30.5625878  79.8326316  10.6513675
  29.8737584  79.3783966  11.1365684  30.1563674  80.6522265  10.3694423
  62.4891722  75.2047497  58.4328127  61.5444138  75.1147121  58.5575390
  62.7897666  74.3184799  58.2318115  77.4246262  42.5247472  45.2669144
  77.7200459  42.5541347  44.3569183  78.1818043  42.1999496  45.7541704
  12.1063364  13.8673258  64.4470310  11.7833531  13.3703697  63.6954021
  12.9221344  14.2628396  64.1399908   4.7766015  73.2403976  63.8434076
   5.5089566  72.9991084  63.2762480   5.1894352  73.6181015  64.6200275
  34.3178821  15.6013930  70.6339455  34.7186661  14.8757446  71.1125278
  35.0571895  16.0708666  70.2476168   6.7435646   4.2481720  48.4769058
   6.7655826   4.6109059  47.5913715   5.9145778   4.5576200  48.8419437
  22.8643775   2.6984528  48.6980724  22.3196101   2.0378219  48.2702541
  22.2596645   3.1768274  49.2652702  12.5606200  58.0563325  42.4904728
  12.2636697  57.1522278  42.3872995  12.0247838  58.5561842  41.8746328
  28.1013083   7.6924849  40.6756544  28.1632996   7.3259670  39.7935820
  28.8385272   8.3001304  40.7348919  82.1252166  76.6026169  42.2253561
  82.6131045  77.2893792  42.6798391  82.5246548  75.7862455  42.5257206
  23.2244375  41.2238499  28.2983287  23.6904040  41.1705905  27.4639018
  22.3016825  41.1242804  28.0641444  76.7784237  69.2608780  48.8847828
  75.9422861  69.5267993  49.2673969  77.2185181  68.7769955  49.5836449
  37.3316622  29.2794466  57.9077291  37.1080184  30.1007962  58.3454466
  38.1264782  28.9811063  58.3498764  74.1546788  52.2914457  53.6699677
  73.3207454  52.7605057  53.6421776  74.8182573  52.9794931  53.6200666
  77.4758099  78.2532316  68.5679340  76.6662370  78.6348385  68.9073467
  77.5206410  78.5546309  67.6605320  10.9504676   9.0860122  30.8798933
  11.0433137   9.4639969  30.0054002  10.0925696   9.3857729  31.1805391
  35.3913638  62.4527243  18.3896716  35.9161419  63.2515672  18.4415324
  34.5369372  62.7474835  18.0745490   6.8650520  35.9961486  53.1723166
   6.9725531  35.3696561  52.4566460   6.3758779  36.7215848  52.7841377
  58.5067415   9.9114221  72.4384212  57.5972319  10.1905489  72.5438452
  58.5533142   9.0702176  72.8927755  29.6154352  28.8070491   4.2884334
  28.7115148  28.5497430   4.1069015  29.6614219  29.7250369   4.0211948
  69.9631503  36.8366477   1.2657292  70.8873561  36.9506255   1.4872726
  69.4964865  37.3874309   1.8942960  24.9926213  45.3758406   8.3011420
  24.1608003  45.5345062   7.8548987  25.2445218  46.2310991   8.6494334
  32.7682972   9.3287003  71.4554977  32.3082185  10.0904965  71.8079519
  32.9367018   8.7762833  72.2188520   3.5771796  84.7697747  45.3114653
   4.0960595  85.5094427  45.6275177   4.0974924  84.3994850  44.5984507
  54.6856812  26.7003003   1.7784007  55.1439026  26.5449086   2.6043065
  53.9794830  27.3049024   2.0063766  76.2799846  81.4308363  59.3642235
  77.1305023  81.2113053  59.7445631  76.0975884  82.3158055  59.6801233
  11.3741088   5.4483676  52.6653624  11.3881218   6.1241591  51.9876146
  10.8807933   4.7272477  52.2743940  12.3395491  61.7594147   5.1811796
  12.2477067  61.3951540   6.0615844  11.7463231  61.2360001   4.6423343
  32.7401225  64.2870489   2.7351363  33.1339941  65.1217094   2.4812873
  32.9920994  64.1721323   3.6513980  57.2868355  41.9799680  71.4682387
  56.3505133  41.9392267  71.6628484  57.5821574  41.0709810  71.5207670
  85.3623949  78.0759758  36.5174341  84.5172225  78.3359593  36.8839335
  86.0027133  78.3502740  37.1739268  32.6617503  31.5158534  73.5386610
  32.5551391  30.6002593  73.7966394  32.4401641  32.0137691  74.3255615
   6.2929767  20.5539274  54.9300051   6.0761756  20.3955817  54.0112257
   6.6419327  19.7186685  55.2411413  37.8079557  19.8286843  44.0345621
  37.7013278  20.1975632  43.1577539  37.5177002  20.5246639  44.6241379
   7.4861622   6.6960353  53.6928701   6.7220485   6.4031237  54.1894245
   7.2067004   7.5153756  53.2844400  58.4711245  46.7482991   5.8301623
  57.9735425  46.6468902   5.0187667  59.0670565  45.9993121   5.8408721
  85.0239232  30.9595790  10.9550460  84.7549823  31.8473056  11.1913570
  84.7623065  30.8658984  10.0390704  20.6036785  86.2050667   6.5235980
  20.4129806  87.0206442   6.0602363  19.7612897  85.9345093   6.8888553
  20.9433126  -0.1285073  73.8503122  20.2061152  -0.0832790  74.4591856
  20.6652069   0.3942386  73.0982304  35.0922051  61.0487988  30.8844073
  34.9378416  60.1195279  30.7145293  34.3486327  61.4934280  30.4774268
  91.1431660  30.2147245  60.5443716  90.2895783  29.7927856  60.4464579
  90.9700640  30.9815216  61.0905313  85.1619016  86.8635464  31.4999747
  84.3503271  87.3246653  31.7119789  85.4392682  87.2387811  30.6642127
  74.3528131  36.0148987  11.3767417  73.9172700  35.9512475  12.2267326
  73.6978153  35.7105031  10.7486041  60.6677440  60.5070379   5.1998599
  60.6046441  60.5441502   6.1542590  61.5400842  60.1509502   5.0311645
  18.1455657  71.8487602  52.1266413  18.0613324  72.7530891  52.4288464
  17.4232146  71.3860518  52.5513077  34.7156572  10.1560450  50.6164360
  34.3505573  10.1448655  49.7316742  34.0073323   9.8306221  51.1719608
  38.6835670   7.6729149  34.8611760  37.9160929   7.8122407  35.4159760
  38.8473725   6.7311543  34.9110460  24.5106530  46.2885714  57.2451162
  24.0048289  46.0229492  56.4771175  25.2587914  45.6916046  57.2573566
  18.0164257  77.1027914  18.2790073  17.9885546  76.2838140  18.7737163
  17.9403487  76.8325439  17.3639091   0.9303072  47.3046726  12.7227576
   1.2679389  47.0001206  11.8804439   0.9960058  46.5417656  13.2971175
  92.8051757  36.8697071  74.2837763  92.6929726  35.9191108  74.2805338
  93.7524002  36.9989133  74.3317699   7.6349878  10.5227029  46.6469193
   7.6362711  10.9904790  45.8118057   6.7406529  10.6192410  46.9741440
  89.6997662  11.4411056  71.5359545  90.2442648  12.1742046  71.2490416
  90.2757057  10.9193015  72.0947456  14.2219639   3.1519470  62.4151993
  14.5361602   3.5871118  61.6226435  13.9777565   3.8684419  63.0010605
   4.6078607  80.1728648  58.9648151   5.0871536  80.4248357  58.1754971
   5.0656268  79.3956357  59.2851210   1.4613223   3.4426436  48.5859489
   0.7631499   2.9171306  48.9766216   1.0363176   3.9079216  47.8654480
  42.4640039  56.7224315   7.2084411  42.0320085  57.3565796   7.7806934
  42.7317312  56.0144976   7.7944358  92.2501408  71.6765732  31.3599181
  91.9733416  71.7330259  32.2744823  93.1513988  71.9990021  31.3621092
  70.8046283   3.2026866   8.1309354  70.2113404   2.8522688   8.7953508
  70.6585183   2.6494217   7.3636144  36.4199495  14.3120766  54.8079920
  35.6122994  14.0592051  55.2551889  36.4390659  15.2670825  54.8698711
  38.5055304   7.0131278  39.0468669  38.5519314   7.9215181  39.3450379
  38.0159593   6.5603524  39.7335577  28.1343079  30.0558567  53.4192896
  28.5918403  29.3149543  53.8167334  28.7840796  30.7585716  53.4044218
   5.3549600  35.5424213  64.2921638   6.2297046  35.8942413  64.4573164
   5.1012033  35.1333308  65.1195002  37.6167560  35.6718588  75.6013060
  37.7541327  35.4875898  74.6721077  36.6654706  35.6710434  75.7075500
  59.2938154  77.9282707  41.4391422  59.4249414  78.0520564  40.4990816
  59.3737258  78.8071281  41.8098974  63.3198180   5.0943357  65.6096983
  62.8789153   4.5450827  66.2578964  63.5213770   5.9038484  66.0790539
  10.7040644  11.5454829  20.9693122  10.5719984  11.3644981  20.0387025
  10.4243362  10.7438242  21.4112711  27.6696324  29.0817618  42.2612381
  27.5039291  29.8685265  42.7806377  27.5768042  28.3601689  42.8832626
  91.3895375  16.9780204   9.9753268  92.2374898  16.5349004   9.9460395
  90.7691890  16.2919995  10.2218612  16.1597705  14.3437958  45.3492880
  16.0645270  14.2020071  44.4074488  16.5075517  15.2324653  45.4237509
  76.1837918  18.9239117   1.2899573  76.4015097  18.0527875   0.9583266
  75.2910167  18.8367841   1.6240152  42.9847431  37.3552847  11.7867553
  43.7547302  37.1887851  11.2430322  43.1527424  36.8704152  12.5947845
  23.5516548  36.2344146  42.6292419  23.3978844  36.3187695  43.5702372
  24.5010567  36.3104701  42.5339317  34.2854476  23.8184094  53.6950636
  34.9582005  23.3738160  54.2107868  33.4782267  23.3443856  53.8948774
  22.6216435  28.2588959  71.1281443  23.3324838  28.0104685  70.5371904
  22.8982806  29.0981531  71.4960432  22.3309469  29.5704937  67.0788002
  22.0808053  30.3360343  67.5961113  22.9805279  29.1190624  67.6177692
  29.9865651  45.6396294  18.7903583  30.6929803  45.3270721  19.3556154
  30.1633668  46.5739107  18.6804247  91.1316186   2.4513814   2.1538146
  91.7751271   2.7899882   2.7762874  90.5179054   1.9513795   2.6919444
  48.6721230   3.4962273  63.6449289  49.4197226   3.0919516  64.0852547
  48.8842106   4.4293258  63.6208820  80.9552339  85.7631340  20.1451190
  80.5098537  84.9512091  19.9029334  80.4055837  86.1424628  20.8308490
  36.5917730   2.6275998  43.8605690  36.2386513   1.8244636  43.4778070
  37.2247148   2.3245221  44.5115376  51.8286394  72.4390620  47.5525093
  52.1526169  73.3015078  47.8122330  52.5942158  71.8676239  47.6123571
  84.7167141   2.2390601  12.9411681  84.6740872   2.4513098  13.8735660
  84.0114981   2.7518842  12.5463088  22.8635621  25.8462524  35.9762478
  23.5504055  26.5031719  35.8625102  22.0544815  26.3035131  35.7470393
  46.2302494   9.2488569  40.3299332  46.5794516   9.1592616  39.4432187
  46.7739201   9.9249989  40.7342720  33.9652705   2.7812853  42.1466160
  34.7072363   2.1766067  42.1376944  33.6607575   2.7733931  43.0540562
  28.8689446   7.8883535  45.4688025  29.2600679   8.4525532  46.1358356
  29.4952750   7.9033965  44.7451210  42.9750443   7.3723423  52.5853252
  42.0437098   7.5930119  52.5976372  43.4218979   8.2146406  52.6695251
  15.2718985  28.0234146  63.0280209  14.7415268  28.6829734  63.4751463
  15.2215457  27.2523475  63.5929585  25.1766515  18.2901919  50.6226301
  24.3531442  18.5690129  50.2222252  25.8387637  18.4619319  49.9530458
  42.1003762  47.7084398   1.3333591  42.4501565  48.5260364   0.9792121
  42.7450076  47.0453140   1.0864909  23.7866020  33.5286212  73.2693815
  23.8675117  33.9169359  72.3982334  22.8435111  33.4935427  73.4293222
  31.1372423  24.1581345  53.5560036  30.7661390  23.4165716  53.0778837
  30.5978107  24.9048877  53.2959890   4.8170917   8.5505292  18.3122619
   4.4396226   9.3297240  17.9040797   5.7621662   8.6999938  18.2852729
  14.9153304  40.7185698  53.1361008  14.0787292  41.1789608  53.0699968
  15.5485368  41.3135767  52.7345419  81.6933158  77.9555884   1.3460715
  81.6825345  77.6290932   0.4463418  80.9123948  77.5752583   1.7482503
  43.9598945  55.2457419  18.1494697  43.3970216  54.4791761  18.2580073
  44.8060373  54.8858490  17.8834708  35.3559113   6.8995261  32.3030519
  34.4780803   6.6629475  32.6025081  35.7352614   6.0752422  31.9982839
  81.3582897   9.7474903  42.7299690  81.6829777  10.6296158  42.9106998
  82.0920277   9.3049264  42.3033619  54.6819714  63.0190804  15.4438861
  54.3529704  62.1533039  15.2021869  53.8944343  63.5501697  15.5620368
   1.7429587  14.8008788  51.6343641   2.5560945  14.3969607  51.9375038
   1.1922315  14.8463595  52.4159384  33.8398600  40.6157684  39.4114017
  34.4308639  41.2578058  39.0180397  33.3268833  41.1185312  40.0441074
  20.7777977  25.0491214  41.2300301  21.4688182  25.6781721  41.0226250
  21.1893392  24.4320869  41.8351221  24.3298697  28.7830782  68.6751080
  25.1180053  28.3103371  68.4075451  24.6215296  29.6869731  68.7940311
  17.1014714  12.2159958  46.8183613  16.9308758  12.1298683  47.7562857
  16.7543209  13.0782926  46.5899658  20.1597190  47.0829725   8.3253467
  20.2521491  47.6615906   7.5684512  19.7705722  46.2839413   7.9698944
  37.3432374   0.0352921  57.9940414  37.5961542   0.8085262  58.4983969
  37.4328947  -0.6921194  58.6097240  45.2889013  32.2111058  62.7648067
  45.9438372  31.5557194  62.5244808  45.4667902  32.4008942  63.6859846
  60.9722567  35.8993864  69.3658972  60.2102232  35.5570936  69.8332024
  60.6156301  36.2472439  68.5485554  34.3313456  37.2481680  66.4534760
  34.2140341  37.9226398  67.1224737  34.2732906  37.7214217  65.6234789
  61.3333610  32.1627763  10.6069263  62.0561174  32.4579087  11.1607726
  60.8353189  31.5631285  11.1624511  37.6562285  20.6897545   6.1360651
  37.3787475  20.9949636   5.2723032  36.9013023  20.8526444   6.7015606
   9.3717715  82.9389965  64.1058779   8.5769698  82.4129552  64.1941833
   9.1038653  83.8222039  64.3596554  32.6545756  44.0889279  13.5156806
  33.1494144  44.8392132  13.8449844  31.7934876  44.1714078  13.9255031
   7.2417617  44.7904110  59.5228767   6.6538274  45.2303600  60.1368856
   6.8157005  43.9525986  59.3418264  55.8861950  47.0090905  15.5806239
  55.7772258  47.6492983  16.2838252  56.7271617  47.2323388  15.1816638
  39.2406297  32.0460296  61.1672544  38.4000683  32.3364925  60.8132458
  39.8695755  32.6967120  60.8553696  32.9657269  39.2961025  68.7640429
  32.9318428  39.8742056  68.0018902  32.0601726  39.2510223  69.0709162
  65.3712940   8.5639709  58.5761213  65.0029564   7.8657103  59.1174078
  65.3901052   8.1971616  57.6921940  57.1552277  26.4202309  54.4755793
  57.0765400  27.1587372  55.0794411  56.2554979  26.1208892  54.3447685
  30.9558320  38.9376688  57.3820448  30.5277300  39.1431475  58.2131481
  31.3632202  38.0837321  57.5271606  79.6258163  30.3603005  55.7715654
  79.0946722  30.7914209  55.1020479  80.4035091  30.9124470  55.8525753
  68.2299437  13.5017967  62.5310612  67.7580204  12.6815867  62.6751947
  67.5515785  14.1265786  62.2747374  91.2929480  12.7861619  53.7515163
  91.5977245  12.3688233  52.9458046  90.6376149  12.1822906  54.1009569
  47.0534706  38.7446380  39.1564298  47.6535654  38.0275536  38.9517260
  46.6524124  38.9684606  38.3166146  40.3451538  12.8646004  63.5079956
  40.8720446  13.4630775  64.0375614  40.4656935  12.0096850  63.9212990
  50.4198933  10.3533864  50.4222488  49.6858263   9.9796760  49.9346876
  50.6112432  11.1767983  49.9732399   0.5419138  43.2720566  35.8474159
   0.2116115  43.9550829  35.2638006  -0.1420716  43.1712818  36.5094137
  28.6585665  24.4287515  43.8133049  28.8612795  24.6103215  42.8956032
  28.6235070  25.2916527  44.2261076  44.6153307  21.3761926  47.0112801
  44.0401649  21.3896441  46.2462711  45.4991531  21.4278269  46.6473770
  48.8053465  40.2372217  70.0574970  48.5075903  39.4328594  70.4824305
  48.8970852  40.8663177  70.7730770  42.8155327   7.8800672  48.0558825
  43.1876278   8.4318399  48.7438679  41.8690968   7.9417306  48.1850719
  40.6580782  16.2905884  37.1064854  40.3178167  15.5166054  36.6577077
  40.2678823  17.0292687  36.6392255  34.5722771  35.2798915  68.2587862
  34.0767956  34.5957613  67.8085756  34.5612907  36.0213113  67.6534700
  14.8210284  56.0280412  44.0120697  15.3566119  56.5794796  43.4417200
  14.5186946  55.3189748  43.4445715  20.9721208  21.5165019  49.7265720
  21.3143635  21.7066956  48.8531160  21.3322759  20.6564283  49.9428892
  28.9337587  36.4091706  52.9250240  28.8244772  36.9946671  53.6743450
  29.8800850  36.2832189  52.8554916  80.8152774  80.8021465   5.2363761
  80.5853465  79.8730531   5.2486117  80.3240255  81.1607495   4.4972499
  49.8471273  74.2709246   5.1730140  49.6465982  74.1389981   4.2464049
  49.2050852  74.9169436   5.4674037  49.4479418  19.1363597  45.5153227
  49.4623375  18.2190526  45.2422428  50.3524828  19.3264008  45.7641697
   6.8810236  43.2977581  61.6841745   7.5167757  43.5827971  61.0278177
   6.0623819  43.1996679  61.1979294  14.0594602  17.1656978  71.7892885
  13.1403410  17.0312977  72.0203495  14.1384411  18.1109798  71.6610909
  30.3470254  16.8682563  40.4680395  30.2847075  16.0824609  41.0110664
  30.5063105  16.5366983  39.5843387  64.7144318  37.3763490  72.3035097
  64.1008329  36.8719912  71.7693233  65.0840139  38.0206871  71.6998005
  66.0198112  79.0960085  60.6861258  65.3231177  78.5724336  61.0820007
  66.6441079  78.4513575  60.3530931  77.6814512  51.7273798   4.8231967
  76.9775537  52.2513380   4.4408019  78.4752563  52.0389220   4.3884071
  39.4709134  29.5684528  59.4921303  40.1729107  29.0016651  59.8118019
  39.1885495  30.0586963  60.2642488  17.7437878  13.1606102  40.4075003
  17.3925614  13.7382483  41.0851431  18.4825516  13.6451066  40.0390911
  16.7047262  40.9667492  55.7301426  17.1349907  40.5421925  54.9879456
  15.8481991  40.5429649  55.7849121  89.4574550  37.1950999  14.5132907
  90.0807765  36.7979684  15.1215633  88.6311773  36.7450878  14.6893104
  64.7703171  24.2399168  49.1918850  65.4913092  24.2895508  48.5642385
  65.0723648  23.6192608  49.8550463  24.7242022  50.9709644  76.7370176
  24.1032362  51.4585304  76.1958027  24.2093015  50.6807184  77.4899244
  44.7522402  30.1421714  73.7163305  45.2197027  30.7997704  74.2313814
  43.8273954  30.3074765  73.8995457  34.0381217  32.7498293  44.3538523
  33.3673739  33.0100632  43.7225008  34.8231912  32.6086521  43.8247347
   4.3705589  25.1075745  62.0569372   4.8750556  25.8412075  61.7055178
   5.0243896  24.4325137  62.2386837   9.6539694  56.9911146  34.1840196
   8.9585781  56.6068935  33.6501312   9.8623151  57.8171587  33.7475896
  24.2438459  14.0370035  67.8435564  23.7605691  13.2204497  67.9697132
  23.5884309  14.6559584  67.5217485  25.4281688  54.1085863  64.4987202
  25.5189776  53.3984804  63.8633156  25.4571295  54.9069452  63.9714479
   8.1439778  79.7795898  62.3921299   8.6980387  80.4435849  61.9818068
   7.6482555  80.2584273  63.0563593  21.8858409  11.7193878  58.4280252
  21.3151479  11.9860637  57.7073145  22.0651817  10.7939672  58.2616949
  53.4869242  38.9694214  63.4906387  52.6042414  38.9418912  63.8598919
  53.9703894  38.3006144  63.9756012  46.6249657  31.0779405  59.2599487
  46.6133165  30.9213972  58.3157110  46.2181330  30.2978873  59.6370935
  93.9661935  47.3871732   8.5494216  94.0898755  47.9274535   9.3298228
  94.6076301  47.7215212   7.9225238  18.3682418   9.5424610  35.9276247
  17.9439449   9.1889679  35.1458025  19.1841662   9.0474957  36.0018539
  37.5194550  27.4621224  75.7747078  36.8925858  28.1547117  75.5659294
  37.8717089  27.1940899  74.9259996  20.0689721  44.0319681  60.7193089
  20.6126714  44.7381830  60.3701878  20.1938295  43.3079195  60.1058006
  87.6487957  84.4192156  52.6196098  87.8224789  84.3134189  53.5549593
  87.8121601  83.5531259  52.2462034  71.2802957  62.8891224  40.2759695
  71.6109823  63.1671566  41.1301231  71.9898288  63.0927223  39.6665907
  59.8766282  85.4097929   3.1487449  59.3704394  84.8606673   2.5500234
  60.1484898  84.8148003   3.8475307   7.4051875  18.7480247  62.3658657
   6.8210697  18.6159003  63.1125784   6.8172085  18.8687348  61.6202497
  37.6561621  88.7884179   9.8547252  38.3496359  88.1570616   9.6631129
  37.1830192  88.4073582  10.5944331   2.5093094  13.6774266  56.0102987
   3.0433613  14.4410968  55.7916021   2.0457767  13.9300394  56.8087721
  22.1772695  50.8915424  65.4900885  23.0902624  50.6246662  65.3830671
  22.2265697  51.7535305  65.9033394  90.1030450   3.0406910  61.3418198
  89.3896263   3.1046420  60.7068586  89.7171648   2.5862110  62.0906687
  17.7885008  47.7880192  64.1491556  18.7456155  47.7933645  64.1375256
  17.5565290  46.8825626  64.3554592  63.5217098  44.8693010  21.2508662
  63.7146858  45.6379247  21.7877181  64.3708757  44.6051295  20.8968051
  29.2409039  38.6756253  55.1922655  29.5946217  39.3110776  54.5699167
  29.7817540  38.7804103  55.9750366  37.3167229   8.4155893  42.2608709
  37.9690862   8.7121916  41.6262960  37.1899700   7.4886340  42.0585823
  93.1418926   5.6113192   1.1547502  93.8156873   4.9960419   0.8655007
  92.5084025   5.6274506   0.4373534  11.4390075  34.3948436  42.2476292
  11.5173531  33.7315989  42.9333401  11.1211598  35.1742244  42.7034473
   6.8745777  85.7609084  69.8842049   7.7635881  85.4259956  70.0013638
   6.4462158  85.6026646  70.7254505  56.5632656  74.4648424  29.2365153
  56.5152601  73.5341683  29.4550784  55.7921150  74.8489323  29.6536811
  74.2707348  21.3258886  66.0458708  73.3277798  21.4216113  66.1796713
  74.5393324  22.1485281  65.6367874  73.6072782  87.3811188   4.1201099
  73.9263395  87.0401087   4.9556621  73.9071039  86.7443600   3.4713634
  23.7069273  46.6216564  65.2262402  24.5378184  47.0613289  65.4066277
  23.1485200  46.8506861  65.9691811  77.0587339  35.6945992  41.0668087
  77.6832022  35.6589746  41.7913818  76.3127949  35.1757288  41.3677740
  36.3073683  39.6928239  66.5945196  35.6210017  39.6801257  65.9274578
  36.5490174  40.6157732  66.6719913   9.1652298  60.4371405  49.2932796
   9.2188668  61.1085367  49.9734163   8.5461301  60.7916260  48.6550903
  83.7922957  29.2321897  63.4789324  82.9650583  28.8088512  63.2493830
  84.1133728  28.7375116  64.2328787  53.6010745  54.2646327  14.1193946
  54.4864348  54.1259971  13.7830146  53.7272361  54.7590735  14.9292358
  16.1979115  41.4729118  45.4800320  16.5747321  41.8305922  44.6761036
  16.5261602  42.0451021  46.1736345  25.6982064  66.8124008  56.6452408
  25.9419179  65.8911419  56.7353392  25.0252962  66.9484758  57.3122549
   5.9608620   2.1037570  50.5027437   5.4095203   2.6428893  49.9356556
   6.5284342   2.7306446  50.9511948  54.6645025  66.6734400  15.2995284
  55.5586055  66.3982954  15.0967677  54.7067073  66.9751254  16.2069591
  21.2450600  18.6641920  50.6245995  20.7004404  17.8993726  50.8108091
  21.7838979  18.7710977  51.4084673  27.0630312  33.3430791  60.3699589
  27.0160246  32.8768063  61.2045908  27.4534655  32.7124119  59.7649384
  39.2221189  33.8866019  44.8620653  38.5880232  33.1966877  45.0574350
  38.8147521  34.3946505  44.1605139  44.3903303  38.6846662  65.7533693
  44.6036577  38.0491138  66.4365911  44.7557163  38.3076453  64.9530077
  30.2911755  85.6646749  52.3878336  31.0877558  85.7311371  52.9144001
  30.2390143  86.5013349  51.9257593  17.2164369   2.9174820  75.2832556
  17.6124692   2.0595780  75.1303148  17.9266918   3.4483147  75.6437922
  22.0429564  35.1265812  45.7499647  22.4024820  34.4299674  46.2992382
  21.2241530  34.7653532  45.4103947   5.4522938  15.7090962  75.5775928
   6.2644535  15.4545605  75.1395941   5.0491130  14.8800540  75.8352041
  34.8367548  44.6650982  68.9965057  35.7556319  44.8773479  69.1603518
  34.3975139  44.8448372  69.8277664  17.5701261  16.0229945  69.5747328
  17.5897551  16.9593465  69.3770170  18.2100701  15.9132445  70.2780533
  91.4903121   9.9529934  46.8344498  91.2535804  10.0149405  45.9090567
  92.4464114   9.9984658  46.8406534   2.1145050   8.5718343   4.7536071
   2.6847283   9.3404385   4.7716506   1.5917818   8.6800095   3.9590629
  49.5051956  31.5013933  61.8336248  49.0420818  30.7807446  62.2607327
  49.8569155  32.0216441  62.5560236  21.5110347  71.1609703  28.6595225
  22.3390767  71.2278014  28.1840158  20.8601186  70.9768766  27.9822850
  39.1885614   7.7232611  32.0479369  38.9039660   7.5520521  32.9456687
  40.0623274   7.3359215  31.9956875  17.7385330  29.3307376  62.6373053
  16.9749296  28.9336729  63.0562067  17.8721130  30.1514578  63.1114435
  42.8904179  49.9385038  24.2765983  42.3459342  50.6537750  24.6054729
  42.7032724  49.9068889  23.3384021  11.1971319  20.0959897  54.0625906
  12.0244491  19.7657895  53.7122440  10.5483830  19.8732305  53.3949566
   1.2779044  21.3854218  68.3212757   1.6439205  21.4998770  69.1982937
   0.5863282  20.7332444  68.4335995  90.2371221  39.7351933  34.0027857
  90.0905641  40.6416512  34.2731261  91.0375996  39.4756460  34.4589686
  25.4025674  23.9201689  52.1616507  24.7840309  23.2036543  52.3039675
  26.2533855  23.4893537  52.0795488  36.0193014  23.9239931  57.1128845
  35.4265738  24.6634221  57.2476244  36.1505866  23.5596728  57.9882526
  38.5921025  22.7008295  76.5930700  38.9258695  23.4861326  76.1593294
  37.8337598  22.4420023  76.0694695  84.2675954   2.5955674   1.6515811
  84.0404350   1.6686389   1.5778430  84.9674303   2.7223536   1.0109647
  56.6460562  26.1704993  51.1247492  55.7963228  25.7353091  51.1940050
  57.1669149  25.7931066  51.8336248  72.8680788  77.7383667  69.9312019
  72.0250462  78.0822521  70.2266121  73.4474753  78.5002345  69.9217033
  87.1263014  76.7888862  58.3205271  86.2138282  76.8445510  58.0367517
  87.4036156  77.7001017  58.4154701  26.6096473   5.5688900  51.7032242
  26.5891409   4.7083044  52.1218014  27.3608112   6.0102350  52.0997095
  89.0076425  35.5494285  72.2018576  89.6148088  36.2371087  72.4751282
  88.4829809  35.3692961  72.9819345   4.5472471  24.4097564   2.1081765
   4.6459810  24.6543500   3.0283149   4.7393267  23.4722516   2.0876105
  77.1448340  39.1138315  46.9682455  77.4222281  39.3780446  47.8454399
  76.8689301  38.2027602  47.0685530  26.0482240  11.8447852  52.0284748
  26.8411827  12.3787129  52.0771456  26.1510420  11.1989784  52.7274656
  64.7164896  67.5633207  15.5867179  65.2943280  66.8008938  15.5544551
  64.7866681  67.9540601  14.7157176  51.4663887  27.1172500  57.2600365
  51.3756227  26.5281391  58.0089998  50.5725098  27.2358465  56.9388819
  79.1969599   2.1380202  58.4282684  79.1470458   1.5473747  59.1798544
  78.2841100   2.3026098  58.1919527  29.8825359  26.4334989  50.8802605
  29.5964837  26.6268849  51.7730141  29.6604371  25.5112910  50.7520628
  27.2901834  70.1246372  21.9404586  26.4901651  70.1164666  22.4659427
  26.9816698  70.1172629  21.0343726  25.0182196  84.9320206  59.1694260
  24.8662516  84.1075933  58.7074089  25.5359790  85.4568142  58.5588932
   7.2534943   9.3699718  57.0297241   7.5418580   8.4771222  57.2191906
   6.6854537   9.2808932  56.2644625  33.3769345   1.4176393  32.1481466
  33.0090451   2.0761511  32.7374291  34.0022874   0.9350599  32.6887798
  46.6321230  11.1655653  42.4927616  46.6883612  11.6593170  43.3108568
  45.6945658  11.1176264  42.3059082  60.0826597   9.6573621  24.4736266
  60.2880383  10.4289913  23.9457631  60.2851439   9.9205106  25.3713942
  46.5551630  46.7946133  20.7039245  45.7990161  46.2270497  20.8534129
  47.2504571  46.1987792  20.4250415  39.8803306  61.6018867  41.0669565
  39.7761822  60.6679821  40.8847380  40.0262880  61.9986582  40.2081776
  23.7220621  22.9747629  55.5137587  23.0565262  22.3574734  55.2100372
  23.6684370  23.7064695  54.8989773  28.0228710  49.9157333  76.4918613
  27.6992869  50.7963467  76.3020039  27.5747228  49.3543243  75.8592367
  45.1789761  24.2697310  53.3353519  45.4418898  24.1934180  52.4181366
  44.3780470  23.7494469  53.3990097  53.1664801  26.7437196  30.8233309
  52.8295755  26.0713100  30.2312231  54.0613604  26.9013309  30.5223584
  27.1057677  25.9041500   4.3732721  27.1619964  26.7800951   3.9914432
  27.2237802  26.0443759   5.3127623  44.6762180  26.1815667  59.5954990
  44.2956400  26.9659495  59.2003584  43.9741898  25.5317521  59.5619297
  21.2036909  62.6014617   8.8163741  21.7871488  62.2784248   9.5029910
  21.4795126  62.1337905   8.0280574  46.8328905   6.7219877  65.3203201
  47.0272064   7.2260261  64.5301151  46.1855555   6.0754734  65.0388765
  56.9045019  11.0291398  60.3645992  57.0825720  11.0597217  61.3045931
  57.7575016  11.1719823  59.9544621   5.2855584  83.9027369  32.2766137
   5.0242230  83.5299122  31.4346290   5.7645389  84.6991953  32.0475674
  84.2751789  22.9219604  56.7568874  84.3795967  22.0785928  56.3163662
  84.0043449  23.5228395  56.0627508  27.0390844  10.4362047  25.0182700
  27.9064441  10.1058853  24.7841573  26.8722296  10.0750804  25.8888912
  93.8121663  88.3413667  33.6325359  93.6650859  87.8993247  34.4687176
  94.6469199  88.7959621  33.7455082  19.9335861  39.0358043  71.2529516
  20.2513361  38.5721445  72.0277309  18.9954960  38.8470364  71.2288046
  62.0405653  72.6456871  17.7721675  62.5101164  73.2926932  18.2986148
  61.7913440  71.9642439  18.3964713  81.2955536  14.1574025  62.1729994
  81.5146401  13.2825875  62.4938297  81.5181758  14.7411752  62.8981733
  71.6469111  16.3705134  48.4507942  72.0853509  17.1362269  48.0797386
  71.9971337  15.6303513  47.9550743   7.9838842   6.6854244  45.9721231
   8.3038169   5.7914311  46.0931635   7.7258778   6.7248493  45.0511932
  26.1741281  33.1588292  74.6340275  26.7856574  32.6455307  74.1060209
  25.3103185  32.8240204  74.3932581  57.4113369  14.2374682  72.4157667
  58.2628870  13.8087928  72.3301697  57.5671291  14.9604058  73.0234861
   8.6943787  36.2659574  55.0899649   8.0964643  36.0077000  54.3885136
   9.1274881  35.4520559  55.3472805   3.0703327  47.8950828  56.0157013
   2.4617407  48.1411546  55.3190660   3.9214513  48.2117218  55.7130909
  58.0950212  27.1016431  44.7309208  58.5933495  27.7472711  45.2319860
  57.5745249  26.6387510  45.3874588  24.3475866  42.8640747  57.5442839
  24.1361976  42.7152538  58.4659147  25.2750897  43.1006336  57.5464630
  57.3931599   8.6409819  50.7408428  57.7521324   8.1535393  49.9993801
  57.4210453   8.0220145  51.4704561  11.3094342  27.1273017  66.1302567
  11.3660359  26.6471624  65.3041220  11.1211109  26.4553332  66.7854071
  59.9940255  88.5791913   3.5617240  59.6653775  88.3676711   4.4354995
  59.2254236  88.5153523   2.9947980  13.9666033  29.1099620  56.9713306
  14.5712650  28.3904672  57.1528339  13.1499493  28.8497972  57.3975039
  39.9245024  28.0573440  69.2142773  40.1997614  27.5192833  69.9565363
  40.3193665  28.9134908  69.3795919  81.8897915  16.8402505  44.6701002
  82.6801205  16.3019562  44.6270895  81.6829395  17.0354784  43.7561369
  44.0687323  31.2771583  39.7979116  44.0627909  31.8204927  39.0098858
  43.2775497  31.5336800  40.2716780  43.4305620   8.3368009  20.1300693
  43.0443954   8.2314777  19.2605770  44.3359470   8.0436951  20.0271392
  24.6044421  27.7123785  64.9255705  24.5699763  26.7638993  64.8013544
  23.9992619  28.0617571  64.2714119  30.1017520  84.8433948  65.8792543
  30.6390425  84.0539491  65.8134604  29.3920275  84.6011922  66.4741087
  54.4882917  29.4016552  63.0465698  54.2764664  30.2868032  63.3430099
  54.1447306  29.3593073  62.1541548  56.8904221   2.5396535  24.6640666
  56.7109621   3.0698296  25.4405578  56.0882139   2.5960347  24.1449149
  49.7480679  24.6833873  56.8765450  50.4289579  24.6762538  57.5492811
  49.0410185  24.1542435  57.2457695  21.5704036  46.6189098  67.0219660
  21.1556435  45.8854151  66.5678835  20.9472513  47.3398304  66.9315195
  47.5915289  21.0520339  69.6493387  48.1770945  21.7401552  69.9652958
  47.3204088  20.5863333  70.4404449  90.5164463   2.5785872   6.0182746
  90.7985455   3.4403655   6.3248618  91.1483223   1.9696852   6.4006408
  90.8058034  80.5854934  49.5384216  91.5744602  80.6911260  48.9778519
  91.0225545  81.0688353  50.3356886  31.8776703  84.9413243  21.2125381
  31.0223351  84.8173085  20.8011325  31.8067479  85.7825699  21.6636546
  64.6337366  37.4947453  67.5266933  64.7725821  37.0118546  68.3414125
  64.5432329  38.4071660  67.8015232  34.9593568  62.2126484   8.8636971
  35.5569005  61.6617060   9.3693036  34.5520997  62.7843237   9.5145094
  80.1465181  44.9662743   7.6159747  79.4770435  44.9834821   8.2998927
  80.7384542  44.2611400   7.8779395  42.4947071  35.2338862  54.4209337
  42.7776098  35.7767916  53.6850977  42.7680063  34.3477249  54.1837502
  27.4396348   6.0281903  61.0629082  27.5473523   6.4871311  61.8959761
  28.3320594   5.8170104  60.7886553  15.4059645  88.7510241  55.4754686
  14.9533030  89.5541102  55.7331228  15.4699418  88.2422914  56.2837601
  53.6597538  13.4192741  62.2861242  54.1865540  14.2180705  62.3113728
  53.6906242  13.0835938  63.1820059  34.5642805  44.9624395  56.9951773
  33.9151049  45.5939484  56.6853476  35.0798655  45.4460478  57.6405621
  45.7681847  11.8412530  31.4910674  45.3416014  12.0260346  30.6543398
  46.1006069  10.9484255  31.3984179  63.6853886  31.0394907  65.3478909
  63.3178520  31.9230914  65.3678274  64.5937347  31.1515355  65.6282234
  61.7932442  78.4203854  16.9072707  61.7727569  77.4743524  16.7629130
  61.0913041  78.5817209  17.5377353  39.7427654  15.8896852  58.3984709
  38.9319706  16.3453424  58.6247921  40.1117134  15.6245756  59.2409801
  29.7799325  38.8506675  63.6751127  28.8578606  39.1028690  63.6260366
  30.2343345  39.4980526  63.1360006  23.2394028  15.6473660  37.6303601
  23.1585169  15.2684653  38.5056448  22.9588580  14.9482071  37.0398521
  42.0108652  44.1236782  51.4688492  42.1765661  43.1971645  51.6430664
  41.1253262  44.1445303  51.1060619  75.3533176  86.0409251  34.6813377
  76.0918000  86.5698281  34.3794520  75.6463865  85.6744471  35.5156215
  17.6599991  56.3880825  26.4818907  17.9463112  55.4922915  26.6602588
  16.8207514  56.2863827  26.0329437  55.4882812  22.1367955  52.9193449
  54.8480225  22.7606559  53.2615423  55.2210093  21.9929576  52.0115376
  16.4025652  43.1797075  47.4142599  16.9952595  43.1096077  48.1626129
  16.3888943  44.1139317  47.2062445  29.5571399  46.5939283  39.4743681
  29.4778037  46.4685917  38.5287309  30.4345417  46.2748289  39.6854901
  41.1731148  33.9147043  60.7338619  41.8341351  34.5422459  60.4414988
  41.5427637  33.5303378  61.5287542  45.7435894  34.3739033  43.5545158
  44.9007273  34.8017454  43.4036160  45.5494976  33.6766005  44.1808748
  45.6534100  16.2305307  38.5567951  45.1210833  15.4380119  38.4876823
  46.5391207  15.9443641  38.3335066  20.2364366   7.0846888  16.7279800
  20.4973189   7.2699878  15.8258517  21.0338656   6.7596719  17.1459563
  38.9907850  82.3023811  31.9575484  38.5385526  83.0717864  32.3035796
  38.8371195  81.6201511  32.6111396  61.6739941  33.4456992  72.4228239
  62.2984695  34.1676259  72.3515272  61.8305588  32.9155254  71.6413879
  65.0724363  51.7111588  55.0849056  64.7871590  52.0684958  54.2439795
  64.9101782  50.7705641  55.0128889  44.9381828   4.5231435  69.3863201
  44.8191452   4.5384777  68.4366751  44.9992514   3.5932767  69.6050692
  77.0115522  74.4755259  43.6966880  76.6718534  74.3576398  44.5837863
  77.6705125  73.7881341  43.5992320  12.4524474   1.0916272  28.2908177
  13.4022164   1.1641650  28.1964302  12.2406769   0.2315944  27.9278731
  85.3558679  35.5810308  48.7036991  86.0831108  35.2919626  49.2548704
  84.6603562  35.8040142  49.3223858  83.9752566  85.4938859  61.5455818
  84.4239317  85.4684675  60.7004309  84.6810852  85.5469072  62.1899652
  61.1898402  84.3373480   5.6980308  61.8060759  84.8326292   6.2376388
  60.6344989  83.8786092   6.3284095  38.7449193  40.2465773  46.4537287
  38.6765504  39.6538544  45.7052422  39.4623113  40.8380032  46.2261534
  54.1057682  28.4080768  72.4125004  53.3219099  28.8479137  72.7416468
  53.9879704  27.4911547  72.6607132  89.4500800  24.8467016  57.7297831
  88.9339944  24.0762019  57.4926758  90.3530474  24.5304322  57.7590418
   8.9835898   3.1829879   1.3915427   9.8908441   3.2628009   1.0970100
   9.0489451   2.8068063   2.2692950  10.5217421  23.7723017  35.5624771
  11.3846684  23.3643341  35.4906821  10.6079102  24.3885183  36.2898564
  52.1703580  82.1933809   3.8479503  51.5615037  81.7594424   4.4456370
  52.9278186  81.6092697   3.8119014  92.4383837   1.0954520  21.6548141
  92.4771172   2.0517871  21.6673644  92.0334322   0.8611628  22.4898894
  38.2123995  50.4717493  74.1808033  38.9007378  50.9689236  73.7389374
  37.3964453  50.8631182  73.8689041  21.8686454  13.4601971  36.2333282
  22.2823159  12.6112458  36.3895019  20.9294621  13.2766864  36.2554820
  75.2748826  64.1242590  12.7048286  75.3644422  63.7739411  13.5911067
  76.1695245  64.3386581  12.4404891  16.2037444  40.9325123  61.5955782
  15.4122627  40.4002857  61.5147924  16.8575966  40.4705572  61.0708857
  46.1721531  83.5175982  11.1783870  46.5697649  84.3342271  10.8763011
  45.6302861  83.7764230  11.9237788  41.9964838  41.5248156  49.4920349
  41.8425941  41.4037132  50.4289865  41.1203003  41.5703726  49.1093254
  50.2263069  31.8771911  37.4520802  50.2644444  32.0942688  36.5206003
  49.4037580  31.3981462  37.5528884  46.4455226  64.0356543   8.7995036
  45.6905356  63.8514355   9.3583377  46.0971800  64.0048340   7.9084762
  18.1844676  31.0819578  45.6887960  18.4338391  30.6071186  44.8959684
  17.2580600  31.2875843  45.5634260  29.5460320  21.3947582  44.8265982
  30.1629949  21.9848943  45.2594137  28.6833119  21.7421007  45.0530863
  48.0429459  37.2176480  64.6949434  48.3421469  37.2083092  65.6041336
  48.5431242  36.5202641  64.2710209  17.6023912  60.1556396  46.5297556
  17.7950680  60.7688427  47.2390461  16.8867457  59.6167088  46.8668556
  40.1394558  17.9770386  35.1100421  39.4806504  18.6042559  34.8120403
  40.9669876  18.3208776  34.7736025  47.3876762   5.7203370  68.5063791
  47.9441166   6.2083501  69.1133785  46.8823862   5.1306373  69.0659904
  87.7713969  68.6550990   1.9622357  88.0704501  69.5042315   2.2874625
  87.0604184  68.4088698   2.5539382  39.8566675  27.6215100  66.3117647
  39.1369247  28.2119489  66.0890913  39.9710298  27.7287483  67.2560406
  32.2534776  50.3989840  63.8224888  32.1804857  51.2282515  63.3500290
  31.8735147  49.7510386  63.2291651  21.0346770  13.1439149  55.5844498
  20.4782557  13.7954152  55.1576281  20.7966852  12.3157239  55.1676893
  49.6738577  37.6216912  73.4141016  50.4380131  37.0598054  73.5428619
  48.9520025  37.0124841  73.2590961  92.9680091  16.6449210  32.3194011
  92.3709661  17.2429797  32.7689632  93.3330399  17.1644351  31.6030963
  28.1571531  13.4546697  38.5271239  27.9010320  13.3854938  37.6074243
  27.3289180  13.4557068  39.0069747  57.1847820  29.8599553  63.6773539
  56.2664175  29.7083759  63.4540462  57.3940325  29.1727352  64.3099499
  88.8317521  22.6835394  74.3570757  87.8805478  22.6356936  74.4527483
  89.0641000  23.5456753  74.7019958  23.4044075   6.7163455  45.1007938
  22.8604627   7.0791107  44.4016838  24.2934299   6.7345786  44.7464848
  12.0571125  39.2019415  46.4005089  12.6500356  39.0238166  45.6704807
  12.6334023  39.4622397  47.1190977  63.3945656  41.6788912  70.8555794
  63.1905127  42.3391438  70.1932716  63.4536457  40.8586121  70.3658009
  70.0002289  46.9197655  54.6025419  70.1408148  45.9751129  54.6665573
  69.8439121  47.0760822  53.6712217  46.6543674  13.7906981  71.4213419
  46.3206673  13.6046934  70.5436897  47.5902653  13.5971618  71.3677359
  14.6566884  12.6818320   3.6741622  13.7780158  12.6142499   3.3005412
  14.6887557  11.9921395   4.3371280  32.3541617  41.0981989  44.3404055
  33.0302811  40.9630823  45.0043631  31.5667701  40.7051802  44.7169495
  29.5213525   1.3903472  21.4466746  29.8855988   0.5088422  21.5273364
  29.0287606   1.5210244  22.2569259  20.9248376  36.8509269  61.3586330
  21.5883803  36.5883112  60.7206869  21.3848901  36.8472743  62.1980190
  60.0271395  61.7418983   7.6198466  59.5883587  61.4526322   8.4198650
  59.4358352  62.3946348   7.2449859  38.6620156   6.8211791  22.4532588
  38.3001773   7.4246690  21.8043311  39.6103494   6.9229981  22.3724540
  34.5305967  23.9556170  67.2874832  33.8846087  24.2976618  66.6694736
  34.3007684  24.3615222  68.1233406  29.6513438  13.5330689  15.0208116
  29.7978425  13.7521732  15.9410083  30.2370191  12.7944994  14.8542845
   9.7430891  43.4854126  66.1697102   8.8788843  43.8122940  65.9196520
  10.2124083  44.2606306  66.4779425  28.4548306  62.7484846  56.4174604
  27.9897642  61.9156265  56.3381720  29.1532898  62.5736904  57.0482016
  14.7680724  42.4832392  65.7011414  13.9158714  42.8129816  65.9861946
  15.1757789  42.1504784  66.5006876  29.2998457  32.4786711  52.5719690
  28.5220623  33.0156636  52.7233696  29.6704268  32.8181672  51.7573261
  29.3088222  24.5919323  41.0636997  30.2298737  24.8113489  40.9231710
  29.2249846  23.6938286  40.7433701  12.3290078   7.9790494   6.8896850
  11.6595523   8.3808705   7.4434074  12.0592467   7.0638034   6.8136676
  38.8449168  19.0370417  48.7843466  38.9183950  19.1374016  49.7334290
  37.9954076  19.4213879  48.5679102  61.3005209  30.2554560  53.1100988
  60.6471205  30.6357908  52.5230312  62.0029402  29.9629593  52.5293350
  31.0708451  25.4143333  74.1077614  31.9545889  25.0679636  74.2312765
  30.5323315  24.6415186  73.9374876  30.9861946  38.0598593  76.1289787
  30.4279494  38.7391925  75.7506895  31.8512154  38.2241249  75.7534981
  34.8990202  37.5790906  57.4208736  34.8498154  38.2744265  58.0768585
  35.7055402  37.7613711  56.9386578  78.6495876  45.3205395  73.4348869
  77.9928970  45.8404493  73.8982201  79.1897821  44.9431658  74.1291523
  31.0449672  23.1658053  66.9403172  30.6802368  23.5586262  67.7333450
  31.8378448  22.7191687  67.2371197  14.6575753  39.3836066  21.5939601
  14.8681371  38.8931319  22.3885234  15.2392976  40.1433036  21.6202243
  36.5090704  24.4601560  44.8042679  36.1438513  25.3447700  44.7867346
  37.3679829  24.5474076  44.3908787   2.1170697  25.1719689  60.7702351
   1.4613439  24.8393440  61.3831091   2.9408929  25.1321959  61.2559938
  69.0251255   5.3196889  56.2627888  68.8704824   4.6260351  56.9040108
  68.5820198   5.0164604  55.4703617  15.4965663  64.8616028  70.5628633
  14.8514891  64.4998312  71.1705017  15.8063757  65.6602526  70.9899521
  11.4355302  37.0345592  55.8327293  10.5692887  37.2789645  55.5069637
  11.2682331  36.6511297  56.6936731  53.8567066  44.0889788  63.9818287
  54.6836424  43.9062405  64.4279432  54.0401554  44.8586559  63.4431553
  30.6811523  37.2070527  61.0421228  30.2619720  36.3645267  60.8669901
  31.2321448  37.0458221  61.8080473  51.6650867  10.6765676  63.2843733
  50.9598351  11.2348211  62.9569530  52.2344208  11.2714195  63.7724781
  28.6303663  32.0814085  58.5643864  29.4393873  31.5704417  58.5393381
  28.6062217  32.5332046  57.7208614  10.3804061  89.0965905  33.5164881
  10.6942126  88.7934945  32.6644945  10.6016871  88.3869423  34.1195345
  32.8629971  32.7282405  70.9950161  32.9190922  32.2104049  71.7980909
  33.7702751  32.9580474  70.7943487  75.4677677  50.7958078  65.5285740
  75.3578949  50.0167274  66.0737324  75.9450054  50.4845619  64.7594213
   9.6620917  44.6610641  73.1794786   9.2403156  44.8716307  72.3464108
   8.9691335  44.7644901  73.8316631  26.0421610  25.6532145  54.2576551
  25.6676412  24.9097681  53.7851572  25.2832580  26.1331272  54.5892906
  44.6423769  32.8714371  53.5636854  44.9703169  33.6144161  54.0703106
  44.6769285  32.1329904  54.1717434  32.5921583  48.9012718  70.7958937
  33.5306668  49.0227127  70.9397125  32.1857285  49.1843271  71.6149950
  52.9978943  14.9167597  54.8437309  52.5808573  14.9888277  55.7022858
  53.1819391  15.8212316  54.5901775  40.2066517  10.5744886  26.6283536
  40.2688646   9.6531105  26.3765144  39.7780919  10.5604637  27.4841404
  68.0664396  20.5228949  45.1730013  67.8139544  19.7171807  45.6239033
  68.8926268  20.7782245  45.5834341  64.3187809  51.4352560  61.0931540
  64.5149136  50.7051182  60.5060720  63.9345455  52.1029043  60.5249596
  68.3343104  60.3514340  18.7152274  67.9531863  59.4920292  18.5352214
  68.1366947  60.8692863  17.9348357  69.4844678  87.8602448   1.0164388
  68.6738208  88.2452193   1.3494237  69.2560938  86.9510022   0.8231624
  58.2257509  27.6958084  65.1151037  57.4891901  27.0914984  65.2073812
  58.8598490  27.4022126  65.7692862  44.5876408  34.1718149  72.1775675
  44.6172047  34.9249458  72.7676058  44.5339394  34.5553207  71.3021946
  44.0895510  28.7506795  41.5395451  44.2258263  29.5521569  41.0342789
  44.6087599  28.8770056  42.3337078  10.6596410  49.5240116  50.2052736
  10.3659189  49.8012924  51.0730743   9.9109060  49.0544128  49.8377132
  38.2183385  41.3495302  38.2931781  38.9721274  41.8237543  38.6440992
  38.5767412  40.5103970  38.0039811  20.7287359  35.5401993  70.7863379
  21.5117645  36.0343885  71.0289764  20.6081915  35.7246375  69.8548412
  17.4703395  30.6432486  38.1815219  17.1229374  30.5741405  39.0707731
  16.9463432  31.3320041  37.7725291  40.3318834  11.0114968  49.2882013
  40.1733351  10.6321764  48.4237862  41.0846853  10.5275095  49.6277237
  50.0465775  61.5021658  48.5833454  50.4856062  60.6837511  48.3516645
  49.1913080  61.4440536  48.1574678  51.9135857  34.8992610  47.5431204
  52.2896671  35.5847740  48.0952644  52.6653004  34.5173955  47.0899868
  61.6864967  12.4334753  33.2080650  61.2411404  12.8774059  33.9297438
  62.4324369  11.9968164  33.6193180  33.7237978  31.7311406  38.7427568
  33.6657548  32.5096512  38.1888771  34.5736694  31.8084741  39.1763115
  18.1252718  46.2409544  61.6080332  17.4454749  45.6189585  61.8673277
  18.8343632  45.6937838  61.2703514  26.8130922  40.3602695  35.2832532
  27.2631454  41.1308384  34.9369764  27.3810506  39.6260476  35.0496364
  49.7838831  70.0042582  69.2830753  50.3441858  70.7379627  69.5359945
  49.4073725  69.6952581  70.1070833  93.1569382  28.6863661  71.4547586
  93.9195029  28.3839941  71.9480085  92.4088869  28.2977366  71.9082117
  28.7126637  59.6439409  38.0412149  29.1064119  58.9341640  37.5338531
  29.4289732  60.2627707  38.1832767  89.3887415   1.3968317  64.1131639
  90.0891541   0.8362772  63.7793493  89.3039011   1.1512008  65.0344133
  54.2798594  51.5407148   3.9879306  54.0080837  51.7439166   4.8829635
  53.9056018  52.2447422   3.4583076  60.8638716  19.5478845  34.9216080
  61.4825773  19.2659366  35.5953598  61.1418390  19.0838635  34.1318941
  12.9825377  40.9228420  61.7697954  13.2316363  40.8946991  60.8460045
  12.1575224  41.4080858  61.7807198  17.0594931  39.0793848  70.7332563
  16.5193510  38.3897567  70.3473854  17.2309971  39.6822739  70.0098324
  27.1131253  43.1984043  34.0174794  26.3245702  42.7177858  33.7656498
  27.0882726  43.9944220  33.4864688  18.0266213  15.5975032  62.2605276
  17.8325522  14.6720934  62.1115732  17.4421895  16.0639870  61.6629791
  72.2263288  23.9147401  67.2996187  72.3006582  23.2090831  66.6571569
  73.1104040  24.2764282  67.3614788  42.3088312  34.7284889  33.9260316
  41.8464994  34.8327994  34.7576571  41.9723463  35.4349065  33.3746839
  19.4210450  27.8635022   9.0313323  19.9022977  27.3127124   9.6487983
  18.6888949  28.2110163   9.5406612  62.4146465  57.7495757  12.0421394
  62.7007130  57.5679150  12.9373534  61.9343642  58.5750165  12.1070274
   0.5224986  20.5274820  48.7080336   0.9835613  20.5620217  49.5461655
   0.8885418  19.7621894  48.2646704  43.1876802  44.1488171  62.2698116
  43.6291456  44.9933004  62.1793079  43.4529781  43.8311481  63.1329060
  72.3196459  10.3549361  65.9842062  73.0523825  10.2191496  66.5849495
  71.5469027  10.3714800  66.5488482  88.9865762  21.1349293   1.7632373
  88.1367928  21.0953471   2.2020276  88.8415724  20.7037684   0.9210332
  58.0352354  44.0057182  58.2701063  57.8059578  43.3472347  57.6143169
  57.5654173  43.7326908  59.0581131  27.4513364  44.3617105  76.3209581
  27.5527382  45.1170969  75.7418680  28.3474851  44.0979433  76.5297127
  45.3643703  35.8273005  58.5389328  45.9399843  36.0183263  57.7983856
  44.9463606  36.6646934  58.7396145  53.0731821  39.3260360  74.4210291
  53.0412102  38.7162566  75.1581717  52.2118473  39.7435594  74.4180441
   2.2393887  16.0481164   1.3825114   1.8976132  15.6117245   2.1628841
   2.4384801  16.9379994   1.6735490  88.2649902  87.4938240   4.3174537
  87.6589015  87.4405852   3.5784896  87.7063754  87.6780453   5.0726016
  52.4864483  81.1860085  20.4109645  52.4239302  82.1411514  20.4159451
  51.7503405  80.8949947  20.9491920  82.2350597  19.3493271  52.2996902
  83.1447124  19.0570259  52.3573923  81.9980431  19.5736682  53.1995392
  69.8904371  48.7327909  74.8909140  70.0356960  47.9524231  74.3559742
  68.9936876  48.9988995  74.6877861  38.3053088  66.7035866  63.3197546
  38.7903190  67.4534893  63.6642027  38.7387776  66.4979601  62.4914742
  45.3936291  37.4559498  48.2060337  45.4745531  37.8254771  49.0853119
  45.7237625  38.1424451  47.6264048  67.7778959  38.0361509  72.2597837
  68.7065649  38.0992508  72.0365667  67.7580309  38.0774617  73.2158899
  70.6563187  70.4119015  72.3838329  70.5036354  71.2505627  71.9484425
  69.9927902  70.3753948  73.0727673  52.6147032  37.1889520  68.3143091
  52.4212170  37.3034763  69.2447281  53.5283089  37.4600506  68.2245255
  66.3591146  54.1113615  74.1444683  65.6646395  54.2731094  74.7830391
  66.6172981  54.9832106  73.8453960  78.2024053   4.4099432  48.4359837
  79.0167621   4.8202616  48.1449604  77.6913121   4.2971426  47.6345539
  62.7229977  52.2931910  63.7995005  62.2947454  52.1717215  62.9521084
  63.6584377  52.2316170  63.6061239  67.8361797  52.1366644  71.0957336
  67.7189779  51.4914131  70.3984928  67.9016161  52.9747486  70.6379509
   9.9368919  64.8323384   9.5987876   9.5224394  65.6366387   9.9111446
  10.5531086  64.5956364  10.2919658  90.5040506   6.9247443  25.6438804
  90.3692106   7.6663119  26.2339115  90.2026275   6.1647326  26.1416364
  83.9159203  64.6576262  57.8692722  83.2407570  65.0107765  58.4486485
  83.9861774  63.7357998  58.1173277  45.1023960  82.2368050  27.7766728
  45.7366323  81.8028164  28.3473086  44.5113611  82.6909542  28.3772206
  52.7329063  68.1839085  70.7887268  52.7063274  67.3197746  70.3778696
  52.2759581  68.7562895  70.1724434  41.1981074  20.8981797   2.5081761
  40.7930629  20.5116126   1.7318137  41.2585799  21.8320319   2.3069509
  53.8597345  23.5070014  71.4612293  53.3101559  23.1528950  70.7620859
  53.8172197  22.8495049  72.1555805  20.7799053  36.5995646  51.5944242
  21.1141515  36.7980886  52.4691248  21.5053058  36.8116093  51.0070038
  25.1299967   2.2129351  59.9829721  25.0662245   2.2637755  60.9366941
  24.8659242   1.3172346  59.7726774  21.2962214  33.2968184   1.7790397
  22.0851962  33.5804841   1.3172181  20.6354730  33.9495656   1.5475877
  59.0508393  81.8217626   4.2142947  59.7687248  81.1933961   4.2919334
  59.0732792  82.3136797   5.0351127  71.2279272  67.6667881  74.5118999
  71.6122723  68.2101536  73.8239574  71.1045837  66.8113232  74.1005564
  44.2529774  79.5975876  24.0686512  44.6035910  78.9199209  24.6466374
  44.3727922  80.4130363  24.5553994  34.8334805   8.3432338   1.3652976
  35.5354325   7.7854058   1.7004378  35.2580373   8.8926026   0.7063802
  80.3221321  80.3422356  40.4128361  79.4815397  80.7804203  40.2800608
  80.1547146  79.7095013  41.1112928  26.4246003  32.1450373  19.4231017
  26.1295382  32.5017115  18.5852798  25.6378858  31.7612502  19.8104175
  47.0763016  80.1894379  57.9038525  47.3995161  80.8285618  58.5388947
  47.8041315  79.5788479  57.7869081  74.4785503   4.8489386  58.0990076
  74.8469547   4.4552332  58.8898945  74.0542701   5.6502920  58.4056807
   8.5504763  23.6852786   1.5150436   8.0488984  24.4886252   1.3761886
   8.4859912  23.5222861   2.4560578  85.8912945  47.8799152  28.9179349
  84.9829769  48.0810976  28.6927295  85.8973312  46.9343996  29.0669060
  75.9344339  44.6285391  44.3960762  75.9123564  45.0664186  45.2469635
  76.3952208  43.8060856  44.5618439  14.1549413   2.3897454  25.1281627
  14.3986670   1.5591714  25.5367931  13.9100997   2.9545495  25.8611568
  70.7504082  47.0183277  66.6320801  71.2311077  46.9289637  67.4549866
  71.2088966  46.4396858  66.0228205  68.8258982  45.5608797  70.1363468
  68.8594055  45.0462675  69.3299437  67.9590845  45.9667826  70.1255989
  58.0132961  64.1165161  64.8016024  58.5927534  64.1037321  64.0398264
  58.4876108  64.6310043  65.4547167  12.2295777   1.0080382   3.0945285
  11.9011800   1.8489405   3.4127601  11.7514293   0.3551862   3.6057838
  69.5212603  41.5141630  63.4710073  69.3475294  41.9619942  62.6430559
  69.0381241  40.6905794  63.4038162  12.2951804   0.5361229  50.6472635
  11.3431082   0.4591856  50.5849934  12.6157580   0.2379461  49.7960567
  50.2592042  53.6807462   9.7144588  49.4476512  53.1731990   9.7177775
  49.9776927  54.5835474   9.8625548  10.5268447  26.4909217  43.6085399
  10.0129573  25.7460782  43.9205726  10.1131646  26.7375895  42.7813418
  26.0940504  59.9599075  66.8114662  26.1245799  59.0764523  66.4443016
  25.2055740  60.0449800  67.1573019  53.9434258   0.1869056   1.8454774
  53.8295476   1.0919663   1.5554364  53.2044618  -0.2831701   1.4592155
  76.1026767  70.9261575   5.7311519  76.2587837  70.6798425   4.8194583
  76.0875753  70.0944558   6.2047370  42.1309344  25.6684682  16.6982921
  42.9193894  25.7669064  16.1645396  41.9529216  24.7279927  16.6914065
  70.7008123  39.0182281  72.3842001  71.6462898  38.9682102  72.5249195
  70.5868626  39.7534275  71.7819309  47.6165056  40.9281206  66.4674854
  48.0247784  40.1466942  66.8402052  47.5536489  41.5389109  67.2018003
  15.0570116  15.9156442  39.7656775  14.6254645  15.5619597  38.9879251
  15.9899435  15.7691169  39.6094298  55.0900745  58.1610870  43.6480522
  54.8511267  57.2504663  43.4751225  54.4693661  58.6740112  43.1305027
  53.4853792  53.5621834  61.4685345  52.7676201  54.1780281  61.3209057
  54.2696953  54.1102743  61.4945698  13.1929748  25.5309388   1.2485917
  12.7391784  26.1318394   1.8395408  13.6701505  26.1019036   0.6464847
  76.3452870  37.1577117   1.5540918  76.5451104  36.2576148   1.8112357
  76.3445181  37.1388480   0.5970796  38.8206593  42.1882960  18.0966647
  38.3824317  41.9862410  18.9233192  38.1136052  42.2198626  17.4522193
  53.0723667  30.7933283  75.7504511  53.2134676  30.0476289  76.3337660
  52.9901361  31.5446568  76.3378000  69.9174142   2.7593276   2.0947297
  69.4687724   3.4969899   2.5080188  69.3784410   1.9988105   2.3123439
  27.7760522  50.9341094  16.4579375  27.4708096  50.0415560  16.6204532
  27.0684878  51.4918181  16.7812522  54.8319960  46.2896729  53.3204985
  54.9947548  47.2161341  53.4977245  54.0303469  46.0905266  53.8041639
  42.2731829  25.7702255  62.1538734  42.7908611  25.0570440  62.5275183
  42.2079229  25.5566621  61.2230873  52.3805666  75.1609898  57.9582024
  52.4695635  75.4071903  58.8789034  51.4391851  75.2007818  57.7895451
  17.9894988  10.1664778  14.7698482  18.0292384  11.0152528  14.3291267
  18.5986821  10.2488229  15.5035670  87.1230316  55.2185202  58.1185389
  86.5679646  54.4405890  58.1728315  86.5283203  55.9493399  58.2872057
   1.3025535  -0.2342313  45.5108738   1.4322389   0.2478606  46.3275766
   1.1695350   0.4454142  44.8500967  24.5128131  25.4290462  26.4297199
  24.1916013  25.0616503  25.6062675  25.2995062  24.9210429  26.6279125
  77.3207715  13.7086779  47.6161861  77.3892120  12.8266245  47.9816008
  76.6160920  14.1209322  48.1158876  45.7429123  64.4178915  24.5515442
  46.6402960  64.2520237  24.2627168  45.8078527  65.2019024  25.0968313
  77.2867298  70.8328676  32.5747585  76.9580984  71.7208958  32.4346161
  76.4998913  70.3049040  32.7102971  39.1552615  34.0114236  76.8244457
  38.4933257  33.7280798  77.4551487  38.7466526  34.7421050  76.3603592
  55.4864216  33.7593651  64.1741943  55.6964350  33.0199361  63.6037827
  55.3114557  34.4834375  63.5730791  17.1158235  29.1805169  33.9293845
  16.3963048  28.7058303  34.3455489  17.7883498  29.2390486  34.6080001
  78.6269617  46.7449808  49.9965286  77.8066826  47.1018171  50.3371716
  79.1232920  47.5131369  49.7139978  89.9695301  27.8485250  40.7882690
  90.7415009  28.0049682  40.2443695  90.2897739  27.3045778  41.5078497
   3.1621755  83.9983240  16.1206802   3.2749618  83.0730000  16.3381370
   3.3536638  84.0493503  15.1842197  88.2430032  80.6164589   4.2325004
  88.4565404  79.6963158   4.0776713  87.4829152  80.5914131   4.8137744
  75.2904367  37.3766088  54.0654516  74.4685125  36.9567871  53.8116360
  75.0326586  38.2511520  54.3569279  43.2768917  35.7381582  43.7654257
  42.8264093  36.5791345  43.6876011  42.6367903  35.1612282  44.1821384
  49.2599344  23.3813882  51.2444830  49.4720840  24.0963674  51.8445063
  49.5871878  22.5958467  51.6827297  87.7099514  60.9132624  40.5093431
  87.5505543  60.0223637  40.1976919  88.0162907  60.8010006  41.4092255
  55.6201553  43.3779716  61.0798788  54.9235964  43.5304117  60.4412842
  55.2812767  42.6814651  61.6422606  43.6570835  62.5300264  74.1902685
  42.8062725  62.6139307  73.7597895  43.4476137  62.4460840  75.1204872
  62.9646969  68.7665701  68.7021017  62.7001381  68.2835150  67.9192257
  62.4843597  68.3472300  69.4160080  54.3183851  66.5499496  57.4052954
  54.7013044  65.6727791  57.3921537  53.3760500  66.3988495  57.4787951
  55.0709343  40.8241749  59.6031475  56.0141325  40.6624317  59.5818758
  54.8928785  41.0844517  60.5069065  73.8277817  45.0495911  61.2671900
  73.4797049  44.1841602  61.0524750  74.2629766  44.9300385  62.1113110
  62.2362566  31.2249470  73.9026308  62.5555134  30.6847310  73.1798029
  61.8884850  32.0099640  73.4795046  62.5543038  34.3925235   6.2017520
  61.7761723  34.1208312   5.7150062  62.2099606  34.8669335   6.9584449
  19.6955363   0.5175540   4.5174010  19.4474999  -0.0814393   3.8131888
  20.6193082   0.7086560   4.3550475  81.0839939  65.5296803  68.6508894
  81.5673923  65.9295893  67.9279613  81.4836025  65.8978891  69.4389057
  70.1017094  75.4631948  66.1017942  69.7782326  76.3638258  66.1232710
  70.9785414  75.5144978  66.4822721  11.6852295  28.2326269  13.4782636
  11.1840761  28.2796359  14.2924309  11.2870336  28.8948369  12.9133320
  89.8476508   7.8636271  28.3337784  89.4337371   7.9107100  29.1955709
  90.7609657   8.1015593  28.4934139  71.8082857  70.8769894  51.1642933
  71.0493755  71.3464546  51.5105534  72.0335627  70.2475452  51.8493366
  53.3446836  27.4592495  46.0761356  52.8316736  28.2630897  46.1591530
  52.8825855  26.9477153  45.4120350  84.6487808  62.6981497  35.8574843
  84.2167759  63.3771133  35.3392005  85.4609394  63.1062984  36.1575603
   5.3565876  22.0288464   6.9357761   4.8135082  21.5560624   6.3050826
   4.7471873  22.2956511   7.6240237  69.6542645  84.2766380  53.8613892
  69.8411179  85.1887512  54.0835762  69.1638899  84.3256378  53.0408049
  57.1490622  57.0881414  62.9740381  57.4544287  57.6784039  62.2851467
  57.1736002  57.6174212  63.7712145  77.3462439  58.7984562  71.1722040
  77.3757315  59.7476387  71.2922621  76.4628887  58.6255503  70.8465958
  30.2898622  74.6585798  51.5290642  31.1675763  75.0398922  51.5078688
  29.7257733  75.3723145  51.8267536  60.3600931  51.2101984  56.1507034
  60.6833267  50.5176067  55.5744457  61.1444950  51.5470314  56.5837002
   4.9997104   0.2897459  35.3212690   4.6613754   0.9390265  35.9378695
   5.6362642  -0.2136606  35.8288264   9.9538104   8.2371995  16.4342483
   9.0505950   7.9529187  16.5743144  10.3855102   7.4785325  16.0414489
  71.1064720  49.7505713  71.7631721  70.3112841  49.4225502  71.3432837
  70.7910538  50.2499485  72.5164032   5.0631873  13.8618180   9.5901282
   5.8325235  14.1505334  10.0810416   4.5024626  14.6363494   9.5463451
  45.5241124  39.9933669   0.1035054  44.9366824  40.1027343   0.8512958
  44.9444024  39.7771594  -0.6268565  48.1808472  66.6070414  69.1635370
  48.7215233  65.8172464  69.1747713  47.7472448  66.6126251  70.0168800
  48.6352365  33.2540080   8.3170589  47.9917304  33.0557200   8.9973529
  49.0586583  34.0590235   8.6152156  53.1737137  62.4177551  29.6487522
  52.4697876  62.3710299  30.2956963  53.4575224  61.5103769  29.5376492
  14.2092479  12.7904040  30.7244968  13.3833851  13.0810362  30.3375673
  13.9964927  11.9574934  31.1454868   2.6467670   9.5604712  60.5656195
   3.1599106   9.2838675  59.8064041   2.8870262   8.9418131  61.2553787
  77.6717758  63.0194330  50.2858973  77.2563505  63.6740637  50.8472443
  77.7369785  63.4440756  49.4305277  11.6573644  55.6716728  25.1294756
  10.7410121  55.5814457  25.3909898  11.9154644  54.7921371  24.8537421
  77.5472085  28.2457396  22.9349502  76.7945401  28.4060761  22.3657210
  78.3032147  28.5178420  22.4147113  90.4257011  47.3214769  35.6924844
  91.3188839  47.1948910  35.3724265  90.4190159  48.2145309  36.0369253
  67.4234295  79.6354723  54.1636944  67.8201675  79.8627138  55.0046396
  67.8471375  80.2183628  53.5336637  68.6898402   5.1510626  71.6023684
  69.0525416   5.4248244  72.4448252  67.7632287   4.9909216  71.7812061
  57.5027800  57.4252796  58.2723093  57.9723406  57.2899389  57.4492502
  56.7602873  56.8229342  58.2263088  58.4722567  73.8799858  68.1949091
  59.0126657  73.2045555  68.6047697  58.0063915  73.4221077  67.4952316
  69.9862480  69.6464682  47.1291733  69.3450308  69.7088337  47.8371096
  70.8080769  69.4285965  47.5688982  85.3458786  83.5516262  65.1566124
  85.0222015  82.8490925  65.7204580  86.2958336  83.5334492  65.2726936
  90.8901742   7.0673186  22.9752851  90.7296470   7.1556383  23.9147878
  90.6251767   7.9100519  22.6067638  68.3462954  56.8307018  33.1995201
  68.3247042  57.7838230  33.2851028  69.0135050  56.5490818  33.8254189
  83.4483242  85.3729343  53.7399054  84.3687248  85.5273247  53.5271645
  83.3276558  84.4319439  53.6125946  94.0666091  46.6097021  38.0723834
  93.1173938  46.6775608  38.1754231  94.1954460  45.8115959  37.5598812
  36.2072675  17.0369050  18.3113273  36.3748042  17.6541850  17.5991996
  37.0544354  16.9363353  18.7454017  56.6453171  49.0929556  69.1221476
  57.4504328  48.8191462  68.6827755  56.0990429  48.3070135  69.1327238
  49.3412129  37.3256919   7.7081378  50.0336282  37.7082202   7.1691974
  48.7916867  36.8468806   7.0876582  47.8647995  64.2557526  40.9069395
  47.5502682  63.3579254  41.0128498  48.4760952  64.3825388  41.6325235
  77.9338029   1.5630060  48.3622313  77.0146611   1.7902190  48.5028744
  78.3416417   2.3805434  48.0767012  66.3411045  57.6659870  51.1048222
  66.8086576  57.2635889  50.3729010  65.6673717  57.0275307  51.3386774
   5.5098690  19.5832259  60.4581642   6.1776937  20.0405699  59.9472094
   4.9903692  20.2829081  60.8541393  46.4784336  35.5246353  68.2440853
  46.9127607  36.0688519  68.9009094  46.2335682  34.7288513  68.7163115
  17.5850786  17.8926951  24.8380923  17.1876348  17.7612025  25.6988931
  17.0258344  17.3991782  24.2381597  84.6147156  50.0836945  72.4234486
  85.5308914  50.3605604  72.4376631  84.6533585  49.1332436  72.3167658
  92.3750973  77.2279596  61.3750172  91.7337608  77.8521538  61.0354424
  92.2077370  77.2012234  62.3170900  37.9626417  75.3697824  53.0480671
  37.8846598  76.3024426  52.8473091  37.0932484  75.0123787  52.8673649
  51.0513353  58.8787127  30.9294081  50.8583307  59.3244314  31.7542195
  51.3512039  58.0084229  31.1919165  58.0465889  77.2734022  46.2409067
  58.5649252  77.6782751  45.5454683  58.6286306  76.6156435  46.6214514
  72.6251173  59.6317768  34.3286300  71.9831705  60.0571585  33.7601376
  73.3710241  59.4531441  33.7559628   8.2346643  75.3361717  24.1798671
   8.0160965  74.8023358  23.4160121   9.1820110  75.4603877  24.1221221
  12.4481503  28.8157222  19.0791686  12.0570628  27.9866120  19.3545993
  12.6234071  29.2812392  19.8969825  82.1565533  71.2227917  15.0008500
  81.2627316  70.8935404  15.0953114  82.6172066  70.8894825  15.7708740
  73.3885717  30.5125976  67.7607775  73.9713621  29.8374724  68.1083345
  73.7162113  31.3291192  68.1378412  72.8013325  75.6358433  54.4517899
  73.5468864  75.9789276  53.9591742  72.6002169  76.3205814  55.0896931
  61.1815929  56.1418629  55.0685549  61.9412184  56.4027500  55.5892658
  60.4620695  56.1007881  55.6985092  18.8656915  14.0170866  58.2169914
  18.7317575  13.6465746  57.3446321  19.2504324  14.8784453  58.0548859
  85.5394650  30.9002137  67.0248365  85.9721279  30.3252721  67.6560831
  85.3483677  31.6975212  67.5188160  14.5598329  88.3207503  12.2757133
  15.2644409  88.3839980  12.9205020  13.7583030  88.4459391  12.7837642
   0.2502168   1.9808394  50.7880163   1.1117758   2.3975188  50.7699919
   0.4167665   1.0750014  50.5273533  49.8503685  33.4370756  72.7723837
  49.9664021  33.5339856  71.8271971  49.5343399  32.5404978  72.8842163
  66.8964784  28.5999152   9.3895705  66.8895452  27.6771304   9.6438487
  67.5512044  28.6515567   8.6932166   9.2016189  10.2329823   0.6156238
   9.0120189   9.9538275  -0.2801196   9.4949357   9.4362971   1.0577663
  40.5022494  38.3370063   8.8949950  40.0099055  38.5184237   8.0944236
  41.3820855  38.1153628   8.5900386  82.5048450   6.0937792  67.3184443
  82.9598287   5.2820689  67.0940542  81.6436628   6.0064608  66.9098234
  72.3191074   6.3258845  66.6508961  72.0680145   6.7905432  65.8525991
  72.2483447   5.3993899  66.4210653  68.8377523  60.2107000  60.1379013
  68.8333273  60.3642178  59.1931009  67.9329777  60.3645992  60.4098034
  33.8086615  13.7526870  56.0400915  33.3322916  13.2498682  55.3794241
  33.4798537  13.4218836  56.8759632  29.4216411  22.7632567   2.9567989
  30.2288024  22.7455994   2.4425824  29.2903058  23.6883256   3.1647189
  69.7198153  74.3246269  63.3624268  69.9094915  74.4717550  64.2890358
  70.5649042  74.0894222  62.9793644  61.5578032  49.7673702  60.0456476
  61.8941212  49.2798519  59.2936850  60.7348680  50.1463318  59.7367716
  55.9445858  68.5971594  58.4190512  56.5760517  68.1818676  59.0064287
  55.3375196  67.8950787  58.1849813  70.4158735  60.5536413  68.2980824
  71.1330938  60.5670118  67.6643276  70.8097315  60.8672571  69.1121817
  75.5183315  73.8823366  63.6894560  74.7310829  74.3919039  63.4975719
  75.8994484  74.3099976  64.4563198  69.9765635  28.5635686  76.8209934
  69.0840387  28.8847184  76.9494009  70.2334976  28.9060616  75.9648895
  84.2252639  19.4807249  49.6373844  84.2624667  19.4032103  50.5907154
  85.1088527  19.7478777  49.3841457  91.2839699  66.1694813  55.6461763
  92.1658707  66.2195826  55.2774334  91.1053467  65.2314949  55.7132816
  45.2808762  60.8068705  72.6403236  44.8496056  59.9695921  72.8112125
  44.6861792  61.4616680  73.0061150  72.9280523   2.5887400  41.5344334
  73.3655265   3.2087714  40.9509850  72.9755882   1.7513758  41.0731459
  82.8668213  43.7576485  62.6935959  82.2614002  43.1470633  63.1141663
  82.6619625  44.6064234  63.0858278  87.3420525  48.4270954  63.6706448
  88.1803703  47.9823971  63.5453510  87.5166893  49.0812159  64.3472958
  15.3969492  21.4882952  40.5338097  15.7274450  21.6678721  41.4140129
  15.9125675  20.7403094  40.2323437  51.4427948  81.0525322  60.2286673
  50.9994459  80.7698727  59.4288111  51.8152666  80.2494049  60.5926561
  65.3040504  50.3281784  76.7095470  64.7131920  50.1707506  75.9731150
  65.0434685  51.1853027  77.0466995  21.8538157   2.5431773   6.7010959
  22.1613042   2.0514199   7.4625762  20.9237926   2.6920745   6.8717177
  57.6836157  75.9005308  41.8768930  56.9207048  76.3073301  42.2876453
  58.3198881  76.6111422  41.7967510  52.6660109  85.0173283  47.3226595
  53.3106184  85.3608990  47.9412699  52.4096537  84.1710663  47.6891899
  26.3397471  33.5304400   1.0857041  26.9908969  34.2304322   1.0383542
  26.4600007  33.0362078   0.2748378  44.3877840  65.5575657  30.4428625
  43.4893322  65.8026743  30.2216482  44.7209120  65.1308584  29.6534491
  58.0248547  58.5133791  72.6565218  58.1862068  59.4012737  72.3374033
  58.5283184  58.4555387  73.4685659  74.9725294  55.8640623  60.4201031
  75.4662418  56.4261532  61.0172033  74.8509026  56.3974190  59.6346283
  17.4372355   2.1416804   4.8836501  18.2499234   1.7343852   4.5838435
  17.1031110   2.6037881   4.1148551  93.6934522   7.4438006  19.0849221
  93.0181030   7.9490572  18.6323166  93.6273864   6.5656668  18.7097549
  40.1928584  31.2929723   4.3230041  41.0039012  31.1772582   3.8279708
  39.4979827  31.1727950   3.6757548  46.5403748  63.3733273  49.2522621
  46.2906027  64.0136242  48.5860252  47.2850990  62.9086399  48.8705826
  58.3791876  72.4826241  58.3201170  58.9181376  71.9701338  57.7175283
  57.6260281  72.7545595  57.7956820  36.5655912   6.7135149  60.7636786
  35.9381307   6.1365134  61.1991119  36.0756887   7.5191408  60.5987644
  64.7686195  45.8859158  74.1868258  65.0628662  46.7965984  74.2043591
  65.4674530  45.3999424  74.6246481  79.8155117  58.9309120  76.2988663
  80.5350494  58.3075809  76.1990738  79.0409994  58.4518385  76.0041523
  41.7376280  60.1720619  51.7713881  41.7123508  59.3676281  52.2895384
  41.7350960  60.8753633  52.4206877  23.4843890  38.7107131   6.6583903
  23.8661830  38.8305995   7.5279220  23.1792895  37.8034541   6.6537746
  15.7847929  62.2628784  50.8846617  15.3752244  61.5090609  50.4601049
  15.3644896  63.0224752  50.4814339  55.8329058  86.6892433  71.5403414
  56.7730999  86.8665600  71.5115356  55.6835508  86.0718918  70.8242416
  54.4984293  69.0031767  55.0975418  55.1164961  69.2321968  54.4034433
  54.8624134  69.4071960  55.8852673  69.1855001  57.7649927  64.3302631
  69.6073008  57.1912718  63.6906052  68.2493067  57.6743603  64.1526222
  57.1276820   9.1828772  -0.1330773  57.4255508   8.3905503   0.3138240
  57.6266003   9.8902461   0.2755054  80.4343370  41.3747317  42.7524853
  79.6207860  41.8621928  42.6230764  80.2666333  40.8283812  43.5203505
  91.1940956  49.3921471  16.9134867  90.2526951  49.3000793  17.0602298
  91.5835857  49.2822886  17.7809286  82.0965579  11.9515616  44.2044783
  82.2215656  12.9005629  44.2005348  81.2905172  11.8182284  44.7032261
   6.7227091  18.3412367  76.5890455   6.0589660  19.0108687  76.7541838
   6.2255491  17.5797373  76.2904119  29.7887529   0.1860911  47.8656387
  29.4166387   0.7406908  48.5513353  30.7311548   0.3470713  47.9125118
  12.1307628  27.4747655   2.9705699  11.6637818  27.9147336   3.6809142
  11.4445178  27.2232339   2.3524840  90.7778263  28.7459660  27.4831700
  90.9465981  29.3118095  28.2365417  91.6115952  28.3033586  27.3245144
  66.9516802  83.4389687  55.5554819  67.0244122  84.3932629  55.5719376
  67.2584248  83.1903839  54.6834993  88.6275864  87.4209404  36.3023019
  88.9581776  87.8340340  35.5046201  87.7867126  87.0426273  36.0453081
  12.2991816  39.1327903  10.5430492  12.2630326  38.2858035  10.0985988
  12.5398318  38.9200351  11.4447482  55.0647116  82.8977871  61.9603395
  54.6811199  83.7680054  61.8516827  55.8090544  83.0355930  62.5461721
  51.8908978  61.8514013  34.1442990  51.4179945  61.2579632  34.7277570
  52.8101063  61.6040421  34.2448187  70.7036543  72.3624325  24.3809247
  70.3087139  72.7838564  25.1442456  71.3423109  71.7514181  24.7483563
   2.0135443  41.0052726   1.8648513   2.2120730  40.0752017   1.7562516
   2.1062366  41.3741252   0.9864505  79.6389198  68.6948538  62.0263481
  80.0845623  68.9985228  62.8171825  80.3468418  68.5015297  61.4117622
  16.0723696  67.2174835  64.1121006  16.0712443  68.1642962  63.9714813
  16.4034853  66.8537807  63.2909393  37.4452806  85.4693127  38.3723807
  36.6453743  85.9479427  38.5898495  37.6285529  85.7093143  37.4640608
  83.0964378  61.5757647   3.8364394  83.7889293  60.9149459   3.8376220
  83.1223348  61.9514146   4.7164710   1.2191019  67.1839285  71.1552763
   0.7354365  67.9859877  70.9577894   1.5934477  66.9171000  70.3156948
  67.0967579  73.6898136  50.8798170  67.3163652  73.9685059  51.7688274
  66.7119884  72.8202534  50.9895754  55.9947872  80.8190441  73.8706493
  55.2311945  80.5115604  73.3821678  56.0142803  81.7633247  73.7151146
  85.3933671   1.3968951  56.0149574  85.1584199   2.1347052  56.5776920
  85.4623130   1.7763144  55.1388741  59.0117407  73.4529018  50.6151152
  58.7268353  74.1593790  51.1947346  58.4624672  72.7075720  50.8580399
  73.6283064  59.9859190  63.3639288  73.5291195  60.5119228  62.5703859
  73.0897236  59.2105007  63.2061672  33.8223760  45.2925154   5.2061160
  33.3821885  44.8227546   4.4977458  34.4533317  45.8589885   4.7620090
  90.9446052   3.3492762  49.4207430  89.9952510   3.4544188  49.4832563
  91.1491540   2.6479822  50.0392723  54.0179682  65.9807014  49.2222643
  53.3422804  65.3035545  49.1882420  54.1359520  66.1546230  50.1561069
  29.2119662  17.9277131  27.8056605  29.7788541  18.3772656  28.4323772
  28.3364694  18.2699343  27.9862769  10.6686656  27.9262587   0.7500060
   9.9632995  27.3812863   0.4011567  10.7893388  28.6115262   0.0926812
   3.2266323  20.1604745  14.0934547   2.2781889  20.0582072  14.0145286
   3.4460918  19.7294852  14.9194797  52.6603317  61.4250851  52.7217865
  53.2297707  60.6713820  52.5671625  52.5063753  61.4191294  53.6665058
  44.2913501  46.7631194  10.7899745  44.1907708  45.9931037  10.2303489
  45.0844209  47.1914336  10.4677566  18.9383234   0.2134997  75.6280994
  18.0953706  -0.0890440  75.9659338  19.5708288  -0.0406164  76.3001108
  60.2858114  46.4847946  63.1376076  59.3819857  46.7891693  63.0558300
  60.5995131  46.4207506  62.2355413  55.6909895  55.0142050  61.6886616
  56.4617252  54.6982861  61.2170744  55.9515667  55.8709669  62.0267344
   3.5855572  52.5355765   7.2547706   3.1882064  53.3659217   7.5171836
   3.8168518  52.1093413   8.0800326  42.0422649  76.5056181  55.0985193
  41.4773750  76.8385935  54.4011974  42.8323460  76.2100697  54.6461296
  52.0276976  60.8148336  46.0889149  51.9050980  60.1850748  46.7992735
  51.7541695  60.3440857  45.3016376  65.7007217  60.6675291  57.0436287
  65.1671362  60.2671432  57.7300739  66.5918350  60.6511068  57.3927450
  55.2369706  38.0763098  20.0585731  55.0980298  38.6116359  19.2773231
  54.3804471  37.6888987  20.2388938  75.3282022  70.2049065  44.9663258
  74.9561024  69.8710394  45.7825994  74.6305656  70.0910902  44.3208933
  47.3777453  24.9491498   8.3334144  47.7436225  24.3078896   8.9426311
  46.5792958  24.5373055   8.0031188  80.7010174  80.6447887  72.7658272
  81.5133381  81.0830784  72.5123024  80.0104618  81.2624454  72.5252819
  49.8283386  70.8045197  43.9691257  50.7042742  70.4328918  44.0733385
  49.2701960  70.0514746  43.7751389  29.0069167  10.6382701   5.3229793
  29.0218989  11.1940476   6.1021598  28.0776088  10.5439851   5.1138671
  52.3820496  71.9444752  76.3102722  52.2671556  71.6646528  77.2184181
  52.1089125  72.8618670  76.3059425  86.9895554  69.4494152  65.2464914
  86.5727997  70.1950216  65.6784916  86.2599945  68.8985443  64.9627447
  73.4457207  68.4194040  75.9239674  74.0162182  68.9450359  75.3631878
  72.6527739  68.2890224  75.4039001  26.1006848  41.9384143   4.8625167
  26.8444840  42.3166320   5.3314956  26.2813394  40.9985778   4.8450835
  13.4844984   1.1072260  56.1698675  12.8349985   0.6675059  55.6212044
  14.3197073   0.9396464  55.7333183  45.5417776  72.6209307  53.9122009
  45.3418779  73.5445786  53.7600613  46.4150620  72.5003004  53.5393000
  67.5239944  68.2296705  75.6944084  67.3082113  68.9677429  75.1243877
  67.5227690  67.4694729  75.1127481  52.3618507  80.8159924  44.5978737
  51.4265776  80.7596684  44.7936440  52.7813101  80.2913284  45.2797985
  56.6685677  74.6778584  72.1240854  56.5756416  73.8250160  72.5486469
  55.8041000  74.8566246  71.7539835  70.3910685  84.6788502  69.2407513
  71.2697983  84.3004704  69.2707539  69.8075056  83.9236736  69.1671991
  46.8269873  83.2688618  39.3192124  46.3426065  83.7175465  38.6261845
  47.6578474  83.0248547  38.9113331  21.4043341  79.9482775  51.4000034
  22.0524035  79.8387289  52.0958757  20.5632792  79.7908545  51.8290424
  31.5195704  66.0208225  67.5575018  32.2076225  65.9145689  66.9005966
  31.0848379  66.8394995  67.3187447  77.4019003  81.8128872  41.7196560
  77.6888895  82.4843979  41.1008453  76.5342426  82.1023273  42.0018387
  75.7431364  74.5228767  18.4288406  76.1446285  75.3111124  18.0631626
  75.8460665  74.6188354  19.3756402  42.7939240  52.6190612  17.6927455
  41.8456332  52.4929473  17.6599963  43.1558578  51.7367217  17.6107677
  77.5967839   6.3367087  15.8867550  77.4092773   5.6658846  16.5433049
  77.9631761   7.0658118  16.3871622  59.8255920  82.1692276  70.6176758
  58.9673948  81.8582821  70.3295088  60.1102543  82.7639389  69.9237680
  18.5951535  49.7497603  20.3459628  19.1889874  49.0840194  20.6929381
  18.5857884  49.5936057  19.4016345  37.4287717  13.1412694  12.3758777
  37.4650924  13.8906619  12.9702933  38.1625287  12.5877520  12.6431831
  33.2883899  65.5999705   6.0692008  33.3996264  66.4976260   5.7560523
  32.9337327  65.6968257   6.9529803  61.1314535  54.7439766  65.1580143
  60.5471134  54.1191959  64.7285652  61.6090584  54.2214060  65.8022547
  50.6474018  62.5475168  38.7317634  51.0460615  62.9671383  39.4941425
  51.3627338  62.0568752  38.3270383   0.0333322  16.3098151  57.7588987
   0.5787052  16.8241793  58.3540726   0.2143491  15.3998286  57.9942608
  68.0045033  67.2759056  65.7203436  68.1711531  66.4509201  66.1762667
  67.4544477  67.7759457  66.3233614  25.7295240   6.4861780  39.5330930
  25.4301275   5.6500059  39.8900151  26.1304105   6.9346434  40.2776766
  79.3029308  24.0270901  69.8476124  79.9436140  23.7493849  70.5023146
  79.5297480  24.9383140  69.6619892  43.5556619  36.6344306   4.5853694
  43.4656398  36.1014411   3.7953933  44.4995324  36.6783282   4.7383960
  47.8481197  38.4285831  51.5555811  48.2995558  38.8425517  50.8200121
  48.1105375  38.9439249  52.3183346  56.2284592  73.3202854  14.1474708
  56.2140969  73.9721003  13.4466346  56.5477184  73.7984386  14.9127658
  84.5673943  46.0095358  32.3760462  84.6400166  46.9603586  32.2929740
  84.9073505  45.8188343  33.2502866  64.5937061  65.7672167  70.0596952
  65.2297640  66.4575195  69.8722219  63.9353514  66.1912203  70.6101704
  36.9482867  52.2757766   5.8491595  37.7515285  52.7174517   5.5735477
  37.2078244  51.3630244   5.9746726  23.2399575  30.1283070  15.2909263
  24.0313594  30.3144881  14.7856982  23.0652444  30.9385916  15.7696136
  24.7313611  41.8673465  23.2687648  25.4320733  41.2697074  23.5296424
  24.4820659  41.5758464  22.3917754  67.7408981  60.9634352  23.3805037
  67.8778934  60.4574203  22.5796199  68.5349131  60.8175230  23.8947749
  59.0496159  70.5020046  72.0744991  58.9262199  71.4190388  72.3195457
  58.2624626  70.2788401  71.5776920  71.8519977   1.1017519  59.1653395
  71.2613943   0.3489786  59.1379404  71.4121226   1.7305952  59.7374392
  53.0695200  42.6277971  55.0100803  53.6914062  42.2804403  54.3706799
  53.4810925  42.4630451  55.8584309  91.5453434  87.1320343  46.2803173
  92.0249748  87.5748634  46.9803810  90.7664680  87.6717472  46.1450577
  60.9512520  63.4485149  51.6305780  60.0474882  63.7460852  51.5261936
  61.2496519  63.2714224  50.7384872  75.9898186  88.6672115  48.2294369
  75.7690382  87.7371597  48.2793713  75.6364965  88.9523506  47.3867655
  80.5260372  35.8915997  60.0963449  79.6715260  36.2799597  60.2840233
  80.5456352  35.0910091  60.6206512  61.9961309  61.4093113  68.2492161
  61.1214447  61.7399359  68.4537840  61.8422604  60.6816101  67.6467180
  40.9062433  64.6067524  29.6647382  40.9943771  64.6137094  30.6178451
  41.1955738  65.4771805  29.3910909  73.2971671   6.1887652  62.5940561
  73.8365081   6.8540102  62.1665049  72.6790956   6.6882044  63.1277037
  82.2576523  58.5961866  58.4783745  82.9256821  58.9263153  57.8775549
  82.3229790  59.1652584  59.2452669  88.1048298  65.5333996  58.0101824
  87.2977638  65.6937313  57.5211334  88.4361744  64.7060776  57.6609325
  60.6298637  23.5483837  49.4576359  60.5094194  23.0745220  50.2805471
  59.7892857  23.4642386  49.0075493  37.1332232  48.3023688  13.8930686
  36.2885730  48.2741019  13.4436305  36.9556109  47.9373500  14.7599300
  11.2741773  38.6566779   1.1149343  10.3658359  38.5990664   1.4112886
  11.7935435  38.5384127   1.9102367  87.9357913  20.4171854  42.5656652
  88.4392122  19.6395212  42.3247671  87.9469970  20.9628397  41.7792988
  58.9218473  15.9230733  29.2816854  59.8456907  15.7997966  29.4997358
  58.8037014  16.8728530  29.2677999  73.0076268   2.4212557  49.2964220
  72.7581886   1.7797095  49.9615812  72.5532296   3.2231337  49.5547676
  59.1793394  81.2911797  54.0936804  58.8050079  82.1615887  54.2296648
  59.9866915  81.4513302  53.6050463  45.2924681  64.3250418  72.8332949
  44.9251223  63.4540558  72.9838562  44.8151207  64.8939800  73.4371805
  37.4266355  51.0205981  12.0588763  37.5077741  50.4356715  12.8122123
  36.6636483  50.6932112  11.5825256  83.8480217   5.6528661  24.8807891
  83.5548193   6.3977334  25.4056151  84.6977836   5.9241816  24.5336326
  48.5230017  56.7203426  31.0723901  49.2678070  57.1419191  30.6437039
  47.8781223  56.6060114  30.3743267  23.9264361  12.0728060   3.6167510
  23.4847848  12.0678374   2.7675422  24.1031854  12.9975745   3.7893851
  66.6817808  65.8170271  74.2023325  66.4188957  65.3608465  75.0017166
  65.9106255  65.7732725  73.6369658  52.5033712  61.8408298  73.5501575
  52.6831627  61.0088348  73.9879799  51.8286991  61.6308022  72.9044533
  63.5564423  60.5899906  55.1738119  64.1260290  60.7006788  55.9350920
  62.8858709  61.2653303  55.2761889  57.4679640   4.5572478  40.6266069
  56.5803269   4.3198401  40.8948755  57.5729516   5.4622179  40.9202671
  31.9577026  72.8585482  54.6912861  31.5123987  73.5222387  55.2180195
  32.6733494  73.3308983  54.2658806  57.9684369  16.6561410   0.4049810
  58.5931222  17.0159909   1.0346730  57.9081838  15.7279822   0.6310876
  40.6335179   9.5425126  12.9074844  40.7159583  10.4807565  13.0781634
  41.5157620   9.2656514  12.6600440  63.1076431  61.6146660  63.6387634
  63.6749887  62.1138573  64.2262650  63.1999874  60.7075691  63.9301014
  65.7689953  76.3788080  50.4646683  66.0017633  75.4503918  50.4746008
  66.0151577  76.6967583  51.3333130  75.1127052  76.1239719  69.5155621
  75.5501699  76.3246679  70.3429556  74.5376682  76.8733644  69.3607378
  75.2645636  84.2006779  50.8440495  74.3450737  84.4639778  50.8061647
  75.6988621  84.9139023  51.3119411  91.0784152   4.6393305  13.9261281
  90.2754834   5.1489931  14.0346289  90.7769540   3.7369448  13.8209903
  80.9823802   3.2665163  51.3246870  80.5095151   2.5870615  50.8440781
  81.8863490   3.1909472  51.0191441  44.0096951  72.8325224  69.3458414
  44.5880270  72.0920563  69.1628790  43.5674095  73.0022240  68.5140896
  82.2050190  69.0675116  45.7032156  81.7567635  68.6212444  46.4216518
  81.9287872  68.5947466  44.9180889   3.0236350  38.1079960  65.7849216
   3.2232390  37.7492690  64.9202204   2.3451434  38.7631416  65.6216431
  83.3863500   7.3326021  42.8196239  84.0836957   7.2084051  43.4634542
  83.7972978   7.8335387  42.1150589  20.4873384  17.7038866  36.3609505
  20.7254232  18.4804255  35.8544636  21.1892618  17.6138312  37.0054841
  85.4416564   3.9243132  30.5969024  86.3003591   3.9804655  30.1777244
  84.8298982   4.2431551  29.9333334  85.0932217  66.7916584  70.0488138
  86.0346794  66.6312551  69.9842167  84.8011684  66.2206459  70.7593679
  31.0087888  45.3118178  10.7043059  31.1881368  44.6461150  11.3683112
  30.2572314  44.9703833  10.2197250  59.6680021  87.8246689  51.6819286
  60.3843927  87.2697544  51.9902849  59.6616983  87.7021694  50.7326221
  45.0396442  88.3796692  44.5033121  44.1095257  88.2077503  44.6501398
  45.4188156  88.4119129  45.3816175  69.3897084  11.2819868  60.4761124
  68.9095572  12.0413595  60.1458836  69.8434261  10.9332854  59.7087955
   5.5346880  88.5192204  71.2813950   4.9441443  87.8109550  71.5379858
   6.2217150  88.0864429  70.7745075  50.7324266  80.0134754  54.6673298
  49.9713373  80.0934887  55.2422857  51.4550447  79.7944450  55.2556133
  69.5555115  53.8888025  64.6152067  69.7597790  54.1875410  65.5013561
  68.6059189  53.7683725  64.6159792   6.8995393  12.6275832  56.2824917
   7.7289261  12.4730021  56.7346621   6.9647754  13.5277182  55.9635401
  15.8918489   7.7808291  74.2202139  16.8131269   7.5307566  74.2905378
  15.6461061   7.5410181  73.3267212  70.0544405  81.1669922  63.1027317
  70.6261253  81.2187481  63.8687086  70.6089067  80.7995224  62.4144268
  13.5865031  77.7553892  64.2713308  13.6457930  77.6666784  65.2225637
  12.7593241  78.2141781  64.1246557   7.2880183  80.5435467  32.5667977
   7.8924380  81.1510181  32.9932761   7.6886378  79.6826601  32.6877117
  75.5236833  42.2086951   8.3982261  75.7591645  42.8762385   7.7538856
  75.6412045  41.3783595   7.9367431  14.5288001  71.4873171  64.3417978
  13.8759528  71.3339949  65.0248146  14.0300570  71.8540859  63.6117554
  42.9303408  78.5939693  27.8530240  43.5737085  78.3818340  27.1767759
  43.3987045  78.4656525  28.6778879  52.9655266  82.8155327  67.3555660
  52.2303963  83.2854843  66.9619083  52.7380514  81.8908024  67.2588015
   5.6305037  75.3569603  43.9008570   4.8816595  74.8635387  43.5662127
   5.2818976  75.8445024  44.6471882  53.0011082  61.7992592  57.1381569
  53.2853222  60.9810257  56.7307901  53.6080408  62.4581575  56.8009424
  56.3179891  43.1040046   1.1404546  56.5656583  42.1833750   1.0548719
  56.3258569  43.2674834   2.0835622  39.6364800  34.1852614  14.4355758
  39.0991895  34.8308417  13.9764674  39.1630475  34.0152547  15.2499374
  76.0617781  77.6718283  45.3437185  75.6128931  78.2356501  44.7137690
  76.7221689  77.2119188  44.8254442  66.8317366  61.3642025  53.8650799
  67.4074888  60.6091118  53.9858246  66.1184692  61.2235260  54.4877291
  54.2991999  12.0595747  75.8304691  53.6562303  11.7485911  76.4677382
  55.0102189  11.4203650  75.8761597  32.8745667  55.2046153  18.8076194
  33.5594384  54.5382640  18.7513717  32.9726521  55.7172057  18.0052074
  89.6503213   8.0597502  47.4980116  89.7365382   7.7240855  46.6057539
  90.3007987   8.7596995  47.5544930  72.0421934  73.2465696  53.2361317
  72.7324104  73.4622669  52.6089907  71.9258308  74.0465117  53.7487555
  61.1076784  84.4050026  60.7302809  62.0552731  84.4650555  60.8514786
  60.8177900  85.3141117  60.6547213  33.8012422  37.9518801  75.0340414
  34.5292677  37.8239638  74.4258928  34.1912378  38.4024531  75.7831192
  90.5629257  10.0084883  22.6137805  90.2467349  10.6803614  23.2178092
  91.3114169  10.4134375  22.1756029  23.5917306  88.5826492  56.5077209
  23.4102559  88.2163143  57.3732281  24.0917969  89.3793678  56.6849089
   3.8604463   7.5920492  40.0366068   3.8248361   7.0171267  39.2721295
   3.0186332   8.0476481  40.0330830  76.7398548  61.1484051  39.6585822
  76.0461473  61.3274670  40.2933598  76.3975430  61.4819479  38.8292432
  65.8022134  31.4654109   2.3625119  66.7429654  31.4605090   2.5391276
  65.5269734  32.3616549   2.5554116  78.0484724  52.6631021  69.0422535
  78.8571978  53.0213165  68.6763573  77.4437714  52.6311016  68.3009386
   0.2280058  43.6506563  71.1905670   0.3526128  42.7079588  71.0808992
  -0.2626358  43.7338740  72.0082331  83.9049247   6.1490446  62.6878977
  84.5822194   6.0698801  63.3596373  84.3771079   6.0601050  61.8600321
  78.9468431  66.1631060  50.3562737  79.5765305  65.8393049  51.0003853
  78.7176657  67.0396709  50.6650400  21.1000360   9.8781115  45.0840855
  21.5043558   9.0539366  44.8129892  20.5866731  10.1541811  44.3248320
   6.5700258  29.9479395  53.7078285   6.3321699  30.7029826  53.1697178
   7.0622982  29.3781763  53.1168318  13.9418040  50.7017136  54.1647577
  14.5440112  50.0612450  53.7861061  14.0755473  50.6268167  55.1096058
  84.4076350  23.2947356  71.3534927  83.9618352  22.5247008  71.7063856
  83.8019708  24.0178114  71.5165091  92.9017448  65.4375362  69.6945953
  92.0651627  65.3752422  70.1555490  92.8895569  66.3060951  69.2924881
  84.0031770  25.9375864  51.4651585  84.9182513  25.7924277  51.7055798
  83.9836887  26.8325049  51.1260796  76.6344455  14.9815852  21.3167715
  77.0581296  14.8641783  22.1670294  75.9766057  15.6601244  21.4686346
  52.6009893  69.7103453  65.2958393  53.2432365  70.1947546  64.7770929
  52.3471928  70.3177261  65.9907484  62.7168608  64.1880846  62.0338297
  63.2843828  63.6238384  62.5589705  62.8376102  63.8799381  61.1356640
  78.7261438  83.5347557  58.4283304  78.6247778  83.5400581  57.4765301
  79.6659708  83.4193516  58.5684681  44.1348855  50.0543448   3.6453326
  44.5676772  49.3269107   4.0922626  44.8496501  50.6367823   3.3882125
  75.7182980  77.1079302  39.8966265  75.5643845  76.3660574  40.4815722
  75.8891916  77.8443956  40.4836941  57.3868084  29.5367098  52.7746582
  56.8454409  30.2035499  53.1971264  57.0770597  28.7087965  53.1418705
  80.2754548  18.1771475  50.9168863  80.8663562  18.6101919  51.5329552
  80.7767156  18.1211096  50.1033592  44.8265187  72.7547786  12.7353652
  45.7517211  72.5369784  12.8484805  44.7311370  73.6147925  13.1446441
  31.2318770  53.8528582   3.7537940  31.1122720  53.3087584   2.9754098
  32.0735328  54.2872378   3.6153682  84.5194054  67.5204563  48.0543852
  84.9553871  66.6744280  47.9524803  84.7466087  68.0041790  47.2602701
  17.3584859  76.8593451   3.2988723  17.1311109  76.1367366   3.8839896
  17.3532311  76.4701602   2.4243768  69.0954304  48.8929224  56.6625690
  69.5202208  48.3395481  56.0071659  69.6172047  48.7687540  57.4553919
  60.0805902  72.4033451  42.2999144  59.4124889  71.7185307  42.3298597
  60.1594448  72.6205778  41.3710356  88.1545734  71.5368176  76.6821051
  88.0305099  71.8054962  75.7718039  87.2778988  71.5744352  77.0645475
  51.1750905  19.1611382  28.4584125  51.0709588  19.6958443  27.6713451
  50.8633058  18.2933900  28.2014258  82.0818520  66.3164949  71.1103487
  82.9707813  66.0308695  70.8995390  82.1199131  66.5538025  72.0368814
  25.9237493  12.9424197  49.5623207  25.7477678  12.5043494  50.3950071
  26.8712248  12.8682143  49.4481993  25.0067258  60.1855946  35.7736659
  24.8334408  59.9966288  36.6958904  25.9509015  60.3377867  35.7336640
  10.6011598  59.8632190   4.0489944   9.6505801  59.7722003   4.1148837
  10.9463422  59.0614840   4.4418033  18.1120173  26.9147441   0.6448157
  17.4130122  27.5441691   0.8221515  18.7509362  27.0636794   1.3418277
   3.5978995  76.1357021  63.6182690   4.1100226  75.3312969  63.5352755
   2.8244219  75.9843111  63.0750895  89.9822521  58.1595850  53.1018257
  89.4759655  57.8938675  53.8694859  90.6364822  57.4689865  52.9956055
  25.6898130  16.5907866  36.9561195  24.7499765  16.4973646  37.1116948
  25.7869543  16.4905649  36.0091496  18.9461054   8.5257441  65.1509333
  18.0211366   8.7484366  65.0456524  19.2840017   8.4769446  64.2566872
  18.9391718  46.1687231  19.3979216  18.3017550  46.0746098  20.1057816
  19.4462691  46.9454956  19.6339548   0.5531229  27.4739176  55.6882668
   1.2176717  27.9103857  56.2212849  -0.1982342  27.3779494  56.2734890
  42.2742002  14.5765540   1.0790904  41.3243644  14.5139262   0.9784635
  42.5708882  15.0170466   0.2827390  76.6383699   4.1162878  46.1476469
  76.8870309   3.7757593  45.2883196  75.9703353   3.5073096  46.4624500
  93.5639337   7.9998118  67.3817396  93.4166816   8.5511977  68.1501961
  93.3010152   7.1231467  67.6620436  91.1389367  27.3647210   7.0448859
  91.5520207  26.8181464   6.3764175  90.4702012  26.8017718   7.4348910
   1.9010745  64.5004082  44.1668844   1.4448653  64.2585516  43.3609009
   1.4528284  65.2907991  44.4678736  22.5637449  23.7065035  68.1284428
  22.2521890  23.0605131  68.7623596  23.3198465  23.2904345  67.7143955
  -0.2893196   2.4300391  74.3041563   0.4251541   1.8593794  74.5872021
  -0.0065981   3.3097178  74.5540762  21.6552557   6.7188555  57.3036385
  22.5367273   6.5228278  56.9861317  21.4322389   5.9763247  57.8650141
  87.0767692   0.6535250  31.7124772  86.5499404   0.0472456  31.1917996
  87.6733068   1.0555846  31.0810375  25.0552572  47.9920107  31.9774175
  24.9471391  47.6622015  32.8694749  25.4241289  47.2539240  31.4922404
  92.8416538  81.7389107  42.0838928  92.7882671  82.6580048  41.8218946
  93.7777042  81.5776062  42.2023296  25.2775205  34.8170573  66.8472147
  25.5385889  33.9198786  67.0549154  24.6852030  35.0646025  67.5572205
  12.3016943  13.8500029  27.2212625  11.9551672  14.7020060  26.9562411
  12.0228494  13.7506586  28.1315422  83.1100467   5.7974058  38.0329227
  83.3222869   5.9492594  37.1119857  82.2944024   6.2783343  38.1731868
  53.1839705  61.4612818  37.6973271  53.3926392  62.3701763  37.4814534
  53.9998913  61.1052752  38.0491400   1.8231786   4.0119559  70.6006432
   2.2872461   3.1755167  70.5653095   2.4494137   4.6480948  70.2551174
  63.6715126  77.2945499  57.2839928  63.3250093  76.5492439  57.7745914
  64.6047640  77.1048355  57.1876192  54.9743223  68.3235264  27.5956249
  54.9609280  67.7372694  26.8390870  55.0811911  67.7413750  28.3478951
  28.0207647   2.0178515  34.6547270  27.9806436   1.2449461  35.2179623
  27.4090780   2.6367956  35.0534606  23.5482992  43.2592779  48.9669275
  23.8253607  42.3440176  48.9250374  22.8939165  43.3434206  48.2734299
  29.6827189  17.8345916  20.4988368  30.4788749  18.0815503  20.0283225
  29.0610616  18.5353181  20.3019698   9.8135863  67.7597141  49.3336725
  10.0380812  66.8321371  49.2599392   8.9530096  67.8314209  48.9207792
  40.9308577  86.1271477  37.9550838  41.1470842  85.3244781  37.4805355
  40.2720737  86.5575123  37.4100852  41.4951484  27.2915456  14.4371303
  41.6334645  26.7331836  15.2021964  41.5108220  26.6881272  13.6942466
   8.4722627  21.7800337  61.4575338   7.6574291  22.1167475  61.8302345
   8.1965221  21.2876421  60.6843996  57.0410442  88.2329082  52.2493601
  57.0440674  87.8334236  53.1192112  57.8504658  87.9250336  51.8415880
  58.5817337  82.9335499  18.6808276  58.9689541  83.3163834  19.4680560
  59.2516804  82.3344803  18.3513975  58.9751832  50.2449271   1.9559939
  59.3439309  49.8539397   2.7480729  58.5684220  49.5118567   1.4940580
  83.8135529  79.4893456  42.0914125  83.4797096  79.2432785  42.9541063
  84.7635174  79.5248175  42.2033930  35.9163682  28.8162324  14.1473945
  35.3174703  29.1865298  13.4989913  35.5629985  29.1012046  14.9900992
  76.3023774  58.8999507   1.9163879  77.0864217  59.2997596   2.2927745
  76.4984242  58.8209578   0.9828122  50.7637612  18.7087008   5.1994022
  51.1287419  19.3019482   4.5428451  50.0422875  18.2686373   4.7498973
  81.3797665  60.5383682  52.1401310  80.9828568  60.9413815  51.3679457
  80.7481194  60.6931400  52.8424835  20.2804674   0.1233488  49.5856953
  20.0127710   1.0284907  49.4266701  20.8143343  -0.1057047  48.8249350
  89.9121952  59.4581461  56.9577694  89.4877529  59.1086674  56.1742258
  89.9272442  58.7227011  57.5702429  67.1961021  78.7528515  18.0561090
  67.5194788  77.8716087  17.8688228  67.1716213  79.1854191  17.2025764
  75.1469851  69.0834570  61.3177204  74.9210501  68.1966543  61.0370636
  75.7690334  68.9567709  62.0341253  60.9696749  19.7101885  25.8044386
  61.8617061  20.0438601  25.9002352  60.9901884  19.2008597  24.9942565
  70.9170869   7.1600062  39.1642094  70.1938871   7.3544031  39.7603846
  70.6774667   7.5964171  38.3466792  77.0777702  61.8578529  44.5158720
  77.1935987  62.8025579  44.4141626  76.6003180  61.5892076  43.7309504
  25.6276910  15.1045892  10.5838664  24.8087184  14.6296593  10.4425986
  25.9648816  15.2678534   9.7030242  52.3881865  83.7380981  71.0487175
  53.0408621  83.4664726  71.6940594  52.9025078  84.0750504  70.3151178
  37.7023360  29.5781002  73.1564866  36.8459985  29.6623573  72.7371858
  38.2341143  30.2654991  72.7553312  44.1949145  70.2114341  31.9371589
  44.9842660  69.6771952  31.8491824  44.4046943  71.0258052  31.4799674
  15.1170553   7.3185736  71.7583036  14.5145763   8.0543810  71.6494942
  14.6750272   6.5824896  71.3351917  61.2701368  75.4693270  70.4363775
  61.0102940  76.3880205  70.5050564  61.5121317  75.3569412  69.5171165
  69.2565393  85.7513714  40.8249760  69.4430685  84.8209381  40.9503746
  68.9030790  86.0403061  41.6662931  14.1230262   2.4768263  65.7685518
  14.2776216   3.3361536  65.3762722  14.1920437   1.8635947  65.0368309
   0.7713137  79.1309690  66.4107800   0.3952322  79.9999428  66.5510750
   1.6096030  79.1554451  66.8721867   0.2370002  25.7381436  11.4698394
   0.5472591  24.8333785  11.4328559  -0.6519196  25.6724545  11.8187507
  42.3312442  72.4856326  11.2384112  43.0999534  72.5516936  11.8049415
  42.0169703  73.3859298  11.1551841  77.4547628  23.5343558  47.5225830
  77.5702766  23.0814368  48.3578968  76.6849473  23.1218153  47.1308899
  73.6606503  87.3327732  24.6562505  74.5439529  87.7014828  24.6481061
  73.6408997  86.7416573  23.9036441  15.4819743  49.6708915  25.1623710
  15.9607522  50.4996154  25.1771339  14.8087899  49.7711894  25.8354266
  80.3193760  38.5718322  55.8203745  80.2225304  38.2347631  54.9297333
  79.5477200  38.2472658  56.2845278  13.0007566  15.6564432  56.0052538
  13.3802856  16.5348154  56.0306883  13.6070884  15.1490694  55.4656506
  56.2632291  34.4602963   9.6997436  55.6138818  33.9478871  10.1814254
  55.7481782  35.1072690   9.2176898  56.7919080  38.8775203  10.4424270
  56.4773004  38.7099025   9.5540794  57.6113145  38.3864543  10.5029567
  22.3259271  15.1054007  33.5929918  23.1396497  15.6031615  33.6725450
  22.5877680  14.1949183  33.7296939  76.3244867  62.8300190  68.7909985
  77.2583103  63.0122042  68.8959551  75.9057045  63.3044147  69.5091915
  48.3724086  55.7792899   6.5108474  48.9999692  55.9747931   5.8150275
  48.0226581  56.6333339   6.7648490  34.8696486  19.7636506   2.7168019
  35.3924148  18.9998481   2.9608377  34.1456763  19.7683617   3.3429511
  55.2872229  76.5628719  38.4176230  55.1652288  76.1583900  37.5587034
  54.4036865  76.8025637  38.6971569   3.8891516  81.6188049  26.9000959
   3.5758410  80.8715916  27.4097419   3.5240851  82.3829746  27.3462033
  38.9030473  24.9696681  12.5103648  39.0378777  25.9103057  12.6254924
  38.3930318  24.7053334  13.2760318  80.1185513  59.9750137  31.1996484
  80.3884602  60.8689260  30.9891677  80.9167480  59.5520735  31.5162373
  88.7566856   5.0640971  33.5410166  88.3460620   4.2000490  33.5734153
  89.1073755   5.1957995  34.4218707  41.8071032  75.4196644  60.9396076
  42.2622871  76.2594557  60.8780718  42.4495029  74.7765017  60.6397820
  50.5566041  44.8220679  28.6491759  51.3676946  44.5378253  29.0705665
  50.5917184  44.4331977  27.7752288  75.9076741  31.5347868  62.1967220
  75.4947904  32.3965651  62.2524643  76.8470290  31.7187506  62.1975899
   5.5784620  12.0473486  58.7960911   6.3892091  11.5531832  58.9173985
   5.6777109  12.4639708  57.9400539  68.9873409  79.4956303  76.4365244
  68.5122776  79.6661139  77.2498369  68.3189821  79.5478439  75.7532978
  50.0027005  33.9434573  17.8004153  49.5265691  34.2381808  17.0240958
  49.5261304  33.1666371  18.0931075  71.7690420  81.2344933  65.1921988
  71.3864756  81.9953537  65.6292057  72.6868820  81.4712238  65.0589228
  30.3389565  15.6680962   1.7044814  30.8419435  15.6735656   0.8901055
  29.8508374  14.8451039   1.6789945  35.5064310  11.4712721  74.7204542
  35.1255048  11.9308764  73.9721966  35.3245176  10.5468088  74.5516253
  53.1984568  76.1432791  55.0659275  53.1453753  75.7261848  55.9258366
  54.0150118  75.8142710  54.6901369  89.6931744  52.6940441  70.3756428
  90.5203247  52.2315836  70.5105066  89.0844059  52.0156908  70.0832796
  49.0316881  30.3050429  70.3575897  49.9383081  30.4841143  70.6069899
  48.7708486  31.0666186  69.8397112   6.1041157  38.0943152  36.2640937
   6.6453592  38.8763568  36.3722308   5.2142899  38.3904979  36.4557059
  39.9757068   0.7903620   9.1281684  40.5587117   1.5471503   9.1882022
  39.2139832   1.0324523   9.6548541  32.7633585  32.9467398  56.7996454
  32.3645223  32.1927458  56.3653040  32.4999345  33.6970526  56.2668562
  18.4477234  78.4734154  61.4169216  18.0690849  77.7737093  61.9491625
  18.1289828  79.2806578  61.8206549  62.2000122  77.7289152  29.6346068
  62.5927877  77.3296881  28.8583493  62.9279709  78.1721687  30.0703168
  34.7541062  34.7127768   4.2306312  34.5969455  35.4449126   4.8268779
  34.5414941  33.9345071   4.7457297  63.7050295  59.0205812  64.4180965
  64.4298983  59.2804527  64.9866581  63.5803509  58.0890560  64.5995903
  77.3782542  39.3817622  59.5414782  77.7656129  38.9002806  60.2724791
  77.6719955  38.9105231  58.7618113  92.2629547  79.4079351  68.6844921
  91.4894867  79.3609142  69.2464256  91.9437408  79.7954941  67.8695488
   8.2470716   8.3563715  48.0332184   8.1911958   9.1284186  47.4701309
   8.2847465   7.6183897  47.4247837  75.9073210  56.0655832  69.0811396
  76.4080000  56.8516254  68.8627672  75.3566933  55.9113884  68.3135080
  91.3605312  18.2896048  47.3861790  91.2258676  18.1753737  46.4454079
  90.6176904  18.8215262  47.6716185  35.0713266  17.0512587  46.2678909
  35.8947290  17.4388510  45.9712219  35.2106107  16.1071497  46.1938334
  55.9888172  65.7671499  32.6681542  56.7802143  65.9622908  33.1699920
  56.1722374  64.9263811  32.2489953  91.1721379  28.3538052  13.9981826
  90.9990484  28.9481065  13.2680591  91.2785632  28.9294431  14.7555144
  50.5854464  76.5975428  67.7187490  49.9484873  76.4786386  68.4232903
  50.1013994  77.0584011  67.0335150  14.3461813  11.6621882  51.2799263
  15.2061619  11.5596396  51.6875458  13.7837757  11.0457999  51.7489481
  13.4409724  77.9516029  55.6646299  13.8841353  78.7207699  56.0227203
  14.1489706  77.3405361  55.4607487  25.5306165  64.9286029   1.6443952
  25.1414220  65.6988284   2.0585330  26.3312499  65.2559420   1.2344344
  77.1612740  70.4465532  42.8273296  77.0090055  70.5201244  43.7694740
  77.8011513  71.1316586  42.6339054  19.8281015  18.2626921  46.2599039
  19.5218004  18.5990244  47.1020985  20.7588018  18.0858237  46.3968134
  57.0550966  42.7674150  56.0160065  57.0813608  43.5260344  55.4328823
  57.7309465  42.1807814  55.6764174  58.5122633  70.2933407  47.5026369
  59.1319799  69.9339771  48.1374884  59.0588570  70.5845833  46.7728138
  87.3186162   7.2137553  76.1072779  87.8612951   7.3700529  76.8801308
  87.8532270   6.6486460  75.5495358  17.3256601   6.7195231  49.8579264
  16.7068924   7.3837954  49.5544434  17.1825136   5.9744269  49.2743444
  21.9050325  25.7559878  76.6200066  21.0712827  25.6047922  77.0652580
  22.2751535  26.5221983  77.0583582  30.7172871  69.2088842  59.4017363
  30.5708003  69.8194313  58.6792374  31.3428712  69.6570683  59.9709558
  62.4186437   4.7788617   6.1031993  62.1331136   4.3126103   6.8888934
  63.3620851   4.8902938   6.2203773  32.7269564  50.5394983  41.7756557
  32.2861395  50.1942396  42.5519943  32.1910201  51.2860966  41.5080643
  14.6074833   5.1942068  64.3981314  15.4776157   5.2665144  64.7904015
  14.3656315   6.0952765  64.1840744  43.2442729  66.9657847   5.2093108
  42.3947064  66.9407889   5.6495937  43.8085906  66.4091536   5.7459148
   2.4494137   0.7820517  48.2990837   3.3363832   0.6576449  47.9613781
   2.3222841   1.7307574  48.2945871  77.7357101  56.0959053  44.1443682
  78.6142159  56.4356661  44.3147135  77.1670246  56.8638754  44.1996002
  48.4481538  31.0576731  73.5276937  48.2795824  30.7155520  72.6497602
  47.6864923  31.6037947  73.7222672  69.1554573   2.5534159  17.6147604
  68.8269833   3.0161578  16.8439126  69.8414448   1.9788176  17.2749281
  81.5352681  13.2108599  52.7092266  82.2585204  12.5925928  52.6048803
  81.9557145  14.0705973  52.7264738  87.9580688  79.4007730  47.9070044
  88.7114716  79.9790621  48.0261803  87.7314281  79.4903612  46.9813490
  25.8328740  58.5350749   5.3159698  25.7319800  58.5842940   4.3653758
  25.2006452  57.8706118   5.5898460  52.0102644  55.7302618  60.7196760
  51.3948107  55.8486319  59.9961853  51.4756107  55.8288002  61.5074968
  27.0142603  77.7127123  66.8578720  27.5883627  78.1665611  66.2408924
  26.8473840  78.3556271  67.5471020  74.5723343  81.8940449  72.7076244
  73.9245129  81.1921787  72.6449156  74.8700428  82.0263195  71.8075609
  19.6555532   5.9650236  73.8331032  19.4539465   6.8310267  74.1875315
  20.6117166   5.9370714  73.7984324  88.4932613  38.7549210  56.8400860
  87.7410507  38.5356736  57.3899412  88.6199474  39.6946049  56.9711447
  70.2370358  78.3424854  70.6811428  70.1296139  78.8869429  71.4610529
  69.6336126  77.6114845  70.8143854  45.8300877   1.1864027  31.3758969
  46.1113071   1.4918473  32.2383666  44.8842525   1.3331543  31.3665056
  84.7561799  79.2889821  68.5418606  84.3795215  79.7403765  69.2972422
  85.6365858  79.0420270  68.8249302  26.0018632  52.9894608  44.9292850
  25.3031680  53.6334914  45.0445223  26.1045644  52.9146546  43.9805555
  76.9722520  53.7903207  45.2417994  76.7450880  53.3313173  44.4331264
  77.0559429  54.7075456  44.9811745  10.9640643  75.5849427  15.1417673
  11.4756295  74.7970682  14.9579620  10.6163689  75.4447061  16.0224903
  71.0199738  13.4433675   7.9329145  70.1699972  13.1418037   8.2535863
  71.6080713  13.3417964   8.6812818  15.6175753  55.0846142  37.5093603
  16.0810515  55.2942413  36.6985083  16.2912795  54.7189802  38.0826545
  56.4389299  42.6124328  52.2706556  56.7934399  42.9142851  51.4343309
  56.5745454  43.3481306  52.8678036   8.9504096  79.7841805  52.4818277
   9.2932889  80.6366473  52.2135639   9.6224162  79.1592699  52.2095680
   6.5130874  83.8467008  53.4982252   5.5876228  83.9402527  53.7240505
   6.9363376  84.6032113  53.9041567  39.3497777  15.5611992  51.0373449
  39.5637131  16.0459113  50.2401495  39.6764636  14.6763182  50.8745718
  86.1628472  84.2044926  41.8334866  85.8819472  84.2615247  42.7467632
  87.0033299  83.7478495  41.8694782  70.9453969  82.3675799  39.3412662
  70.2724444  81.6934377  39.2469311  70.7570117  82.7775800  40.1854467
  93.9518009  79.5025712  25.6035542  93.0261456  79.7074658  25.4716015
  94.4118344  80.3065461  25.3622556  84.8936282  40.0821966  64.0697002
  85.6545340  39.5629162  63.8096905  84.2313658  39.4336694  64.3085623
  48.5569188  84.1918808  49.9256754  48.2325408  83.4033698  49.4906330
  48.4198853  84.0245512  50.8581209   8.8711163  70.6541663  16.6262627
   8.6173102  70.6440061  17.5491440   8.3598277  71.3679749  16.2450898
  69.7220564   0.8508591  26.1377931  69.4922352   1.6128871  25.6060719
  68.8959789   0.5807053  26.5388417  13.8568017  73.9688367  57.5249434
  14.7268244  73.7750810  57.8738594  13.3572098  74.2731529  58.2825947
  14.6169722   5.1225299  60.4610634  13.7701130   5.2758271  60.0420618
  14.8924971   5.9865016  60.7674456  31.7417575  39.5778480  12.5025352
  31.1185132  39.9494600  13.1268008  32.4534312  39.2405560  13.0465873
  34.6565676  24.6851563  42.3494339  35.3150702  25.0499821  42.9406261
  34.2592788  23.9695692  42.8457499  88.9811217  76.6539842  34.5101070
  88.6585079  75.7834965  34.2768621  88.2268058  77.2300953  34.3862772
  71.5875672  65.0200766  31.6146898  71.1896579  65.7306546  32.1176600
  71.2880962  64.2217869  32.0497561  16.4748379  86.6979386  47.2088861
  16.6547772  87.5322969  47.6421309  17.3332736  86.2837189  47.1209002
  82.2375261  73.0881745  11.9750428  83.1576453  73.0359429  12.2336626
  81.8288575  73.6281067  12.6515746   3.9645976   7.4562174  37.2915411
   3.5335252   8.3046871  37.1890330   4.8848951   7.6718199  37.4425387
   1.1861870  68.3027309  21.5020871   0.5059573  68.8202017  21.0711074
   1.0523268  67.4125975  21.1765504  17.1794295  16.8668914  56.5840483
  16.6910458  16.3576126  57.2308445  16.5117085  17.1871197  55.9775543
  67.0125018  80.1019329  48.9335442  66.7056691  79.9555373  48.0387497
  67.8281458  79.6043384  48.9914799  24.3587613  23.0817342  20.2322698
  24.7277403  22.9112244  19.3656600  23.4356594  22.8419304  20.1509690
  87.6443445  59.4953793  59.3175030  86.8562709  59.6530646  59.8374128
  88.3534156  59.4672030  59.9598837  11.8783232  45.0775045  44.7949266
  12.4663541  44.5110696  45.2945328  11.4102790  44.4810241  44.2106533
   2.6629493  64.1201800  72.8866148   3.4072873  64.0759915  72.2864151
   1.9410845  63.7186927  72.4029255  23.9137149  18.3908617  58.6789894
  24.5800304  17.7041996  58.7063980  24.2158723  19.0431666  59.3109941
  21.4939475   3.5055318  42.9274416  21.2041974   2.5953603  42.8652716
  21.6797853   3.6347300  43.8574982  25.4446602  28.2078576  50.5327940
  25.0443006  27.3502374  50.6757450  26.3550043  28.0130982  50.3101444
   3.4523565  20.4129720  42.8258991   2.8707984  21.1714101  42.8787518
   3.0256662  19.7460246  43.3638096  41.3745061  27.0765439   6.6254600
  40.7402602  27.1158936   7.3412974  41.8510011  27.9047981   6.6818507
   1.7532775  84.6751189  32.1605206   2.5205156  84.7921520  31.6002703
   1.8277165  83.7773651  32.4841380  39.8777127  27.9321814  46.6972208
  38.9216495  27.9369164  46.7436314  40.1365137  28.8025999  46.9999170
  48.9048433  26.0987377  67.1948767  49.4521523  26.3313246  66.4448166
  48.8656378  26.8981910  67.7198219  72.6500416  16.3414121  27.2176409
  71.7660856  16.4429736  26.8647456  72.7019119  16.9863999  27.9229999
  27.1306464  85.7703113  51.8246937  28.0645892  85.7937339  52.0330954
  26.7023656  86.1241805  52.6041746  86.9986235  87.7244297  29.3469930
  86.6323434  87.5138466  28.4880829  87.3906671  86.9046166  29.6477270
  23.5298344  73.1146806  29.8352718  24.1664359  72.4073988  29.7317171
  22.7914759  72.7078706  30.2886605  16.6353106  17.5982630  27.1841383
  16.5475357  18.1385219  27.9694057  15.9820807  16.9073629  27.2945046
  54.7936498  75.8544654  32.7551866  55.1098906  74.9632615  32.9034424
  55.4553496  76.4141244  33.1615949   2.5751182  82.1285665  41.8946457
   2.1074769  82.6880360  41.2745380   2.6513836  81.2860739  41.4467382
  73.4131959  52.1690276   1.6179689  74.3572238  52.2334257   1.4734109
  73.1445363  51.4043137   1.1087831   0.1966569  78.7807733  59.9611712
  -0.6583694  78.3505207  59.9545479   0.6053373  78.4889215  60.7760572
  76.6414165  41.3499784  69.0344429  75.7277346  41.6299105  69.0897036
  77.1457958  42.1570396  69.1368723   5.8485600  79.6331865  45.2016783
   5.2977893  80.3777242  45.4436398   5.2952167  79.1020268  44.6290398
   9.1596791  60.2941126  73.5912466   8.5291931  59.5840400  73.7117290
   9.3130919  60.6305712  74.4741344  21.6295052  31.5147638  61.3992405
  21.4431429  30.6449699  61.7527342  20.8240366  32.0106220  61.5461302
  92.6385992  49.5858288  39.4489551  92.4099699  49.1175795  38.6460233
  93.0898120  50.3739309  39.1464043  92.6390945  38.3488935  54.2813778
  93.4850274  37.9031938  54.3259001  92.0541202  37.7120060  53.8709927
  71.4465621  38.9278796  10.5279906  72.1919063  38.3408060  10.6546386
  71.0700181  38.6595318   9.6898730  66.7373617  45.2883764  76.0519719
  66.7961605  44.5817855  76.6950145  66.9825204  46.0756514  76.5381072
  78.0260118  40.9048882  73.3111150  78.5256131  41.6341305  72.9439167
  78.2498105  40.1577577  72.7561901  72.6313149  71.1967844  55.0001812
  72.4075161  71.8334824  54.3213892  71.8757581  71.1976618  55.5878592
  35.1195240  10.3000772  70.4393196  34.4929314   9.6453869  70.7475233
  35.9663749   9.8550904  70.4719019  54.6798900  56.8717316   1.3662274
  55.5176905  57.1645048   1.7248424  54.8918250  56.5598467   0.4864343
   9.0973613  82.4152660  33.8896561   9.3895671  82.6593840  33.0114436
   9.2003485  83.2140005  34.4070029  19.5671654   1.3195127  60.5562544
  19.1688108   0.7145096  59.9305439  18.9347029   2.0336980  60.6347609
  68.6956804  87.5748889  63.9397049  68.2356303  86.8842195  64.4167423
  69.6229206  87.4011460  64.1017866  33.2502842  15.9967387  38.6987710
  32.4230623  15.7268250  38.2999182  33.0983520  16.8997359  38.9775944
  70.6000881  66.6734856  33.2927704  70.6103318  66.3075060  34.1771817
  70.6041883  67.6213950  33.4257555  86.8600686  81.8395761  73.3900730
  86.3896831  82.4083689  73.9995326  86.8482287  82.3161224  72.5600148
  79.2536830  84.8733050  45.7366419  78.3995985  84.4719005  45.8967829
  79.8782121  84.1544831  45.8340597  40.2869940  30.0710750   9.0377694
  40.5971241  29.6334720   8.2449538  41.0509634  30.5474138   9.3628639
  15.5499789  85.4283890  74.9243259  15.9885737  84.9709263  74.2069769
  15.3974625  86.3113335  74.5876074  21.7733812  37.8274941  64.2998838
  22.4690008  37.4573040  64.8433018  21.8907547  38.7746549  64.3729830
  35.7409906   9.1833860  18.1820738  36.2644506   9.2070919  17.3810375
  35.0568032   9.8376691  18.0405390   2.7369615  62.0849556  29.3860769
   2.2694704  62.0049781  30.2175140   3.1540653  62.9454940  29.4276357
  48.7251520  38.3778024  16.6945219  48.2647943  38.6904025  15.9156871
  48.1570768  38.6254144  17.4240494  58.2530499   9.9559921  56.7888594
  59.1702414  10.0470483  57.0471144  57.9223585  10.8537602  56.7590380
  25.9244108  13.4850276  44.5306158  25.0080776  13.2771564  44.3479824
  26.3119912  13.6367345  43.6686420  29.6198556  66.9627494  60.2599287
  29.6718451  66.7763156  61.1973572  29.8338505  67.8929824  60.1884985
  12.6450026  21.6908455  56.1372089  12.3830903  21.0187912  55.5079460
  13.4432828  22.0675421  55.7669687  23.6393380   4.6031755  58.0379581
  24.4447160   4.5989966  58.5552406  23.0901194   3.9328313  58.4444380
  20.5558395  37.2097802  35.7513332  21.4907479  37.1133924  35.9326887
  20.1246071  36.7105103  36.4448738  40.4273701  13.4323037  26.8067908
  41.2802792  13.6979938  27.1505713  40.4492140  12.4755299  26.8251586
  11.7213929  31.6636968  69.1711426  10.9581316  31.8502927  69.7178125
  11.3929927  31.0700631  68.4958792  14.4763419  76.2210971  51.5011120
  14.1101882  77.0598704  51.2207174  15.2387664  76.0919958  50.9369516
  19.6889186  20.4785061  19.6032441  20.4629326  19.9778032  19.8609877
  18.9884377  19.8280406  19.5537043   0.8789989  72.2119659  44.0895367
   0.7080981  71.8009871  44.9369574   0.0423023  72.6047403  43.8407469
  16.9394919  80.8423668  46.1158514  17.8071877  81.0617334  45.7764244
  16.5806481  81.6781372  46.4140987  51.5216351   5.6061596  62.9279470
  51.0156155   6.2806571  63.3809757  51.4084196   5.8055162  61.9986105
  13.6062047  62.2453088  38.7928677  13.9481589  63.0670994  38.4407854
  13.4550950  62.4266428  39.7205067  25.2496526  81.9146383  54.5547342
  24.5626637  81.7163229  53.9183807  26.0531279  81.9523501  54.0358496
  80.6120777   3.9399299  61.4706421  79.8187494   4.0518308  61.9944239
  81.3207340   3.9072058  62.1132708  22.4461266  64.1342825  64.0379238
  22.3576256  64.4083446  63.1250763  21.5617081  64.2071789  64.3967056
  45.3282118   9.2831922  59.1874123  45.8719063   9.5276552  59.9363232
  45.5398607   8.3634192  59.0278673  26.5742967  28.9572742   0.7051309
  26.3851902  28.0524972   0.4564365  27.1373418  29.2856589   0.0041469
  49.0628910  20.1534891  35.0056624  48.7850380  20.8487654  35.6020021
  49.0785885  19.3648875  35.5479670  38.7311935  16.5300870  38.9364028
  38.8874221  15.7320833  39.4413924  39.3854451  16.5036297  38.2381988
  61.2111786  54.0252450  21.3822730  61.4437226  54.8964765  21.7033752
  61.4917901  53.4307650  22.0780261  37.8182817  31.5101027  67.3413658
  37.1152735  32.1420121  67.1906996  37.5780392  30.7527471  66.8075800
  33.1013823   5.8190489  41.1678600  32.6154900   6.1189771  41.9360924
  33.5838795   6.5913999  40.8730698  87.2724830  73.7803727  39.3713593
  88.1888758  73.6295181  39.1396332  86.9450675  74.3633395  38.6863923
  88.8639938  66.2752527  39.1196084  89.1211020  65.3548187  39.0654874
  88.7416278  66.4351243  40.0553989  20.5831170   2.1222472  12.0447457
  21.3854194   2.6311338  11.9282281  20.0173545   2.3986359  11.3238060
   8.1413281  29.1916490  32.6383352   7.8368998  29.9123526  32.0868468
   8.1297743  29.5483160  33.5265303  63.9011748  84.7363025  60.5372667
  63.6943091  84.6024460  59.6123219  64.5251631  84.0411568  60.7461739
  87.6890265  65.9116119  70.4251194  87.9510056  66.7541999  70.7961226
  88.5145651  65.4779619  70.2090979  70.8787971  71.4494950  59.3988085
  71.3395845  72.1999747  59.0237236  71.4978062  71.0781103  60.0274038
  27.3410773  28.0384350  60.9100533  27.0987844  28.0233860  59.9841499
  26.6312003  27.5716758  61.3510132  47.5194120   8.2907969  29.3656445
  48.3180952   7.7638930  29.3922520  47.8300238   9.1927499  29.2867041
  41.7828178  34.0916085  45.2819109  40.8538532  33.8761425  45.1992464
  42.2386456  33.3135843  44.9607611  43.5169125   9.4301414  38.6673260
  44.3725109   9.4353342  39.0964627  43.5627937   8.6996639  38.0504560
  86.9758831  42.8203911  49.6723652  86.0236441  42.7984947  49.7671938
  87.2081815  41.9378370  49.3836308  21.5589643   0.5401471  43.0365944
  21.8968701   0.5386554  42.1410227  20.7648420   0.0074415  42.9938459
  34.1750952  68.4086341  43.6916494  33.9879605  68.0626124  44.5642757
  35.1256797  68.5200185  43.6769438  29.4978189  23.2203341  35.5486655
  29.7071600  23.2632136  34.6156216  30.3423095  23.0818510  35.9774876
  20.2110052  36.3750291  19.0521610  20.4636431  35.4561687  19.1421688
  19.5057034  36.4929438  19.6884596   5.6619334   3.8091749  72.2905254
   6.0579640   4.6139306  72.6248312   5.4507917   3.3024538  73.0746746
  33.9921999   7.1357834  64.9216032  34.4077134   7.6665902  65.6011772
  34.0533948   6.2380481  65.2480364  56.7185450   4.5609519  48.6688232
  56.3367224   4.2463741  49.4882631  57.2023630   5.3487349  48.9169073
  72.2519754  75.6694645  68.3613396  72.2797881  76.5098625  68.8187122
  72.4082379  75.0189322  69.0459013  72.2432330  26.7283931   7.9813178
  72.7006248  26.6162863   7.1479781  71.3233093  26.5646902   7.7735408
  57.3081636  17.4100220  56.9754648  57.8348255  17.2272456  57.7535725
  56.4034653  17.3838067  57.2870159  88.2126533  85.3231642  44.5509720
  88.7865936  85.2364105  45.3120899  88.3470141  84.5147872  44.0562963
  19.0387952  26.5893984  37.4950933  19.4565797  27.1209979  38.1726551
  18.1041074  26.6366577  37.6959848  50.6697226  17.5987458  53.2938528
  50.3337049  17.7498937  52.4104071  49.8884010  17.4387240  53.8231611
  89.3179547  65.8907860  35.9403634  89.4074785  66.5305442  35.2340150
  90.1157628  65.9936017  36.4591742  82.1635197  55.8651107  50.1648712
  83.1110750  55.8172911  50.0380325  82.0051192  56.7651075  50.4497290
  15.6026649  21.6112661  34.3859243  14.6904910  21.6380596  34.6748042
  16.0646224  21.1605334  35.0927949   1.9923531  12.7810228  44.5114183
   2.8093678  13.2518899  44.6757460   1.3058075  13.3919871  44.7790194
  62.2206638  83.1202012  37.7374506  63.1678165  83.0331862  37.6299238
  61.9370637  82.2658533  38.0628586  19.9000275  26.7657089  47.3485231
  19.2116678  27.4282360  47.2897911  20.5917144  27.0870519  46.7701292
  72.2974919  60.2568072  55.4368353  71.4373552  60.6274360  55.2392721
  72.8736960  61.0171384  55.5150270  20.2845570  60.2954262  26.2372041
  19.7197577  59.7879857  26.8200779  19.7748420  61.0793203  26.0324168
  27.0868850  14.4303882  77.1207476  27.1714592  13.4897542  77.2765970
  27.1996903  14.5275998  76.1752033  17.1583915  11.4935863  49.7382355
  16.8187952  11.4219093  50.6302977  17.0253313  10.6241000  49.3607187
  42.3452810  10.3785243   1.3903745  43.0424467  10.1265612   0.7848151
  41.8506423   9.5719185   1.5351184  46.6975616  83.8748211  56.4074183
  45.7875584  84.1251695  56.2478828  47.1923612  84.3187320  55.7186890
  74.6821740  44.9607459  12.7749236  74.3423847  44.1640623  12.3674090
  75.5280116  45.1048060  12.3506148  87.4907695  85.1867530  57.1221685
  86.7817031  85.6993562  56.7339754  87.2721874  84.2786503  56.9128752
  70.6153654  86.3510561  55.4633045  71.0193996  86.3251513  54.5959425
  70.5913626  87.2810385  55.6886721  64.0616615  72.1320730  33.7628627
  64.1792377  72.2683245  34.7029924  63.1442287  71.8749529  33.6710048
  38.4079885   9.8816562  69.9352884  39.2527604   9.4384736  69.8566628
  37.7608585   9.1893077  69.8007250  12.5763726  34.6356177  55.9600353
  13.4728789  34.6328020  56.2954473  12.3689818  35.5621576  55.8386183
  93.6542711  36.9337440  18.3082330  93.8179667  36.2799215  17.6285625
  92.8069394  37.3136544  18.0760062  79.5971062   7.0944506  63.1722307
  80.1939931   7.2171730  62.4340630  79.2627945   6.2040287  63.0644560
  93.3467960   7.2261703  23.7800121  92.5041634   7.1135479  23.3401060
  93.7475906   6.3572544  23.7559104   2.2159480  38.0642056  23.7472868
   2.5547767  37.1706319  23.6929345   2.9839453  38.6200237  23.6150885
  69.1150904   6.1108363  41.1220026  69.8839951   5.5520046  41.2347794
  68.7701941   6.2252462  42.0075464  76.2453729   9.6982476  17.0443996
  75.3248221   9.4997689  17.2159370  76.7134661   9.3299100  17.7937015
  43.0706930   2.8144589  48.9991665  42.2336435   2.3916939  48.8071918
  43.1057310   3.5596886  48.3994722  10.0800463  59.0177983  64.7084427
   9.8746821  59.7981232  65.2233696  11.0301539  58.9264959  64.7804976
  81.6237270  78.1614333  54.7086048  80.8796369  78.1361920  54.1070032
  82.1865271  77.4414521  54.4237995  46.7863843  74.7843581  39.0680552
  47.6324603  74.4525617  39.3685508  46.7572066  74.5588332  38.1382608
  38.8630152  43.9772415  20.7939482  39.4482946  44.1751003  20.0628328
  39.4492674  43.7430954  21.5134716  65.8180618  22.0158100  76.5890694
  66.6959572  21.6909957  76.7891312  65.7512617  21.9541717  75.6361961
  70.8542483  66.6896886  48.5937023  71.1960487  67.0668715  47.7830601
  71.0628473  67.3381370  49.2661858   1.3867566  88.4242568  69.7042894
   2.0915386  88.7164420  70.2823353   1.6599890  88.7070579  68.8315916
  25.9689423  86.0460865  42.0662689  26.8351170  86.0202756  41.6596889
  25.5380627  85.2469835  41.7629385  36.8282696  67.7971238  73.6233902
  37.2554490  66.9451111  73.7118340  36.5496775  67.8315300  72.7082729
  38.4436154  41.7876768  48.7836742  38.5758519  41.2130928  48.0296230
  37.7526999  42.3899078  48.5076523  84.1427528  61.9448632  51.7853785
  84.7363864  61.5241808  51.1634016  83.5835277  61.2347931  52.1005011
  37.4427223   5.3275239  63.6606979  37.9045606   4.4955802  63.7646580
  37.6443934   5.8148670  64.4594812  14.0778303  18.6506867  33.5524035
  13.6340857  19.1717374  32.8832054  14.9115694  19.0997732  33.6918116
  37.7072191  23.1142569  51.9627190  37.1975017  23.9133525  52.0963717
  38.0263996  22.8849673  52.8355169  62.7075108  68.9675337  47.3987055
  63.3692239  69.4648308  46.9180155  62.4641398  68.2568854  46.8054295
  23.2398173  61.3677162  21.4241409  22.5364682  61.6815346  20.8557677
  23.2346770  60.4174560  21.3091922  75.0015639  69.4121355  33.0676579
  74.1871928  69.6404082  33.5159039  74.8138212  68.5762018  32.6408124
  48.6393258  63.4795803  36.7209291  49.0879914  63.2648581  35.9031129
  49.2119977  63.1346673  37.4059963  37.4318480  18.8958359  34.7099090
  37.0437050  18.1462848  35.1612973  37.3377442  18.6903012  33.7797856
  32.3923016   3.0120301  63.5703564  32.3363113   2.4051936  62.8322172
  32.7981687   2.5007954  64.2704582  32.8636244  36.3909569  -0.2113931
  32.9821496  37.2719261   0.1436790  32.3103978  35.9463027   0.4308351
   4.5503756  78.6570054  52.6136923   4.9241230  79.5233291  52.7750254
   3.6042496  78.8019794  52.6059818  64.4071388   9.1838241  35.7359886
  63.6000681   8.7733680  36.0464525  64.1522694   9.6346223  34.9309707
  38.5108018   2.3055284  72.3593569  38.2482505   1.5925390  71.7771673
  38.1600761   2.0577073  73.2148123  49.8164177   0.7338782  56.6359615
  49.4160938   1.3624999  57.2366333  49.7590399   1.1530700  55.7773495
  61.2708648   9.6024826  75.3423832  60.5785974  10.2162817  75.0969310
  61.6075237   9.2751172  74.5082809  51.6587809  38.1198522   5.4574664
  51.0369459  38.8472619   5.4368003  51.5764073  37.7097985   4.5964702
   8.8010848   2.3966418  48.3520222   9.1364872   2.9182416  47.6228619
   7.9537743   2.7910224  48.5588074  64.6414709  74.4110328  73.0661631
  64.7432568  75.1372963  72.4510098  65.5371209  74.1370147  73.2635355
  76.7484580  83.1738168  17.1147001  76.2537359  82.8831869  16.3485301
  76.0896026  83.5561311  17.6943362  22.0398137  87.1586172  52.9073143
  22.7602240  86.9486815  52.3130369  22.0419928  86.4467490  53.5472155
  89.3181859  79.7782808  64.6925926  89.3084799  79.8810333  63.7409735
  88.4142004  79.5598334  64.9191427   3.4127763  11.9485343  30.0560856
   3.9532894  11.3402736  29.5520067   2.6388067  12.0895553  29.5108199
  36.6523120  83.9104629  51.0470152  36.9589421  84.8116738  51.1471605
  35.8248088  83.9903438  50.5725765  17.4576664  19.8334241  64.1323709
  17.6396966  19.9215198  63.1967783  18.0776942  19.1702116  64.4356012
  34.2928645  67.3571533  59.5755053  33.7975833  67.3393935  60.3944159
  34.3135258  68.2815951  59.3280935  19.2898938  76.6061097  53.9469290
  20.1127574  76.5582234  53.4602737  19.3133971  75.8490854  54.5322466
  65.1064848  60.0876921  37.1571088  64.5748426  60.2292436  37.9404044
  65.4140960  60.9612793  36.9153357  39.4686270  29.7980356  52.4982595
  39.3421364  29.2378306  51.7324877  38.9793706  29.3631244  53.1966209
  80.5048214  85.1292708  28.9235401  81.0445558  85.6526214  28.3310699
  79.7259556  84.9137318  28.4105659  87.0850809  12.5543153  36.4319396
  87.5748356  12.2005343  37.1743751  86.9305213  13.4705830  36.6617155
  86.1248385  77.1020967  43.7924385  86.4162051  76.7304712  42.9598331
  86.3648449  76.4445132  44.4452858  80.1743804  85.0787902  50.6355762
  79.4151794  85.5940345  50.3628683  80.9265231  85.6355658  50.4342937
  83.5986986  25.2300644  35.0825095  84.1863753  25.8525157  35.5107880
  82.9008474  25.7729530  34.7157574   1.7221305  26.8888259  69.8738575
   1.9424298  26.9586611  68.9449739   0.7852487  27.0810699  69.9129248
  16.0082051  69.7009450  62.9380941  15.5205867  70.4194516  63.3408499
  16.4063117  70.0888580  62.1588230  27.3680043  16.9004428  53.0487537
  26.6349649  16.3101196  52.8743792  27.9117513  16.8457401  52.2628927
  46.5737677  19.7037935  64.8926020  47.2491407  19.8107898  65.5624199
  45.9355640  20.3910184  65.0840473  60.0961971  13.8299847  52.4821568
  59.9424791  12.9874897  52.9097128  60.3412485  13.6022592  51.5853167
  28.3169365  28.0594158  49.5010614  28.7996221  28.2048845  48.6873770
  28.9437246  27.6205373  50.0761747  35.2303052  18.2333612  26.1755753
  34.3453813  18.2738900  25.8129501  35.5339551  17.3496461  25.9680295
  41.6556740   8.4815359  40.6728458  41.9686937   8.8728893  39.8573112
  41.4325094   7.5812733  40.4362965  29.6378565  30.1191044  34.9910212
  30.0508571  30.7877445  35.5374479  28.8431907  30.5376101  34.6599746
  36.9651866   6.8243599  76.5225363  37.3842978   7.3382139  75.8322239
  37.6640344   6.6580373  77.1551323   5.9081501  13.5689712  35.5645823
   5.9372175  13.5706949  36.5213394   5.0855708  14.0085042  35.3491592
  25.1165581  34.2026258  56.9931793  24.8572183  33.3080435  57.2138548
  24.4093657  34.5262742  56.4351845  89.4975250  44.5324612  27.6233578
  89.6541627  45.1429558  26.9029474  90.3639274  44.3796730  28.0004978
  25.9230852  49.1798687  74.8203754  25.4897356  49.4722462  74.0185261
  25.3558969  49.4905090  75.5260897  66.4417267   3.7052682  36.3427091
  66.7530251   3.9223248  37.2214651  65.8718443   2.9469743  36.4709997
  25.2580333  61.0680008  17.8620291  24.3261170  61.0812712  17.6438832
  25.3382754  60.3858280  18.5286868  77.6281023  17.0839393  48.4218025
  77.2436714  16.5168846  47.7533007  77.5277424  16.5940630  49.2379999
  45.6779286  81.7745441   4.4896278  45.2451274  81.6544926   5.3349102
  46.3634965  82.4201590   4.6611217  63.3362150  34.1517138  47.1214581
  63.2930660  34.8179841  46.4355612  63.6792707  34.6159148  47.8850460
   9.1641566  82.8899324  67.5886393   8.4308407  83.4018308  67.2474003
   9.1142985  83.0033648  68.5377836   5.8212849  82.2355360  69.3544149
   5.0890371  82.4488771  69.9327993   5.9493396  81.2937111  69.4675493
  16.5051171  62.8037399  40.7082462  15.9773061  63.2553214  41.3668203
  15.9859463  62.0353931  40.4708910  61.8006709  72.2509804  11.3884814
  62.6513198  71.8173876  11.4564975  61.8246034  72.6935831  10.5400928
  62.4644849  87.9798073  38.0392647  61.5622231  88.0499696  38.3510828
  62.5552270  87.0650451  37.7724147  23.0869365  36.6870189  71.8086481
  23.5047722  36.8465757  72.6549244  23.7364459  36.1906767  71.3106394
  48.5927343  22.5882745  75.1552725  48.2611942  23.4004593  74.7722960
  48.1834555  22.5464606  76.0195446  21.4872670   7.4570209  14.3511951
  20.6661868   7.5853801  13.8762391  22.0770621   8.1207585  13.9936650
  24.3735957  30.3776741  46.3807297  23.7295246  30.8771443  45.8787966
  23.8721013  29.9959898  47.1011829  50.8507442  32.3199582  64.2286825
  51.3882446  32.8911901  63.6800289  51.4686060  31.9329906  64.8489523
  12.8986621  24.5043802  17.6072395  13.0425406  23.6103725  17.9175246
  12.5615525  24.9718213  18.3714962  37.4455547  21.0440850  24.4892597
  37.6503062  20.3514791  25.1174355  36.5360141  20.8801866  24.2400479
  44.9168015   4.6204144  32.1864700  44.7864437   3.7764353  32.6188326
  44.3959427   4.5621756  31.3855028  40.5446577   0.8910493  43.1450701
  40.3723001   1.7889602  42.8617334  39.7492385   0.6293719  43.6088181
   9.2643830  87.1580087  30.5252099   9.3536088  88.0246872  30.1288033
   9.9056432  87.1524943  31.2358332  18.3889052  49.5382708  36.5485549
  18.3707616  50.4159135  36.1669183  18.6163947  49.6812457  37.4672699
  34.6171999   1.7807841  61.4670563  35.0611877   1.2205970  60.8304262
  33.7042999   1.7933030  61.1794996  40.0402069  16.9382679  63.5607767
  39.1508889  16.6768694  63.7995529  40.0307560  17.8940618  63.6117697
  47.4510384  40.5678415  30.0396967  48.1173182  40.9512663  29.4693565
  46.6600561  40.5433941  29.5011973  39.2581105   5.0675619  34.6086597
  39.9447918   4.6317396  34.1039228  38.6219692   4.3767411  34.7939253
   4.0581885  19.3469572  58.0458498   4.8684779  18.9685833  58.3871698
   3.3621109  18.8665545  58.4940958  37.2297525  26.0089087  30.2012515
  37.9409337  26.6295934  30.3600121  36.5787029  26.5109158  29.7109890
  64.4352722  13.1836128   0.7029892  65.3032732  12.8843546   0.4323525
  63.8289261  12.6919913   0.1490143  48.4166446  50.0958237   5.2562888
  48.5859552  49.3605929   4.6672233  49.0508488  50.7633248   4.9946387
  18.6582077  28.7315798  51.9180155  18.4321868  27.8087163  51.8019533
  18.3665848  28.9397979  52.8056145  30.8636758  67.3819965  72.5971270
  30.3529975  68.0794328  72.1860027  30.4244181  66.5744322  72.3304319
  18.5196757  23.6288095   6.9532531  18.4238911  24.3953824   7.5184292
  19.4578516  23.5827875   6.7690289  77.0199643  88.4447457  66.0638046
  77.8224682  88.4050679  65.5435705  77.2348498  89.0283290  66.7914629
  53.0428028  14.0929854  66.6181850  52.6872206  14.9487031  66.3783073
  53.5503101  14.2586696  67.4126720  82.5115731  35.7399478   1.0002692
  83.4215644  35.5217638   0.7989152  82.1771053  36.1376032   0.1963838
  42.2490168  27.4547148  18.8562834  42.4035692  26.7861724  18.1889021
  42.0556259  28.2493877  18.3589649  50.4771614   8.4265113  44.1173697
  49.7632170   7.9401159  43.7051392  50.3734589   8.2565761  45.0536346
  46.4766788  41.8850899  61.1348486  45.9977770  42.6920891  60.9460592
  46.3733292  41.7603683  62.0782423  89.0871583  83.5605168  72.1756983
  89.3550836  84.4788364  72.2094154  88.6708843  83.4012145  73.0227947
  54.1864109  28.0388737  37.2194839  54.8595047  27.3834538  37.0361733
  53.4884644  27.8470755  36.5931368  13.3278176  82.7408946  14.4663453
  13.1603667  82.1787625  13.7099063  13.0645940  83.6149126  14.1781843
  34.1614342   9.6367133  29.8675609  33.5439634   8.9341414  29.6642017
  34.3700504   9.5117146  30.7933497  24.7291517  47.1099567  36.8054986
  24.8259473  47.3195696  37.7344370  25.2856326  46.3423300  36.6739273
   7.8610128  49.9026409  64.1183261   7.6504558  50.2727690  64.9755911
   8.7503427  49.5624361  64.2162136  32.3255014   8.1582892  35.1869678
  32.5967956   7.2531962  35.3400660  31.3845778   8.1014252  35.0206614
  81.5151599  36.9154379   8.1753810  80.6403497  36.8912116   8.5631354
  81.4198497  37.4741074   7.4039920  64.2832425  47.8174621   3.5250838
  64.4115880  48.5100341   4.1732391  64.7614911  48.1202131   2.7531703
  49.4375372  15.5725431  46.5552521  50.0675583  15.8077633  45.8740854
  48.9137268  14.8725212  46.1656094  34.8753834   3.4772238  35.6795931
  34.8687243   3.5024112  34.7227478  35.7819223   3.2710752  35.9074593
  53.4002304  17.8052902  63.3081675  53.9791012  17.0438373  63.2717276
  53.8149071  18.3913207  63.9412880  23.4091470  64.7475403  19.0232933
  23.3314511  64.1327304  19.7528160  22.5330350  64.7747916  18.6386907
   8.3196589  71.5129763  39.7554088   8.5470316  70.6392878  39.4372845
   7.7206346  71.3538855  40.4848528  44.5937777   7.5207049  28.9629865
  44.6121216   6.6774815  28.5103607  45.5056667   7.6826346  29.2047906
  43.0487776  39.7771120  72.9733324  42.6462746  40.6158018  72.7478933
  43.2330036  39.8440146  73.9102507  72.8951120  46.9875908  13.1039119
  72.8857470  47.5145388  13.9029551  73.6292458  46.3850117  13.2229805
  34.3142638  41.9237411   0.6903442  35.0252536  42.2973418   1.2110646
  34.2139024  42.5271967  -0.0458638  22.3025713  21.5489244  64.4343710
  21.9681845  20.7290506  64.7980022  23.2387553  21.5349913  64.6333742
  63.9438057   9.9718881  71.4252520  63.9488506   9.7367442  72.3531055
  63.7144661   9.1597116  70.9735870  57.9716873  28.1051016  69.6181917
  57.0945501  28.4644723  69.4851065  58.4034157  28.7347317  70.1956129
  49.3077898  59.7873354  28.8585472  50.0204468  59.6411800  29.4806361
  48.5320139  59.9058962  29.4065857  41.3789701   8.6171997  43.6898422
  41.3405848   8.6032730  42.7335119  41.9340229   9.3691999  43.8963413
  11.2890908  67.1556586  25.2550769  11.0346600  66.8588990  24.3813300
  12.2373387  67.2745246  25.2009702  36.9835949  13.6833024  48.9232111
  37.6984525  14.1745436  48.5183764  37.2882128  12.7758718  48.9263058
  20.6429717  84.7311857  67.8384209  21.1337849  83.9137044  67.9224300
  21.0325572  85.1676869  67.0808458  54.5087671  14.2566705  30.2852178
  54.5183659  13.6528206  31.0278535  55.4062223  14.2416263  29.9526739
  33.2672715  32.9588652  25.4563594  33.4091234  33.6848140  24.8488164
  34.0987110  32.4846077  25.4611516  10.3367519  69.4809532  64.3431568
  11.1924732  69.0649557  64.2386770  10.4413700  70.0570869  65.1003599
  66.8704128  11.1397743  38.7059808  66.0421228  10.9900105  39.1617632
  67.5416517  10.9684372  39.3665195  40.5342817  23.8016605  64.3277884
  40.5288649  24.1125846  63.4225082  39.8349714  24.2962408  64.7550869
  90.3886401  80.2761859  30.7353687  89.7674524  80.2883679  30.0072145
  91.2331330  80.4794401  30.3331828  40.7850027  47.7400970  18.9858031
  41.7182875  47.6222658  18.8088202  40.4795551  46.8718243  19.2485476
  74.5459175   7.3417413  18.8996315  74.7852707   8.0743450  19.4672883
  74.5969248   6.5725094  19.4670045  51.5612316  16.8806136  30.3179812
  51.8878603  16.9047368  31.2174034  51.0088968  17.6587570  30.2427959
   7.4648076   6.9377112  16.7031646   7.3628438   5.9911865  16.6035366
   6.7668313   7.3117161  16.1654091   2.4651682  12.4475873  70.5436945
   2.8517520  12.7611029  71.3613081   2.4021170  13.2284486  69.9936819
  19.0989205  76.3442737  66.7970896  19.2881152  77.2463793  67.0552444
  19.0478656  75.8643013  67.6236820  53.0673885  33.4734654  50.9869242
  53.4234905  33.0175734  51.7495394  53.6843300  34.1871524  50.8248615
  32.5814319  23.5706639  50.0378656  32.8271127  24.3815064  50.4832935
  31.6253924  23.5534859  50.0817537  61.6648463  53.4120217  13.9284213
  61.2437084  54.2075231  13.6027606  62.4742559  53.7194165  14.3365844
  37.2273898  35.7334018  60.7029009  37.0347476  34.9231410  60.2310944
  37.2807288  35.4689074  61.6212845  43.8582850  14.0641487  36.4196849
  43.8055182  13.1084681  36.4307761  44.5281410  14.2594504  35.7644129
  46.2858343   3.7942734  50.2346945  47.1492386   4.0311339  49.8960829
  46.1686850   2.8807318  49.9740219   3.4600803  86.6676545  71.4268970
   3.5232088  85.8770725  71.9628334   2.7901980  86.4620945  70.7747984
  44.5862484  26.6940284  43.9318895  45.2861595  27.2856212  44.2082548
  45.0046539  26.1046338  43.3043671  10.5853522  33.2971120  58.0051327
  10.2049696  33.1488442  57.1393633  11.0009217  34.1569400  57.9401064
   6.3882515  85.9387147  55.3865671   6.0123417  85.8006054  56.2559652
   5.7172057  86.4278021  54.9104118  27.2471809  42.0962048  26.4604449
  26.5920687  42.7764273  26.6165090  26.7482281  41.2793398  26.4573407
  42.1922922  25.4127097  54.4398165  42.3946762  26.0475683  53.7526274
  42.9184914  25.4898906  55.0586128  14.5791241  82.3928004  55.4634428
  14.6547171  81.7568767  56.1748648  14.5817563  83.2438183  55.9016132
  85.7841638  78.4682503  13.4873279  85.9060386  79.4095793  13.3637317
  85.2684263  78.1919971  12.7297481  32.5695133   2.3147820  44.4804478
  31.6352034   2.1380222  44.3706560  32.6053190   3.2046878  44.8311853
  32.6233768  40.7283306  34.2372990  33.3075905  40.0589466  34.2404318
  33.0994868  41.5572548  34.1879177  44.5151138  39.7394109  44.1366434
  44.2054319  39.0877557  43.5076141  44.3013334  39.3670344  44.9921322
  48.5627556  20.2049947  27.3913145  47.6344347  20.2021456  27.6246524
  49.0088797  20.4944158  28.1872010  50.1451874  22.7078056  43.1965637
  50.3104734  21.9965911  42.5776196  49.1948318  22.7098918  43.3107853
  32.0292258  23.1105208  21.8217397  31.3554573  22.4368572  21.9136238
  31.9506001  23.4057498  20.9146070  13.9722392  83.6457938  51.4601517
  14.9053952  83.4654212  51.3465261  13.8161656  83.5198104  52.3960972
  54.1847372  14.7549796  18.9016891  54.3352127  14.3276525  18.0584931
  53.5846424  14.1692960  19.3633115  42.4281836   7.4918973  17.3166955
  43.3671618   7.5723767  17.1491647  42.0153999   7.7329427  16.4873934
  38.4368634   3.1422597  49.3963194  38.4125185   3.7687820  48.6730576
  39.0969872   3.4925058  49.9944782  52.2116899  17.3101473  56.8004036
  51.7355490  18.0575955  56.4386892  51.6799402  17.0241189  57.5431442
  25.5215022  71.3317865  28.4611464  26.3998028  71.0771233  28.7439227
  25.3413197  70.7719928  27.7059007  25.1154566   9.9597543  30.2697873
  24.8176956  10.8545887  30.1059484  25.7737827  10.0487864  30.9589267
  39.6027613  19.6597528  51.4131546  39.5430827  18.9708090  52.0749903
  40.3730106  20.1686931  51.6659927  37.6202765  70.9903160  35.2989753
  37.4382302  71.6222802  34.6034797  38.5564283  71.0885015  35.4727920
  84.8900131  82.8342882  25.0338252  85.5624822  83.5153213  25.0191672
  85.3811458  82.0134535  25.0691684  26.5251013  70.9774941  74.5925331
  26.7067763  71.3940591  73.7500954  26.2476870  70.0898439  74.3659306
  17.7210546  17.1408403  44.8358440  18.0807853  17.3204279  43.9671803
  18.4866297  17.1042418  45.4092407  47.9310846  35.2156234  34.4755602
  48.1790733  36.1058736  34.7249341  48.7636757  34.7537112  34.3772578
  37.5663924  26.3734126  42.3919344  36.9604111  26.6260815  43.0884838
  38.2315135  25.8450103  42.8331137  63.1821826  56.0374752   9.9791797
  63.9668968  55.7686356  10.4568656  62.8063730  56.7387941  10.5113013
  90.3335224  75.4753751  36.5837312  89.7994171  76.1673993  36.1937761
  91.0182535  75.9423822  37.0625663  26.6199510   7.6864621   0.1869043
  26.0379474   8.2593629   0.6861909  27.1600406   7.2568700   0.8502229
  32.4062773  84.6009740  53.8584805  33.1909892  84.3500730  54.3458319
  31.7409846  83.9706817  54.1347885  38.0714107   2.5229651  34.7726822
  37.9195762   2.9495108  35.6160307  39.0138102   2.3562399  34.7548294
  94.0026919  12.7117324  47.4079132  93.8738243  13.1736422  46.5795040
  94.2418732  11.8212366  47.1509266  72.6298335  15.3065005  11.2348445
  72.5294307  16.2151590  10.9511264  72.9114774  15.3702560  12.1474441
  34.4889522   2.9215768  39.1628575  33.5603523   2.9162708  38.9306808
  34.5009351   3.1269637  40.0976849  45.7723951  14.9815857  22.6262021
  46.4440107  15.4747474  23.0973220  45.0015354  15.0260770  23.1919146
  60.1677895  14.7864377  68.2169485  59.8795462  15.5346549  67.6941538
  59.9033165  15.0028777  69.1110611  34.2113209   3.4156719  51.7003489
  34.2961097   4.3677810  51.6500378  34.8210168   3.1571040  52.3914671
  31.2260842  33.2496333  33.5147500  32.0095849  33.7873006  33.3995414
  31.5500426  32.3489785  33.5045886  12.4182820  12.0491326  56.3279200
  12.4489403  11.1076772  56.4980793  13.2260668  12.3886001  56.7132473
  11.2456918  26.6518211  61.2625265  10.9638739  27.5500917  61.4355087
  11.3470089  26.2612343  62.1305180  38.1330061   2.3310463  20.2003622
  37.7153683   2.5787145  21.0252690  38.0341816   3.1015405  19.6410739
  33.4000182  31.5819335  49.8400116  33.9719272  30.9983015  49.3414927
  33.6399174  32.4607778  49.5462227  63.3710667  42.5901073  62.4743795
  62.6363847  43.0637783  62.0843744  63.9461896  43.2765144  62.8124857
  50.6441307  27.6406622  29.1267800  51.5030384  28.0306578  29.2893100
  50.5505800  27.6557875  28.1742835  76.0603094  47.7548122  63.3691406
  76.4248800  47.2649574  62.6320124  75.8385134  48.6104584  63.0018473
  91.3178106  17.9847741  33.7449813  91.8939887  18.7386870  33.8709378
  90.4380443  18.3263123  33.9049649  59.2575693  31.1825562  51.3331509
  58.4480572  30.9147096  51.7681026  59.2708302  32.1359110  51.4178181
  32.7992702  24.6837330  34.4222808  32.0279789  25.0794649  34.0163994
  33.5303926  25.2262926  34.1267800  50.2356625  25.8683419  71.4109945
  50.5339670  26.7467117  71.1749554  50.3577375  25.3518176  70.6144190
  62.2684577  75.7862893   7.0877917  63.1604579  75.7711163   6.7408927
  62.1532300  76.6790262   7.4133380  63.2550287   4.7576052  62.6561069
  63.5579681   4.0148979  62.1337605  63.4061575   4.4903123  63.5627174
  64.2444754  26.7556262  30.1687860  64.4008207  26.5347385  31.0869336
  63.3094692  26.5962386  30.0399566  13.6304653  43.8672018  62.5415897
  13.6561382  43.5955191  61.6241121  13.1921780  43.1457424  62.9928446
  22.7827644  24.9017620  53.9381886  21.9815874  24.4845772  53.6214733
  22.9201865  25.6389856  53.3433342  58.7660265  59.3299294  39.0891218
  58.2813740  59.7650051  39.7905874  58.2967520  59.5689392  38.2898188
   6.8499085  82.5029635  75.5308342   6.9732162  81.8213421  76.1914539
   6.4382574  83.2250059  76.0056257  35.1517701  20.2433228  53.7819338
  35.9092569  20.7610083  54.0547848  35.4526806  19.7685087  53.0071831
  31.4753437  47.1289539  14.6846223  30.8320975  47.2921896  13.9948261
  31.7666602  48.0007744  14.9516344  14.8980920   3.0566832   3.3794864
  13.9798800   2.8972337   3.5978778  15.1135938   3.8724944   3.8314231
  28.9857912  13.9348817  30.8105350  29.3401766  13.0462897  30.7781768
  29.6359730  14.4688129  30.3540111  72.1265411  44.0118980  13.9236355
  72.3302603  44.7249413  13.3184075  72.1543598  44.4178391  14.7900498
  54.0573692  27.8237057  27.1592760  54.1416502  27.3694110  26.3209772
  54.7533321  27.4544001  27.7028608  60.3556824  27.8304529  38.2683039
  59.7078228  28.3707261  38.7206507  61.1660957  28.3375382  38.3165145
  36.0601544  18.9968014  67.7752352  36.0606098  19.8707199  68.1657457
  35.1489472  18.8477278  67.5228262  22.5273225  74.3048066  21.8769860
  21.7672106  73.7351280  21.7589617  22.5880334  74.7959834  21.0576630
  84.0453922  63.5203880  61.9736195  83.4287773  63.7499708  61.2784147
  84.8318421  64.0280026  61.7734814   7.3712370  79.3627590  67.2303247
   7.0029041  79.5195353  68.0997992   6.9054791  78.5909206  66.9085121
  60.6575346   3.4296051  14.3251669  61.2980700   3.1770024  14.9900997
  61.1774302   3.5746554  13.5346603  51.7631337  79.1347539  51.4983034
  51.8671128  78.2858354  51.9281387  50.8627030  79.3937248  51.6942263
  61.2623072  18.9788723  45.6366396  61.0095882  19.9019647  45.6529713
  61.8570423  18.8801754  46.3801289  23.8557220  18.3591378  55.9208632
  23.8085604  17.9379761  56.7791319  24.2298436  19.2222404  56.0978317
   2.2689935  69.7287017  48.0760384   1.7208716  69.3966728  48.7870598
   3.1137177  69.2968172  48.2031155  59.1272545  21.1434364  74.9595928
  59.1218185  21.9302726  75.5046511  58.9589834  20.4269481  75.5716038
  20.3972527  57.8268379  43.9134693  20.8135030  57.0444816  44.2752552
  19.6039292  57.5011605  43.4882593  32.5638151  13.4151959  28.8061571
  32.0386720  12.9121494  28.1837416  33.4132218  12.9739785  28.8144350
  35.4365444  27.6635742  28.9629388  34.6211839  27.1942234  29.1393757
  35.3148198  28.0350447  28.0891967  37.0679331  37.8529644  41.8025017
  37.6294374  37.1095848  41.5826511  37.3731875  38.1371355  42.6640701
  34.9030113   2.7905220  74.7986698  35.4213405   2.6692182  75.5941916
  34.4478965   3.6216986  74.9337530  21.9884396  14.1508746  75.3607655
  22.5177550  14.8890615  75.0588751  21.3811302  14.5344985  75.9934092
  30.7776976  10.0753438  65.8712053  30.7538271   9.9735141  66.8226719
  31.2275624  10.9084773  65.7307005  11.5676638  86.5605105  60.4271889
  11.5130994  87.0897080  61.2229300  11.1290166  87.0869890  59.7588778
  34.2999506  28.9367843  42.3657322  34.0849447  28.6639977  41.4737701
  35.2416658  29.1068387  42.3437548  19.0420854   1.8938971  56.5831661
  19.4942689   1.7907141  55.7458401  18.7599742   2.8085384  56.5919113
  64.0001631  43.3847237  53.6563873  63.7762547  42.6477814  53.0880499
  63.5473251  44.1331387  53.2677412  59.9234533  16.3721108  64.2389822
  59.7264957  17.1117306  63.6641788  59.8562050  15.6037199  63.6721611
  75.7739353   6.8587172  24.7973561  74.9994373   6.9789672  24.2478824
  76.0364151   7.7469414  25.0390077  47.1238947  17.4707246  60.1318121
  46.7341995  18.3251560  60.3170586  48.0657721  17.6385868  60.1013470
  81.4753965  40.5297905   7.2807773  80.9249547  40.3421455   6.5204890
  81.2205461  39.8731243   7.9289039  12.4668404  78.2759196  59.5021391
  12.3495909  77.5815934  58.8537598  12.3912665  79.0875065  59.0002918
  45.0534534  10.6209350  56.7746019  45.8410549  10.8645320  56.2882137
  45.3760290  10.0881743  57.5014734  26.5314937   0.5339646  40.6076765
  26.0948586   0.2308376  41.4037275  27.4521255   0.3066770  40.7381010
  56.2740278  14.4903910   3.9777240  56.6995335  13.8803184   3.3752376
  56.9241095  14.6421146   4.6637326  21.9841337  23.8720345  27.2437882
  22.5159025  24.6406889  27.0373249  21.3410401  24.1890216  27.8779674
  67.0621252  71.7703152   7.4367684  67.2582626  71.1265516   6.7560887
  66.2178373  72.1409416   7.1797699  93.7618347   5.0144315  74.4921780
  94.5546551   5.3140074  74.0472937  93.0489327   5.2604020  73.9026833
   8.7486422  24.6397352  44.8518372   7.8205049  24.4866014  45.0288725
   9.1955787  23.8966799  45.2572346  40.9063244  54.7945309  19.9688280
  40.8733511  54.6700525  19.0203285  40.8795691  55.7440519  20.0868511
  33.7779570  35.5137062  45.4767513  33.4930587  34.6008921  45.4338980
  34.6130610  35.5261731  45.0091219  73.5798836   7.6816040  39.7043824
  72.7610970   7.1858680  39.7127914  73.5709047   8.1446850  38.8667035
  68.6408618  45.4483615  24.5347007  68.2781938  46.2460065  24.9200137
  69.1655615  45.0610471  25.2353461  51.2132883   2.1930702  71.7190075
  50.6791401   1.6437419  71.1452866  51.9796515   1.6557695  71.9195652
   1.7810842  78.9958155  72.3847294   2.3850509  78.8932019  73.1202078
   1.0281917  78.4515756  72.6153469  79.6544600  13.9702225  54.6073627
  80.1978779  13.9605880  55.3952932  80.1304150  13.4243822  53.9814615
   6.1048333   7.6909634   3.6044391   6.1884396   8.6289069   3.4326919
   6.5263311   7.2716042   2.8543027  29.3984532  37.3177123  71.8139601
  30.1959848  37.2728395  72.3413706  29.2522240  38.2541513  71.6800594
  20.9404084  79.6607357  54.9376392  20.3498790  79.5333290  54.1951609
  21.3270613  80.5239618  54.7907686  63.7274313  34.2780662  42.7244234
  63.5459566  33.6052585  42.0682001  64.4417524  33.9152670  43.2482147
  46.2177324  32.9628563  48.1132460  46.6083860  33.3449554  48.8991404
  45.4175520  33.4691238  47.9731369  24.8854589  47.4810600  49.5529652
  25.3529549  46.9946003  48.8739681  25.1108551  48.3968973  49.3896580
  24.4327021  38.9810538  46.4848948  24.6064496  38.0521584  46.3325930
  23.4793019  39.0561342  46.4446163  27.3776674  18.5504758   1.2075824
  28.2925963  18.4594464   0.9414048  27.3878646  18.4051716   2.1536344
  75.7234430  30.2366352  38.3446026  76.4217710  30.8148909  38.6514974
  75.3805161  29.8315382  39.1411781  40.2330494  20.3713012   7.7025318
  39.3040466  20.1868415   7.5641048  40.4570007  21.0007095   7.0170230
  57.5248718  15.6555438  41.8410254  57.1834183  16.4869976  42.1701574
  58.4682703  15.7063663  41.9947958  84.2141011  74.6969476   2.6857980
  84.3344692  75.5866471   3.0177339  84.9137166  74.5847216   2.0422299
  30.1587439  29.9991274  67.5927353  29.2650247  30.3414822  67.5756884
  30.5136609  30.2976823  68.4300709  60.0662974  35.1610020  12.9805358
  60.0724891  35.2411112  12.0267089  60.9655956  35.3572038  13.2432063
  32.2461915  24.4435120  40.9604788  32.2544241  23.4924626  41.0685015
  32.9727483  24.7523403  41.5017462  45.6074762  21.4668560  51.0523081
  44.7056246  21.4463449  50.7321978  45.8547831  22.3907018  51.0125732
  45.2670383  15.8590782  54.3388653  45.7485914  16.6010487  53.9730501
  44.4458580  16.2377727  54.6526814  46.5549040  40.3936577  36.5602541
  46.0434628  40.9070683  37.1856141  46.0310078  39.6064997  36.4114332
  69.4445753  41.3568974  71.0576630  69.6152067  41.0887051  70.1547861
  68.4914637  41.3262987  71.1405468  55.2443075  28.7838817  54.6744442
  54.7483444  29.5620942  54.4202089  55.1489067  28.7392950  55.6258345
  51.6821480  39.4957447  44.4992161  51.9075727  39.6414399  43.5804176
  52.4558544  39.0726233  44.8714733  31.6794157  20.3530550  43.7210560
  31.9170642  20.0193334  44.5861483  30.7885504  20.6860542  43.8292313
  35.5871677   5.5366236  68.3516216  35.3270531   4.8708266  68.9882421
  34.9496865   5.4520732  67.6426077  90.0271800  75.8953634   6.1588176
  90.4519847  76.6969600   5.8535083  89.8766568  76.0446444   7.0922549
  37.0542526  35.8124185  15.4631424  36.8463397  34.9327683  15.1481509
  36.2018156  36.2279367  15.5932415  42.9893923  26.0904622  68.6083651
  42.8156996  26.1511993  67.6690197  43.6044645  26.8023705  68.7847328
  56.1140537  39.2930293  50.1446629  56.0117006  40.0610161  49.5825624
  55.4920292  39.4340158  50.8584166  73.4445047  12.1666777  24.7626185
  73.1948376  12.4163282  23.8729167  73.3575583  12.9730582  25.2709723
  65.9094810  21.1039209  63.0636883  66.2459087  20.3847575  63.5983419
  65.1520443  21.4297915  63.5498238  77.6682997  19.5995188  56.7084980
  76.8524218  19.1077173  56.8018150  77.3897362  20.4801202  56.4571524
   9.3390030  44.1786909  21.3280749   8.7061274  44.4388390  20.6587315
   8.9878219  44.5386362  22.1425343  48.3695745  40.8073473  34.4331837
  47.8161287  40.6030560  35.1869702  49.0164518  40.1021051  34.4128489
  86.0113052  82.1173039   2.7596982  86.5821603  82.5550309   3.3911689
  86.3420394  82.3946991   1.9053586  46.2931871  26.8539667  54.0260983
  46.1601830  27.4528384  53.2913208  45.8237457  26.0585427  53.7747860
  81.6526031  67.8223848  39.0956211  82.0146847  67.2439718  39.7668600
  80.8188725  68.1196642  39.4599771  55.0976753  22.2542977  41.0036230
  55.5103588  23.1161380  40.9474659  54.6096134  22.1686244  40.1846647
  49.1742134  37.2387815  35.4839635  49.2868328  38.1499410  35.2131557
  49.7354221  37.1466327  36.2538886   8.3821484  78.9945680  71.4255381
   9.2536971  78.7229866  71.1376476   8.5407635  79.5081860  72.2175407
  27.3607326  27.2433281  73.4719467  27.7307343  28.0241919  73.8837528
  27.9105473  27.0949435  72.7025890  41.2233448  20.4158378  31.5494037
  41.8247890  20.3794050  30.8056521  40.6277847  21.1355710  31.3407874
  60.3618050  36.3155174  52.6870203  59.8491859  37.0718098  52.4015856
  60.7239723  36.5773320  53.5334969  59.9238729   6.4290303  36.9944763
  59.3298149   7.0001978  37.4813986  59.3633175   5.7278931  36.6621900
  75.9075546  21.9766641  39.6227431  75.4019547  22.6460838  40.0836992
  76.4417982  21.5685201  40.3040934  51.2099695  40.0866127  47.7678299
  52.0635509  39.6561313  47.8158998  51.2965107  40.7102728  47.0468616
  21.9219065  13.7047124  48.9514399  21.5144110  13.2093084  48.2409811
  21.4453316  14.5346570  48.9687586  84.5436859  48.6668825  59.1652536
  84.8188019  47.7515364  59.2170429  85.2939701  49.1615009  59.4948816
  28.2959938  18.8981950  15.6215298  28.2181573  18.0483961  16.0551357
  28.5603523  19.4991720  16.3180733  59.9597931  15.7484066  56.5270185
  59.8716497  16.5550268  57.0347834  59.5755291  15.9580493  55.6757689
  59.0453339  17.5407338  32.5631809  59.3969536  17.7745390  31.7041540
  58.7932968  16.6213727  32.4766731  42.5283146  15.1657271  38.7785339
  43.0150795  14.8172629  38.0316281  41.6726589  15.3995085  38.4187746
  43.3176327  38.4296107  39.7509503  43.0148745  38.4135008  38.8430357
  44.1572666  38.8878441  39.7153425  93.1358242  21.6579556  56.1756468
  93.5695648  22.4762678  56.4174509  92.2474957  21.9200540  55.9339952
  41.6051340  26.7097116  44.7732687  41.3374043  25.8263803  45.0267982
  40.9067488  27.2754407  45.1025677  87.8478336  40.4440260  39.8140645
  87.2042942  39.7928286  39.5347261  88.6000443  39.9281740  40.1044273
  13.0140162  16.8218410  30.1335812  12.5326669  16.8036580  29.3064165
  12.3359489  16.9102418  30.8033872  48.6609983   9.5073372  59.0223122
  48.1915808   9.5328063  59.8561144  48.0314064   9.1360760  58.4042406
  48.6897612  11.0697985  65.2029419  49.2780352  10.3607774  65.4626656
  48.0491304  11.1214554  65.9122753  36.3244884  17.9270074   4.7830279
  36.4893548  17.7942940   5.7165321  37.1334044  18.3153960   4.4497951
  56.5933657  72.5450993  53.9730835  57.4151373  73.0312634  54.0407038
  56.1239815  72.9670382  53.2534456  91.9710064  48.6935425  51.3989115
  91.1055088  49.0020561  51.6671801  91.8463516  47.7630186  51.2122917
  40.0663662  22.3286486  49.9805832  39.8159480  21.6079807  50.5586481
  39.8194313  22.0304060  49.1051960  75.3491020  85.8946896  48.0109453
  74.5239735  86.0940361  47.5686169  75.1550198  85.1235294  48.5437489
  62.3886919  42.4373293  51.3189840  62.1018934  41.5487337  51.5296364
  61.6896152  42.9999399  51.6521454  53.6365747  32.6936245  58.0819750
  53.5138464  33.6041188  58.3506250  53.1265593  32.1866751  58.7137318
  75.7965517  61.9004202  47.8664398  75.6701183  61.7054462  48.7950039
  76.5493870  61.3676882  47.6101875  73.3475494  41.0535526  51.3961458
  73.3595943  41.7980289  51.9976807  74.2556667  40.7521057  51.3699102
  73.1671143  35.1736379  54.8581648  73.9485931  34.6208978  54.8601818
  72.7241516  34.9651313  55.6806898  60.3009462  24.2030334  68.1556320
  59.8361206  24.6989584  68.8295984  59.6095562  23.8709760  67.5829601
  52.7867270  44.7922373  57.6747036  53.3089876  43.9938068  57.5973606
  52.2233534  44.6374226  58.4329081  58.9055395  38.2785702  51.3447332
  59.1449404  38.7563229  52.1388817  58.0872059  38.6843944  51.0585976
  20.9799337  75.0266790  32.9259562  20.5518270  75.8777046  32.8326321
  21.7990375  75.2193689  33.3822131  55.7991409  54.1616297  64.2941141
  55.8069038  54.4359541  63.3770943  54.9977350  53.6458111  64.3830299
  65.1869154  65.7988214  60.8237886  65.8610678  66.2301207  61.3488913
  65.6647491  65.4164743  60.0877714  66.5483406  53.3140275   0.1244815
  67.1433094  52.5699583   0.2172549  67.0711044  54.0725645   0.3844293
  89.4911575  41.1038542  71.7829227  90.2305794  40.5156088  71.9360971
  89.6890640  41.8791485  72.3082685  53.0461216  38.9579463  56.7089605
  53.7504482  39.6053553  56.6771364  52.7448368  38.8870788  55.8031797
  80.8693314  34.2364979  39.8087931  80.3155994  33.9117932  39.0987372
  81.5779305  34.7031379  39.3656754  66.7391920  53.3359671  56.5882874
  66.3033724  52.6215982  56.1235666  66.5313005  53.1839895  57.5101995
  77.2492170  28.1268001  54.3732214  77.0715046  27.2403669  54.0587616
  77.8459167  28.0039001  55.1115131  66.7816734  59.9454784  33.7419415
  66.3466787  60.7790661  33.5626483  66.0721302  59.3543005  33.9935207
  79.8458719  38.3931351  72.2906256  80.6112385  38.5023761  71.7262506
  80.2017593  38.0628538  73.1155443  69.1991568  37.3689270  59.1920710
  68.6596632  37.9974985  59.6717310  69.6854162  36.9026542  59.8720551
  91.7311287  56.7574072  43.5339451  91.7125416  56.0347033  44.1613054
  92.3961926  57.3546791  43.8762617  93.3378792  73.8248158  65.7526970
  93.9673138  73.9035940  66.4695168  92.5272560  73.5417700  66.1757851
  61.0552931  76.4503193  62.1184015  60.7976961  75.6015205  61.7586613
  61.5309668  76.8778849  61.4062548  78.2950544  28.6692977  63.2069016
  77.5665236  28.6249852  63.8261843  78.0056143  28.1469560  62.4588251
  62.0037317  58.2223034  50.6570578  62.1759796  57.6626492  49.8998642
  62.8684902  58.3934164  51.0300827   8.0412970  22.2800159  30.5423212
   7.4797450  21.5056896  30.5784631   7.6398669  22.8958321  31.1553955
  78.3632326  76.7975378  70.4809141  78.2279634  77.2830915  69.6671772
  77.7549982  76.0606194  70.4240513  62.8590488  27.5577664  74.0790367
  62.8236008  27.6734471  73.1295109  62.0942831  27.0196581  74.2834759
  64.2186165  82.2139263  50.5437326  64.1650581  81.2684155  50.6828737
  64.6424198  82.5486946  51.3340187   7.4064646  52.6207113  51.3636112
   7.4823199  51.7064714  51.0903978   8.1870375  53.0433035  51.0053539
  29.6441841  70.9365559  57.5633192  28.8047099  70.5042696  57.7202988
  29.7397828  70.9353971  56.6109037  44.4064522  66.6863823  69.8198557
  44.7194052  65.8100271  70.0441170  45.0828981  67.2751856  70.1544619
  85.4140282  39.8598266  71.5685606  84.7029877  39.4695616  72.0768404
  86.0611343  39.1594648  71.4850044  73.1610680  40.1099205  56.5331554
  72.6733875  39.5218396  55.9564734  73.3621740  39.5779705  57.3031044
  50.4680395  68.9716005  49.5512629  51.3960028  68.8378906  49.7442436
  50.2620649  68.3074093  48.8934994  74.5333910  63.8124084  46.1781740
  74.7796869  63.1252766  46.7973804  75.3193331  63.9516687  45.6498480
  53.8684320  39.2915440  47.7585173  53.9945316  38.9718199  46.8651485
  54.6639967  39.7883105  47.9496527  66.8221092  44.3440008  50.8715868
  67.3050976  44.0119362  51.6283464  67.4532938  44.8934555  50.4068947
  92.6533941   3.5841948  36.9354033  92.6313403   2.7887732  36.4033866
  92.6314739   3.2687575  37.8388667  74.1354084  63.6946249  71.2602806
  74.1190290  63.8938427  72.1963787  74.8458958  64.2339325  70.9130287
  65.1904917  54.6594954  30.5783939  64.3142319  54.8804808  30.2628541
  65.0968409  54.6089792  31.5296602  16.4196027  79.0134826   1.4992364
  16.6383899  79.9424282   1.5728744  17.0583690  78.5718766   2.0588668
  33.3399391  45.2008104  64.6785307  33.6709929  45.4497147  65.5414820
  32.6243114  45.8139133  64.5105553  44.5217037  64.6354055  44.9553299
  43.8153648  65.2544641  44.7707129  44.5029974  64.0241289  44.2189741
   0.4233275  55.6958055  76.3723612   0.0994311  54.7954130  76.3473701
   0.6854830  55.8811522  75.4706097  62.4063396  33.4600210  65.1812363
  62.5152731  34.3654251  64.8903561  61.4612579  33.3110785  65.1518583
  53.4721947  79.5401001  46.7700291  53.6791992  78.9896870  47.5252914
  53.8807440  79.0931034  46.0287380  15.7552824  62.0901775  66.3067245
  15.8918772  62.9926872  66.0185337  14.9441252  61.8212366  65.8755350
  53.1297636  61.9045973  59.8884106  53.2004166  61.6613865  58.9653254
  52.4948406  62.6208258  59.8994684  72.4594402  76.7660284  60.4026747
  72.5980997  77.4628782  59.7612619  72.8601694  75.9924078  60.0062466
  80.3446293  24.3617916  52.2809792  79.8394537  24.5443439  51.4887047
  79.6880865  24.1135120  52.9317760  45.6167520  88.7628308  10.8798106
  46.5193094  88.8848439  11.1743243  45.0903810  88.8628712  11.6730006
  35.1198721  14.1034615  46.4226437  35.0740576  13.3268940  45.8649063
  35.2645993  13.7576032  47.3033667  66.6496754  68.7425566  67.6207829
  65.8867121  69.3056917  67.7511406  66.9696474  68.5642385  68.5051203
  55.0008631  56.1669159  58.8701200  55.1977396  55.8966160  59.7670078
  54.1774559  56.6498661  58.9407969  84.4397736  60.2204704  63.4298658
  85.3838158  60.0905085  63.3397245  84.3507385  61.1206436  63.7428999
   2.7217017  38.2309890  51.7680836   3.3750067  38.8044906  52.1687365
   2.5788317  37.5412178  52.4161863   4.0840826   1.2632689  73.0247211
   3.5944472   1.3884747  72.2118187   4.7146616   0.5726744  72.8205585
  79.8411322  69.7904205  72.8791666  78.9691353  69.7140551  73.2664967
  80.3375244  69.0671492  73.2621956  64.6544504  67.4870586  65.7524967
  64.3989229  68.4083223  65.7994461  63.8258696  67.0078945  65.7620811
  64.4719934  59.4448137  51.3069296  64.8442268  60.3266621  51.3029575
  65.2224541  58.8674307  51.1667013  34.3115149  43.4090757  54.2624378
  34.1396151  44.1517830  54.8412848  33.7615595  43.5705900  53.4958220
  44.5946503  62.3423576  26.0609627  43.7246323  62.5993252  26.3663602
  44.9158001  63.1064844  25.5822110  49.9458838  11.5426493  57.7774811
  49.6157122  12.3062420  58.2509232  49.5246935  10.7961237  58.2035398
  84.4394684  44.3376541  29.0769053  83.6642075  44.6494150  28.6100006
  85.1648140  44.8295212  28.6919761  62.7497005  76.7113209  27.0133162
  62.5186205  77.1707726  26.2060142  62.5200844  75.7977915  26.8431163
  47.1175353  57.1539160   2.6988109  47.9197661  57.0294043   2.1917089
  46.8157165  56.2661978   2.8914006  71.3773346  84.3594551   0.7454455
  72.1158743  84.1724682   1.3249469  70.9058475  83.5287952   0.6826814
  43.2182407  86.4952087  35.1960635  42.9179573  87.3805904  35.4013658
  43.9692688  86.3571453  35.7732344  74.6134663  24.1894770  40.5611229
  75.0333786  24.7784305  39.9341965  73.7378025  24.5558453  40.6844807
  57.5079966  67.4975252  60.5810022  58.2080317  67.5620747  61.2306309
  56.7375851  67.2343636  61.0844278  76.6106606  64.7282171  44.3384409
  76.0472441  65.3733969  43.9111996  77.4939632  65.0865936  44.2513800
  64.3137503  51.1035252  52.0985699  63.6168575  50.4476786  52.0778227
  65.0869989  50.6221390  52.3928308  59.6059179  65.0172806  43.9738846
  60.3824377  65.4620743  43.6341667  59.6329403  64.1484928  43.5730028
  65.8098841  71.0636330  65.9709501  65.0620604  70.4754782  65.8657265
  66.2032413  71.1091948  65.0994968  90.3663921  87.2052956  27.9554987
  89.9450684  87.8762531  27.4183440  90.3737831  87.5750542  28.8383675
  58.0106926  53.6452150  60.5611086  58.7460423  53.7335253  61.1674833
  58.4097624  53.6916733  59.6923065  93.2347870  29.4061279  63.8747501
  92.4460316  28.8699794  63.7932730  93.4619522  29.6364498  62.9738760
   2.2876463  60.4597998  72.2617054   2.3027811  59.6030617  71.8350840
   3.1951342  60.7619715  72.2244644  71.9556379  65.1403856  52.7626610
  72.5841236  65.7497072  53.1499100  71.3411713  65.6998444  52.2876072
  29.2810545  42.9785299  28.2792592  29.9101458  42.3567724  28.6451745
  28.7749777  42.4647808  27.6498318  85.0918674  62.5921631  54.7260857
  84.1413593  62.7024508  54.7508764  85.2519035  62.0693254  53.9404249
  16.5102492  78.4963703  39.0845394  16.6365633  78.3647490  40.0241947
  16.4718733  79.4469452  38.9788628  73.8663960  80.1906681  51.9832706
  74.7727871  80.2684307  51.6855478  73.9339876  80.0897884  52.9327393
  41.8153191  69.8309040  52.5936556  42.7689648  69.8795366  52.5271320
  41.5303850  70.7442427  52.6230288  86.5529251  65.6943321  31.0128880
  86.2807655  66.2180138  31.7664933  87.3317528  66.1402750  30.6800508
  69.5066357  65.6214857  27.1818113  69.6495390  65.8688211  26.2682271
  69.9008274  66.3326025  27.6869392  61.2662125  10.6786144  50.5602694
  60.4181480  11.1154962  50.4818201  61.8666124  11.3695800  50.8401299
  70.3151035  61.6038132  25.4631233  71.0841703  61.0971212  25.7239509
  70.6740046  62.4086428  25.0893903  61.6289616  70.7290745  19.5586443
  61.4098978  70.8938217  20.4757595  62.4239969  70.1971960  19.5941114
  80.8032703  68.3516264  57.7346134  80.1354599  67.8556824  58.2082272
  81.6341114  67.9926586  58.0461693  67.1276978  20.1943213  52.2023964
  67.3645881  19.3511301  51.8162060  66.3959935  19.9934012  52.7858973
  53.7864304  64.8933125  17.9308712  53.2139730  64.4823980  17.2830474
  54.3603086  64.1863728  18.2260621  61.7748594  54.5960951  59.6850491
  62.4155331  54.8800230  59.0330124  61.4027739  55.4097176  60.0253439
  93.8006306  68.5399389  56.6255283  94.7575188  68.5279799  56.6044426
  93.5778904  69.4345999  56.8828249  70.0420475  57.1979094  53.9546204
  69.6888161  56.3129425  53.8635588  70.9301519  57.0682526  54.2873240
  37.1180964  60.0825691  46.2456322  37.1068144  61.0094500  46.0069084
  37.8130531  59.7048426  45.7065678  94.2073250  51.6803217  68.5084009
  93.9743900  52.4775314  68.9842367  93.5241890  51.0525608  68.7439203
   6.1342440  79.7125578  70.0346422   5.3990851  79.2369699  70.4214001
   6.8634139  79.5552731  70.6344795  55.4265038  10.4168984   5.7920631
  55.7366769   9.8080966   6.4624293  54.8118989  10.9878966   6.2529929
  71.2978077  68.4155178  42.6822281  70.8357334  68.1296635  43.4702730
  71.5446758  67.6026344  42.2411966  44.3575096  66.1431360  63.4368706
  44.8218536  66.7147064  64.0483665  44.9600697  66.0406208  62.7002239
   9.4674502  66.6374445  23.2009935   9.7329150  66.5788984  22.2832060
   9.4079504  65.7273817  23.4916353   0.7916651  50.1629400  56.6240406
   0.9249983  50.9445667  57.1602440   0.0987921  50.4084206  56.0109329
  77.0634842  72.8977203  61.5165186  77.2795963  72.1016979  62.0021868
  76.5113974  73.4009790  62.1149778  53.2069588  27.2627974  68.9569235
  52.3948812  27.6348901  69.3008900  53.2468462  26.3842964  69.3349123
  73.5271263  26.8935680  61.7898798  73.2307625  27.1666813  60.9216547
  72.9944992  26.1248684  61.9939375   8.2074938  50.8189344  38.2545376
   8.5778246  51.5977430  37.8391552   8.7181483  50.7095861  39.0567231
  10.2608789   9.5633894  22.7612853   9.8718513   8.9128405  23.3458138
  11.1419214   9.7014147  23.1090546  55.0333214  65.1480579  65.6948137
  54.1599560  65.5065441  65.5368423  55.1895332  65.2998447  66.6269064
   7.8173266  47.8734589   4.7476858   8.0642901  48.7649393   4.9936622
   6.9458781  47.9640627   4.3622160  74.3889761  48.0732441  45.4986143
  74.5573902  48.4526205  44.6360922  75.0823021  48.4273148  46.0555315
  71.7506981  23.0586433  52.0447016  71.1143303  22.4176359  51.7278719
  72.3644924  22.5466514  52.5713444   0.6890215   5.0845820  50.7142544
   1.2020029   4.5696265  50.0914383   0.1320900   5.6376368  50.1663685
  58.6684635   7.6202685  73.8944530  57.8313664   7.2477919  74.1715145
  59.3221548   6.9866663  74.1902208  11.5527548   3.1921583   0.5005136
  12.1333946   3.7429529   1.0255975  11.9866384   2.3392206   0.4788180
  46.9445245  26.6782042  14.1980346  47.4592988  25.9187600  13.9251216
  46.8469731  27.2001549  13.4016116  21.9127188  37.8352666  46.3206387
  22.0268069  36.8931961  46.4460135  21.8711291  37.9471922  45.3709126
  22.5141348  76.4092389   3.1947406  23.1092180  77.0940676   3.4999068
  22.8911604  75.5965987   3.5319408  81.1168671  59.2290020  54.5972538
  80.3309441  59.4397020  54.0930986  80.8878708  58.4324217  55.0760555
  73.7921143  56.4414120  25.9827614  73.9594984  57.2447968  26.4754987
  72.8627872  56.4874506  25.7581162  81.0883427  40.5328226  67.3168612
  80.6689072  41.3924074  67.3546028  82.0222092  40.7173920  67.4171209
  83.9370537  13.7850618  56.8646193  84.7790527  13.8359714  56.4122152
  83.9064026  12.8944707  57.2141075  89.3910077  77.0348230  21.3843902
  89.5540431  77.9609838  21.5629275  88.8022044  77.0364156  20.6297095
  69.4877717  19.7644338  75.0315621  69.1319558  20.3372917  75.7108731
  70.2984807  20.1930723  74.7572525  64.3113708  59.5097923  34.7495747
  63.6044168  60.0805807  34.4485068  64.6484089  59.9400616  35.5353904
  33.6826239  48.4298944  40.0694704  33.1766615  48.9989996  40.6494284
  33.2542525  48.5142756  39.2176437  10.8141623  61.8380642  40.6645155
  11.7229853  62.0866966  40.8332205  10.4480277  62.5804567  40.1838589
  56.7630482  67.2245312  70.4557228  56.6439486  66.6234684  71.1910915
  57.0617676  68.0397701  70.8586884  71.7670441  39.6476197  53.6223745
  71.6435146  38.6990047  53.5891914  70.8800459  40.0059462  53.5897207
  66.6722822  63.9089870  49.7100782  67.4314594  64.4716501  49.5574570
  66.2004995  63.9121819  48.8772249  51.9607258  64.1503906  40.9354782
  52.6120090  64.3297482  41.6136360  52.1917057  64.7418118  40.2191734
  38.4300913  10.0296789  55.6085920  39.2871965   9.8680312  56.0028839
  38.5111345  10.8939844  55.2053022  83.8328743  54.2611790  45.7477140
  84.7613907  54.2430496  45.9795713  83.3756733  54.2430353  46.5884686
  71.3849656  25.0047442   1.8890603  71.5509049  25.0925156   0.9504493
  70.7324330  24.3073365   1.9527372  50.4099573   1.2567049   8.1367117
  51.0365404   1.5907866   8.7785965  49.5532907   1.4900595   8.4943360
  93.1138897  43.8720179  50.1481295  93.1455898  43.8729429  49.1914511
  94.0243149  43.9924717  50.4180527   6.5392886  72.0665312  50.7255173
   6.7773638  71.6465425  49.8989773   6.6563330  73.0022192  50.5611515
  83.6134243  37.9908323  32.5501943  84.4717693  37.6670647  32.2769761
  83.1490898  38.1597400  31.7303824  32.5022694  17.9635772  75.9382841
  32.1241185  17.0939741  76.0687498  32.2228905  18.4637508  76.7051016
  74.5700693  74.4613743  15.3028643  75.3997374  74.2375040  15.7244885
  73.9026403  74.2251921  15.9470606  62.1495247  79.6397352  57.2510529
  61.5972376  79.5825338  56.4713478  62.5891733  78.7906647  57.2959614
  34.3266916  30.5948138  63.7255573  34.5300150  31.1676025  62.9860926
  33.3716965  30.6137252  63.7876558  74.0557051  68.9012766  55.1856852
  73.6012793  68.3740854  55.8428001  73.6789656  69.7763348  55.2783108
  32.8549544   0.2148005   4.2633708  33.7954156   0.2506205   4.0888007
  32.7061622   0.8994481   4.9155601  69.8314095  25.0427008  68.9778042
  70.6819248  24.6841288  68.7242603  70.0405264  25.8656621  69.4196606
   9.2730151  78.6488438  57.8176832   9.1961298  79.4866896  57.3612499
  10.1575861  78.3452654  57.6137018  72.3804522  75.8768177  43.6919880
  72.2786236  76.7590427  43.3348560  72.4959898  76.0110760  44.6326590
   2.6613344  61.2776342  16.5394481   2.4058975  61.6802016  15.7094367
   3.1891168  61.9455245  16.9771751  79.1487265  56.4955521  59.7035170
  80.0056267  56.0861969  59.5835781  79.3392658  57.3274899  60.1368856
  33.1760375  13.2682988   4.9192317  34.0284459  13.3122775   5.3524764
  32.9095094  12.3531863   5.0073417  68.1917810  60.9890699  35.9636521
  67.7926826  60.8265924  35.1089287  68.0588961  60.1746607  36.4487410
  41.8420410  70.0086927  64.5206690  42.1254683  69.2081118  64.0791178
  40.8867407  69.9881411  64.4639492  20.5704035  24.0411192  52.5265741
  19.9948324  24.7895151  52.6842260  20.1995004  23.3373839  53.0589628
  74.9798965  55.8513165  45.3218508  74.7786856  54.9444723  45.0908041
  75.7333755  55.7874203  45.9087229  73.2448006  88.2306671  31.6880536
  74.1440868  88.5572815  31.6590929  72.7068615  89.0175915  31.7751980
  53.0121756  61.2257051  22.2083855  53.3423805  60.9073830  21.3682270
  53.1667137  62.1700382  22.1842074  16.8846808  76.7689657  63.0515051
  16.5798769  76.9198704  63.9462423  16.1084376  76.4629364  62.5824451
   1.7501364  53.1992388  38.5238600   1.0545836  53.5820293  39.0585732
   1.3156043  52.9502344  37.7081323  61.0796070  75.5491114  73.2616854
  61.3041162  75.5842066  72.3318481  61.2520123  74.6424627  73.5156488
  92.7263641  70.3845882  46.3076115  92.7471256  70.9738064  45.5535412
  93.5387421  70.5698156  46.7787457  83.0910683  72.1631098  70.4523325
  83.0041695  72.8230715  69.7644854  82.1923447  71.8911457  70.6382465
  62.5307846  85.7980442  36.4899969  61.8742466  85.8535671  35.7956576
  62.4990892  84.8854828  36.7771745  76.4322329  48.8589668  36.0376430
  76.3380003  49.0406370  36.9727087  76.9504547  49.5906639  35.7025313
  58.6623764  63.4458160  75.1937008  58.6012506  63.3071470  76.1388302
  58.3083248  62.6433039  74.8104858  10.4744921  48.6498880  67.4124098
   9.9438296  48.7299585  66.6198063  11.3413535  48.9619684  67.1528053
  90.1557159  48.4825516  56.6910982  90.6540871  47.7836180  56.2676096
  89.3132114  48.0810213  56.9036674  75.8210897  64.0403795  27.4877453
  75.0767374  64.6363306  27.4040270  76.5675449  64.6128607  27.6646566
  80.8790207  86.5112782  33.1290030  81.4191055  87.0982742  33.6581373
  81.4824486  86.1515903  32.4788308  53.2172505  34.3741271   2.8947433
  52.6624124  33.6172053   3.0830749  54.0559022  34.1645428   3.3057960
  63.8692474  88.0824375  49.8995256  63.8365793  87.3186302  49.3235397
  64.6175241  88.5888672  49.5835447  65.6295824  67.7386379  53.9390755
  64.9052811  67.7582121  54.5645618  65.9088612  68.6513758  53.8673782
  72.6503515  57.7818966  36.6188979  71.8074179  58.0666494  36.9718981
  72.8081036  58.3646107  35.8760715  62.6354599  67.8755474  23.2890010
  61.6794729  67.8503084  23.3300877  62.8353214  67.8650761  22.3529601
  83.3087730  73.1661558  38.1750298  83.2830334  74.1161394  38.2894921
  82.8438473  73.0113029  37.3527765  70.3221512  55.6853867  62.9017878
  69.8507547  55.1422739  63.5334921  69.9349356  55.4598045  62.0559692
  35.5679536  71.6322517  65.7816315  36.2362671  72.1457958  65.3279066
  35.9807277  71.3778019  66.6069174  25.0255216   9.4189173  47.5524902
  25.9066118   9.4506174  47.9251957  24.5896448   8.7116820  48.0279446
  19.4446577  10.1183134  51.4911270  18.9359201  10.5886275  50.8306599
  19.1315950   9.2154032  51.4364338  86.2982082  35.2215028  73.5443449
  86.3788033  34.4896603  74.1560221  85.7200432  35.8420038  73.9881134
  60.5542183  75.9611464  46.9391251  60.8993101  75.4315996  47.6579618
  61.2435246  76.6008234  46.7605066  80.5257130  65.3600931   7.0302010
  80.0394344  64.5408630   6.9373149  80.9443855  65.2941132   7.8884470
  29.7137690  58.7568140  27.8514504  29.6985126  57.8642941  28.1970024
  28.7928820  58.9723158  27.7039480  89.6180344  54.8800564  34.3094039
  89.6317387  55.6845093  33.7908483  89.1534328  54.2488003  33.7599516
  70.8892345  61.7605782  44.4621229  70.6657696  61.5717983  45.3735256
  70.6017017  60.9855461  43.9795446  56.2620783  58.0334616  48.1014395
  55.3099632  58.0615473  48.1959009  56.4363623  58.5095930  47.2895527
  68.3805609  70.6315851  73.6021662  67.6448536  70.2451706  73.1271410
  68.2049751  71.5724802  73.5913563  64.5068550  77.0248795  65.3591108
  64.8075867  77.9314423  65.4218197  63.5737944  77.0954609  65.1574945
  74.3758774  56.5603399   9.4629192  75.3253841  56.6295719   9.3635696
  74.2445374  56.3881683  10.3953028  73.4109163  64.5371437  61.8372250
  72.9498768  64.7216129  62.6555443  74.2341661  64.1333532  62.1119070
  83.5247421  74.1649961  55.8676386  84.3624783  73.8138914  56.1695814
  83.7629318  74.8968267  55.2984953  11.5945540  51.4757824  37.4783111
  10.8078585  52.0048523  37.6103139  12.3071013  52.1133137  37.4328780
   4.3393577   8.2422930  42.5524330   4.1897882   7.9128367  41.6662502
   3.6425985   8.8839918  42.6901722  69.5623922  68.4984207  63.4192085
  69.1340160  67.8914785  62.8155994  69.1055012  68.3716822  64.2507219
  88.3827686  60.1694775  54.6822882  89.0158367  60.7316017  54.2356586
  87.6511574  60.7506752  54.8900938  58.2838742  14.8171756   8.5375388
  57.8830735  15.2867934   7.8060611  57.6959626  14.9771115   9.2757877
  70.0616121  79.5889187  68.2008839  70.6143713  79.2671776  67.4887228
  70.1914215  78.9577532  68.9087105  89.4803143  57.2110367  32.5291133
  88.8510132  57.1630955  31.8094468  90.2805233  57.5472307  32.1255541
  93.4927559  58.6072588  21.1955976  93.0478668  58.2127857  20.4454684
  93.4282207  57.9477406  21.8863249  63.7258577  48.1117344  55.4385281
  63.7932253  48.4880161  54.5609713  64.6314049  48.0486059  55.7422256
  88.8106060   0.4512135  40.6799746  89.6636105   0.1051833  40.4175186
  88.4773445   0.8871207  39.8956585  10.0757132  46.2886429  37.5417948
  10.4581366  47.1541214  37.6865077   9.1655264  46.4656544  37.3041964
  26.3927377   1.9810587  19.8805964  25.5358423   2.3787981  20.0347567
  27.0199979   2.6639181  20.1182580  81.3820171  75.3593874  61.7659664
  81.7064381  75.9355211  61.0738277  81.9054222  74.5626545  61.6793346
  92.0056629  62.6201487  47.8138638  92.8022385  63.1215477  47.9879284
  91.8710041  62.1014881  48.6070156   3.6716090  50.8933306  66.7040682
   3.2467947  50.0358868  66.6802883   3.1450472  51.4378166  66.1188364
  77.9113197  63.2206678  37.0998907  78.4057999  63.6293888  36.3894892
  78.2675123  62.3342848  37.1605682  88.0242348  47.1913004  47.6184273
  88.7919998  46.6227722  47.5589180  88.3805466  48.0791187  47.5859976
  72.0997763  64.7035217  45.7506895  71.4201832  64.1359377  46.1143255
  72.9223680  64.3000507  46.0277939   5.4286395  43.0144501  69.5575190
   5.6658183  43.8770580  69.8979330   6.2663279  42.5707150  69.4248199
  54.6507549  25.3981924  54.7433758  54.0425301  25.9378695  55.2483892
  54.8608351  24.6667910  55.3240252  92.6610947  67.4263096  74.6380520
  93.4734058  66.9425154  74.4886303  92.9400539  68.3357859  74.7442150
  92.9543400  53.7208748  47.4805212  92.5215816  54.3452263  46.8981695
  93.8462925  53.6540127  47.1396780  84.1459942  71.8718052  34.7640538
  84.8805332  71.7011118  35.3535962  84.0166569  71.0461950  34.2972898
  29.5352189  50.0611731   9.6054156  30.3699367  50.0921580  10.0728782
  29.7794835  50.0414702   8.6801131   9.3104849  73.5673189  47.6990461
  10.2030859  73.6541414  48.0336523   9.1012106  74.4327164  47.3475933
   6.2543497  53.3888817  25.1147461   6.1014090  52.5632238  24.6552587
   6.5028296  54.0043545  24.4250464   0.9500513  72.3900700  57.9528236
   1.8248091  72.0035458  57.9930878   0.3918372  71.7685699  58.4201145
  70.5596972  22.0627332  72.0650005  69.7746897  21.6647577  71.6886854
  71.1854649  22.0889378  71.3411522  70.6257677  50.5646992  37.3857427
  70.1367760  49.8707104  37.8278971  70.7478857  50.2404976  36.4934349
   0.7034884  37.0407248  54.0014458   1.5332327  36.6078877  53.8004208
   0.3680716  36.5723681  54.7658873  51.1419439  44.2699718  59.9835157
  50.2824974  43.8521385  60.0382996  51.5437317  44.1040373  60.8363152
  66.4722824  81.9897747  68.7280226  66.0993338  81.8920231  69.6041441
  67.4161577  81.8977451  68.8578653  50.8467340  66.5313435  25.4342127
  50.1403332  65.9031057  25.5843568  50.4120636  67.3841476  25.4305673
   0.2709113  74.7559166  74.9503183  -0.4853811  75.3267288  75.0860453
   0.9780608  75.1744890  75.4412031  23.6168108  62.8746367  31.9688630
  23.3256159  62.0947170  31.4964557  24.0283213  62.5338793  32.7630782
  86.1983681  79.4205475  74.2701578  86.5658092  80.2567673  73.9838648
  86.6669369  79.2176819  75.0797939  32.1402900  31.3933942  -0.0103585
  32.7411429  30.8254620   0.4719909  31.2725512  31.0312745   0.1688989
   6.2659464  38.1348348  22.4102163   5.5552397  38.6482668  22.7942920
   6.3266478  38.4475517  21.5075779   1.3352595  25.2905393  73.3353949
   1.9487200  25.2034569  72.6058006   1.8867503  25.2588964  74.1171169
  75.7402992  44.6292353  55.8524656  75.0765419  43.9511061  55.9781694
  76.5702772  44.1525698  55.8397627  61.8880033  61.6433859  23.8789606
  62.7486515  61.2256575  23.8470483  62.0756197  62.5652885  24.0554023
  33.2812322  71.2279525   2.5261720  33.1528867  72.1757164   2.4873956
  34.0882505  71.0752311   2.0346053  44.3382852  39.2695281  14.8135169
  44.0899722  38.8202521  15.6214316  44.9699227  38.6827800  14.3976005
  87.7000427  46.2151527  10.1978207  87.2652531  45.5991173  10.7874751
  88.6226368  46.1776018  10.4500747  70.9204435  45.0669289  52.5079393
  71.5193081  44.5171595  53.0132532  71.4302778  45.3374100  51.7443037
  89.7766113  43.2838821  73.8413620  90.5762291  43.7861633  73.6846972
  89.7362041  43.1885767  74.7929478   6.2642012  58.1480694  25.3431273
   6.2790118  58.1109667  26.2994933   6.1537848  59.0771770  25.1411581
  68.6303425  60.4099894  57.5173283  68.8424492  60.9265900  56.7399216
  68.9271021  59.5250368  57.3051357  78.3862019  41.8166924  60.4196358
  79.1255856  41.4015245  60.8636856  78.0296803  41.1305332  59.8554468
  67.6078796  24.6105361  59.8732233  68.1144619  23.7986422  59.8941469
  67.0437145  24.5607877  60.6448936  83.3778954  48.5979795  52.1256971
  83.8815880  47.8365231  51.8381023  84.0164471  49.1517830  52.5749111
  12.6120822  37.7346942  12.7113994  13.1774156  36.9648501  12.6483710
  11.7267911  37.3769137  12.7782806   0.9175597  43.3457565   7.1205264
   1.4291392  42.8377867   6.4908546   0.0948439  43.5302353   6.6673839
  74.3634717  25.5140063   1.1007817  74.2304151  26.4014622   0.7676824
  75.3129594  25.4313180   1.1894639  57.8513002  47.5177670  56.2666750
  58.1618023  47.6458454  57.1630096  57.2207642  46.8005419  56.3318110
  18.0317030  59.8042583  34.0080047  18.3777914  60.2034044  34.8062134
  17.6882945  58.9574909  34.2931128  74.9439335  71.4452457  71.4311171
  75.8614159  71.2681198  71.2235403  74.4560671  71.0740471  70.6959772
  21.6995303  16.0313269  12.4963458  21.4590423  15.7855174  11.6030486
  20.8898656  16.3710400  12.8774818  54.7511244  85.8533955  54.2456770
  54.2771339  85.6260777  53.4457445  54.1402483  86.4012241  54.7385693
  88.2543945  67.5234938  42.3784685  89.2093563  67.4681616  42.3436642
  88.0391884  68.2884598  41.8448591  71.0175562  58.7097216  43.9594936
  71.8116999  58.2823753  43.6386538  70.4220724  57.9880095  44.1614008
  52.7341001  18.5975358   1.7841991  53.0316560  17.9006144   2.3690017
  52.3539941  19.2540404   2.3679383  44.0195513  71.8216276  56.3191128
  43.5536528  72.5623703  56.7070198  44.3158579  72.1441984  55.4680014
  81.0747337  54.8945570  71.6002655  80.2440643  55.2552319  71.9103289
  80.9766483  53.9475965  71.6996384  53.1441228  39.5675895   2.3649819
  52.7246110  38.7639758   2.6722987  54.0771501  39.3555304   2.3380883
  80.5645943  39.3855643  45.0792885  81.4901066  39.3519664  44.8373652
  80.3212833  38.4710455  45.2231264  81.5574932  51.3288927  54.2466927
  82.5130939  51.3824558  54.2331076  81.2652493  52.2328520  54.1297054
  54.5771170  48.8403225  66.6382122  54.1463327  48.5612202  67.4461460
  55.0012636  48.0486727  66.3071203  58.6599064  76.0531998  35.3669024
  58.0618048  76.7928219  35.2598429  59.1626692  76.2636900  36.1537647
  71.7920116  11.6059691  63.5922813  72.1146158  11.1945254  64.3940735
  72.4288562  11.3571078  62.9224062  67.4658680  69.1705894  30.1517630
  67.8181028  69.7196245  29.4512486  67.4035501  69.7559881  30.9065175
  51.2879992  71.3130140  37.3977137  50.6951952  70.6676054  37.0126724
  50.9636354  72.1556854  37.0800257   5.5611719   9.9690729  32.6655746
   5.1542629  10.8190066  32.4974632   5.1072181   9.3656546  32.0773196
  30.5365419  87.2429180  46.4254332  30.1599312  87.1691608  45.5485344
  29.9405360  87.8275108  46.8936825  88.3385944  71.4602995  48.2910109
  88.7558079  71.5171766  47.4313974  88.6566544  70.6352091  48.6574841
   4.3781004  73.5379124  57.6681852   3.8576899  73.6583090  56.8738842
   5.0050745  74.2610836  57.6556540  92.5316620  87.3344612  55.0305700
  92.3539829  86.6127682  55.6337547  92.2345257  88.1154728  55.4974174
  50.0890650   4.1641527  41.6419458  50.6312860   3.7324339  42.3021364
  49.5271219   4.7553927  42.1428347   0.5197535  88.3200455  37.7053356
   1.0930262  88.6625671  37.0195675   0.3919421  89.0580273  38.3013916
  40.8175628  46.0239169   6.2510665  40.9714286  46.3804480   5.3761752
  41.6902844  45.8039328   6.5769466  65.0878716  49.4275522  58.8904762
  65.5895662  48.9728832  58.2138586  64.2583990  48.9518213  58.9339542
  78.7176275  71.2171555  48.0117846  78.2668638  70.5242586  48.4944248
  78.0516720  71.5703726  47.4218941  47.7197170  67.2666836  62.0634985
  47.3474741  66.7345905  61.3602591  46.9635487  67.5404549  62.5826216
  18.4543429  52.2407818  36.2644434  17.5170908  52.1265125  36.4217210
  18.8278685  52.3810244  37.1345282  39.0543855   5.8314902  53.2023048
  39.4813837   6.5977866  52.8192902  38.9187731   6.0666663  54.1202021
  46.9024229  77.9128647   6.5771586  46.5180111  78.5627031   5.9887981
  46.4489174  78.0454874   7.4096084  78.5370827  81.1771584  22.6708293
  78.9606619  80.4584694  22.2014642  77.8065968  80.7646179  23.1317353
  43.9355005  23.4070689  28.1341004  44.4825472  24.1419417  28.4114671
  44.5590795  22.7253538  27.8838253  84.5269108  83.0824661  35.7717514
  83.6595917  82.6886654  35.8661699  84.4328213  83.6974621  35.0443196
  13.7689028  82.4638844  73.8736916  14.7071848  82.6297665  73.9650774
  13.5944758  81.7382240  74.4730425  41.2304068  80.3625107  67.8267956
  40.3637981  80.0148392  67.6161957  41.8407965  79.7309542  67.4462938
  45.5600752   3.5594183  45.5534792  45.9834493   3.2594782  44.7491026
  45.0560774   4.3281657  45.2865696  36.3960184  13.6693293   9.9399668
  36.5533746  14.5828921   9.7014874  37.0484461  13.4821898  10.6149077
  10.0011317  32.9999587  18.2895740  10.1447122  32.0800635  18.0673011
  10.6359212  33.1807515  18.9828189  22.2797598   4.1983324  45.6250858
  22.8596319   4.9407297  45.4552794  22.8116049   3.5920245  46.1406088
  88.4892368  81.2756729  68.3100176  89.2478561  81.7875862  68.5905123
  87.7996254  81.9251060  68.1725645   3.3488856  88.6113453  33.9679337
   4.2007456  88.4840393  33.5503840   3.2107268  87.8134918  34.4783926
  33.8632883   8.4671599  37.8177381  33.1110204   9.0195853  37.6052570
  34.6155466   8.9391905  37.4606323   9.8754321  31.7263627  24.9192286
   9.7786436  32.4144173  25.5775952   9.8810206  30.9122539  25.4226446
  82.3011640  10.1276022  28.4798717  83.1462005  10.5681616  28.5696149
  82.0387414   9.9275404  29.3783927  19.7653113  64.2157984  36.0004473
  20.2994452  64.7090769  35.3778625  18.9105997  64.1409063  35.5760765
   0.9374628  76.1413050  62.4182177   0.1591597  75.6507254  62.6824427
   0.6299220  77.0421076  62.3171759  81.8502140  85.5179596  23.8619328
  81.0120487  85.9447384  23.6842370  81.6356564  84.8144436  24.4745183
  76.1213112  12.4926376  64.8767757  76.8199110  13.1443655  64.8181295
  76.4904308  11.7937922  65.4167747   3.8659589  28.8238856   2.0987208
   3.4194772  29.2810580   2.8113826   3.1869237  28.2786891   1.7013486
   4.1850481  35.6283402  68.4316683   4.7237692  35.3304482  69.1646576
   4.4222651  36.5487623  68.3186102  58.8862801  67.7351570  53.4248400
  58.4794283  67.1352577  54.0499973  58.3590412  67.6473856  52.6307678
  68.5703659  40.0410700  55.9769821  69.4080544  39.7315741  56.3215494
  68.4298134  39.5207334  55.1859570   0.4058276  69.3735552  66.0698271
   0.6327067  70.2308083  66.4302111   1.0347948  69.2375517  65.3612137
  77.6768923  77.6540852  49.0111971  77.8005934  77.9248905  48.1014776
  78.5473776  77.7255058  49.4028425  75.2419376  76.9458723  53.4816408
  75.4557848  77.4631119  52.7051353  75.8088636  77.2982025  54.1677094
  17.8853140  54.4612169  45.5889416  17.2622214  55.1210499  45.8932495
  17.3886500  53.9329576  44.9640369  78.7503433  59.8408461  53.6121702
  78.2727575  59.2069912  53.0770350  78.0910397  60.4881382  53.8622904
  63.3360688  37.7566382  15.3163226  63.2985322  38.2488200  16.1364444
  64.0919415  38.1188056  14.8540290  75.3386879  79.7861958  27.8344893
  75.7579470  80.4340935  27.2682023  74.4593382  79.6833420  27.4706221
  27.9652322  39.5479494  46.0867262  28.0201448  39.2705351  45.1722574
  27.5175489  40.3933817  46.0540771  66.1933248  25.7602736   8.1937011
  66.1327474  25.7242677   7.2391017  65.4827229  26.3450858   8.4569057
  80.6151295  61.6132879  76.3614178  81.5273094  61.7388058  76.0998869
  80.4510117  60.6811857  76.2182903  23.6929430  32.2402102  42.6363945
  23.9225019  32.0004183  41.7386007  24.5031465  32.5924116  43.0048466
  11.0569773  62.4341583  47.5738049  10.5312071  61.6923952  47.2744989
  11.1364947  62.9974842  46.8040180  90.1679993  63.6885595  43.1168795
  90.3232288  64.3766403  43.7639380  90.5898190  62.9127932  43.4863234
  67.3434782  71.2148952  57.1277857  66.4130831  71.4018393  57.0027018
  67.3904753  70.7981491  57.9882193  87.9694703   5.0869948  70.3131151
  88.5381511   4.3643194  70.5787611  87.4933818   4.7505289  69.5539284
  44.5508496  62.9041907  10.3479655  44.5005242  61.9606826  10.5012782
  44.7403686  63.2769820  11.2089713  62.2044659  66.5148687  70.9842920
  61.8787241  67.2332239  71.5265942  61.4295244  65.9846210  70.7984543
  89.9512100  66.7300320  65.6716013  89.9451160  66.2273359  64.8570538
  90.4864597  67.4987602  65.4746342  81.7499447  84.4740582  41.9777203
  81.9909763  83.8259792  41.3158035  80.7930851  84.4911671  41.9589043
   2.8817905   1.8622500  10.9662449   2.3195995   1.7814356  11.7367268
   2.6261581   2.6950079  10.5695069  88.0210972  88.1514740  52.1026421
  88.1561470  89.0361595  51.7630339  88.1236076  88.2404137  53.0501699
  75.5346346  64.5889282  56.1934710  76.2960529  64.4759274  55.6245232
  75.4969406  65.5309725  56.3588858  24.5247374  60.7740641  44.2662716
  23.8886366  60.1614189  43.8971090  24.8125849  60.3593636  45.0795317
   9.7144235  13.7993819  48.5813999   9.8972477  12.8599173  48.5665321
  10.5178894  14.2049319  48.2555103  87.9112434  62.3959398  37.7630401
  87.5760555  61.7004824  38.3289146  87.2472668  63.0838060  37.8099775
   0.4824839  79.9187803  35.5631471   1.3520632  79.9821711  35.9581661
   0.6452952  79.5993090  34.6756434   1.5277399  18.5755640  59.4020462
   1.1613764  17.8753954  59.9422121   0.7865156  19.1550833  59.2260647
  13.6390696  62.6968050  44.2727757  14.5748339  62.4969673  44.2472792
  13.2650481  62.0205593  44.8376083  13.1972418  69.5001507  39.3164158
  13.1346426  70.4465151  39.4456697  12.4398718  69.1443205  39.7811747
  16.8178282  62.3989344   6.3767421  16.2539874  61.9361830   6.9965649
  17.4927721  61.7611170   6.1446595  70.6185722  42.5313663  50.0532818
  71.0403395  42.6551771  50.9035873  70.4541779  41.5897655  50.0023079
  94.3997196   4.5105940  24.5928955  93.8098529   4.4941050  25.3465676
  94.3903402   3.6125666  24.2617178  80.8424091  79.6237040  21.0908890
  81.2530708  80.4876423  21.0563898  81.4279270  79.1019297  21.6396594
   7.6615725  41.5311146  69.1323376   8.2234011  41.2377691  69.8496437
   8.2020388  41.4314222  68.3486366  30.9523211  83.1392479  51.5132570
  30.7522498  84.0701485  51.6114092  30.5070029  82.7196503  52.2493649
  23.5756983   8.3241564  55.6602001  22.9011453   7.8858191  55.1414776
  23.7000002   9.1685969  55.2269554  92.9353046  59.6375895  70.1221752
  93.0368710  59.1124153  69.3283796  92.0112133  59.5450735  70.3539610
  54.4670820  81.5669823  23.5281110  54.8645401  82.3930550  23.8035512
  53.5914946  81.8108273  23.2279181  60.0193071  55.2091169  74.1549540
  59.9942112  55.2478552  75.1110411  59.6042013  54.3743229  73.9380884
  59.4036961  72.5602388  12.2185147  60.2755404  72.4477053  11.8397570
  59.4612885  72.1459246  13.0794787   4.4561015  57.4705362  23.3571935
   4.9797640  57.5629473  24.1531014   3.5497485  57.4746275  23.6649942
  82.1699193   7.0578963  29.9680543  81.7119649   7.8204924  29.6145511
  82.7186874   7.4113566  30.6681633  41.5028302  39.7131488   4.5638450
  40.6484096  39.3695685   4.8248942  41.8884913  39.0171191   4.0318187
  15.4407416  88.4591961  29.4167948  15.9839640  89.1683865  29.0730119
  15.1565848  88.7702370  30.2762961  73.4636991  40.9036872   1.1630853
  73.6685483  41.1169764   2.0734580  73.8587682  41.6130397   0.6561645
  49.4172716  88.4100246  60.1420212  49.2486143  88.7227726  61.0308266
  50.2651739  88.7896347  59.9113989  16.1885939  35.9778905  31.9764924
  16.0097895  35.8365226  32.9061556  16.8583022  35.3291416  31.7600441
  41.8143034  80.5669117  70.4066849  41.4484644  80.3783798  69.5424795
  41.0564995  80.5730534  70.9914303   7.3845492  84.9486351  67.1845388
   7.4767600  85.5115128  67.9532385   6.4779768  84.6433544  67.2185755
  74.7238016  76.6146946  37.2525716  75.1591778  76.3029242  38.0459666
  74.8770857  75.9238386  36.6080165  83.1964111  58.3565617  13.2999730
  82.9163361  58.9206982  12.5791860  84.1481209  58.3076954  13.2099903
   5.1763738   1.1961275  32.7734208   5.5119241   2.0791537  32.9280210
   5.4111589   0.7090002  33.5632396  18.4734408  30.9758565  26.0221656
  18.3137671  30.7018420  25.1190360  19.2044799  31.5906569  25.9602435
  92.9672527  42.4587536  55.2491093  92.9682255  43.2378626  54.6930361
  92.9558563  42.8021574  56.1425161  76.9615555  74.2021084  75.5304003
  76.2265396  73.6397982  75.2858686  77.7344465  73.7417746  75.2033472
   9.2787848  85.5149746  65.5283213   9.2608462  86.4706516  65.4773951
   8.5424624  85.2916050  66.0976791  20.4962362  10.7317740  53.8671494
  19.6259798  10.4747111  54.1717720  20.4444994  10.6686217  52.9134369
  72.1015501  85.8779335  37.5325871  72.9067945  85.4120541  37.3072648
  72.3311234  86.3926411  38.3062792  53.6529268  21.7633921  47.5083780
  53.5186208  22.7110010  47.5233984  53.5668195  21.5238768  46.5856361
  70.4437637  70.3228664  22.2967625  70.3402376  71.0855675  22.8658009
  69.9589396  70.5487347  21.5029359   0.3050340   9.8700148  29.7919226
  -0.4485880   9.4679266  29.3599439   0.9846224   9.1965109  29.7639561
  86.7812970   8.6819941   8.8853121  85.8260635   8.7275320   8.8441658
  86.9924215   7.7998358   8.5796160  22.0311464  24.2496592  62.5945330
  22.2217287  24.3604380  61.6630650  21.0779298  24.3140608  62.6532888
  66.1201525  77.1557617  53.0358124  66.5521955  77.9649687  53.3092260
  65.3734303  77.0708323  53.6286259  52.8455114  72.6872158  55.7134104
  53.1162596  71.8653011  56.1225414  52.7511263  73.2986355  56.4438152
   9.7147379  40.5690193  63.6194849   9.9724017  40.7154703  64.5296478
   8.7853346  40.3449821  63.6667490  41.7477621  21.9558054  71.5741301
  42.0240415  22.7147967  71.0604954  41.1490072  22.3148543  72.2289705
  78.6858606  83.8659954  37.8311467  79.4767809  84.3379402  37.5704670
  78.6679029  83.9374638  38.7855053  68.7486410  65.7186317  42.2030020
  67.8400755  65.4174089  42.2013092  69.1478348  65.2798939  41.4517450
  10.5978073  19.5136553  59.8015022  10.3515781  20.3370005  59.3799448
  10.5389322  19.6976095  60.7390118  74.1471004  49.2834997  41.8881702
  74.1968822  49.2141104  40.9347868  73.8067389  50.1639652  42.0467901
  40.1029028  84.5877829   8.6693843  40.0776018  83.6435667   8.5142978
  40.9909357  84.7549429   8.9851077  18.7316523  69.4526482  67.9186773
  18.9888201  68.9164829  68.6687613  17.8680048  69.1214561  67.6723909
  18.6696349  71.7834520  57.3521328  19.4393549  72.0594883  57.8496885
  19.0200625  71.2215710  56.6609621  36.8439293  77.3429823  65.0824690
  37.1589160  77.3777485  64.1792488  37.5944424  77.0274925  65.5858850
   9.0316782  84.8479080  75.8227730   9.4442568  84.9137592  76.6839790
   8.8609133  83.9128494  75.7098818  75.3796434  88.4309578  62.5474358
  75.8586025  89.1720009  62.1763563  74.5600748  88.8102055  62.8647757
  88.5504246  81.9543552  51.8062878  89.4506454  82.0031166  52.1279144
  88.5603142  81.2350273  51.1748552   4.6328555  78.1875515  41.3971710
   4.7945700  78.5348320  40.5199718   5.2886591  77.4989891  41.5068293
  56.1472814  15.0532672  24.9122413  56.8863217  14.6467015  24.4597419
  56.4721696  15.9141251  25.1760467   9.7556410  85.2419472  57.9831266
  10.4707346  85.1884174  57.3490858   9.6550379  86.1787128  58.1521654
  73.6846304  66.2911320  27.7502275  74.1407442  66.7162180  27.0239401
  74.2591763  66.4236450  28.5042620  22.7676023  10.8068663  49.4656849
  22.9940809  11.6487604  49.0705347  21.8521894  10.6670862  49.2233896
  13.0800928   0.2118212  31.7755890  13.0110706   1.1664492  31.7878413
  13.5668958   0.0171381  30.9747458  78.4266094   0.2975279  34.2645335
  78.0705455   0.7824808  35.0090313  79.3696025   0.4570967  34.3036509
  43.5775582  15.0409552   3.4327968  42.8913562  15.1256558   4.0947517
  43.1035439  14.9681756   2.6043971   7.3255644  71.9411659  61.7312336
   7.2037516  72.7931309  61.3122416   8.0993472  71.5729523  61.3047171
  40.7121004   8.3418375  69.8951960  40.6561960   7.4791914  69.4841576
  41.1916364   8.1886107  70.7093239  44.8732328  87.4874878  41.9414616
  44.7822332  87.8293133  42.8309011  44.9625254  86.5414238  42.0564318
  13.7274180  66.1152744  44.2399359  14.3748770  65.7546377  44.8457146
  12.9414187  66.2351370  44.7729206  86.9248867  87.9280758  45.9756470
  87.7326679  87.7727222  45.4861736  87.2197247  88.1761169  46.8518782
  82.9897213  29.4673181  57.4150658  82.4879837  28.7044621  57.1277666
  82.4677277  30.2179217  57.1316051  17.1855177   5.6827742  66.1571074
  16.8410505   6.5611273  65.9956694  16.9449819   5.4941469  67.0641851
  33.3109014  47.5924250   6.7671664  34.1874854  47.9393241   6.6013415
  33.3274238  46.7112490   6.3936980  89.7404861  83.5551548  38.9190531
  89.5412445  83.2427120  38.0364919  89.9876499  84.4719887  38.7984467
  68.8241673  77.0843983  55.8535814  69.7515535  76.9121122  56.0163975
  68.8212490  77.7427149  55.1587152  67.3053598  87.8930473  69.3165588
  67.5580549  88.3951187  68.5417652  68.1351566  87.6006794  69.6936369
  87.5719833  54.3596697  22.5978112  88.0013657  55.1840925  22.8262615
  88.2395935  53.6912155  22.7517772  23.7414179  67.2507572  32.3681664
  24.1122065  67.8609562  31.7306662  23.0997191  66.7445135  31.8699980
  88.5444736  77.8828096  37.7792573  88.0483818  78.6145306  37.4122334
  89.0702820  78.2755041  38.4760737  70.8985536  30.1024577  13.4512694
  69.9467866  30.1350877  13.3548053  71.0469453  29.4623229  14.1472800
  10.0109015  82.8858566  37.3335052  10.9189806  83.1884956  37.3267126
   9.6280489  83.2592869  36.5396500  78.2876110  71.4421129  38.9167500
  78.5526466  72.1199226  39.5384955  77.7095842  71.8938780  38.3019137
  23.3822451  60.4606628  48.3355522  22.8607951  60.2607727  49.1129637
  24.2574416  60.6468534  48.6755562  12.3463262   7.4050146  57.6270008
  11.8596567   8.1959540  57.3950481  11.6723455   6.7365748  57.7501774
  59.5245790  65.2007961  23.8517165  60.1816082  64.6630430  24.2937183
  58.6924934  64.7684479  24.0439057  78.7887669  85.4249859  31.4595222
  79.2141056  85.3776646  30.6033206  79.4331408  85.8523464  32.0237732
   3.6854233  24.2681509  48.7656355   2.9808868  24.2947966  48.1182194
   4.1156830  25.1195341  48.6865759   1.2269224  20.1106268  11.5564919
   1.5396799  20.3374010  10.6807148   1.4623655  19.1890532  11.6637170
  59.5858002  74.5678139  24.8190928  60.1716709  73.9036179  24.4560099
  59.5767736  74.3908215  25.7597423  18.4028829   8.5253912  58.9718151
  18.1287016   7.7558428  58.4729719  19.0041937   8.1810099  59.6321678
  89.8437691  51.2798595  33.2868457  89.1217804  51.6461134  33.7975430
  89.5400906  50.4080868  33.0338120  67.5936317  80.2339840  41.4800453
  67.3273659  81.1485100  41.5748072  68.3589935  80.1472473  42.0483160
  55.5822039  84.5118809  40.5280161  55.4945135  84.2582226  39.6092129
  54.8935652  85.1627445  40.6635761  32.7899278   0.8853060  57.1545315
  33.3871473   0.4647929  57.7731848  32.3578180   1.5693194  57.6660252
  58.3289163  45.6813666  12.0915874  59.2401425  45.4308841  11.9394477
  58.1746308  45.4753539  13.0135425  82.8980541  73.1338453  42.7240944
  82.7620316  73.7726164  43.4238815  82.4583817  72.3420143  43.0338049
  31.9387221  76.1878347  26.3984704  31.2348080  76.3130951  27.0349050
  31.5877986  75.5516148  25.7753301  83.2267380  19.8134971  28.4319973
  84.0703583  19.3620932  28.4041286  83.2462215  20.4042649  27.6791048
  64.4245434  29.3474102  47.8855801  64.1038752  28.4751654  48.1149101
  64.2991257  29.4073606  46.9385290  83.1501961  52.8631783  43.5863543
  82.9746246  53.4772968  42.8734207  83.1309319  53.4022903  44.3770599
  23.2509817   4.7218233  61.3931561  23.6726488   5.1036745  62.1629715
  23.0077852   5.4750735  60.8549166  20.1983748  71.5807343   5.4857421
  20.9365759  71.7036533   6.0825473  19.8737154  72.4659729   5.3208566
   9.7918997  64.4663858  59.6833801   9.0925322  64.6663094  60.3055954
  10.3884898  63.8964272  60.1686192  54.1403961  86.7436981  32.8805661
  54.3410110  87.3760414  33.5705900  54.0556479  85.9077263  33.3390427
  51.2454714  80.9755245   9.3758376  51.3273443  81.9086113   9.5730098
  50.3031362  80.8304396   9.2909988  84.8850727  46.5380239  50.9073591
  85.8200836  46.6760921  50.7559490  84.6216106  45.9170055  50.2282763
  73.4731674  71.6942883  35.9320736  72.9726410  71.1089706  36.5004969
  72.8913832  71.8639326  35.1911426  69.1270542  63.8850212  62.2979403
  69.7572708  63.1678247  62.3663902  68.2719803  63.4590960  62.3585129
  36.0292638  11.0288912  41.8663311  35.9533609  10.1455790  42.2272110
  35.2781690  11.1129957  41.2789536   4.0574942  65.9593248  40.0374556
   3.8743124  65.0467014  39.8143005   3.4776984  66.1463785  40.7757521
  72.3167419  61.1707687  37.9558921  72.1531010  60.6913567  38.7680602
  73.0422592  60.7022095  37.5432062  62.5313091  64.5500708  12.8540504
  62.4083185  64.3981457  13.7910795  61.6796350  64.8620510  12.5481820
  69.5580117  19.2666575  14.2253574  69.9253766  19.5579240  15.0598891
  69.1627995  20.0535104  13.8499911  36.0178661  79.2719126  34.1407800
  36.9225907  79.5830107  34.1104078  36.0476112  78.4082747  33.7291050
  93.4217644  70.5828238  73.6924553  93.7721157  71.4717150  73.6344671
  94.1947937  70.0187635  73.6700678  30.6111727  84.1683769  16.8316042
  30.6699953  84.4931698  17.7300906  30.1582537  84.8638248  16.3546944
  21.9555486   6.0935313  72.1709824  21.5576948   6.8391329  71.7215157
  22.6656641   5.8160693  71.5922070  81.9820118  68.3727074  60.7826948
  82.1462536  69.0415478  61.4474583  82.5387478  68.6252737  60.0461578
  93.3568192  58.2697105  72.3373032  94.3100929  58.2019138  72.2834063
  93.0874348  58.5571289  71.4649153   0.8038626  67.8403330  63.1315231
   0.3873167  68.6992073  63.0604029   1.7068205  67.9880428  62.8503036
  24.5048342  88.0285645  65.1068830  24.3433772  88.2652760  66.0201883
  23.7355147  88.3498096  64.6365929  24.6446813   1.4851481  50.4393768
  24.7641290   1.3635260  49.4974804  23.7461485   1.8030363  50.5277872
  26.3906969  14.0420157  40.5445051  26.4159216  13.1083685  40.7540274
  26.8341650  14.4646078  41.2800217  62.1454716  65.1205444  43.2347155
  62.9242849  65.4982758  43.6433649  62.1785259  64.1928482  43.4681988
  46.9208400  11.7341038  12.5549586  47.5773828  11.0927054  12.2833236
  46.4063899  11.8995425  11.7648967  17.9657282   3.8191229  69.0648556
  17.9705538   3.8363653  70.0218916  18.6372770   4.4520193  68.8105154
  30.4168428   5.2767378  53.0109787  30.0716699   4.3968684  52.8596306
  30.9224142   5.1997858  53.8201189  25.4296030  30.1130968  52.5215673
  26.3715852  29.9495894  52.5681591  25.1477159  29.6641451  51.7245674
  51.8031896   1.5296179  37.5838828  51.0674299   2.1416003  37.6034665
  51.5187467   0.7956034  38.1284380  42.0175982  68.8857841  66.9056273
  42.6487064  68.1849957  66.7418242  41.9581604  69.3540430  66.0729027
  40.7146944   8.0537897  25.8572197  41.4555658   7.6455790  25.4092240
  39.9740137   7.4772936  25.6693602  50.8869184   0.4131991  61.0289335
  50.3494657  -0.2349085  60.5736017  51.5131296  -0.1064676  61.5329599
  54.8961639  72.0283222  36.3333917  54.6788359  71.8412447  37.2466302
  55.8153486  71.7748785  36.2491751  77.1729326  72.4016333  65.7883310
  77.6851416  72.9297352  65.1759768  77.8268528  71.9780540  66.3443947
  22.7780549  45.5881259   6.6083320  22.9180877  46.3407084   6.0336574
  22.0305697  45.1295802   6.2246211  60.3162766  68.2447290  44.9868155
  59.4175482  67.9270267  44.8997164  60.2229357  69.1450071  45.2982903
   1.2229932   7.0067698  25.8403420   0.7435240   6.6007811  26.5625024
   1.1979974   6.3549334  25.1398277  73.3212471  85.2060127  56.6249275
  72.4646568  85.6174183  56.7399740  73.9491796  85.9027767  56.8158579
  54.1507737  10.4395720   3.5224326  54.6362321  11.0289046   2.9451450
  54.7025601  10.3580186   4.3003162  11.7809006  82.5697464  54.4505262
  12.6083419  82.1627998  54.7073746  11.7646214  83.4002292  54.9261999
  91.8432580  67.2000140  31.4108515  92.0855175  67.7046508  30.6343937
  92.4107252  67.5387233  32.1033025  42.4040842  25.0046563  20.2209663
  42.9671049  24.3248558  20.5912519  42.3380470  25.6636429  20.9120560
  11.1703086  29.7892332  33.1981993  11.2323034  30.7410169  33.2787943
  10.4163551  29.6459079  32.6261473  87.2991477  54.1058916  45.7182741
  87.0450627  53.2120317  45.9477997  86.9497882  54.2352718  44.8365450
  71.9923179  76.4672214  72.4781084  72.4126344  75.8648723  71.8643188
  72.1456139  76.0776526  73.3389044  87.4847089  55.1229852   3.4896100
  87.2718822  54.1948169   3.3924502  86.9057213  55.5675620   2.8704506
  78.3664607  53.6230320  20.3940272  78.1382500  52.7555174  20.7280469
  77.6113163  54.1696256  20.6113338  78.0611097  69.4098347  27.5618052
  78.3285259  69.6115762  28.4584761  78.7623297  69.7667390  27.0166993
  22.1469495  84.9537343  19.4060946  21.2251994  84.7434631  19.5557451
  22.3895070  84.4349140  18.6391377  24.6573540  82.7317071  57.2476768
  24.6656844  82.8171545  56.2943316  24.0766904  81.9897288  57.4165821
  50.0356197   1.8619458  18.8216186  49.4674349   1.5687060  18.1092906
  49.6343470   1.5009762  19.6121335  80.5333220  61.3165110  35.5436182
  79.8585128  60.7354420  35.8946490  81.2568103  61.2471479  36.1665034
  24.7933149   1.0725851  63.3891296  25.3802395   1.8242991  63.3074188
  23.9145422   1.4514863  63.3684826  50.4381418  24.7895670  29.9632525
  50.8935213  24.8818588  29.1263866  50.6511974  25.5908847  30.4415083
  23.8123012  19.4189465  23.7511873  24.1613817  18.6224294  24.1511059
  23.9859796  19.3132627  22.8158259  43.7012243   3.7126946  36.8582034
  44.2094707   2.9031494  36.9087148  43.1391287   3.5952133  36.0923839
  31.5884256   8.3139050  47.6398277  32.4688935   8.6867505  47.6844931
  31.0354662   9.0395266  47.3501015  49.6707821  11.5190506  61.2182140
  49.3580341  12.0439768  60.4814148  49.5008183  10.6140697  60.9567690
  37.9872155   7.4331379   8.4980583  38.4367490   7.4121374   9.3428713
  37.1875572   7.9321808   8.6645955  11.7782304  52.6890963  16.9169080
  12.6434943  52.4580067  17.2547626  11.9540164  53.3236736  16.2221825
  12.7018210  86.2665707  57.8457785  13.3535191  86.9511539  57.9969835
  12.3902413  86.0350406  58.7207317  63.6187410  17.2577703  50.6790543
  62.7462196  16.8779075  50.7822418  63.9086103  17.4383962  51.5732431
  38.1708980  18.8121092  59.6489859  38.8655925  19.2861259  59.1918850
  38.6303735  18.2867777  60.3040743  86.1508189  86.8611689  12.8692126
  86.1546861  87.3122142  13.7134731  85.7175647  87.4721652  12.2732198
  71.2952201  87.0281598  64.2433453  71.8696069  86.6049206  63.6052370
  71.6576462  86.7796303  65.0937033  84.6338712  63.0722827  32.6651192
  85.3143512  63.7032932  32.8996587  83.9182078  63.6079377  32.3228741
  52.8321886   3.3567315   6.2636280  52.2165108   3.5488695   5.5563408
  53.4775400   2.7715263   5.8670306  36.8573403   7.7773464  54.3563175
  36.2566471   8.3371985  53.8644171  37.5103164   8.3804637  54.7114277
  70.9586143   4.4018677   0.2108992  70.8353043   3.8137925   0.9560127
  71.5674734   5.0680792   0.5297772  82.4373816  57.0352191  27.1074271
  83.0514156  57.6228279  26.6670775  82.2385119  57.4730867  27.9350471
   5.7033917  42.4214262  59.0297937   4.7674772  42.3505443  59.2176056
   6.0009476  41.5151685  58.9498472  82.7851868  15.0783086  39.1402912
  82.8975773  15.3172064  38.2202220  83.1662369  15.8098555  39.6259618
  83.8641249  72.5375599  46.1057758  84.1808091  71.9655174  46.8048525
  82.9123341  72.5355786  46.2073708  85.4298555  76.0272306  71.6884899
  85.8699452  76.8668979  71.5561628  84.4970261  76.2341052  71.6313362
  66.2635465  84.1391489  18.5795724  65.8433460  84.9947351  18.6669528
  65.5614107  83.5557580  18.2916629  21.0761285  34.3477774  57.8249359
  21.5664124  35.1592064  57.6928806  21.5862298  33.8625669  58.4734678
  44.2244527  85.9280801  16.1935902  44.5685860  86.5918004  16.7913210
  43.2972523  85.8586267  16.4209759  91.2401946  66.1149624  76.9322667
  91.6286023  65.2995828  76.6152110  91.4952691  66.7701915  76.2827731
  13.6721179  58.0017942   6.0893470  12.8164765  58.2734507   5.7572097
  13.7110564  57.0622009   5.9107929  12.3961684  83.2079810  38.4386444
  12.2391936  82.4275279  38.9701366  13.2168957  83.0251604  37.9812384
  27.2631645  11.2796068  76.7483234  28.0430579  11.5900731  76.2883186
  27.6050401  10.7542682  77.4717665  33.9958239   0.0675295  20.2504158
  33.1043768   0.2280848  19.9409401  34.4963264  -0.1145281  19.4550645
  23.1782556  12.6560187  43.7450981  22.7765775  12.1729290  43.0229425
  23.2199359  12.0236158  44.4624281  83.8365709  87.0813148  24.9806118
  84.5921980  86.5153907  24.8225331  83.0812560  86.5456542  24.7381234
  17.8047368  64.6682948  31.1107898  18.3878657  64.3158930  30.4384780
  16.9402072  64.3282217  30.8801985  43.5510537  63.7259811  33.1606007
  42.9559132  63.3728117  32.4993038  44.1989133  64.2214817  32.6596093
  21.1186838  32.1485639  43.3480835  20.6537795  31.9813013  42.5282574
  22.0430994  32.1646166  43.1002426  31.5736532   1.5789853  61.5030813
  30.8850789   0.9508048  61.2851667  31.5159798   2.2448635  60.8178759
  16.5461195  36.4812374   5.3823751  17.2002864  37.1465731   5.5959737
  15.9917510  36.8942666   4.7203213  22.5579259  61.3472432  35.1276183
  23.3082625  60.7958025  35.3492904  22.8312346  62.2321218  35.3695297
  22.6179338  25.0480318  38.6426330  21.8043208  24.5486999  38.5723996
  22.8097653  25.3207946  37.7453971   5.7754660  13.4692633  27.7294302
   5.3380078  14.2743766  28.0062938   5.2164835  12.7666652  28.0612850
  37.7424073   9.7247219  12.7785873  37.7365279   9.0737134  12.0768857
  38.6645365   9.8061037  13.0220783  28.8912678  12.1062863  33.2535887
  29.2108917  11.5602171  32.5353408  29.1580343  11.6401291  34.0459037
  78.3122753  68.7556022  51.4066029  78.5114955  69.6817392  51.5437746
  77.7128433  68.5315698  52.1184492  46.2224150  11.2633634  48.4084463
  45.6453848  11.0548079  47.6737547  46.0238314  12.1761334  48.6173630
  88.0558573  64.9670952  66.8703604  88.6543404  65.7031769  66.7429495
  87.1833931  65.3472680  66.7678690  28.4162518  84.5365274  56.7721272
  29.0858456  85.0759685  57.1926975  28.2574174  83.8250530  57.3924541
  43.2741642   2.0549087  45.4960680  43.9556456   2.6572683  45.7943583
  43.7502098   1.2699598  45.2250099  17.6616514  27.1822619  71.8403625
  17.1240282  27.0829821  71.0546541  18.5413277  27.3604393  71.5077162
   2.9496381  76.8825477  38.4038973   2.7549574  76.4388937  37.5783658
   2.6686761  76.2654334  39.0795159  65.1446438  18.2425296  38.1115055
  65.4346085  18.7229013  38.8870025  65.0181627  17.3449802  38.4191418
  82.9018937  69.7526711  37.4767709  82.7089237  70.6827742  37.5946808
  82.2721409  69.3040007  38.0409837  10.8208224  72.6331502  66.5133095
  10.6842419  73.0913871  65.6840944   9.9872109  72.1951705  66.6850567
  58.3682632  15.9405637  49.9773359  57.8507090  15.1589215  50.1707315
  58.1121635  16.1832893  49.0875435  51.1386868  79.4235855  24.0063691
  50.8132836  80.1397139  23.4609294  50.7461259  78.6368591  23.6279726
  14.5743176  65.1965922   0.8463099  14.4177434  65.6906885   0.0415838
  15.3258225  64.6396774   0.6430433  73.4998952  57.1475238  43.3630705
  73.7859498  56.7526883  42.5393534  74.0140210  56.6994303  44.0347242
   4.9558336  26.7849493  48.2372332   5.5385804  27.3304248  48.7655306
   4.6885580  27.3512983  47.5133276  51.2499142  28.9680767  20.9790444
  50.6561613  28.5378075  20.3637695  51.4981318  29.7828770  20.5423236
  42.4951077  16.7487228  15.7791448  42.6071453  16.8929434  14.8395288
  43.3669233  16.8889475  16.1486161  51.5066195   4.2816663  35.3280830
  52.3016262   4.7088635  35.6469846  51.3364935   3.5868317  35.9640837
  52.9975231  43.9743962  75.2112089  53.0804928  44.6128582  75.9195264
  53.1734379  43.1306063  75.6275071  14.4239566  80.0957888  57.3090792
  15.2169081  79.9307328  57.8191900  13.7951848  80.4341853  57.9465485
  57.0036936  15.4107106  10.8613372  56.3320255  16.0116816  10.5389535
  57.2929382  15.7961559  11.6883802  49.8670530  10.4602230  37.9440737
  49.8704195  10.1446784  38.8477612  50.6225681  10.0344718  37.5389004
  70.4867268  29.2732668  49.2491674  69.7104740  29.0250421  48.7471151
  70.1532316  29.8504853  49.9360657  12.9468867  74.4603556  66.0958767
  12.4332186  73.7266654  66.4336300  12.4118039  75.2323204  66.2802315
  76.7471038  77.1817046  61.0745668  76.6060852  76.6613811  60.2836132
  75.8845292  77.2294921  61.4867735  20.4203796   3.8667744   4.0280291
  20.9699774   3.1459862   4.3356630  20.7149100   4.6248582   4.5327994
  36.5650845  11.1095977  46.1202383  36.9094014  10.9903073  47.0053625
  37.3221779  10.9794796  45.5491781   2.0225260  65.2687329  25.9538651
   2.7217981  65.9174365  25.8736515   2.3310730  64.6664232  26.6308093
  42.3133516  38.0269766  24.4004560  42.8200245  37.4417377  23.8374233
  42.9165077  38.2627916  25.1053143  13.3606184  24.9572206  21.5470052
  14.1370440  24.8055792  21.0081148  13.6061966  25.6816792  22.1224022
  11.1313578  81.8804765  47.1778250  11.8024203  81.2379587  47.4082232
  11.6143891  82.6976526  47.0547771   7.0557758  49.3304795   8.8668346
   6.3365766  49.7009629   8.3552426   6.8249914  48.4073681   8.9709061
  30.1007771   1.9047642  15.0513291  30.1152182   2.1165997  15.9846830
  29.7702742   2.6985139  14.6306610  37.2970700  24.8751998  35.5144763
  37.3118901  24.3150640  36.2905288  36.5715075  25.4799962  35.6694412
  15.1655567   9.5672429  45.9685946  14.8994124   8.6695725  45.7696342
  14.3419778  10.0417113  46.0818577  30.4168129  22.6077080  72.3312235
  30.4526186  22.2077084  73.2001019  29.6992040  23.2386684  72.3874092
  58.9751101  21.0332704  33.7663889  59.4584751  20.4234123  34.3237615
  59.4006777  21.8784261  33.9107442  59.7323513  54.2611456  16.5921497
  59.3502760  53.4745359  16.9813752  60.0620079  53.9715385  15.7414520
  35.3358599  87.7250476  37.7490735  35.0114533  87.6290862  36.8536496
  34.6816584  87.2822119  38.2895803  38.7543201  21.3148069  47.3274231
  37.8677058  20.9541893  47.3174286  39.2896676  20.6235456  47.7170277
  47.7846146  16.1478639  24.0965009  48.1922197  16.6543591  23.3939695
  47.9312944  16.6706181  24.8848200  25.7061192  58.9162797  33.1550527
  26.4458606  59.2829627  33.6393571  24.9353120  59.1879433  33.6533403
   8.7822161   6.3502169  20.9980750   8.9589892   6.1946535  21.9258595
   8.4327708   5.5185103  20.6780958  10.3903973  38.0257678  28.9179134
  11.1796057  38.5405469  29.0863824  10.1776266  38.2062626  28.0022812
  12.1401831  81.0913980  58.4812784  11.5097138  81.1753809  57.7659607
  11.9811150  81.8579835  59.0319824  75.0387192  37.5302434  33.9515281
  74.4809914  37.0278335  34.5454597  74.6290636  37.4260712  33.0927157
   8.7815422  68.5395029  66.4949850   7.8557628  68.7149862  66.3265256
   9.2039150  68.6427072  65.6422357  61.1098480  14.4879818  35.1575494
  61.7582321  15.0950921  35.5142593  60.3625917  14.5594597  35.7514620
  43.3650875  10.3821027  35.6054473  43.7655163  10.3777766  36.4748526
  44.0035248   9.9404216  35.0454974  53.2400179  36.0268641   6.6068369
  53.5892582  35.5650568   5.8446050  52.5397968  36.5759587   6.2541097
  22.2554633  84.6841603  70.9638929  22.7437636  84.0862793  71.5298748
  22.8161618  84.7992849  70.1966953  48.7472296  26.9905519  20.6897902
  47.8871870  26.7121291  21.0044980  48.8056183  26.6324353  19.8040283
   4.4987024  71.2519136   5.1860412   5.3516115  71.4230719   5.5853923
   4.3137420  70.3372183   5.3990157  35.7301712  28.2499361  21.9224668
  35.9761786  27.8208303  21.1029673  35.2525115  27.5789547  22.4101734
  93.5512649  84.6179771  44.5317459  94.3485771  85.1444849  44.5893192
  93.8274156  83.7367982  44.7837257  67.9158401  16.9891620  37.7425003
  67.0255232  17.3166776  37.6148176  68.3824873  17.7174962  38.1523776
  54.0420723   8.6939621  75.3068829  53.9161015   8.5765046  74.3653059
  53.1639433   8.8669950  75.6462622  77.5403105  72.2594541  29.3399382
  77.7866839  72.8016216  28.5905480  77.5537466  72.8602749  30.0849652
  48.4734818  88.2283033  26.2120366  48.3485505  87.7197401  25.4107952
  47.6813552  88.0664025  26.7244411  34.6687266  86.8003982  35.3607965
  34.8040101  85.8536473  35.4007101  33.8404462  86.9044538  34.8924446
   8.3022329  82.3776835  15.4737020   9.1386267  81.9163746  15.5359459
   8.1453201  82.4632829  14.5333385  63.1252337   3.3831888  15.2940440
  63.4918976   3.1664056  16.1512446  63.6711264   2.9027858  14.6715939
  77.1652447  74.3162578   2.1849814  76.3441633  74.2135245   1.7038348
  77.7993535  74.5878392   1.5213688  44.2218223  26.8053642   5.3814967
  44.0761164  27.0368305   6.2987884  45.0841716  27.1671274   5.1772578
  20.8399817  65.0501913  46.6487455  20.8981606  64.1056079  46.7923021
  21.0963008  65.4360002  47.4864101  56.7078781   7.7707499  34.1098785
  56.5673637   6.9181758  33.6980486  56.7963314   7.5745457  35.0425696
   1.2116715  77.9482597  75.7121420   2.0123574  77.5434846  75.3785372
   0.6906459  78.1288415  74.9297380   5.5749556  63.5156649  53.6890936
   4.8585293  63.2562488  53.1097269   5.3913495  63.0652708  54.5135117
  53.8735437   0.9134393  44.6727943  54.6008348   1.1692156  44.1054726
  53.0891085   1.1517213  44.1787052  33.8437459  81.6659182  57.4742603
  33.2253119  81.2722629  58.0897284  34.4755837  80.9704161  57.2917986
  78.9140320  22.4034333  12.1374929  79.3701887  21.6342854  11.7960835
  79.3721199  22.6117563  12.9517341  58.1648922  10.1999187  69.6963739
  58.7406588  10.9392238  69.5010567  58.2731867  10.0537479  70.6361294
  58.0978727   3.6924365  15.5812597  58.6063671   2.9472756  15.2612638
  58.7557745   4.3341601  15.8488107  39.6344090  22.9064298  24.7015119
  38.7937307  22.4536109  24.6348143  39.5592999  23.6417532  24.0933251
  12.8629300  77.6920503  30.0216651  12.6059577  78.1280845  29.2092180
  12.7329585  76.7603320  29.8449135  44.1604662  16.2899208  47.9384327
  43.7171984  16.5940189  47.1464252  44.4927263  17.0884454  48.3485413
  28.7686753  38.1480789  39.4770432  28.9832807  37.9671645  40.3921652
  28.3759069  39.0208697  39.4911742   7.9812667  83.3791000  56.9770718
   7.4693701  84.0626031  56.5446138   8.5634276  83.8546288  57.5696850
   2.1429130  88.3439014   9.3659091   1.9964930  87.5860885   8.7997717
   2.2353813  89.0802233   8.7613338  73.8923931  23.4680080  35.0114346
  74.7957993  23.4678102  35.3278017  73.7805367  24.3281960  34.6067166
  11.2035939  82.0664436  24.2923141  10.3336522  81.7224675  24.4950771
  11.2206599  82.9313290  24.7020864  41.4300823  18.3241022  29.5469403
  42.2150707  18.4156489  30.0869823  40.7129526  18.2527387  30.1769090
  60.0132807  56.8820539  66.3108198  60.3129800  56.0496131  65.9455053
  59.1779311  56.6732302  66.7289273   2.7035056  19.5903194  29.6085215
   2.4451552  20.5119753  29.6026087   3.2541571  19.4909406  28.8318992
   9.3807217  78.4359246  29.9706435   8.7502858  77.7424818  30.1653743
  10.0034138  78.4043747  30.6969285  51.4592648  19.8245478  64.9205351
  51.3569641  19.3819880  64.0779781  52.4022341  19.9664390  65.0036144
  17.5748584  87.0813860  63.1209564  17.0650431  87.7888597  62.7262402
  16.9743249  86.6721618  63.7439537  76.8626451  15.9404576  33.4702849
  76.5787649  15.9034741  34.3836713  76.0723591  16.1735570  32.9831028
  25.8849570  49.3988365  26.5298486  26.4777037  48.6516184  26.4488792
  26.4322516  50.1018971  26.8797135  26.7754722  22.9381609  11.0865378
  26.7649364  22.7816749  12.0308006  25.9339452  22.6016641  10.7785881
  37.5833699  66.4100021  30.0176692  36.6565129  66.6456646  29.9773359
  37.5877091  65.4528445  30.0095677  30.3672147  23.2583070  32.8378153
  29.8464322  23.3864021  32.0449686  31.2611246  23.1325126  32.5194860
  79.1837549   6.8206263  10.7270932  78.4493828   6.2490356  10.9511817
  78.8166571   7.4499750  10.1062918  16.5146062  73.4371358  57.7892447
  16.5499064  73.8831729  58.6354351  17.2519967  72.8271407  57.8090858
  13.7991854  62.8823107  61.7342854  13.6855456  63.6142057  61.1279440
  13.5444018  63.2356328  62.5866222  80.2504400  47.3645997   6.0431846
  80.2453664  47.0499202   5.1392062  80.2961686  46.5690322   6.5734752
  76.2660037  57.4251360  47.8251457  75.4789161  56.9163006  48.0195999
  76.7953621  57.3606294  48.6200380  21.9914722   4.1217762  34.6139812
  22.5729394   3.3838284  34.7971725  21.9676661   4.1765353  33.6586452
  45.4398537  13.1804359  53.4650278  45.7151699  12.8048778  54.3013191
  45.5604172  14.1236496  53.5747719  17.9872224  86.9142038  33.7491798
  18.4760901  86.4722055  34.4433546  17.6702115  86.2046453  33.1903744
  20.9216496  84.0085813   1.5408193  21.7299458  84.4952619   1.3794832
  20.5849358  84.3687245   2.3612775  24.0406176  81.5871328   3.8396582
  24.6015546  82.3180818   4.0990761  23.7904927  81.1724114   4.6652943
  60.7531929  19.1908431  42.8632307  61.4667416  19.0516353  43.4858847
  60.3221226  19.9894547  43.1675816  77.0080280  29.2582989  36.1098313
  76.4728689  29.5038962  36.8644929  77.2542191  28.3484769  36.2767148
  67.5114059  10.3893232  47.7615309  67.4573660   9.6086562  48.3127737
  68.0940294  10.9798646  48.2390690  40.7894325  29.3316269  37.1919942
  40.7722569  30.1804042  36.7498255  40.6283569  29.5379114  38.1127191
  82.8890514   4.0751925  33.6376595  83.6846542   4.5696744  33.8344765
  83.2022667   3.2767859  33.2125998  50.5461073  11.4038897  10.2429044
  51.3062859  11.9720602  10.1182353  50.5171204  10.8656108   9.4519252
  39.9594188  14.9353456  24.6987844  39.8875070  14.4045591  25.4920864
  40.5533743  14.4416833  24.1333246  82.2029288  65.1006988  60.0438992
  81.7409690  65.7694820  60.5494217  81.5305169  64.7209457  59.4783143
  68.5672038  82.2476286  18.5193014  68.4897600  81.6319340  17.7904975
  67.7648832  82.7681303  18.4794080  66.7284532  63.5588139  40.1650715
  67.0201449  62.7718991  40.6254148  66.0044326  63.8919181  40.6952286
  24.2604542  27.9636121  25.9131575  23.9578390  28.4345245  26.6896224
  24.2597675  27.0431662  26.1758614  84.9033546  30.5632949  17.2429883
  84.4446659  30.5366945  16.4032733  85.8300781  30.5003572  17.0117784
  23.4167218  18.9778805  52.8685427  23.8513827  18.2801783  52.3781204
  23.7919164  18.9224577  53.7474012   9.2736623  63.3101410  44.5953989
   9.5670125  62.5833839  44.0458488  10.0725219  63.6324900  45.0127125
  49.4249582  27.0585513  53.1353760  49.2993212  28.0073214  53.1522274
  48.5469103  26.7030835  52.9978657  51.3415766   9.5034802  35.3341651
  51.0824251   8.5930538  35.4762793  50.8465004   9.7756022  34.5614552
  70.9148836   7.3476517  47.2231865  71.2960625   6.5321565  46.8977594
  70.0022030   7.3166472  46.9363308  41.6218042  27.6499081  21.3841009
  41.7729950  27.5523615  20.4439616  40.8290291  28.1828356  21.4451718
  79.9381161  23.9743853  39.6941066  80.0465012  23.2169867  40.2692842
  80.4450703  24.6689510  40.1145887  64.8234129   4.8678309  23.2069731
  64.3755722   5.6494319  22.8832936  65.3813124   5.1877701  23.9159298
  47.2956657   7.7507228  18.1928253  46.6056776   8.3161545  17.8457868
  48.0729866   8.3087653  18.2171857  21.1267066  13.4890330  41.5929794
  21.3902950  12.5912356  41.7947531  21.1288834  13.5301065  40.6366634
  54.3582439  19.9991179  70.8893681  54.0095139  20.4430246  71.6623926
  55.2925396  19.8989415  71.0718012  38.0481863  25.9525871  57.1614170
  37.4652243  26.6026974  56.7693186  37.5580454  25.1317716  57.1139193
   9.6140490  11.9729233  26.8991041   9.1378889  11.8439233  26.0788226
  10.5204688  12.1205544  26.6292167   5.6207582  80.9760094  53.0049467
   5.4896542  81.9240642  53.0202961   6.5134165  80.8524060  53.3276129
  40.1789618  37.4231768  19.1709280  40.3083849  37.2958708  20.1107550
  40.1583672  36.5369606  18.8097799  45.9705877  25.8977103  71.2872505
  45.9399271  26.3896132  72.1078110  45.1468515  25.4105186  71.2691307
  68.0641222  19.4003403  58.4474897  68.7743139  19.9142981  58.8318157
  67.3086929  19.5794570  59.0073776  80.6076145  20.8486319  47.6960897
  81.0616779  21.5993977  47.3134613  80.9612942  20.7813764  48.5830069
  30.6306359  88.4027126  67.5728512  30.3075978  88.8766494  66.8065214
  31.1470649  89.0491698  68.0541277  46.6940832  19.2702341  49.4870949
  46.6717815  19.7583103  48.6639786  46.2015200  19.8143065  50.1015854
  29.6751591  72.8656858  69.5934010  29.6182009  72.6468295  70.5235004
  29.2796752  73.7348479  69.5272064  78.2806038  76.7965144  44.0325356
  77.8117954  76.0620958  43.6362028  78.9878713  76.3878971  44.5315695
  76.8420051  78.1900746  29.8838568  76.6751586  78.2059878  30.8262682
  76.4543544  79.0024364  29.5582366  12.2536418  74.3249851  32.4062848
  12.1906325  73.3946985  32.1898890  11.7265937  74.4226533  33.1993246
  76.5622854  46.1975288  23.2642484  76.7703009  47.0264721  22.8331852
  75.6059361  46.1576605  23.2579303  32.3074841   9.9840140  52.0089102
  31.6491151  10.5024326  51.5462780  31.7995071   9.3754059  52.5453663
  52.0891953  14.6766925  29.0972137  52.8259563  14.4106257  29.6473193
  51.8208504  15.5250180  29.4501543  20.6991100   0.9690084  36.9099522
  20.3841996   1.2236687  36.0426497  19.9203503   0.6436619  37.3615217
  67.3354197  11.3038099   0.6751359  66.6555119  10.7808602   1.0999668
  68.1415987  10.8067524   0.8138512  52.8287312  83.8048655  51.6765165
  52.5677106  83.3135956  52.4554586  52.3473355  83.3912325  50.9600019
  10.6934973  74.7815567  43.6290836  11.1470744  74.3129116  42.9284620
  11.3914010  75.0590688  44.2225027  54.1635132  18.2777119  43.2137346
  53.4035110  17.7127993  43.0740881  54.4286537  18.5444355  42.3335123
  31.8824625  25.8647609  47.0842028  31.5794349  26.5916014  47.6283598
  32.8352356  25.8784723  47.1751499  30.4706141  71.9324714  47.9975128
  30.5210921  72.6543766  48.6240387  29.5380112  71.7224783  47.9486895
   3.2141778  38.1216949  75.1580620   4.0154406  38.2218641  75.6720448
   3.3838960  38.6097521  74.3523169  63.9640951   7.4352378  22.2240305
  64.4881058   8.2006806  22.4601245  63.3148813   7.3643196  22.9238319
  57.0088959  13.8769042  29.0043116  57.7352953  14.4671714  28.8038969
  56.4593601  13.8987768  28.2208824  71.9266465  70.8942690   7.4651130
  71.9129518  71.0222974   8.4136184  71.1168102  70.4204479   7.2756656
  58.9279890   8.9833647  43.9675999  58.7222958   9.5381361  44.7200298
  58.8505745   8.0894005  44.3008661  65.0914764  15.6574368  35.4526281
  64.3340015  16.0054779  35.9230876  65.6075668  15.2128863  36.1251283
  55.3311586   5.1928502  55.9973860  55.2496576   5.5761564  55.1240778
  55.7285595   5.8845425  56.5264130   3.2313097  53.1376982  34.7549486
   2.5824636  52.5805998  35.1849174   3.8549700  52.5236750  34.3673158
  28.9623639  73.5849744  28.5557103  28.9851233  74.4852728  28.2314014
  28.4945056  73.6422568  29.3888140   8.3220482  26.3675237  41.8928194
   8.1216222  25.4631639  41.6515875   7.6660877  26.5901971  42.5534010
  73.4330034  10.6945181  46.2642908  73.5081005   9.7511429  46.4079380
  73.4948063  11.0758173  47.1400881  63.7620235  53.5196584  19.4993091
  63.9831059  53.6827439  20.4162359  62.8303286  53.7299746  19.4365132
   1.1714853  24.9756065   6.5971263   0.6982912  25.2594080   5.8149703
   2.0852102  24.9202111   6.3173564  48.9951992   2.8205740  45.6899881
  48.3734465   2.6007882  44.9961948  49.5619774   2.0520407  45.7559681
  60.7007027  29.0961170  27.8733373  60.7166576  29.8027682  27.2278738
  61.3403845  28.4617710  27.5498605  59.9907637   6.3961482  55.7458258
  60.0263262   5.5995339  56.2753296  59.4200325   6.9859082  56.2384558
  23.8431164  67.6205534  50.5722332  23.9889714  66.7300624  50.2528906
  23.0955598  67.5429863  51.1650038  24.4092379  12.9114401  13.6432695
  23.9627467  13.6189795  14.1083169  25.1113711  12.6414502  14.2351675
  52.7088881   3.8995725  48.9448166  52.8480625   2.9525566  48.9399576
  52.8949833   4.1736168  48.0467653  23.8388562  25.8879495   6.4997047
  23.4411335  25.2471519   5.9102756  23.1886482  26.5871620   6.5672469
   1.6861388  73.3022815  37.6708961   1.2950584  72.4637836  37.9162717
   1.6786501  73.8156086  38.4787774  84.2626572  23.0366945  23.8806987
  83.3385468  22.9929924  23.6350679  84.7253704  22.6367426  23.1443810
  63.2732677   3.9374617  52.6585674  64.0754795   4.4518435  52.7485371
  62.6847649   4.4980109  52.1529150  39.1764355  24.8023438  44.0594053
  39.2004991  24.6375942  45.0020170  39.6103311  24.0420413  43.6722231
  37.2297427  76.1504215  16.8711460  37.8035876  75.4104680  17.0696378
  36.8296334  75.9246975  16.0313880  29.9136492  81.4595926  53.2707310
  28.9737698  81.2932604  53.1986952  30.0184056  81.8753260  54.1265488
  74.5592414  60.3168791  41.3833380  74.5867180  60.1022857  42.3157692
  73.7267362  59.9556798  41.0788679  39.6983862  41.8411112  53.3036900
  39.7759914  41.9737625  54.2484713  40.5966425  41.6928864  53.0080557
  26.5322590  31.1965632  23.7251639  26.1709929  31.6629243  24.4789720
  26.9779468  31.8734598  23.2158470  33.3874726   5.5678296  58.0869007
  33.6316919   5.4828042  57.1652937  34.1588187   5.2677637  58.5677481
  11.7590437  15.2633059  18.9108944  11.0614214  14.9638629  19.4938982
  12.0918856  14.4629467  18.5048497  55.2774242  34.4541356  17.1423610
  55.8523992  35.2194020  17.1413406  54.4655922  34.7650501  17.5429805
  40.9838009  12.6240575  46.6689444  40.8070278  11.7171633  46.9189978
  41.5702438  12.9506934  47.3513079  64.2265034  35.5169606  27.6002884
  63.5781431  35.7338309  26.9303441  63.7770462  34.8998690  28.1777120
  52.6875684  88.3893575  31.3568807  53.1794068  87.6894947  31.7864323
  51.8167874  88.3475782  31.7521453  63.7466288  17.6113451   7.9237574
  63.2520962  18.0260539   8.6306417  63.8837671  16.7124367   8.2227379
  14.4942904   3.9218765  74.5384979  15.3992844   3.6581105  74.7047663
  14.0159452   3.0970150  74.4547081  61.6547537  35.3674054  22.0798111
  62.0555830  35.8283806  21.3428783  61.4507389  36.0571289  22.7113891
  25.0351167  22.1536684  23.9428854  25.7405138  21.5282845  23.7769294
  24.2517734  21.7297173  23.5923529  65.5183887  33.5336733  18.2905161
  65.8360195  33.7379742  19.1700637  64.8883104  32.8251863  18.4219670
  76.4483129  88.8476926  34.3379760  76.3276027  88.9417529  33.3930874
  77.3390089  88.5103233  34.4332361  44.1189814  22.1241641  30.5603957
  43.9557171  22.8360868  31.1790586  43.8604164  22.4811888  29.7107434
  67.5195599  27.2149873  14.7234035  67.1303272  27.4032211  13.8694131
  68.3667231  27.6601458  14.7038639  70.3267860  16.6147316  51.0169697
  70.6026745  16.5197766  50.1053238  71.0898829  16.3441622  51.5275669
  37.0863152   5.3341120  44.4971085  36.9133329   4.3952435  44.4275761
  36.6353393   5.7171166  43.7446737  28.2162809  32.1477485  73.1292915
  28.2905769  32.7910185  72.4243689  28.8240433  32.4571776  73.8009405
   7.3876643  24.3151617  53.4190178   6.9634312  24.9623728  53.9823818
   6.6655356  23.8912964  52.9552269  12.0600888  85.1947430  34.0103078
  12.5920912  85.9264374  34.3230820  11.8487689  85.4221195  33.1048369
  13.8625142  64.9159163  33.7393022  13.7171027  65.7345980  34.2134881
  14.3484589  65.1755565  32.9565668  65.0105572  24.7405505  32.3005557
  65.1853848  24.5136786  33.2138968  64.0611553  24.6580267  32.2107768
  27.4157473  77.9320556  62.9546404  27.1430442  78.4416836  62.1916580
  27.4534079  77.0292967  62.6386690  32.2176167  72.6001292  33.9726233
  32.1023843  73.5492974  34.0177202  31.6676184  72.2583276  34.6775413
  65.9776258  16.9632208  22.1150804  66.4164114  16.3320684  21.5446877
  65.2246571  16.4868677  22.4648762   8.6603877  87.5652112  17.1674907
   8.8315913  86.8895355  17.8235281   8.6450192  88.3831461  17.6644599
  92.9930698  87.9786275  27.5132585  92.1984493  87.5098257  27.7682805
  92.6769625  88.8059821  27.1502256  11.5134331  71.7029709  19.0822387
  12.0309350  72.2360080  19.6858084  11.9851109  70.8715540  19.0322411
  77.5535154  11.3935637   3.1677157  77.6260138  10.7161689   3.8401091
  77.3920870  10.9103549   2.3573563  39.7106644  70.8379203  60.4044676
  40.0047776  70.9374064  59.4990206  39.8638245  69.9147946  60.6059933
  90.4011440  20.6379056  22.3870230  91.1715794  20.8415937  22.9172659
  90.3281784  19.6843266  22.4269700  78.6275561  66.3948897  62.9117958
  79.0571340  67.2464994  62.8314440  77.8255637  66.5764621  63.4017615
  16.4602086  74.3886608  60.3669310  17.2105548  74.6576446  60.8968925
  15.9987923  73.7507743  60.9113836  20.2749440  64.5470399   6.7060411
  19.7993418  65.3626889   6.8633872  20.4130694  64.1782063   7.5784594
  41.3572359   0.9941772  38.7550116  41.1827326   0.2996078  39.3901134
  42.0178843   1.5437591  39.1765928  86.8661690  42.6562786  22.0573330
  87.6132870  42.9143333  22.5971913  86.6282177  41.7862844  22.3778272
  69.6242905  14.9728298  44.2119741  69.8753786  15.0844109  43.2950592
  68.9364243  14.3074703  44.1926765  54.1376638   5.6109601  35.9008098
  54.2328453   5.2860403  36.7961311  54.2719126   6.5559149  35.9734035
  90.1961453  85.9816459  51.0041801  90.5829509  86.7019037  51.5020244
  89.2647441  86.1969999  50.9557692  24.9022031  13.3120859  33.7725139
  25.5307198  13.3130682  34.4944525  25.3501821  13.7746871  33.0643129
  39.2999077  12.2947896  32.3162222  39.2249942  13.1354010  32.7678776
  39.0678811  11.6449428  32.9796171  43.2105255  26.9805431  25.5189443
  43.7438107  26.1861610  25.5471349  42.4074507  26.7141414  25.0713539
  24.1598317  79.8851585  48.6168575  23.4221837  79.6141398  48.0703592
  24.9341342  79.6813333  48.0923176  75.9610854  86.3472569  52.2076321
  75.4475974  87.0174342  52.6586580  76.8206953  86.3813466  52.6273203
  62.0478773  15.8466935  32.8104472  61.4872932  15.4439783  33.4736204
  62.4026728  16.6261554  33.2379866  76.0923195   3.2706144  21.7777491
  76.4346170   3.4159616  22.6597571  76.6220284   2.5529313  21.4305115
  33.4091517  54.9614018  52.7355003  34.0072390  54.3982929  53.2268620
  32.5359437  54.6621364  52.9888248  17.1196948   3.4446633  27.4173903
  17.3659430   4.1677776  27.9941916  16.7346869   3.8699374  26.6511369
  15.6785560  25.2767444  24.8359919  16.6158986  25.2364016  24.6462727
  15.4074168  24.3609524  24.8995423   0.3656551  86.7863095  10.8410859
   0.6137416  87.5091831  10.2647722   0.7041761  86.0047430  10.4042935
  47.2113895  31.6982770  40.0897408  47.6784372  31.1455560  39.4631648
  46.2968922  31.6574430  39.8099947  14.8857877  86.4848334  27.0531774
  15.4991624  85.7638687  27.1953464  15.2380654  87.2055188  27.5754261
  49.2241621   3.4779999  11.4353716  48.5434055   3.9348942  11.9293845
  49.5079994   2.7716663  12.0156848  54.0984058  32.5645399  53.1503630
  55.0504112  32.4721360  53.1132555  53.8718128  32.3479247  54.0547800
  47.5564384  18.7094641  39.8070669  47.8145504  17.8214192  40.0540257
  47.9245949  18.8312638  38.9319324  58.0424786  20.2377295   3.6967972
  57.3078918  20.4859543   4.2580479  58.7213802  19.9467194   4.3055937
  71.1013699  14.9173594  31.1732244  71.5046358  15.4744387  31.8390107
  71.7114878  14.1870010  31.0704374  20.8673856  34.9461693  30.5325127
  20.0153109  34.7446102  30.9192586  21.1806103  34.1078418  30.1929045
  46.6521931   8.0601752  25.7935381  46.7896700   8.0781406  26.7406440
  46.3767862   8.9503616  25.5745649  24.9758339  18.8513923  40.0430536
  25.6060028  18.1332028  39.9854088  25.4561973  19.6173334  39.7287011
  83.2697092  57.8171724  42.7317715  84.1880547  57.8742832  42.9956150
  83.0453526  58.7045497  42.4516726   7.5140582  22.7951360  22.9724646
   7.3573790  22.4889183  22.0792055   8.4487925  22.6470709  23.1159306
  28.9299676  48.8393634  29.4703937  29.5069739  49.1242617  30.1790023
  29.5198151  48.4592098  28.8193965  86.9003871  73.5773006  14.9813064
  87.0050243  74.4164982  14.5329364  86.4836124  73.8007203  15.8135398
  24.4628522  70.1963156  37.3025560  23.6408898  70.5384177  36.9510198
  24.6125409  69.3857557  36.8159175  67.6724529  12.8314066  44.9137211
  67.5000572  13.3945704  45.6682777  67.2423363  13.2734370  44.1817093
  25.1916835  86.4620404   3.6000547  25.5864712  87.2656128   3.2614604
  24.5664784  86.7619350   4.2599097  34.2739913  88.0546788  60.3357315
  33.8743207  88.1506886  61.2001848  34.4069239  87.1119431  60.2366877
  53.3794022  26.8496823  61.5050173  52.7718306  27.5663304  61.3219786
  53.7177849  26.5972400  60.6459475  30.5060384  77.0894223  56.7244720
  30.8259150  76.3322788  56.2339211  30.6711432  77.8354901  56.1479712
  73.5764027  30.5101156  55.1283264  72.8217554  30.7067680  54.5732927
  74.3121195  30.4481959  54.5191336  52.7890921  22.1473575   5.5036920
  52.1066618  22.5665522   4.9794805  52.3650551  21.9563603   6.3403195
  58.5964918  21.3195729  40.7020950  59.2688608  21.6893315  41.2743139
  58.6491966  21.8421268  39.9018502  89.3438848  71.3088492  68.8817350
  89.6183665  71.9198850  69.5654945  89.0209373  70.5445865  69.3590592
  59.8786402   0.0989711  47.4341106  59.5938492   0.7174326  48.1068897
  59.9527025   0.6270809  46.6392231  62.4906445  36.4149189  31.3026237
  63.1455708  35.7844567  31.0029268  61.8736410  36.4839339  30.5740809
   7.2716543  80.9388924  65.0347376   6.5011498  80.3988177  64.8590279
   7.6368353  80.5793703  65.8432055  39.5425078  74.0982205  31.2416148
  40.1863858  74.2278463  30.5453062  39.5884034  73.1627518  31.4391589
   6.6721354  32.3389387  13.1224453   5.9600172  32.5932765  13.7093353
   6.9800101  33.1641912  12.7477407  90.9893990   0.7846856  27.3398685
  91.0112858   0.7510039  28.2962251  90.4377460   1.5408087  27.1393991
   4.9240467  87.6055583  31.6141605   5.2769014  88.3683624  31.1560607
   4.2107102  87.2988316  31.0544276  64.3692446  10.6072509  33.3655238
  64.7896576  10.1426482  32.6418996  64.6194029  11.5226150  33.2399726
  23.6453912  77.5884956  14.8100734  22.8039405  77.3930913  14.3977571
  23.4606311  77.5757891  15.7491863  66.4104366  19.1588151  40.3228569
  67.3611307  19.1403723  40.4327202  66.1302328  19.9443269  40.7926321
  84.8903465  17.9744279  34.3991351  84.5539570  17.4091482  33.7037730
  84.1069698  18.3308935  34.8180294  19.4200826  39.0853429  46.0134554
  19.9869609  38.5591960  46.5774155  19.7986782  39.9638844  46.0460186
  25.3597921  59.1689757  46.9669144  24.5154565  59.5396701  47.2236602
  26.0054201  59.7980014  47.2889749  92.6488590  21.4789581  31.5439320
  92.7085781  21.0994744  30.6672001  93.5263634  21.8195295  31.7177844
  78.0741644  19.6044052  46.9515181  78.0287790  18.7317550  47.3422289
  78.9254045  19.9456251  47.2257280  61.4787388  22.3569226  15.1638794
  60.7770014  22.8574276  15.5801594  62.2378778  22.9392600  15.1926947
  15.1372347  30.6158304  23.2328081  14.2037020  30.6749654  23.0297184
  15.3202353  31.4008331  23.7490559  79.4995832   3.7901807   2.5202501
  79.1354275   3.0464482   2.0401634  80.2984428   4.0151459   2.0433313
  67.3150682  17.6116443  54.6449518  67.7973270  17.1906781  55.3566027
  67.4670935  18.5478961  54.7736073  65.6783390  18.6588502  35.4792333
  65.3627253  19.5611191  35.4289389  65.5040836  18.3941519  36.3824511
  83.4031200  48.4921074  28.0166817  83.3025742  49.4439030  28.0023193
  83.2636642  48.2228041  27.1087956  56.9362068  20.6023526  45.6064081
  56.0703611  20.7244134  45.9958315  56.7794180  20.6237626  44.6623802
  81.7330265  43.1550121  18.2930899  81.9624996  42.2316027  18.1887496
  80.8450317  43.2222748  17.9421294  61.1837387  32.9461288  54.9787569
  61.5816021  32.1699238  54.5844984  61.8414831  33.2646441  55.5969381
  26.4113757  88.8571339  41.3544846  26.4174649  87.9029289  41.4298964
  26.2989470  89.0227007  40.4184389   6.7071363  65.9616679  30.8507252
   7.3546979  65.8794421  30.1506281   7.0591494  65.4318780  31.5660167
  83.5168648  36.3804865  22.9584336  83.5211372  37.1889734  23.4708405
  84.1942310  35.8376598  23.3618474  87.7980804  22.3381662  40.5747271
  86.9594669  22.7430677  40.7961035  87.7841091  22.2647619  39.6204472
  33.4794116   2.5441608  25.8419037  32.7661109   2.4459678  26.4726090
  34.2344975   2.1401006  26.2694669  72.8642607  25.2356124  37.3884511
  72.4489689  25.9248233  37.9068637  73.0119514  24.5236850  38.0110097
  58.2355213  30.5985737  26.6320682  57.4388409  30.1869583  26.9668913
  58.1364965  31.5251637  26.8508315  29.1099977  20.9381080  49.0858603
  28.5966492  20.1314092  49.1299295  28.4568548  21.6338634  49.0113020
  78.4610319  27.2295880  38.5839629  78.0394983  28.0721545  38.4147811
  77.9301023  26.5951777  38.1024361  47.9318425  84.7911811  42.0370626
  48.0986926  85.2669069  41.2233782  48.3200404  85.3394148  42.7189493
   9.8221490  82.8143793  28.9249420   9.9293944  83.6838388  28.5392332
   8.9829537  82.5035381  28.5853004  50.9124899  28.0220199  70.0471020
  51.3224268  28.7532592  70.5091381  50.1515293  28.4087634  69.6139765
  85.6373882  40.9437799  32.0013213  84.9471569  40.3441477  31.7180300
  85.2231884  41.8066835  31.9933128  59.9511623  23.7374353  31.9120431
  59.3740559  23.9987779  32.6295972  59.5790672  24.1615582  31.1388063
  75.8574724  21.7912936  30.0473976  76.0722351  22.6009846  30.5105495
  75.4315233  22.0823312  29.2411113  86.2805176  32.0381498  33.3501434
  86.7562962  31.7706943  34.1364884  85.3592014  31.8968463  33.5679722
  28.8000342  75.5405694  49.0553713  28.5093638  76.2766629  49.5938015
  28.1738564  74.8422176  49.2462540  64.1417408  26.0892320  58.8013744
  64.3959618  25.4807305  58.1075954  64.9525881  26.5432882  59.0306997
  85.6004524  50.2484798  26.6123676  85.2910614  49.8503685  25.7987261
  85.0750542  51.0432100  26.7050695  60.4421186  25.8753228  11.6793501
  60.4972410  24.9727488  11.9932866  61.0081911  25.8955169  10.9077382
  73.2854939  46.8314505  56.1907673  73.1359339  46.3180399  56.9846678
  74.1290951  47.2592545  56.3375759  37.9370713  17.9493272  23.6335421
  38.1199336  18.5036063  24.3922043  37.7811718  17.0804763  24.0037107
  50.6081390  16.4892912  38.0937815  50.6481361  16.9599628  38.9263058
  51.1755657  16.9902885  37.5078988  28.2142997   8.3908904  16.3876414
  29.1431069   8.5937560  16.4989698  28.1756353   7.8823090  15.5776525
  57.9950809  50.1060724  23.9807701  58.1621885  49.9434423  23.0524063
  58.7656164  49.7558022  24.4277811  65.0123501  19.6270692  23.3757877
  65.2173948  19.7661734  24.3003631  65.2508068  18.7145925  23.2122254
  66.2335205  13.8766873  47.1488762  65.6115580  14.2860556  47.7503824
  65.8929920  12.9917514  47.0178795  68.9428282  34.5720911  26.5472913
  68.6959887  33.6798596  26.7906547  68.3722019  34.7855377  25.8090115
  81.2553120  39.8689723  50.7256746  80.9956646  38.9707208  50.5208349
  81.7879581  39.7897696  51.5170288  65.9210062  25.3280497  37.8974891
  65.0029993  25.2821255  38.1646776  66.3492918  25.8229041  38.5960031
  65.2655315   7.3112184  46.7995310  65.1395655   6.7168319  46.0598898
  64.8359489   6.8734789  47.5344276  39.4709253  58.9869928  32.2487044
  39.7302842  58.2777119  31.6605830  39.6170974  58.6354589  33.1269360
  19.4271288   8.6743677  69.0103722  19.8665057   9.1653311  68.3160162
  18.5305796   9.0096968  69.0103292  70.5749655  40.0178099  23.0578399
  70.2393866  40.8152342  23.4673858  71.0242939  40.3239870  22.2700644
  53.3943701  29.2924237   5.0753027  52.7004957  29.1201973   5.7117856
  53.1378889  28.7926579   4.3002644  55.0243664  19.9258101  25.4783463
  55.0828028  19.0668738  25.0599623  55.2661085  19.7648966  26.3904309
  66.9658566  23.4310818   9.4346547  66.2012720  22.8752065   9.2841750
  66.6820002  24.3058205   9.1691500  60.4425907   1.4662269  32.0813131
  61.2386370   1.7489406  31.6311836  60.7122612   0.6984440  32.5853181
  10.3030726  84.3991569  49.4213486  10.1055333  83.5059655  49.7031641
   9.5381972  84.9091351  49.6880341  62.4252701  19.7348821  29.0984273
  63.3049965  19.7202504  29.4753838  62.0527077  20.5663013  29.3919826
  31.7821479  21.2897229  48.2224321  32.2747207  21.5001965  49.0157175
  31.0097837  20.8202815  48.5375643  53.0059862  23.9864492  36.6540551
  52.5215721  23.6937141  35.8821249  52.3518229  24.4314814  37.1927977
  62.2334099  24.2621851  37.0710659  61.9741297  23.8529444  37.8966117
  61.6804266  25.0407505  37.0056343  57.7270317  22.2290444  37.9381490
  57.3344278  22.1419334  37.0695257  57.0192146  22.5644183  38.4883738
   8.4799427  78.9320901  76.2364790   8.6429542  79.3838409  75.4084800
   8.8717454  79.4997242  76.9001942  61.1404228  27.2361875   4.3951619
  60.6222773  27.7922320   4.9770302  60.5297089  26.9766951   3.7052917
  84.2093945  30.5856156  19.9142730  84.6708870  30.5836272  19.0756714
  83.5262775  31.2479925  19.8101604  44.0476418  18.8051057   8.3045471
  44.5170164  18.2074487   7.7225441  44.4518089  19.6585560   8.1480110
  36.3987827  20.1743865  47.7452183  36.0304022  19.3678081  47.3847198
  35.6527972  20.7707500  47.8091717  76.4105781  47.5076231  74.3118013
  76.0304578  46.9182742  73.6603366  76.3406642  48.3771920  73.9178554
  77.8071308  12.5608408  44.7043562  77.2253799  12.7533996  45.4396915
  77.2386599  12.5913465  43.9348507  48.7745571  16.8637204  28.9029217
  48.5160780  17.3214817  29.7028446  49.2208529  16.0752499  29.2117357
  13.1657195  38.6261797   6.1686552  13.3719456  38.8083196   7.0854580
  12.5428569  37.9001641   6.2029332  69.6316433  16.5523994  29.7014236
  70.0291824  15.9055650  30.2843451  69.8614645  17.3970628  30.0886679
  12.9710528  70.9027594  66.5425682  12.7906510  70.0331432  66.8995762
  12.1365258  71.3668388  66.6091299  77.0457792   8.5374993  68.0977726
  76.4151764   7.8328991  68.2464647  77.9000378   8.1082159  68.1446028
  19.1427241  18.6093390  57.2178650  18.3288966  18.1632829  56.9834328
  19.3689166  18.2580149  58.0790520  93.6893082  28.8526607   3.0145586
  93.9037991  28.0502057   3.4902602  93.9651299  28.6786032   2.1146360
  19.5708704  24.1810393  35.9456491  19.4458318  24.6319985  36.7806530
  20.1325369  23.4355521  36.1578083  68.5376740  28.9587808  27.9680181
  68.2793808  29.6803546  27.3945665  67.7309608  28.7115049  28.4200215
  75.0457335  26.3815212  15.0397336  75.0570965  25.6372404  15.6415212
  75.3965521  27.1096039  15.5526233  77.3320866  22.3809147  15.7846916
  78.2585430  22.1773529  15.6563282  76.9562960  22.3516965  14.9048281
  10.0985712  73.1011441  63.9733843   9.4882530  72.4629834  64.3428401
  10.3555339  72.7267984  63.1307296  65.8797693   0.8438253  15.7222033
  66.3961124   0.1752726  16.1723804  65.8883858   1.5938351  16.3168812
  56.2704372   8.2616842  28.6448908  56.3537788   8.4178001  29.5855904
  56.8153572   8.9369839  28.2408309  63.7235737   4.8121834  18.6360979
  64.0139151   5.6077123  19.0822685  62.8574657   4.6344164  19.0028274
   9.7152421  83.5717326  19.7007859   9.6614596  83.0498201  20.5013776
   8.8936040  84.0623122  19.6790349  89.9603367  14.3128514   4.4122860
  89.2177963  14.8957574   4.2538884  90.5788994  14.5169103   3.7108827
  49.4088602  21.9690442  29.7644377  49.2599916  22.9116249  29.6895456
  48.6231422  21.6361809  30.1981235  64.4867325  29.2101812   3.2875013
  64.9459934  29.9487734   2.8877595  63.6884737  29.1149426   2.7679393
  80.3998756  24.4029737  27.5587535  79.4920254  24.3097997  27.8474689
  80.5480862  25.3483486  27.5358224  77.7142572   9.4100481  34.4142628
  77.7433205  10.3668010  34.4108295  78.1475782   9.1601932  35.2303743
  58.4929705  41.4797211  15.0979698  58.1757402  40.6656504  15.4889774
  58.4577084  41.3219357  14.1545224  17.3497149  83.8117951  51.2985086
  17.9468152  83.8189864  52.0466042  17.6929423  84.4855785  50.7116175
  27.7951905  88.6821688  55.7271242  28.5834166  88.1393191  55.7425642
  27.2264907  88.2977091  56.3942146  49.9920845  22.7127862  16.5674984
  49.1578436  22.7483225  16.0995138  50.0465012  21.8139625  16.8921328
  67.6986027  23.2566810  39.4856191  66.8213797  23.1859159  39.1091895
  68.2620907  23.4691095  38.7415838  64.6251440  61.0129070  24.1125679
  65.3997374  61.5046406  23.8397336  64.9611044  60.3554916  24.7218084
  71.8391323  13.7554741  54.9587107  71.0667562  13.3000326  55.2937365
  72.4414587  13.0543756  54.7099304  47.7816629  12.6766586  59.5138836
  47.2494841  12.1339750  58.9320612  47.2785854  13.4847784  59.6143150
  47.0127344  26.9142818  30.6435704  47.5919199  26.5955377  31.3357973
  47.1783686  27.8563571  30.6075811  66.3508892  35.9698129  25.4937005
  65.7754230  35.4598856  26.0638309  65.7880640  36.2457561  24.7702956
  42.4429509  73.2581514  31.5910244  42.0521018  72.9184669  32.3960590
  42.2611329  72.5859123  30.9343147  68.4657478   0.9001397  68.2896090
  69.1895342   0.3446596  68.0001163  68.7283802   1.7857789  68.0388117
  67.0945692  23.4834576  36.2702131  68.0115891  23.7116122  36.4227009
  66.6071177  24.0200949  36.8952274  80.5790520  49.3213463   8.1374139
  80.2888584  48.8017654   7.3877126  79.8156261  49.8483038   8.3735108
  58.2567930  37.4613547  35.6336737  59.1527462  37.5397182  35.9613395
  57.8475189  36.8140531  36.2078929  71.6068506  36.9849396  53.3668518
  70.7458544  36.5722513  53.2989597  72.0932722  36.4259577  53.9727926
  63.0137682  56.8825865  48.2366371  63.9295292  56.7266273  48.0057812
  62.5653601  56.9653893  47.3950291  44.1513678  74.7818333  58.3008242
  43.4681889  74.3272251  57.8080511  44.6976611  75.1919764  57.6303196
  45.0849247  37.1645832  24.9133158  45.9718943  36.8180370  25.0103903
  44.6422291  36.5339851  24.3453383  59.7932768   9.3772084  38.4992480
  60.7200480   9.2511433  38.7028098  59.7924995   9.9410307  37.7257252
  52.3741388  20.0894284  51.4469910  52.6980305  19.2209744  51.2080050
  53.1105661  20.6757951  51.2735462  83.2940483  39.7408819  44.3231869
  83.2014751  39.2236280  43.5231161  83.4318733  39.0920281  45.0132799
  40.9994119  85.0326684  76.6317073  41.6907972  85.1413778  75.9787166
  41.2280076  84.2241386  77.0902410  57.9319286  24.5079565  14.1858160
  57.1308899  24.4832039  14.7092223  58.1428385  25.4389143  14.1146052
  62.3360109  39.1072536  21.2122989  63.1125832  38.6214924  20.9344482
  62.6558018  39.7028399  21.8899703  43.2794615  80.9032500  11.6214192
  43.5921046  81.0630673  12.5118923  42.4378392  81.3571423  11.5779901
  27.7208376  19.7721982  19.9863839  28.2685399  19.9592507  19.2239761
  27.4885917  20.6341887  20.3317308  37.1269366  83.6015022  54.5557928
  38.0622336  83.6273348  54.3538380  36.7569539  83.0086178  53.9017010
  72.5633669  29.2404985  29.3934608  72.0254374  28.5061264  29.6893692
  73.4332752  28.8629770  29.2631769  51.3549757   8.1110638  28.6171532
  51.2727356   7.4503136  27.9294920  52.2813892   8.3517128  28.6085200
  62.9546118  13.5579216  45.3582048  62.1022654  13.7365305  44.9609137
  63.4254837  14.3891728  45.2987576  81.4157677  32.8171802   2.0370422
  80.7185555  32.1652222   2.1083274  82.1670532  32.3286247   1.7007105
  64.1577005  29.3147039  28.6174965  63.7481117  28.5176229  28.9538431
  65.0970793  29.1640973  28.7229037  93.2445431  10.4623353  35.2434540
  93.2944107  10.6823647  34.3132234  92.3396778  10.1789129  35.3743625
  42.9366302  10.1941013  15.3893435  43.6223221  10.8059037  15.6572127
  42.1213865  10.6108463  15.6685114   7.6525494  85.3119457  20.0233722
   7.0668122  85.6155941  20.7168722   7.1896836  85.5185291  19.2113936
  56.6094685  19.9476171   7.3617232  56.1256313  19.3333483   6.8096304
  57.2502136  20.3457355   6.7725003  81.8702888  13.0365586  26.4291668
  81.7047405  12.6226473  27.2762203  81.5765572  13.9404631  26.5427899
  11.4365302  26.1987543  11.3638818  11.3339148  26.7743731  12.1217513
  12.2401343  25.7099581  11.5414369  85.1663303   5.7131547  41.7655516
  85.0532055   5.2069700  40.9610605  84.3484402   6.2017405  41.8581247
  80.8437522  83.4886029  76.1633253  81.3476451  83.6245635  76.9657197
  81.0332997  84.2591456  75.6280061  85.1908016  29.5659280  31.8051434
  86.0777378  29.2864799  32.0320368  85.2132511  30.5197930  31.8817544
  59.8505449  13.6152494  26.1515450  60.5130577  13.0055118  26.4763975
  59.6446562  14.1688490  26.9047832  55.1660872  14.5993567   8.2792157
  54.9363279  14.2558360   7.4158287  55.6190634  13.8757312   8.7121224
  15.1192757  83.4849769  47.5813198  14.9679658  84.2012632  48.1979799
  15.9197900  83.7324303  47.1185303  53.3984280  11.9913030   7.2006202
  53.2134962  12.4353826   8.0281615  52.5746441  12.0364380   6.7152649
  34.5944667  31.3035154   9.5070606  34.8809958  32.1140790   9.0862030
  34.7729158  30.6214380   8.8596362  47.4472284  22.5510311  43.5290194
  46.7650986  21.9724131  43.1882334  47.4038267  22.4391127  44.4786644
  65.4383564  48.6593723  53.1773901  65.2946568  48.2549906  52.3217869
  65.8842134  47.9846048  53.6893749   5.7409201  10.9189284  23.0408096
   5.3080855  11.4159393  22.3466420   5.5441962  10.0041997  22.8388095
  85.0965817  67.2167781  76.6824001  85.9849008  67.2514084  76.3275499
  84.8906549  66.2828234  76.7218207  36.1310956  84.9843353  31.2176895
  36.6927573  84.7437549  31.9545031  36.6438481  85.6249946  30.7248664
  55.4643631   9.6187925  31.9349098  56.1299133   8.9673036  32.1558905
  54.6318674   9.1664219  32.0710897  61.6481018  29.7414374  32.9420090
  61.5266418  30.5947232  32.5256157  62.5356960  29.7732782  33.2989383
  75.3240871  42.6257372  37.2436690  75.7934284  42.8653717  38.0427456
  75.2424097  43.4468174  36.7585015  82.4555969  36.2613130  15.4495537
  83.0054092  36.7368674  14.8268318  83.0209064  36.1200595  16.2089658
  81.5847111   8.2638896  75.5822992  80.7371044   8.6440277  75.8131552
  81.9178772   8.8276529  74.8841572  61.7236328  15.5723655  29.8881483
  62.0428514  15.4768074  30.7854772  61.4422417  14.6920359  29.6390104
   8.5826979  28.6352205  19.6832323   8.4991656  28.1637383  20.5120611
   7.6975260  28.6379266  19.3189573  66.5483713   8.6904556  37.3113489
  65.8861780   8.6818373  36.6202235  66.5927505   9.6053845  37.5891399
  64.3540096   6.1174440  59.5500231  64.2965269   6.0734951  60.5044842
  63.5733128   5.6574112  59.2416191  41.3822269  14.2878234  19.3404913
  40.9385920  14.6403098  20.1119637  40.6878138  13.8600874  18.8394272
  86.8976342  59.7776931  33.3966708  87.3746525  59.1159981  33.8975167
  87.1601449  60.6103891  33.7890196  19.6090314  78.3498532  32.4960995
  20.1130673  79.1577071  32.5938296  19.8519036  78.0191475  31.6313004
  68.2518101  36.5104008  37.3777843  67.6181507  37.1891522  37.1453905
  68.0390787  35.7766008  36.8011427  42.8550816  21.5320897  49.7058010
  43.1027651  22.1760130  49.0422869  41.9874096  21.8111277  49.9982309
  84.4281769  67.1072340  23.0389452  84.4182110  66.6255903  23.8660789
  85.3550911  67.1666813  22.8075576  38.7786017  69.0218687  48.1914330
  38.2159052  68.4279442  48.6882830  39.6159087  69.0022850  48.6548662
  23.9199648  19.5671749  11.0550916  24.1179285  19.0777779  11.8535495
  23.9397822  18.9094675  10.3599226  69.0174580  31.1774039  50.9144115
  68.2436037  30.7469463  51.2778521  68.7156296  32.0551467  50.6805325
  61.2198544  51.8635130  51.4805365  61.6721296  51.0675669  51.7600965
  61.4552593  52.5167274  52.1394205   0.7905112  54.9165249  24.4571877
   1.0135565  54.7832537  25.3784490   1.6300402  55.0853586  24.0295005
  75.1984692  45.3796291  30.0146484  75.0160408  45.0176001  29.1475344
  74.9420357  46.2994957  29.9489379  68.5047865  59.4087553  21.1873150
  69.3377256  59.1601610  21.5881205  68.7397671  59.6954679  20.3048134
  87.0238876  21.7400742  30.3178883  86.3029003  22.2563386  30.6782842
  87.4844551  22.3450923  29.7364616  74.3845749  16.3993537  20.8815145
  74.0386391  16.0586715  20.0565934  73.6438322  16.3596475  21.4864612
  78.4159565  62.5032854  57.0235920  78.1401730  62.0965385  56.2021685
  77.6979399  62.3263741  57.6313591  83.3283234  31.4882779  51.8090630
  82.6334476  31.7696595  51.2139177  82.8965473  30.8836126  52.4125338
  81.1401653  15.6432045  26.5036631  81.7501736  16.0783243  27.0993090
  81.1392975  16.1915445  25.7190919   7.2492228  64.8475075  43.0172396
   7.7944861  64.2492723  43.5281467   7.2993861  65.6790590  43.4886551
  67.3065472  24.2188573  48.0645800  67.2754765  23.5406542  47.3898125
  67.7857494  23.8150549  48.7881422  83.1393051  45.7631445  58.6394930
  82.4300671  46.3980818  58.7398386  82.7507019  44.9272394  58.8973284
  84.2055321  34.7372603  25.1548553  83.3448982  34.6981764  25.5719972
  84.8139858  34.8993802  25.8757830  64.8952675  80.4998875   6.1043459
  65.3867388  80.3688622   5.2934700  65.2233982  79.8222733   6.6954494
  70.7213783  37.4369931   8.1265348  69.7831869  37.5455952   7.9708600
  71.1340809  37.7230930   7.3116380  14.2191325  36.5481782  71.9692802
  14.4871817  35.7915807  71.4477968  13.4364615  36.8781114  71.5279150
  65.7192659  41.9133615   9.6948642  66.2143755  42.4622679  10.3029764
  65.4852724  42.5018835   8.9771444  75.4650402  18.9975643  22.6219201
  75.1472473  18.3945012  23.2938981  74.6868849  19.2167008  22.1093965
  77.8010559   8.1180716  39.4580865  77.2507143   7.3505580  39.6139026
  78.4150648   8.1255740  40.1923656  28.3237372  34.0017152  39.0170169
  27.6820002  34.6333218  39.3417907  28.0623255  33.1699705  39.4121075
  81.1206245  17.2482097  37.5338531  80.2547836  17.5651896  37.7909136
  81.3178444  17.7199149  36.7246366  83.7346458  17.1396768  26.4671612
  83.9986706  16.9192588  25.5738902  84.5590210  17.2815657  26.9324684
  42.4390507   6.2010640  11.4325547  42.7055550   6.0471928  12.3389375
  42.1102810   5.3536761  11.1324275  72.0846748  19.1827190  25.3839421
  71.3187456  19.2735481  24.8170781  71.7218304  19.1063857  26.2664104
  91.1958599  15.4319298  13.7705839  91.7983818  16.1252522  14.0398383
  91.6903019  14.9201989  13.1303596  93.3005333  23.3725643  19.7951472
  93.5420132  23.8764000  20.5723643  93.9432144  23.6294699  19.1339421
  67.4544287  31.2326097   8.3026105  68.3442831  30.9285712   8.4813482
  66.8981075  30.4830956   8.5146689   4.3766509  74.1368055  30.5187607
   4.8155699  74.4148207  29.7148442   5.0773726  73.7754154  31.0615444
  19.4302569  55.4085207  11.0061157  20.1353751  55.8453894  10.5284286
  19.5396815  54.4804621  10.7988322  90.7229137  31.5339971  46.2558317
  89.9021435  32.0003176  46.4142656  90.5908871  31.0955572  45.4152536
   8.1754408  33.2301068  16.0983503   8.4702692  33.3241653  17.0041430
   7.6029025  32.4631190  16.1112475   0.9580145   8.3577275  73.3275843
   0.5238257   8.4812486  72.4835110   1.2523375   7.4469936  73.3145189
  87.0789337  26.7858243  55.2075338  87.2954941  27.6744747  55.4897308
  87.0863914  26.2699795  56.0138130  81.0913944  47.5678062  35.9143925
  80.7955551  48.3989048  35.5429292  82.0420742  47.6590157  35.9785128
  16.4682780  69.9317217  34.5132732  16.5741549  70.0857735  35.4520440
  15.6381236  70.3544569  34.2933178  69.8421431  72.2260189  30.7196712
  70.4556036  72.9360771  30.9086585  70.3395748  71.4270020  30.8939362
  61.9911480  34.0789652  16.6754329  62.8381205  34.3778133  16.3444376
  62.2089005  33.5247302  17.4248588  70.9272909  19.4750643  62.4103117
  71.5245533  18.9899683  61.8409300  70.1438284  18.9272022  62.4578953
   7.9269801  27.5152540  28.0420327   8.2736693  26.7836046  27.5314140
   8.2901392  27.3889160  28.9186096  81.2303066  66.1942101  45.5981636
  80.9597683  65.2849913  45.7260752  81.5830708  66.4608288  46.4471054
  59.2745876  22.1463490  17.9491711  58.7724638  22.7259421  18.5220373
  59.4129038  22.6582646  17.1522760  89.8114681  18.4525859  42.0809031
  89.0326881  18.0463541  41.7004919  90.0939941  17.8396773  42.7596903
  82.4957561  36.4767075  58.2187176  82.4113846  37.4295449  58.1838894
  82.1030331  36.2319517  59.0566301  60.3091478  22.5130701  38.6443043
  59.4946098  22.1022773  38.3544660  60.0534678  23.4004498  38.8961387
  87.8425789  44.0433645  54.7729635  86.9629860  44.3167162  54.5125246
  87.7268696  43.6611795  55.6428909  69.2367601  42.9696465   0.4695601
  68.3157635  42.9223013   0.7259907  69.4593096  43.8974619   0.5461487
  66.2710094  38.0620718  36.8389392  65.6831741  37.8595591  37.5667238
  66.3800478  39.0123034  36.8764067  40.6987762   6.0111225  45.1407623
  40.8532763   6.9322139  44.9311113  40.8180380   5.5528742  44.3088865
  27.4407956  70.5706352  55.2479124  27.2372910  71.1519581  55.9806347
  28.3913609  70.4639512  55.2836657  89.4725323  61.5988731  31.8007660
  89.8171425  60.9627390  32.4275064  89.6930313  62.4504805  32.1780920
  75.3367612  87.2587112  27.7200699  75.8923909  86.7630532  28.3215976
  75.3989598  86.7846255  26.8908501  30.9249411  52.8406906  11.2111497
  30.5696593  53.7291193  11.2375116  30.3562174  52.3378992  11.7942286
   4.7498808   0.3759159   9.0894407   5.5129824   0.9340000   8.9395940
   4.2940913   0.7857463   9.8246461  13.7265406  18.3488393  39.1633439
  13.2432089  18.1730449  39.9706340  14.4204531  17.6896226  39.1512585
   5.7821665  23.1353140  59.0932798   4.8399268  23.0185676  59.2148352
   6.1256228  22.2453117  59.0147400  -0.0236311   8.1148416  62.1581268
  -0.3197469   8.9818698  62.4352741   0.8793936   8.0589390  62.4706268
   3.0159197  11.1140156  56.4513779   2.7733050  11.9905615  56.1529922
   2.3104868  10.8597291  57.0462990  72.1218491  35.7696581  42.9944229
  72.6791620  36.2285829  43.6229277  71.3082218  36.2737489  42.9830360
  65.8062220  11.4746237  29.5711017  66.1123657  12.2502005  30.0411963
  66.5391779  11.2328863  29.0049100  78.7907410  49.8763609  23.5489082
  78.4805536  49.6123028  24.4150972  79.4832468  49.2491150  23.3410048
  90.2982712  13.1845868  31.3629985  90.8214760  13.4862435  30.6203699
  90.3166771  13.9150012  31.9813728  78.9165878  28.1970692  32.6177478
  79.1036558  28.5873389  31.7639756  77.9738379  28.3153439  32.7337766
  21.1580573  55.0105524  34.7391868  20.9349070  54.6274233  33.8908648
  21.5009127  54.2774677  35.2503347  63.8259459  31.8607092  50.0127935
  63.8351631  30.9108686  50.1308918  64.6504116  32.0546317  49.5668316
   6.5860854  25.9521699  16.6380239   7.2623167  26.5556693  16.9458151
   6.4645396  25.3388429  17.3627901  11.1702452  32.4530840  44.1037035
  11.7757330  31.7162609  44.0218449  11.1000071  32.6017475  45.0466776
  92.5844955  25.3661680  25.0038409  91.7068386  25.5456734  25.3410816
  93.0079365  24.8586106  25.6961679  89.2522144  38.5606289  20.1837730
  90.0800610  38.6692142  19.7156858  89.1068649  37.6146221  20.1970506
  54.5385170  16.8961239  13.0736232  54.2779016  17.7472687  13.4255672
  55.4662561  16.8187928  13.2962167  16.9734869  56.9608259  58.8463259
  16.8564425  56.7766142  59.7783136  16.2472163  56.5064716  58.4193230
  58.7549016  78.4770721  17.2039831  58.1280133  79.1313857  17.5124025
  58.9191624  78.7142700  16.2913024  69.2653561  64.7645664  39.4661617
  68.4544134  64.2670727  39.5715117  69.9603891  64.1272354  39.6303821
  79.0810537  47.2640800  55.8596897  79.4357920  46.3806820  55.9596968
  79.7695541  47.7485037  55.4041338  77.4662066  24.1724443  38.3405495
  78.3859062  24.0086484  38.5492468  76.9830036  23.5471177  38.8806510
  23.4280580  70.1056746  72.6103295  24.2565816  69.8706725  73.0281226
  23.6659711  70.3137186  71.7068098  66.7480659  16.5343368  18.5950017
  67.4179935  16.8553793  17.9913771  66.6011763  17.2622812  19.1989493
  86.2016106  50.2259159  16.9131792  86.6487503  50.8268356  16.3172019
  85.5761719  49.7596693  16.3584960  87.9887199  22.1268129  45.6475115
  87.4807835  21.7404175  44.9341202  87.5559902  22.9620552  45.8245850
  41.4067554  66.7091036   9.3804514  42.1191120  66.8862724   9.9947780
  40.6544590  66.5087938   9.9373686  64.2350578  23.7796879  28.0135417
  63.3336353  23.6769366  28.3186769  64.5373869  22.8855658  27.8542519
  88.6329746  27.3610353  14.9184144  88.5851860  27.8366804  14.0891314
  89.5540333  27.1135521  14.9998498  83.0198956  52.7691364   2.0354164
  82.4517059  53.0698872   1.3262320  82.4381924  52.6908588   2.7915451
  74.6663904  62.5122786  32.0239353  74.2668200  63.0632305  31.3508630
  75.6083965  62.6073694  31.8831635  83.8953495  22.4761534  13.5661519
  84.3292427  21.6294837  13.6716104  84.1218662  22.7524018  12.6781154
  11.3106261  44.5328712  19.0290201  10.6506548  44.4496155  19.7173011
  11.9584284  45.1379108  19.3902814  13.7618889   0.9885699  42.6331615
  13.9130033   0.4615980  43.4178257  12.9258407   0.6730467  42.2900915
  55.7672132   3.2989127  75.2603674  55.6073679   3.1101328  74.3356848
  54.9022402   3.2513720  75.6675386   4.8924838  73.7480354  20.7876158
   4.8415289  74.6740818  20.5508208   4.3084822  73.3100224  20.1684856
  87.8647900  46.8540621  50.9188890  88.5475254  47.4883127  51.1375856
  88.3322144  46.1373854  50.4898071  78.2565451  79.9300432  38.1409144
  78.5754395  80.2263165  37.2884107  78.0850458  78.9959908  38.0210733
  73.2275677  47.5216150  35.7439613  72.5673962  46.9859076  36.1837602
  73.6423302  48.0178022  36.4496565  61.9538164  62.3209238  44.2741966
  62.2288513  61.5578413  43.7659740  61.5069342  61.9526768  45.0363779
  84.7979641  45.1912642  35.0932193  84.2694664  44.6118593  35.6420493
  84.6063232  46.0705853  35.4192615  86.3088512  45.4055738  38.1644106
  86.6143608  44.5098591  38.0209255  85.4719543  45.3034782  38.6176300
  19.4735346  79.9262476  14.9183142  20.0594244  80.1035976  14.1824353
  18.5961066  79.9473095  14.5363486  14.2175303  51.5200043   8.3778125
  14.6096812  52.0804214   7.7082002  13.4268294  51.9869661   8.6479348
  51.0264982  -0.1583379   5.4524279  50.1695837   0.0074297   5.0594264
  51.0421766   0.3935152   6.2343764  86.1072540  31.7950296  44.7609091
  86.1557007  30.8712196  45.0067902  86.8654156  32.1960640  45.1858711
   8.8504610  81.3592815  45.4952145   8.2843028  81.9267464  44.9720716
   9.3779192  81.9633293  46.0178518  82.5884914  87.3666382  18.6080432
  81.9011211  87.7819443  18.0871987  82.1594048  86.6133213  19.0137947
  93.7408543  48.6684513  60.0533867  93.4834766  49.5292902  59.7233105
  94.2408848  48.2770061  59.3371725  90.5173397  42.8827047  17.8631055
  89.8507118  42.7200603  17.1957362  90.0424099  43.3071804  18.5775924
  19.0737734  52.3901844  21.0380673  18.7389193  51.5997553  20.6146002
  19.9221144  52.5436687  20.6221342  66.0689068  60.1856232  12.0990026
  65.6980896  60.1143122  12.9785717  66.1235952  59.2819595  11.7881465
  91.3022900  36.4970016  44.3304443  91.3637161  37.1330762  45.0430965
  91.7207050  35.7086349  44.6763372  15.1765452  69.7972345  45.8793688
  16.1048994  69.8928976  45.6666803  14.7898970  69.4084692  45.0947666
  92.3295116  71.1814165  53.1583118  92.7249050  71.7644405  52.5102568
  91.4325428  71.0533667  52.8496218  10.0280199  38.1659722  43.9406824
   9.8679362  39.0034437  43.5056591  10.9789191  38.1273127  44.0433455
  71.5668917  54.0632105  52.6686287  70.7785320  54.2847395  53.1642532
  71.2472916  53.5477638  51.9280863  90.1520061  57.3919439  41.3804770
  90.6338787  57.3224401  42.2046137  90.2836227  56.5452003  40.9539318
  59.7480392  58.5139894  20.0426292  59.2696667  57.7278566  20.3060460
  59.3166876  58.7980652  19.2367327   2.0602427  58.9062023  54.7949553
   1.2336550  59.1890383  54.4038296   1.8082819  58.2322168  55.4262161
  18.1698142  56.5368366  42.7742577  17.8446875  55.8273125  43.3284283
  17.3816882  57.0021772  42.4939823  83.9962959  46.0504866  11.6870356
  84.1690922  46.9475412  11.4012599  84.8382759  45.7383299  12.0184982
  63.3635537  23.5923573   7.1185763  62.9005448  24.2614075   6.6143687
  63.5834233  22.9176947   6.4761432  88.5244751  49.0543604  32.4655247
  87.7972221  49.6373510  32.2476721  88.2083035  48.5457230  33.2122207
  89.7615433  35.6557727  33.5263133  89.1400337  36.1126113  32.9595184
  90.1057816  36.3377786  34.1030312  88.6006883   3.0197150  45.1450348
  88.0858186   3.4980875  44.4951868  87.9974178   2.8836638  45.8756399
  23.6792670  48.1896496  51.7847633  24.1001807  47.8289318  51.0044146
  22.9077826  48.6473989  51.4508247  86.9225314  16.1889654  22.7233744
  87.7877715  16.3568884  23.0967331  86.9833806  16.5103060  21.8237829
  85.0826600   4.4898516  39.3244934  84.3327478   4.8963267  38.8901591
  84.8659709   3.5579783  39.3543625  12.5664530  43.0625200  56.0461140
  11.7810927  43.1324768  55.5033875  13.2410345  43.5288954  55.5524874
   2.1117367   4.2818552  61.9364262   1.5016855   3.6430556  61.5676403
   2.3391308   3.9273554  62.7959871   3.1404791  69.0507460  65.7061386
   2.6863013  68.3020973  66.0927725   3.1330405  69.7166014  66.3937521
  56.9508839  66.2918425  28.4109068  57.7234793  65.9664822  28.8729405
  57.3046875  66.8037224  27.6835585  26.1817847  87.7280331  48.8125467
  25.9924612  88.5868835  49.1904068  26.9582282  87.8704357  48.2711744
  61.9232559  37.2045064  11.0277450  62.4433899  38.0021667  11.1248720
  62.4013424  36.5442514  11.5294707  57.1141863  78.2477283  56.6261673
  56.6392136  78.9062738  56.1192656  57.7221060  78.7533140  57.1656561
  59.1375446  83.8363934  36.6502643  58.3062649  83.7198734  36.1902308
  59.0928125  84.7245026  37.0045042  92.9457951  68.6185551  33.6094594
  93.6488533  68.7384081  32.9710460  92.8372383  69.4807053  34.0108895
  83.6366653  38.4385157  72.9818916  84.0736389  37.7621412  73.4993935
  83.4928799  39.1563725  73.5985279  91.6164780  36.8896723  35.2162337
  92.3381901  36.5421557  34.6922135  91.9212151  36.8182254  36.1208129
  58.7108326  74.6147156  31.3588381  58.6682034  75.3332710  30.7278943
  57.9140759  74.7070694  31.8812108  25.7148657  67.7744818  67.5323725
  26.0507880  66.8785381  67.5064230  24.8174582  67.7033186  67.2070599
  77.1020603  78.9047670  41.4220524  77.9650593  78.5054111  41.5315104
  77.2710466  79.8468733  41.4324665  77.0547247  67.2565889  46.7907286
  76.5684175  67.3893499  45.9770250  76.8644190  68.0356312  47.3133230
  79.2314771   8.1707579  31.5891576  78.6167529   8.9043528  31.5759277
  78.8529542   7.5301939  30.9869719   0.8002863  34.6440649  16.7193961
   0.1496993  34.9897456  16.1082661   1.4861498  35.3113818  16.7418587
  90.9395504  73.5763884  10.2377152  90.3760529  73.3989096  10.9908473
  90.7242489  74.4738054   9.9836963  66.4989948  66.9623375  30.8916640
  66.8743849  67.7876806  30.5848765  65.5573082  67.0605516  30.7509160
  87.1600628  43.3283520  34.1986823  86.2374973  43.5551310  34.3156672
  87.5138855  44.0352535  33.6589336  89.6997547  72.6540565  19.1041493
  89.8053741  71.7757750  19.4698024  89.5313168  72.5073290  18.1733799
  87.9263687  73.9949846  33.6792040  87.2777367  73.6748695  34.3061256
  88.5695648  73.2887030  33.6183476  76.4598465  52.7889252  22.3715496
  76.1959934  53.3197784  23.1230879  77.2934914  52.3989677  22.6346183
  17.0582781  59.0417862  39.1312504  17.0982275  59.3919468  40.0212049
  16.5068160  59.6620274  38.6543584  67.6007271  64.7729683  67.0282984
  68.2448053  65.3554583  67.4309158  67.9377460  63.8924503  67.1936369
  14.6007122  15.8423334  27.9632807  14.0731968  15.0614744  27.7953172
  14.4446815  16.0428339  28.8861489  71.7444229  44.6412230  55.2152395
  71.2111282  44.3986607  55.9721994  72.1172953  45.4916430  55.4475737
  45.8295549  11.1399275  15.0417435  45.9484304  11.0855013  14.0935135
  46.6555322  11.4984328  15.3664935  93.4505749  58.4298086  44.9573755
  94.2443848  58.2478619  45.4603624  92.8241062  58.7503862  45.6062222
  77.9861736  79.9382734  34.6161819  78.8682699  79.6648026  34.8678827
  77.8464365  80.7596207  35.0874496  74.7877264  65.3310442  19.4562280
  75.5073118  64.8104191  19.0993285  74.0216923  65.0591135  18.9507782
  82.7583694  86.3201809  50.1639080  83.1548309  85.6078053  49.6623468
  83.1001663  87.1173286  49.7589874  73.8071442  79.3799305  23.3381772
  73.5886478  79.4588184  22.4095917  72.9687405  79.2108965  23.7679863
  21.4052306  70.8219767  31.5563178  21.4791403  70.7145452  30.6080413
  20.8481989  71.5924358  31.6673827  49.0811825  74.5823431  12.1600854
  49.4127512  74.7498798  11.2779140  49.8622322  74.5818472  12.7134335
  72.5837564  32.5875258  24.3780231  72.9115534  31.9989181  25.0579691
  72.6621914  33.4617662  24.7598410  59.3812895  53.7107515   4.6602383
  60.2691889  53.6024666   4.3194377  58.8942003  54.1072941   3.9379296
  85.3929138  35.4347873  31.9787550  85.5298328  34.7200584  31.3569450
  84.5868492  35.2008009  32.4389148  77.0836687  64.1978788  24.8336148
  76.8550396  64.1354179  25.7610083  76.4347029  63.6520052  24.3896532
  82.8153419  53.7100601   8.1308317  82.5535870  53.4043884   7.2623360
  82.0949936  53.4480190   8.7041301  75.7091713  79.0140390  14.7798431
  75.7700634  79.3640232  13.8910031  76.4828682  79.3580675  15.2262402
  65.9238717  28.0291185  74.4048916  65.0201222  28.1142435  74.1012265
  66.3916966  27.6494274  73.6611150  72.1745062   3.7631947  19.9673223
  72.1232986   4.2040572  20.8154082  71.6739559   4.3243590  19.3750596
  25.8297361   4.2175585  30.6294894  26.7179311   4.3854624  30.9443736
  25.5863966   5.0164896  30.1618028  51.7509365  64.5152044  60.0842094
  51.4278030  64.6616316  59.1951752  51.0170841  64.1041946  60.5411148
  25.7145609  14.2667109  47.1189165  25.6194509  13.8080794  46.2841463
  25.5716718  13.5906321  47.7812815   3.0973730  51.9844627   3.2834661
   3.4542189  51.2526560   3.7868094   3.3795557  51.8168783   2.3842885
  74.3614054  83.3057976  22.3169923  74.3241215  84.2346859  22.5450373
  75.2718163  83.1584358  22.0607281  30.8199988  62.2010994  57.7587271
  31.0046111  62.8900337  58.3971024  31.5995989  62.1734095  57.2040272
  22.1883501  67.0916024  21.8732722  22.2418894  66.2424078  22.3117145
  22.8229822  67.0328632  21.1591132  79.2207718  73.9727640  48.6299753
  78.3225489  74.2254400  48.4164906  79.1743946  73.0288124  48.7817430
  83.6808109  61.1086464  30.9913468  83.9204025  61.4592314  31.8492031
  83.1778049  61.8102455  30.5778599  53.8154523  46.1037013   8.8054355
  53.8187234  46.1648986   7.8502067  54.6018617  45.6001994   9.0158733
  13.0102263  75.6117678  44.7156811  13.7537108  75.3934860  45.2776670
  12.5527296  76.3099432  45.1841640  57.3130035  63.2416248  58.5224915
  56.6572285  63.1713533  59.2162132  57.7158117  64.0990448  58.6596394
  73.5917680  19.2326257   3.0570109  74.0736596  20.0102469   3.3386596
  72.7954881  19.5775697   2.6530583  23.5017198  84.8237565  73.6966352
  23.8025373  85.4182819  74.3838618  22.8331560  84.2859557  74.1209329
   8.3804522  86.5342808  49.4723940   9.0589724  86.9608974  48.9490938
   7.6027594  87.0776176  49.3450928   4.8686324  51.6018772  23.1386089
   4.2121039  51.7706680  22.4627995   5.6436358  51.3177204  22.6539922
  84.1812801  43.3363771  37.1011710  84.7664738  42.9918718  37.7757740
  83.4339809  43.6846781  37.5874519  69.4802618  81.4207935  52.4877167
  68.9233017  82.1983910  52.5245810  70.0377655  81.5615559  51.7224693
  56.8038034  75.7608652  49.7369671  56.4603424  74.8677635  49.7620249
  57.0095730  75.9125519  48.8145351  57.4371719  72.5047445  37.5238180
  57.8484344  71.8935871  38.1350303  57.4189997  73.3381510  37.9942822
  14.0587610  64.3566802  57.2527699  13.1021398  64.3817988  57.2309701
  14.3212646  64.4305363  56.3352363   7.1188272   2.1053225  53.9196157
   7.4969448   2.5240237  54.6928883   7.0580639   2.8079230  53.2724047
   4.1067642  58.4598604  59.9676482   4.2078584  57.5689569  60.3027646
   3.9480442  58.3466771  59.0305094  88.5817623   6.9527000  20.3789997
  88.5591888   7.9093969  20.4002929  89.0736389   6.7423314  19.5852542
  24.3671999  79.7548723  37.0227861  24.9618159  79.4983387  36.3179088
  24.6074782  79.1891813  37.7566051  47.0657301  51.1073160  21.1118245
  47.7540874  50.5340385  20.7745576  46.2566614  50.6129074  20.9806871
  87.4680710  77.9240084   0.1851677  86.5398216  77.7810955   0.3700159
  87.7786827  77.0815849  -0.1466192  73.4214592  33.9335370  37.2114444
  72.8458023  33.8563013  37.9722881  73.6686325  33.0319977  37.0056129
  68.8539171  67.6237774  36.4939594  69.3375874  66.9715452  35.9871197
  69.0744162  67.4306965  37.4051833  19.3499766  41.3211870  66.1981678
  19.2360983  41.5210581  65.2690220  20.2436934  41.6013765  66.3956499
  68.4807777  35.5409265  69.6912336  68.1087685  35.2248001  70.5145836
  69.4005489  35.7117081  69.8939276  43.1424822  56.4312866   1.2714036
  42.3200430  55.9813002   1.0781510  43.4411348  56.7592028   0.4231628
   1.6201601  51.1477089  50.3288794   1.6372118  50.4001188  49.7313404
   0.6910048  51.3570738  50.4240942  20.0285540  74.6992636  23.9646006
  19.7643290  74.6882820  24.8845482  19.2823420  74.3246078  23.4965968
   6.3646517  69.9662685  35.5147028   6.0150252  69.7540760  36.3801312
   6.6364489  70.8814478  35.5839896  19.1011439  49.7470760  26.5542698
  19.8713026  49.8226357  27.1176386  19.0413390  50.5955744  26.1152887
  11.4858733  47.8017235  27.7575231  10.8180247  47.4248552  28.3303976
  12.2752104  47.8329563  28.2980776   1.8115244  56.6917896  64.1125345
   2.2591410  55.9079075  63.7940931   1.0371981  56.7685604  63.5550737
  16.7809019  74.2901134  44.2571354  17.1612463  73.8271618  43.5106468
  15.9019576  73.9213943  44.3450928  83.5744336  70.7339921   4.2403300
  83.6514905  70.5827990   5.1823695  82.7373603  71.1868611   4.1381152
  71.8598127  33.7702370  63.6328220  71.6607237  33.0747628  63.0059958
  72.7457809  34.0518069  63.4047651   3.3309565  45.8037567  72.4424362
   4.1313086  46.2333488  72.1405745   3.6013899  44.9079800  72.6441240
  90.1540661  54.3817711  18.3058155  89.7492123  55.1279211  18.7480640
  89.6372986  54.2667770  17.5083494  88.5791302  22.6420355  34.1706133
  88.4869671  23.0107570  33.2921004  87.6928139  22.6590776  34.5317078
  94.2630291  32.9821181  71.6532421  94.1932392  33.7028790  71.0272551
  93.3564186  32.7637577  71.8691349  13.1145106  27.0224094  46.2031507
  12.2270022  27.3774505  46.2532616  12.9949675  26.0732627  46.2357187
  75.0388861  75.7868814  42.2865868  74.1836500  75.6698132  42.7002239
  75.6533861  75.3565168  42.8810644   3.3492861  80.2774906  36.2076926
   3.4648619  81.0335445  36.7832351   3.8238345  80.5093956  35.4094124
   2.2979746  65.6182623  33.2666135   1.4668189  65.8189297  32.8363323
   2.4930773  64.7189522  33.0031466   1.1746417  66.8754101  68.1926823
   0.8901987  65.9891462  68.4159803   2.0949660  66.9046068  68.4541845
  15.0059233  36.6919231  40.3942060  14.6475707  36.4484859  41.2477636
  14.4640456  37.4271703  40.1078176  81.3819313  73.0913210  23.5501266
  82.0784760  72.5781345  23.9596200  81.4911366  72.9374886  22.6117015
   3.8599310  46.0500717  36.2923622   3.7539111  45.0998878  36.3386393
   3.7988387  46.3424635  37.2017622  90.0440693  45.6024027  48.1168699
  90.5941868  46.1530352  47.5597334  90.1891708  44.7134113  47.7930355
  32.6847659  29.9856615  22.2140050  33.1646643  29.8079562  23.0229235
  32.4554549  29.1198158  21.8764186  67.5746727  67.7848959  23.9676595
  66.7724514  67.2697783  23.8820553  67.4061012  68.5772276  23.4577298
  70.0961781  69.1812515  57.8152037  69.3379593  69.2496538  58.3954239
  70.6208467  69.9567032  58.0142832  82.8758907  38.1557393  11.9855237
  83.2946014  37.9278135  11.1554873  81.9414425  38.0217552  11.8271351
  64.5747757  29.5571899  44.7297525  64.6656609  29.8716283  43.8302517
  64.8053694  30.3117466  45.2716970   2.0489130  47.5680923  39.3488765
   1.7198000  47.5915098  40.2474117   1.4674101  46.9568729  38.8966608
   8.8994799  80.6063080  40.1097631   8.5599528  81.0634708  40.8791542
   8.1843768  80.6427956  39.4745326  89.3761921  39.1527033  44.9079037
  89.5974159  39.8006845  44.2390156  90.2210426  38.8794804  45.2653980
  91.5321541  46.5920401  55.1916170  90.9576988  46.0146141  54.6888113
  91.4573956  46.2786007  56.0929489  70.1745176  65.2532053  15.3017187
  71.0245943  64.8147821  15.3389263  70.2778244  65.9187078  14.6215236
   5.1552356  81.8173209   6.9738277   5.2934612  82.2170320   6.1151393
   5.5968059  80.9699312   6.9174464  80.0778770  63.5968399  46.2409973
  79.9228764  62.6628160  46.3817167  79.4174576  64.0329981  46.7793751
  73.4020233  59.9927568  46.9161654  72.7623177  60.3499031  47.5321627
  74.1017151  60.6455088  46.8921518  55.4622650  63.5092258  60.5459595
  54.6179342  63.0587196  60.5655241  55.7261229  63.5634995  61.4644718
   6.4840899  26.1423755  30.2755260   7.3870573  26.3235068  30.0146198
   6.5621767  25.4898405  30.9714651  84.0273952  55.0288963  31.5326643
  83.0835342  54.9436331  31.6671562  84.1477966  55.9345579  31.2471557
  39.1078281  55.0425100  49.9107409  38.6745429  54.2713404  49.5449591
  39.7644091  55.2812529  49.2564201  12.2994814  65.7760239  53.8304853
  12.9953299  65.3365755  54.3192768  12.6578341  66.6402817  53.6283112
   8.0483065  60.4020071  58.0868959   7.6453982  60.0216532  57.3063660
   8.7979803  60.8949709  57.7534199   3.3378611  38.1146288  46.1273909
   2.5664530  38.1683898  46.6915369   3.7027750  37.2472453  46.3026524
  79.2043638  55.3238249  64.0276384  78.6604786  54.6767569  64.4767761
  79.9677801  54.8294020  63.7293482  41.0634245  82.3266449   5.9146007
  40.7073034  82.6496163   5.0869067  40.6113924  81.4958659   6.0619147
   9.3730555  50.3823709  60.3851700   9.7060595  50.0474834  59.5525885
   9.8806200  51.1783457  60.5433750  39.7192883  45.2182436  38.2635355
  39.8100781  44.4424677  38.8168526  40.0584888  45.9354353  38.7990785
  91.0489845  42.3332310  29.1213799  90.4488277  42.5764751  29.8262763
  91.6586590  41.7172909  29.5277667   0.9574233  41.3952732  33.0914903
   0.2977572  40.7446671  32.8511262   0.6888495  41.6997242  33.9583302
  85.3421402  67.6856518  64.0794706  84.4885731  67.6108599  63.6527824
  85.9450722  67.2325373  63.4900665  69.4464302  55.2492380  60.3434658
  69.9837637  54.6985912  59.7740030  69.6483946  56.1443615  60.0710773
  12.4624122  12.3211581  70.7168293  12.3617328  13.1937605  71.0971785
  11.5855659  12.0912653  70.4093838  68.4590387  55.0494814   1.4649431
  69.2691469  54.7083998   1.0859714  68.4917021  55.9905052   1.2927771
  86.9882393  63.5473061  68.9967155  87.4455833  63.9409018  68.2536507
  86.6494370  64.2931795  69.4918060  82.0324326  69.8855829  12.4574816
  82.7565765  69.3267393  12.7395034  82.2372818  70.7459831  12.8235090
  67.2393227  28.8930511  31.3888073  66.7840433  28.7024164  30.5686784
  68.1290007  29.1231990  31.1209679  84.1727638  39.4098163  14.4402683
  84.3161583  38.9863944  13.5938740  83.2252598  39.5374727  14.4867563
  77.4695110  68.8507700  73.4195662  76.9134378  69.0677881  72.6712894
  76.8732595  68.8484240  74.1683722  85.0970840  32.8416419  61.5361881
  85.1712799  32.1453738  60.8835459  84.3940639  32.5513005  62.1173000
  42.3205958  80.3323174  56.7270756  41.9378577  81.1272144  57.0984125
  41.7229281  79.6327972  56.9910765  42.0935450  48.0641031  11.7693782
  42.9000102  47.6183033  11.5103233  41.4001856  47.5920582  11.3082182
   1.3008700  44.9177742  24.5794296   2.0889006  45.4542255  24.4930601
   1.4744196  44.3572283  25.3356719  80.0306702  37.3430586  49.7955084
  79.6068382  37.1219873  48.9662170  80.2649689  36.4973116  50.1776743
  56.6318941  62.8577280  11.5368712  56.9896984  63.5456848  10.9756958
  56.6750860  63.2228994  12.4206221  45.4361343  69.5394993  51.1696100
  45.4608107  68.6255312  50.8862686  45.6247759  70.0412798  50.3766060
  80.9866905  51.9684601  30.2606726  80.1670361  52.0149660  29.7685075
  81.5880489  52.5361013  29.7786140  14.2285929  57.8646326  39.6445537
  14.5196734  58.2807016  38.8331389  13.3402930  58.1953239  39.7780061
  93.3127979  12.2171694  57.7755737  92.9173759  11.4529043  58.1948280
  93.5232404  11.9222361  56.8895912   7.8018580  58.0226374  59.8976421
   8.5502634  58.6123800  59.8064566   7.2244082  58.2542229  59.1702175
  44.2192364  84.4510078  56.1561346  43.4491396  84.1422939  55.6787729
  43.9265347  85.2521992  56.5904713  12.4579440  44.4729328  28.3205247
  13.2946692  44.3255901  28.7614417  11.8002711  44.3323565  29.0016508
  19.6856890  50.5148125  49.2602682  18.9454279  49.9324417  49.0897322
  19.3553267  51.3890266  49.0532923  69.4889545  18.6815298  68.6635065
  69.2556477  17.7558720  68.7339258  70.3143835  18.6842895  68.1788492
  70.1878738  20.9463477  52.7429867  69.4769478  21.4941263  53.0757856
  70.2814198  20.2525997  53.3958244  71.2996674  49.7905016  10.4390764
  71.9547701  49.0966177  10.5139303  70.7150650  49.4937372   9.7416472
  76.6219473  76.8918800  17.3897243  77.4487209  76.9633102  17.8667748
  76.4696741  77.7703905  17.0414996  13.8129530  46.3958836  43.0044031
  13.5126982  45.9843874  42.1939993  13.0594645  46.3445997  43.5925055
  80.9158230  53.0900526  37.6950502  81.3304901  52.8179979  36.8763494
  81.4919186  52.7502489  38.3797908  27.4204013  -0.1161805  73.5484503
  27.3788258   0.6854209  73.0269785  26.5505978  -0.1920786  73.9407713
  74.5311117  55.7864904  49.1824150  74.5850229  54.8817778  48.8744783
  74.9699879  55.7765341  50.0330114  70.2991390  21.4149022  46.5290594
  70.7236671  20.6621552  46.1175013  70.7877302  21.5512061  47.3408031
  85.9397793  46.1138487  59.0071487  85.0682926  45.8702040  58.6951017
  86.1464977  45.4600382  59.6750069  12.0021722  21.1757097  69.5680688
  11.9063184  20.3109321  69.9670689  12.3773429  21.7189989  70.2611164
   4.7449408  71.5878677  32.6635170   5.3025637  72.2177744  33.1201434
   4.3306361  71.0832500  33.3634806  13.6391936  68.6784029  42.7143574
  12.6827631  68.6496592  42.6891661  13.8981162  67.7986193  42.9885435
   4.0142451  20.9959269  37.1226764   3.8029395  20.0629354  37.0894527
   3.1872282  21.4208674  37.3500443  87.9117584  53.4567404  37.6060700
  88.6214733  52.9763317  38.0323768  87.8002357  53.0199242  36.7616844
  23.3955584  56.3814783  49.5838881  23.0392085  55.5408525  49.8712921
  22.6249323  56.9266796  49.4253683  84.9122620  75.7466555  28.3733177
  84.3927193  76.1553288  27.6810145  84.7628307  76.2974644  29.1417670
   2.4774275  40.3873920  39.4184923   1.9683180  39.6046901  39.6292424
   2.1847258  41.0415459  40.0530338   8.1993876  43.4243679  53.7969828
   8.0076132  44.3555403  53.9082384   7.9512797  43.2351828  52.8920603
  89.6734142  60.2102900  61.2550449  89.3172073  61.0006666  61.6608286
  90.2005196  60.5330324  60.5241346  78.5662031  59.2331982  33.4486079
  79.0261841  59.3940163  32.6247215  78.3962202  58.2912111  33.4481049
   0.4190360  81.7705345  23.0442023   1.0093794  82.2605515  22.4718237
   0.8347521  81.8080330  23.9056015  85.1815605  45.4188347  16.8829572
  85.2361298  45.9890079  16.1160433  85.1909256  46.0188770  17.6286733
   6.4507399  79.1241741  50.7721853   7.1428881  79.4944096  51.3199997
   5.8952437  78.6397648  51.3829231  88.1187248  28.6003709  26.5666938
  87.7260780  29.0409112  27.3203421  89.0605831  28.6326575  26.7343211
  90.6281662  64.8280001   5.1581740  91.5390778  64.5794249   5.0010824
  90.1166821  64.1032934   4.7984272  77.5825453  72.8990364  35.0473595
  78.0951309  72.1462297  34.7527957  78.0582809  73.6588240  34.7117567
  45.4438731  69.3442020  75.6563642  45.7820412  70.1322994  76.0815510
  46.1828086  68.7357578  75.6572266  19.6850977  65.5927563  63.8557482
  19.4720660  66.5191031  63.7428904  19.3897257  65.3853559  64.7422981
  80.9491920  77.8393888  13.4030449  80.8968449  78.3553791  14.2075586
  80.6385517  78.4314966  12.7181041  78.3337641  60.1630354  16.1867428
  78.6452675  59.9711275  17.0712578  77.3880959  60.2741480  16.2846994
  82.1114445  46.9115686  39.7436857  82.9720879  47.2701073  39.5269251
  81.5192795  47.6617670  39.6910453  23.9192690  19.9617678  48.2130003
  24.5638574  19.7261816  47.5457430  24.3954576  20.5342013  48.8144875
  21.2010111   9.7901350  12.6651847  20.5980791   9.0741545  12.8653848
  20.7922758  10.2493960  11.9315338  93.5106182  76.6357470  18.4223628
  93.6004066  77.3903751  19.0043437  94.2590904  76.7003489  17.8291965
   9.1932021  85.7539558  54.8961878   8.3953867  85.9209824  55.3980207
   9.0232668  86.1448002  54.0390968  24.4327654   7.1386248  27.2352505
  24.6422876   7.8680426  26.6519213  23.5134233   6.9433123  27.0538306
  11.8509779  73.2072163  48.4639215  11.9070826  72.5250149  49.1330147
  12.1535979  72.7814674  47.6618099  25.9738649  47.9184920  65.9291935
  26.2950815  47.4763495  66.7150450  26.6632951  47.7826315  65.2792215
  33.1235803  16.1707217  43.9919662  33.5946954  15.8773619  43.2120800
  33.2604231  15.4718024  44.6315050  52.6853558  22.4845323  61.2521784
  53.1082055  22.7492961  60.4352788  53.0370805  23.0849227  61.9094829
  20.3246317  73.5421610  30.5563807  20.6712256  74.1898584  29.9427104
  20.3994952  73.9606810  31.4139748  11.8166075  69.5903158  45.8426905
  11.9383536  69.6158409  46.7917728  11.5179167  70.4709530  45.6157637
  87.8407001  47.8803492  14.3501663  86.9780064  48.2697916  14.4927430
  87.9682636  47.9212189  13.4023845  11.6924963  63.6181927  63.8935900
  11.0718737  63.5543585  64.6195269  11.8993864  64.5510292  63.8366795
  78.4774828  46.0667896  42.2425032  78.6592340  46.1392021  43.1794930
  77.7585936  46.6800880  42.0898724  88.1253147  63.6946344  41.1468124
  88.1683159  62.8519678  40.6948233  88.9264965  63.7271738  41.6695833
  64.9846125  74.2615604  22.0941544  64.2727423  74.8884630  22.2224736
  65.7357502  74.7998714  21.8446684  58.0713381  27.5868231  28.1008959
  58.9583219  27.8935820  28.2890344  58.0854810  27.3703486  27.1686029
  13.9434061  61.3101292  26.2900615  13.4507475  62.0853806  26.0208035
  14.7647486  61.6572380  26.6381145  88.8838100  76.5133572  31.1599398
  89.2111778  75.7108879  31.5662670  87.9399395  76.4939785  31.3178992
  13.7373934  78.1324577  42.2199631  13.6800681  78.9949083  41.8087101
  13.7901221  78.3172798  43.1576681  68.2848835  62.4399710  16.2383711
  67.6745605  61.8972349  15.7391977  68.0069160  63.3384991  16.0605681
  59.2848778  60.3347540  63.5141468  58.3866739  60.6314182  63.3676958
  59.8048258  60.8199024  62.8734350  64.9846093  26.7060134   5.7141860
  64.9726598  27.6529118   5.5746539  64.5514695  26.3444897   4.9409278
  55.1565790  49.7250032  59.6032476  55.7859659  50.0488663  60.2476168
  54.3726349  50.2551699  59.7467089  75.6819630  73.2523394  68.6775589
  75.6769943  74.0821123  68.2003975  75.1585388  72.6615286  68.1360769
  61.4301586  59.2048502  39.8494792  61.6736460  58.4314775  40.3582430
  60.5297089  59.0355396  39.5724297  80.6354046  56.9935656  43.1327868
  81.5694714  56.9695997  42.9249954  80.2059555  57.1358442  42.2892427
  35.0836862   5.4611117  37.7758074  34.8898615   4.5336443  37.9117322
  34.2247022   5.8805949  37.7266002  64.9346018  54.7590542  11.6475666
  65.7909250  55.0438118  11.3284218  65.1343584  54.1217613  12.3332691
  12.8403101  74.0137768  52.4169397  13.5556517  73.5434294  52.8450680
  13.2447730  74.8162556  52.0872784  88.1655502  62.5240803  17.5913620
  88.4908676  61.9759464  18.3054686  88.7510777  62.3346949  16.8582046
  83.6441708  45.3171539  48.7771606  82.9382896  45.9368801  48.5930538
  84.4198895  45.7126474  48.3795595  52.3228693  70.5082417  42.6489544
  52.3351002  70.6055307  41.6967869  52.8473377  71.2411928  42.9713583
   7.3996363  50.8509779  48.3901501   7.3732768  50.2630663  49.1450644
   6.4974699  51.1554337  48.2920647  78.0947208  65.9005070  28.0416107
  78.4828377  66.2435722  27.2366834  78.4974813  66.4160395  28.7403536
  74.3184614  65.0797892  33.5287714  75.2570438  64.9964809  33.3603835
  73.9483976  64.2454767  33.2403183   0.6975184  63.4769869  64.8107958
   1.2715159  63.0080271  64.2051268   0.2959929  64.1630554  64.2775869
  81.4231873  68.2773972  54.2840004  81.2976360  68.4205246  53.3459282
  81.5580559  69.1539669  54.6440887  67.7288961  58.2868147  27.9394436
  67.5839663  59.0445995  28.5060072  68.2160854  57.6694727  28.4851193
  56.1304045  72.0463276  22.6151896  56.8556499  71.6497135  23.0978346
  56.5196323  72.8033304  22.1773767  25.2769862  36.2656879  54.0939093
  24.7611723  35.4638791  54.1791821  26.1320506  36.0405326  54.4605160
  28.4700025   5.5547148  28.9481473  29.3702234   5.6254965  28.6306286
  28.3897985   6.2526041  29.5983434  11.3136397  51.5358734  65.5901623
  10.8692084  51.3104486  66.4074135  11.8845568  50.7880783  65.4138374
  29.4000254  68.3213472  47.7206564  28.7804137  68.3706474  46.9927216
  29.1783152  69.0695429  48.2749891  36.3580049  17.9607874  39.6230078
  36.5480627  18.8357168  39.2844772  37.0135511  17.3972994  39.2119479
  18.1796561  67.2886658  31.9890332  17.8851328  66.4451504  31.6455579
  17.9285155  67.9219437  31.3166332  67.6756907  67.5165033   7.0829260
  66.8656826  67.4515057   7.5887823  68.3500957  67.1655846   7.6645297
  14.3089018  64.7964764   9.8157239  15.1268397  65.0830889  10.2220154
  14.3228159  63.8427687   9.8962194  28.6499418   4.0454012  63.0370188
  29.0670694   4.4619280  63.7911654  29.2291750   4.2459875  62.3018456
  91.5268040  75.0979948  41.0601330  91.0302544  74.5726013  40.4327393
  90.8961296  75.3079128  41.7489147  62.6074229  86.6679096  44.3334961
  63.1736956  87.3144913  44.7547960  61.7331896  86.8568134  44.6744680
   9.8675166  77.8285837  41.1049318   9.3718157  77.5807238  41.8853664
   9.7104369  78.7680006  41.0097551  84.8650074  85.1462936  58.8851309
  84.5081902  84.5018387  58.2739067  85.0981045  85.8943844  58.3353662
  42.7704347   5.6203944  61.2654543  42.2905744   6.4484984  61.2507105
  43.2019724   5.5784136  60.4120779  27.5911233  22.7862415  75.5450910
  26.9451949  22.3867664  74.9624870  27.1396395  22.8645143  76.3854892
  19.0080942   0.2490908  30.8195043  19.8992552   0.3293425  30.4794550
  19.0507330   0.6318957  31.6957879  78.0915833  79.1940737   1.3579312
  77.4380779  79.7815752   1.7374167  77.6017952  78.4020281   1.1365530
   9.9071417  51.3056135  40.8233976  10.7104693  50.7881260  40.8791876
   9.3788920  51.0084820  41.5642643  57.9215479  85.1668453  21.6216373
  58.7267494  84.6493435  21.6132164  57.8770256  85.5548096  20.7477188
  88.3211708  58.2238197  34.9489808  88.8990021  57.9891157  34.2228556
  88.9146805  58.4149551  35.6752324   6.7565451  80.7735634  38.3103275
   6.1575423  81.4991951  38.1345963   6.2254248  79.9878311  38.1808639
   0.4483233  78.8200617  38.9357543  -0.3127946  78.4918833  39.4145274
   0.4424963  78.3314228  38.1126952   8.0498327  23.1792551  27.9689860
   7.7306951  22.7564818  28.7662601   7.3497785  23.0451590  27.3301005
  81.0485077  41.9632816  63.6667967  81.0872269  41.0188389  63.8176632
  80.3772926  42.2754478  64.2736340  45.7802868  68.7126589  21.2677503
  45.6605959  67.7810287  21.0834193  45.9412432  68.7515306  22.2105193
  10.2955068  10.9324747  35.6149721  10.7971586  10.9330088  36.4301872
   9.5012582  11.4248854  35.8221698  25.6836234  81.5956211  31.5642476
  26.1448107  82.0956230  32.2376990  24.8890505  81.2851810  31.9984365
  63.7679478  50.1568470  74.4268007  64.0530678  50.4083023  73.5483320
  63.3108899  49.3252239  74.3013878  50.7101549  18.8595492  48.7013245
  51.0198797  18.0009848  48.9897346  51.0933794  18.9726359  47.8315115
  74.9677753  79.5599365  63.2928133  74.7611475  79.6354342  62.3612356
  74.6657801  78.6844921  63.5349464  86.0913563  73.7683678  43.8032436
  85.6383419  74.0633249  43.0133009  85.4216099  73.3020020  44.3034172
   8.9853964  82.4747467  42.1377850   9.6188746  82.2662926  42.8244352
   8.1771002  82.6741600  42.6101446  90.3999901  82.3441410  44.6052456
  90.6139851  83.2219219  44.9213696  90.8250237  81.7548943  45.2284336
  92.9343796  51.8397379  64.7632217  93.1420040  52.6503086  65.2280903
  92.2119427  52.0756960  64.1812897  89.7159863  21.5480971  52.5036669
  89.5960522  20.6771803  52.1250486  90.0700951  22.0742536  51.7867279
  68.2727242  11.0750782  11.9442880  68.1466961  11.8572724  12.4814308
  67.9490328  10.3566468  12.4877143  29.4483849  67.1991461   1.4855087
  29.5431706  68.1399506   1.6342883  28.6075064  67.1111530   1.0367161
  30.6224340  67.0205930  75.4387539  30.6977266  67.2253326  74.5067425
  29.6802705  67.0163778  75.6077040  74.7236347  22.9031825  10.5807781
  75.4588032  23.0924845   9.9977469  73.9512014  23.1880975  10.0925148
  33.8592192  64.3693751  14.8317015  33.5800359  63.4617847  14.9524164
  33.5086867  64.8311132  15.5933821  10.9249220  15.6314600  10.8124256
  11.2882624  14.8466945  11.2227368  10.6770239  16.1928892  11.5469861
  11.6155952  64.0589705  45.6039588  12.2477096  63.8742760  44.9093000
  11.6637891  65.0071672  45.7257406  15.3975913  70.1508993  75.3591871
  15.2651259  69.2542821  75.6670189  15.6504819  70.6383938  76.1431694
  64.2467546  36.8902040  56.1984873  63.3878708  37.2199035  55.9342051
  64.2178488  36.8864584  57.1552420  21.3624856  81.5603578  49.2402792
  22.2559401  81.9033289  49.2216635  21.3379761  80.9977668  50.0143099
  59.2264175  14.0418637  11.3659608  58.4568691  14.5878398  11.2049139
  59.9498701  14.5232677  10.9645951  36.8226218   9.7675103  15.7065940
  37.2239852   9.6451223  14.8462689  36.8160081  10.7160282  15.8350551
  18.3565423  68.8099807  21.3531685  18.8015029  68.1525034  20.8184123
  17.4613520  68.4823340  21.4398503  58.5666558  83.5189187  13.7783957
  58.9867398  82.6814431  13.9743495  58.7523362  83.6689186  12.8514361
  33.9017865  80.4789823  33.0913520  34.7087428  80.0457609  33.3695149
  33.6263844  79.9952161  32.3126650   5.8694595  45.7367952  70.0484465
   5.3923219  46.0681388  69.2876671   5.8783620  46.4701080  70.6635926
  40.7534599   2.7152514  26.9375277  40.7483482   3.1889069  26.1057496
  41.6795731   2.5475997  27.1119976  74.1799733  85.7944819  30.0465274
  74.7006795  85.4089674  30.7511401  74.1650674  86.7308679  30.2444959
  10.0013539  51.6420454  13.0457258   9.2823836  52.1304697  12.6447797
   9.5773551  50.8944791  13.4671569   1.4051244  84.7648919   6.1046082
   2.0535037  84.9225166   5.4183197   0.6174633  84.4948474   5.6324905
  50.0757405  82.7070194  15.2990067  50.1520154  82.8131449  14.3507707
  50.8719918  82.2402137  15.5525899  39.3791339  79.9767113  47.7079821
  40.1945016  80.3659391  48.0240631  38.7146804  80.2754092  48.3288765
  81.4354992  16.8896449  17.0659947  81.0435581  16.1854458  17.5824380
  80.8005238  17.6042557  17.1145773  57.0901295  72.9393202  10.6508791
  57.7844235  72.7932554  11.2934053  56.7264840  73.7942344  10.8813560
  40.4963446   7.9753774  15.1801348  40.5290794   8.2018459  14.2506874
  39.7053075   7.4438524  15.2694261  23.2824561  84.4590667  28.1345606
  22.4167296  84.7194406  28.4491396  23.4221026  83.5896015  28.5097408
  36.8224808  75.0796694  31.4405990  37.5985047  74.6968657  31.0313582
  36.0878607  74.6046597  31.0521007   6.3523620  57.5697044  62.9082899
   5.6897682  57.1499589  62.3596446   7.1690553  57.4646297  62.4202279
  77.0593596  18.1406116  36.3682151  76.2415314  18.1854224  35.8728528
  76.9339466  18.7526178  37.0934391  77.9244995   8.7701154  18.9637494
  77.5786924   7.9322720  19.2714310  77.9583311   9.3178016  19.7480500
  58.8919210  18.6719346  40.9703493  59.5222759  18.6665118  41.6906643
  58.8407755  19.5898318  40.7037401  79.3319798  26.2851191   9.1181052
  78.7671041  25.8887529   9.7814620  79.7947741  25.5453920   8.7245852
  61.1141774  73.7137538  32.8954720  60.4658410  74.2865056  32.4857903
  61.6964814  73.4603363  32.1792746  73.5315354  52.3616979  59.1909854
  74.4808658  52.3912367  59.0721456  73.4011825  52.5381205  60.1227121
  38.4149501  79.7628713   9.4077981  37.7517554  80.4411095   9.5358491
  39.1902825  80.0979602   9.8581386  93.1677945  19.9325827  69.1105143
  92.7930053  19.8986724  69.9906365  92.6571496  20.6042364  68.6584548
  59.6315193   5.0593036  28.6739302  58.6931753   5.1574779  28.5123801
  59.7587967   4.1166580  28.7809420  22.2957226  80.9411341  44.3617964
  22.9985520  80.3287792  44.1443396  22.7309462  81.6434103  44.8451376
  37.3781770  34.7819361  63.5581915  37.2889322  35.0456444  64.4740109
  37.4549573  33.8283482  63.5899238   9.4021330  16.4451718  40.7980299
   8.9001856  17.0047200  41.3906431  10.3114806  16.5581381  41.0747242
   1.9338506  14.3936923  74.1873796   1.0826105  13.9600113  74.1277893
   1.8078845  15.0794652  74.8431831  93.9902401  11.3219643  44.0483809
  94.8121452  11.7767715  44.2323780  93.5365677  11.8897486  43.4254599
  82.1876144  17.4830151  66.4638233  82.7497196  17.6655078  67.2167921
  82.5373173  16.6719675  66.0948515   6.3396877  51.2981919  66.5619449
   6.3512319  51.7212644  67.4204944   5.4622978  50.9219757  66.4921002
   5.4639527  49.4048494  13.4940767   4.5074269  49.3736690  13.4763527
   5.6875059  50.1866859  12.9891133  74.3346024  44.3429375  20.5256367
  74.9124622  43.5975313  20.6889868  74.1219425  44.2815590  19.5943785
  62.5925684   7.5432098   4.0531421  62.8970909   6.6688764   3.8101622
  62.0091724   7.3953784   4.7974700  75.2011061  12.5176239  28.0296016
  74.5142794  13.1675541  28.1782293  74.9933386  11.8066633  28.6359000
  20.7600257  84.9008468  29.5535731  20.2598092  84.2850476  30.0891137
  21.4321706  85.2408287  30.1442266  56.0754204  19.2065895  27.9444051
  55.8783102  18.3558178  28.3362794  57.0087957  19.1640413  27.7364779
  18.2735488  77.7969152  26.4150453  17.9514500  78.0780262  27.2714686
  18.6616513  76.9367891  26.5756392  88.2361587  75.5328062  67.1173809
  87.9907258  76.4013293  67.4362240  89.1043218  75.6551865  66.7332570
  74.1182804   6.8720728  32.5223351  74.9800968   6.9093668  32.9372048
  73.9920473   5.9461200  32.3151922  33.2674739  78.6056620  21.4544153
  34.2175004  78.6322302  21.5682912  33.1198737  78.9789349  20.5854416
  69.2353487  10.3116369  40.3262377  69.8211193  10.6098080  41.0220861
  69.7567225  10.3842092  39.5267773  22.0210886  40.5859709   5.9296888
  22.6198721  41.3023853   6.1405003  22.4186707  39.8147297   6.3338488
  21.2482115  57.8840774  47.9756451  21.5666196  58.6254376  47.4606371
  20.7824179  57.3360938  47.3439980  62.8841969  67.3527902  11.9040239
  63.1207272  66.6513699  12.5108969  62.0853993  67.7295655  12.2730613
  61.0954523   1.6467883  42.6226759  61.4187670   0.9043853  42.1122503
  60.5442762   2.1356958  42.0116043   4.8874197   2.8462437  26.0377383
   4.9499045   3.6419344  25.5093408   5.7344065   2.7849194  26.4794302
  84.6873410  52.3527929  56.1491458  85.2000840  51.8558011  55.5117099
  83.9105113  51.8151495  56.3031213  69.0440556  78.4258288  36.0809898
  68.0895135  78.4407037  36.1506391  69.3255231  79.2539203  36.4699316
   1.1936134  46.2521184  69.7050570   0.3410905  46.0511641  69.3189786
   1.2753910  45.6403773  70.4367105  91.1847098  63.6809579  52.7769272
  91.1408599  62.8180876  52.3649017  90.9388574  63.5238305  53.6885754
  71.6547823   0.1722978  45.1444864  71.2473774   0.7683298  44.5159960
  71.4379072   0.5419277  46.0003901  69.1530275  24.6183586  10.7453406
  69.7851419  24.8626900  10.0693476  68.4785080  24.1272449  10.2762377
  25.4682061  74.9351841  46.5227556  26.3523146  74.5689982  46.5449476
  25.1297566  74.7977310  47.4075079  65.4847574  32.9191494  26.1588073
  65.9213924  33.2000470  25.3546453  64.5804119  32.7508759  25.8940887
  52.4613568  87.6259673  35.8343863  51.7688271  87.3426656  36.4313555
  52.3182484  88.5667219  35.7307816  11.1358064  48.5969389  43.5126321
  11.4557975  48.1657022  42.7202479  10.2061838  48.3717713  43.5490910
  45.5247590  69.9830717  48.3792686  45.4549739  69.1284198  47.9539108
  45.7783982  70.5806869  47.6758814  17.0868012  85.2491522  24.6587992
  17.6537987  84.5099708  24.4388986  16.9639441  85.1833397  25.6057978
  86.6739655   4.0876359  19.6587539  86.4272118   4.9738628  19.9232292
  85.8421898   3.6201566  19.5823336  68.9131546  13.0876696  21.6824460
  68.6217499  13.2909679  22.5712562  68.1106186  12.8584242  21.2138176
  81.5989399  48.4031677  11.2989938  80.9515095  47.6985216  11.2757409
  81.5148926  48.8338184  10.4482841  73.3027220  36.4960933  13.8668871
  73.8810349  36.9985700  14.4407380  72.4858618  36.9948912  13.8538265
   2.2440157  26.9130778   0.8795734   1.4837752  26.9051433   0.2980252
   2.8432188  26.2707877   0.4992387  75.5569203   4.3571094  63.2310132
  75.0834449   3.7403920  63.7893216  74.9029143   5.0134543  62.9907600
  76.2966248  84.7373372  71.2634516  76.5132806  85.1538962  72.0975780
  76.5344426  85.3873128  70.6022358  17.9277894  86.4091653  29.3491817
  18.1733128  86.0880563  28.4815192  18.4012219  87.2359598  29.4413924
  92.2215306  81.2101108   1.7940374  91.6739999  80.9774506   2.5439116
  92.7078210  81.9822985   2.0829612  14.8063704  78.9208162  24.9665880
  14.1759154  79.1673863  24.2898607  15.5915782  79.4270778  24.7583055
  71.3470181  38.9134547  62.1447305  70.5188020  38.7787989  62.6053385
  71.1082204  39.4122240  61.3634269  23.4450984  12.8357267  22.8209496
  24.2524886  13.3419883  22.7312303  23.0801177  13.1138229  23.6609983
  29.3170687  81.4536303  37.5520182  28.6623427  81.6747504  36.8896961
  29.8501584  80.7716072  37.1434927  15.0277227  55.3297487  65.9391586
  14.1164726  55.3247550  66.2321286  15.5005783  55.7860521  66.6351656
  63.0755790  42.3371269  75.6336786  62.4217542  41.6938755  75.3598679
  63.6730536  41.8461323  76.1977517  24.9897569  55.5853739  68.9975296
  25.1409238  55.0492326  69.7759478  24.1158479  55.3334084  68.6991714
  18.3845132  34.9656561  76.8394706  18.3296770  35.6645808  76.1877583
  17.8411001  35.2719757  77.5654886  65.0366116   2.2184047  23.9491916
  64.2778206   1.6387597  23.8822651  64.7133780   3.0707645  23.6572409
  33.2400080  71.6969842  57.2624207  32.7368447  71.7983705  56.4544725
  32.7246091  72.1571177  57.9248905  47.9155684   5.6494850  12.5900304
  47.8129482   6.5811253  12.3957455  47.1148586   5.2454567  12.2555876
  12.0062170  34.7220397   5.5715609  12.1717272  34.9121165   4.6481380
  12.8760920  34.5902681   5.9486216  71.4216089  54.5685482  20.1166415
  71.0203457  54.5937490  20.9853077  70.8946133  55.1710844  19.5918000
  87.1950054  43.9165258   5.5855405  86.4056301  43.9701414   6.1242759
  87.8317261  43.4631681   6.1380631  69.9785042  23.5472488  24.8613596
  69.8933458  23.3546638  23.9276075  70.9225082  23.6047673  25.0089335
  59.2325051  28.6761287  57.4137740  58.9525970  29.2695144  58.1107501
  58.4544976  28.1546179  57.2163848  23.1183430   1.8434820  74.1423617
  22.3900840   1.2228260  74.1168634  23.8976666   1.2947998  74.2308508
  90.3333076  65.2642897  71.0011057  90.3611692  66.1174491  70.5680053
  90.4594596  65.4625014  71.9290231  58.1462812  16.8988848  25.5888867
  58.1120205  17.5932837  26.2468147  58.2559967  17.3613548  24.7580338
  72.5116714  53.7135533  64.2491464  71.5770276  53.6288539  64.0607397
  72.6500066  53.1693807  65.0243692  72.8278399  27.9514074  18.9987910
  73.6117601  27.5465679  18.6275744  72.2951269  27.2137308  19.2959118
  50.7784843   6.8626630  35.5572009  50.6589222   6.0567659  35.0547409
  50.3977871   6.6694731  36.4139247  31.5715688  63.4581450  71.9137035
  31.2966054  63.0511955  72.7352987  32.3958963  63.8953820  72.1271096
  54.3629932   8.7279880  14.1029978  54.8646116   9.5402670  14.1723573
  54.8710966   8.0892611  14.6030855  63.7343690  65.6985849  34.3482685
  64.4911477  66.2626451  34.1890502  63.8792321  65.3455681  35.2261209
   5.0757688  84.6521238  64.5772950   4.2736858  84.5201162  65.0827281
   5.3293365  83.7728837  64.2964546   2.6466666  15.0498998  35.4756403
   2.2926817  15.8553100  35.0984931   1.9960032  14.3803740  35.2644396
  36.5768811  81.9667566   4.5478794  36.5081975  82.5184548   3.7686855
  36.9310519  82.5470239   5.2217382  56.7380139  88.0889174  43.0392504
  57.1338364  88.7426135  42.4628544  56.8195912  88.4625296  43.9167404
  11.1273521  38.2604906  74.8504501  10.4114097  38.6823049  74.3753354
  11.8956989  38.7948397  74.6495862  55.3533074  67.6867360   7.0646250
  54.4307801  67.8749889   7.2370481  55.8285519  68.3841842   7.5162238
  81.8548393  27.2423649  33.8169503  82.4884224  26.8740988  33.2011676
  81.1119270  27.4996924  33.2709718  55.0736237   7.5340390  22.2864509
  54.8909140   7.4640661  21.3494587  54.2894363   7.9420912  22.6535678
  36.6309237  12.5186312  16.0605240  36.9347596  13.3019710  15.6019449
  35.8633518  12.8113127  16.5518546  59.5094204  16.8221915  15.6037378
  59.7850609  17.4889910  16.2327313  60.1745319  16.1373842  15.6737506
  33.6938426  85.8463296  23.5394025  33.5203978  85.5987102  22.6311970
  33.7630889  85.0132832  24.0057373  64.4808817   0.6532837  27.2842884
  63.7626219   0.3530309  27.8412223  64.3485641   0.1945295  26.4546680
  84.8180294  46.0108280  41.3509083  84.7652435  45.1119757  41.6757393
  84.2152691  46.5027809  41.9084930  80.3064156  30.9632897   5.9927112
  81.1216354  31.4404798   6.1474317  80.3644753  30.1981473   6.5649170
  26.7573595  57.8583765  38.5506582  25.9970951  58.0610800  39.0957665
  27.1903586  58.7020254  38.4202671  22.8537649  55.7765105  58.2694415
  21.9993585  56.0697880  57.9528801  23.3942216  55.7188264  57.4815242
  24.9682420  31.8841377  67.1221892  24.7633928  31.7064110  66.2042121
  24.1361612  31.7663184  67.5804285   4.2489253  59.1796732  31.3353395
   4.1133700  58.2895470  31.0104823   4.8867140  59.0820551  32.0423937
  49.4385242  20.6278992  14.1509485  50.1458454  20.0027752  13.9923573
  49.8586130  21.4857411  14.0887630  28.2674023  62.4984926  14.6226442
  27.8185603  61.6744965  14.8118579  28.4319827  62.4706381  13.6801100
   2.8246890  39.5496488  31.7803764   2.5289355  40.2690792  32.3382187
   3.0611239  39.9694920  30.9532952  52.4401566  23.6657009  66.9283251
  51.8017194  23.1535587  66.4319889  52.6378915  23.1254396  67.6933412
  57.8463697   2.7612272   5.6106377  57.1229410   3.3006135   5.9299296
  58.0268478   2.1536423   6.3279241  27.2309494   4.4556174  41.7725992
  26.9102311   4.0973759  42.6002693  27.9159117   5.0733703  42.0284081
  76.1714888  32.0077181   9.8297131  75.2833509  32.1141624   9.4889581
  76.3289452  31.0641122   9.7973615  60.3812933  18.0184805  37.7471876
  60.3277874  17.5179148  38.5613155  61.0368967  18.6932468  37.9235530
  56.2852144  39.0744281  29.2661142  55.7136583  39.7858024  29.5550752
  57.0040178  39.0729165  29.8982167   8.2185405  32.6938811  77.0143401
   8.0972379  33.0405095  76.1303904   8.5207170  31.7956212  76.8799934
  83.2229233  18.3294570   4.2053190  84.1787243  18.3564544   4.1610292
  83.0261707  18.3401036   5.1420176  64.9899157  80.0598481  74.1523973
  64.8065169  79.1210798  74.1886143  64.4615300  80.4344776  74.8571622
  75.8080244   6.4554888  40.6889677  75.2096272   7.1010906  40.3130007
  75.3231716   5.6308919  40.6544781  74.1973686  18.3832908   9.7024602
  74.5623732  17.5868773  10.0881124  74.9490595  18.8236058   9.3058300
  60.7683325  21.3557100  30.9012365  60.2207518  22.0909786  31.1764956
  61.4988565  21.3564038  31.5197515  80.4980373  38.3317304  20.8081651
  80.5314255  38.8976192  20.0368762  80.7396793  38.9044476  21.5360665
  69.4120693  58.6953735  10.9819746  68.8666582  58.2782602  10.3150594
  69.6984339  59.5149946  10.5789268  48.9311647  11.9002390   0.2209088
  48.4940338  11.2002635   0.7058647  49.4923496  11.4432693  -0.4055759
  79.0086126  21.2908864  29.6951771  78.3029366  20.6450844  29.7297311
  78.6813688  21.9720387  29.1076636  80.6055927  39.2563152  36.7136025
  81.5042019  39.3637395  37.0253539  80.4554081  38.3112526  36.7367601
   8.6641608  38.4911275  18.1117845   8.0850516  38.2089448  18.8197613
   9.2237196  37.7329731  17.9434872  62.6770449  32.9536343  24.2107797
  61.7631292  33.0180717  23.9335799  62.9718828  32.1093416  23.8695002
  27.8813944  21.8805408   6.8942791  27.5879393  22.4197078   7.6287264
  28.8202391  22.0552945   6.8289632  80.9586048  37.9219294  17.2535455
  81.3829994  38.7796307  17.2752833  81.6003513  37.3476863  16.8356514
  76.9574451  16.4294124   1.0157146  76.8744612  16.0927606   0.1235197
  77.0782757  15.6486070   1.5560605  27.3800748  17.2898749  73.7757121
  27.4345201  16.3363031  73.8386957  26.8899435  17.5537470  74.5544091
  46.1893555  87.7091686  28.4431553  46.4255234  88.4105258  29.0502429
  46.7631385  86.9815028  28.6829615  57.4960232  14.8953724  34.7286081
  57.5937986  15.1926899  33.8240242  57.6245260  15.6842828  35.2552390
  72.6728535  24.9525237   9.8725706  72.3270226  25.6184506   9.2782879
  72.5020695  24.1224384   9.4275767  12.5873416  30.8803693  75.7210402
  12.6238769  30.1659992  75.0849800  13.4262985  30.8357898  76.1797332
  74.8871326  39.5604181  37.3939180  75.8266211  39.5115900  37.5705910
  74.4955683  38.9376593  38.0063534  30.7789704  73.6759907  25.8359885
  30.5469844  73.0140024  25.1846933  30.2563950  73.4487635  26.6050887
   6.5718934  66.7302841  38.5268116   5.6893226  66.7214340  38.1563759
   6.6587207  65.8807009  38.9591336  44.4360825   5.7834730  63.5162167
  44.1412970   6.5269527  64.0421180  43.7618872   5.6831607  62.8441827
  14.2323981  27.0525885   5.8743453  14.7839461  27.2841048   5.1270688
  13.6850939  27.8249168   6.0164648  48.5755920  10.7962489  28.6479759
  48.9905596  10.3270745  27.9241610  49.1594839  11.5347970  28.8207388
  67.6426554  44.7796249  13.7075531  68.3103848  44.0939426  13.7220693
  68.0830479  45.5345774  13.3172548  79.5077133  21.4977741  24.5184469
  80.3014088  21.4787912  25.0531673  79.8256779  21.5995073  23.6213517
   3.2374678  52.1980572  20.8032084   2.4033652  52.5797701  20.5297232
   3.4612761  51.5848875  20.1030898  86.9104290  17.5598133  19.7296822
  86.0505962  17.1695364  19.5728266  86.7906475  18.4893417  19.5350981
  63.2283258  15.0644994  19.4607520  63.5059500  14.1537845  19.3619812
  63.6995745  15.5345023  18.7728179  75.4749441   4.3117756  14.5544446
  74.9383020   4.7029325  15.2438235  76.0809231   5.0072968  14.2989600
  82.8285916  75.5556658  65.2486412  82.2861989  75.1241472  65.9088163
  82.2171863  76.1050585  64.7581486  28.4787172  60.9184066  76.7091009
  27.7536958  61.5379289  76.6268216  29.1507810  61.3990393  77.1923739
  42.5999254  77.5112036  64.1297964  42.5260442  78.2710818  63.5524265
  43.2762140  76.9678739  63.7252466  50.5797672  48.3601141  14.1175604
  50.1803923  47.9017496  14.8569047  51.4299583  47.9354048  14.0034199
  78.3435678   6.6501057  29.3086505  78.5972595   7.5519931  29.1125035
  77.7350760   6.4147407  28.6082435  71.2863538  76.4698237  14.3031406
  71.5282437  75.6708389  14.7714829  70.6321999  76.8872303  14.8635721
   7.7342027  53.7607440  66.0204379   7.4873823  54.2537025  65.2379410
   7.0937198  53.0510119  66.0683338   1.0985384  14.9277031  26.6008759
   0.9592448  15.8134449  26.9359684   0.5526171  14.8799133  25.8160782
  51.8944931  24.9264288  15.5917466  52.5316858  24.3480349  16.0108876
  51.0633421  24.4565582  15.6599140  66.2994003  27.6851106  28.8687015
  65.8177805  27.2258663  29.5567226  66.1967802  27.1318507  28.0943584
  72.2458632  22.2350934  70.0354366  73.0495437  21.7328861  70.1700453
  72.2949250  22.5260380  69.1248457  42.8762290  75.1771575  50.7104731
  42.2719475  75.8713502  50.4474735  42.4739167  74.3726677  50.3831005
  88.7838364   6.3391119  13.9619565  88.9649677   7.0917004  13.3989024
  87.8924370   6.4857835  14.2784059  87.2310162  48.5984278  11.5271938
  87.2078896  47.9226589  10.8496749  86.3284779  48.6537790  11.8411803
  53.4469223  19.2153943  40.3615141  53.9293098  19.1973257  39.5349526
  52.8380537  18.4794021  40.2996302  62.0440435  26.4838195   0.4948357
  61.2256718  26.4062786   0.9852302  61.8184185  27.0216680  -0.2641409
  12.8636735  38.5120735  66.6901867  13.2567924  38.7361339  65.8466892
  12.2730106  39.2409101  66.8803064  44.2741296  85.4393274  39.4893765
  43.5004040  84.9133754  39.6917367  44.8385808  85.3398225  40.2560091
  70.2236589  76.1816886  52.9932515  70.9386762  76.2100557  53.6290018
  70.2205737  77.0531157  52.5972239  49.5809933  79.5039564  26.7707515
  50.1962945  79.2632306  26.0781503  49.3589780  78.6740917  27.1929669
  62.1246099  30.5836773  17.6402724  61.1756277  30.6286407  17.5234485
  62.3566151  29.6935678  17.3754907  86.3874435  22.6409125  69.5023441
  86.1956120  22.5490522  68.5690737  85.5773735  22.9825902  69.8808718
  93.5403728  19.9550605  58.4215355  93.3745384  20.5249810  57.6705885
  93.2642746  20.4707670  59.1791916  77.7199459  52.2755766  28.4374785
  77.3099327  52.7137899  29.1831970  78.4893370  52.8094435  28.2393479
  88.8656902  64.8525667  12.0312905  89.1470718  65.7273054  12.2994137
  87.9379082  64.8175478  12.2641480  19.2509219  68.7615961  28.8686633
  19.3200824  69.2954701  28.0771899  19.2301938  69.3964463  29.5847416
  80.2323723  23.6622119   9.7082305  79.6307707  23.4289122  10.4152501
  80.9841347  24.0538621  10.1528704  64.8596008  51.2080881  71.2996475
  64.3199833  51.5962032  70.6108735  65.3698881  51.9404200  71.6453777
  35.9055209  21.5983391  20.4699445  36.3319731  21.9675875  19.6966243
  36.6075706  21.1458516  20.9375048  88.5312939  41.8915176  46.1015415
  89.2482853  41.7390251  46.7170954  88.1741142  41.0203171  45.9293127
   1.0890780  32.8579855  40.0775003   0.6018935  32.4857020  40.8125496
   0.8015070  32.3509932  39.3182278  90.8913692  23.8647750  65.9833865
  89.9776395  24.1150168  65.8466212  90.8989985  23.4471849  66.8446605
  16.6947216  11.7975548  71.6092048  16.1094326  11.5784744  70.8841710
  16.2259429  11.5071276  72.3915927  62.6333141  30.4149294   6.5752029
  62.7914238  29.5954108   6.1065662  63.4478378  30.9080100   6.4769548
  86.9501591  16.1195660  10.9020495  87.4386978  15.6827819  11.5997422
  86.8182182  15.4403496  10.2406204  69.9179125  22.2789359  57.4786568
  68.9973593  22.1743560  57.7192307  69.8948002  22.7140808  56.6263962
  50.9826946  44.0035248  10.1153052  50.1587486  44.2618561  10.5283546
  51.4554930  44.8261499   9.9888992  16.8952952  22.0546865  20.4186320
  16.4302168  21.3229799  20.0129986  17.8022681  21.7556214  20.4834080
  70.9824514   8.3907342   8.7299293  71.3763285   7.6713187   9.2234218
  70.9847879   9.1287893   9.3394381  22.9170653  71.8327612  26.3136053
  22.7313706  71.8246275  25.3746271  23.7746474  72.2519880  26.3845348
  26.6199296  59.4900993  71.8901102  26.4350885  59.0484575  71.0612450
  25.9311479  60.1501325  71.9686256  11.6851851  73.2206339  11.9085598
  11.8247649  73.1115156  12.8492200  12.1651599  72.4949890  11.5094411
  86.2448502  18.8480318  31.3435769  85.3266716  19.0998185  31.2446284
  86.6496563  19.5901537  31.7925906  70.3804827  16.4789462  25.7407641
  70.4679298  16.8612516  24.8675942  69.4417143  16.5136111  25.9244847
  21.3524049  48.2240605  42.1715300  22.1306604  47.7289337  42.4272792
  20.8967679  47.6519516  41.5540211  91.2974917  66.6357821  19.7303522
  91.4253603  66.7831296  20.6674600  90.8523713  65.7899064  19.6794438
  83.4896469  41.6771412  24.0178442  83.0755138  42.5207567  24.1996074
  83.1978130  41.4524794  23.1343317  52.2320652   8.6985469  39.1158009
  52.6665497   7.8878057  38.8509345  52.7554607   9.0223098  39.8489237
  90.8069547  62.9693249  66.9981329  90.3930362  63.5510090  66.3605205
  90.1293881  62.3281196  67.2125856  60.7576513  15.0184369  44.5420790
  60.3688002  15.8612227  44.7760439  61.0373878  15.1277828  43.6332226
  10.7130903  75.4385951  76.6108263  10.2810901  75.1134971  75.8209420
  10.0784868  76.0398653  77.0006789  77.8801298  14.0184867  18.7445962
  77.3388767  13.4197187  18.2300532  77.2512054  14.5632052  19.2178476
  90.7871087  65.4822496  73.6338348  91.1715587  66.1624101  74.1868375
  90.9973891  64.6625784  74.0812199  85.2590847  48.8201284  14.3973899
  84.3033123  48.8648176  14.3701601  85.5469704  49.7009850  14.1577256
  69.3673515  25.9372759  47.6565981  69.1029882  26.8479156  47.7872705
  68.6030436  25.4255986  47.9216433  23.5201406   6.5947574  32.1289635
  22.9650760   7.3260498  31.8581367  23.0562234   5.8156186  31.8224406
  85.3475475  12.9778552  19.0100265  85.1382828  13.1962395  19.9181831
  86.2423420  12.6397204  19.0450764  46.7543459  14.0183365   7.7774930
  46.4641905  13.8019097   8.6636078  46.2501526  13.4342778   7.2110176
  94.1030312  40.5027580   6.6489047  93.2942009  40.6053972   7.1503919
  94.8002815  40.5844355   7.2995991  22.6869961  62.5791734  24.3451142
  23.3762166  62.5383729  25.0080943  22.9949090  62.0049995  23.6438704
   6.3179598   4.5067993  21.3356376   6.1631308   5.3490853  21.7632055
   5.4792509   4.2860681  20.9305668  37.0299142  51.1916474  70.2394311
  36.9016355  50.3303966  70.6369535  36.8507379  51.0551277  69.3091134
  55.9229612  31.9978213  17.3517954  55.6216383  32.9055953  17.3146224
  56.4521122  31.8885589  16.5616727  35.7280680  83.9655968  35.0324154
  35.1485202  83.3757549  35.5145359  35.4574343  83.8735104  34.1189003
  57.3845816  18.6095142  38.6587238  57.8445911  18.6899519  39.4942808
  58.0051851  18.9427090  38.0105996  56.5811726  70.8886272  16.9587374
  56.0953709  71.6851145  16.7446554  56.4662072  70.3250188  16.1936510
  70.6589890   1.2980004  15.6952262  71.1729860   0.4967116  15.7951224
  71.2502480   1.9084769  15.2548134  51.5599632   9.3068898  17.1189499
  51.4820623   8.4054732  17.4313760  52.5022888   9.4482893  17.0280707
  58.8316107  17.8805113  23.0067515  58.5813808  18.4737754  22.2984743
  59.7700691  17.7399611  22.8811598  82.8201005  88.1841025   8.9587027
  82.6793763  87.7575818   8.1134170  81.9441506  88.2611532   9.3368763
  93.5251617  20.7320571  19.6996021  92.6603031  20.3653383  19.8833537
  93.4612083  21.6463637  19.9756217  80.7265186  31.8902683  43.4883833
  80.5861664  32.7719903  43.1432772  80.0913334  31.8075442  44.1996765
  33.4197324  88.0635122  76.2682382  32.5501817  88.4459165  76.1504163
  33.2639974  87.1195987  76.2998582  60.8914137  22.7713156  34.7361112
  60.7907724  23.7220216  34.6885967  61.3671017  22.6213551  35.5530977
  66.0228825  38.1445122   1.9984022  66.0435581  38.8851929   2.6043698
  65.4757690  37.4922633   2.4359824  20.5953261  85.9547117  15.6572402
  20.9353968  85.2148333  16.1603916  21.3760611  86.4288893  15.3711724
  73.6155510  32.8169084   8.7228525  74.2263222  32.7355671   7.9903394
  72.7617502  32.9454541   8.3096564  26.5666842   1.9317144  47.6800299
  26.0518050   2.7356565  47.6106834  27.4109674   2.2173664  48.0290604
  25.2958291  16.0720924  63.9650087  24.9397653  16.6849235  64.6083526
  25.4942602  16.6145590  63.2017354  19.7357857  17.9542720   9.9819332
  19.6447766  18.5557985   9.2429370  18.8641119  17.9258859  10.3764093
  65.4702234  21.2603688  27.5084543  65.3964758  20.3187299  27.3531795
  66.2848425  21.3587618  28.0013442  87.5929928   2.8871506  22.7054548
  87.8164005   3.7823689  22.9602170  86.7717361   2.9737505  22.2214413
  90.9522247  15.4861641  26.2438488  91.3890362  14.6547079  26.4285350
  90.6158257  15.7737017  27.0926094  71.1128041  76.3107604  22.4353099
  70.5834576  76.3590509  23.2313585  71.9999596  76.5245002  22.7242756
  84.7317219  19.3049562  24.5902991  84.5567131  18.9698982  25.4696941
  84.4377232  18.6068571  24.0051031  40.2334404  12.3630798  40.1695442
  40.8108521  11.7834949  39.6726441  39.3967700  12.3222172  39.7063541
  50.3042316   0.4131372  32.2581458  50.1522827  -0.4824482  32.5599241
  49.6905565   0.9442518  32.7656388  55.0408030  33.2999301  28.8674068
  54.9214458  32.3865056  29.1274834  55.9376574  33.3391476  28.5352254
  45.0067183  83.7747729  68.9018393  45.4008433  83.0357188  69.3651962
  44.6731087  83.3969039  68.0881119  12.8853712  21.8533921  18.3088315
  12.3681269  21.5552235  17.5606441  13.6018858  21.2218094  18.3716059
  80.0050354  11.6180742   4.9194810  79.3005705  10.9926593   5.0892478
  79.5841408  12.4755418   4.9813873  73.7164927  45.9253550  22.9403377
  73.6925888  45.3377342  22.1851158  73.8871813  45.3500891  23.6861038
   0.7919894  23.9135551  15.0362444   1.1311541  23.0738139  15.3461301
   1.1291228  24.5539308  15.6627345  14.6926413  30.4674244  38.2836962
  14.4880877  29.5701766  38.0203748  13.8529025  30.8325481  38.5625339
  77.2646093  11.4933825  12.2974956  77.9296303  10.9650648  11.8560636
  77.3332548  11.2437594  13.2190204  68.9782953   5.8766299   2.9316819
  68.7025261   6.5907884   3.5062772  69.9024820   5.7431448   3.1421447
  28.4657571  85.7536608  40.8710575  28.3609244  84.8413724  40.6009245
  29.3781850  85.9601289  40.6683731  69.9832106  35.9919190  11.3527417
  70.7042837  35.6607914  10.8173597  69.9935102  36.9382858  11.2095177
  71.3457677  86.4204416  29.8379588  72.2274873  86.5731676  30.1777792
  71.3893124  86.7014956  28.9239883  48.7916279  30.3409576   0.5099855
  49.4664192  30.7350302   1.0627958  49.2798948  29.8455310  -0.1475705
  39.0161559  86.0842419  35.5887866  38.4030387  86.6310625  35.0975561
  39.8069665  86.0674271  35.0497413  40.7246923  12.3983192   2.0438436
  41.5803480  11.9771814   1.9618110  40.2540493  12.1408820   1.2510934
  59.2733762   3.7961874  53.7315981  59.0563580   3.3753643  54.5634882
  59.1553876   4.7313461  53.8982908  89.4579697  35.0580978  29.9738765
  89.5528793  35.9687614  30.2530122  88.5121822  34.9132562  29.9466848
  36.6141868  14.3191218  21.3194585  36.7131972  15.2638340  21.2013578
  37.4694943  13.9577317  21.0869145  85.4303548  78.1471330  25.4348278
  84.5181462  77.8701276  25.5207753  85.9068486  77.3423773  25.2309847
  12.9124921  55.7954005  62.4373333  12.0757335  55.7515016  62.9000894
  12.8176492  55.1782003  61.7118673  60.1335287  22.7870154  21.6396999
  60.2279091  23.1305003  22.5281501  60.9508371  23.0259037  21.2024736
  53.9974213   3.1470799  52.8172779  53.2955503   2.6845050  52.3594236
  53.7800121   3.0544731  53.7448502  48.0353448  67.3616499  10.4134643
  48.7870213  67.8815645  10.1290298  48.3833119  66.7937058  11.1009192
  73.8269186  22.9639745  18.9330316  73.6122179  22.0491600  18.7506831
  73.7591791  23.0407763  19.8847389  35.7654071   2.4879551  12.4408221
  36.2579417   2.1973896  13.2084250  35.0075054   1.9042529  12.4075079
  92.4407196   0.3638640  47.0550442  92.6516533  -0.5498819  47.2468948
  91.4935493   0.3671080  46.9168806  90.7161331  58.6644459   1.7070834
  90.9035969  57.9454136   1.1036927  89.8223591  58.4986448   2.0069313
  29.3444246  86.4840701  75.5494474  29.2084211  86.1563352  74.6604465
  29.4184965  85.6953767  76.0867601  73.4865522  10.2063596  17.2014213
  73.7068272  10.4658103  16.3067722  72.9570055  10.9296572  17.5370550
  20.3072351  57.2457937  61.8126766  20.1565164  57.6133946  62.6835303
  19.6233552  56.5839175  61.7104439  85.3897476  23.3730054  48.4834766
  84.8522091  22.9014397  47.8471565  85.2125454  22.9366851  49.3168163
  74.1889524  34.8217177  22.6389670  74.1091204  33.9366889  22.2831845
  74.3398523  35.3751826  21.8727183   7.8284448  88.3604768  60.4460601
   8.2432550  88.4024814  61.3076858   6.9964164  87.9137758  60.6023220
  52.9779291  17.0434427  32.7020574  53.3558130  17.8575480  32.3693871
  53.0480003  17.1182060  33.6537576  70.4057169  28.8207650  21.4739680
  70.7475424  28.0304718  21.0558486  70.8691216  28.8689089  22.3101330
  58.2265234  35.9490108   2.1789011  58.5025740  36.1524034   1.2852223
  58.5351467  36.6905785   2.6995388  39.3795347  51.4120388  22.4482203
  39.3715096  50.7662153  21.7417622  38.7082481  52.0474482  22.1994948
  88.1236156  63.2300428  54.6526424  88.6534770  63.0607811  55.4316370
  87.2192653  63.1730893  54.9610917  72.2124338   3.2824281  14.2731464
  73.1225300   3.3334911  13.9810097  71.9260025   4.1942954  14.3249846
  88.7555885  30.3652573  48.7680197  88.9996338  30.5620861  49.6724176
  89.5191574  29.9153304  48.4064102  33.1646916   8.0086336  61.3809780
  32.5631997   8.7532005  61.3887386  32.7147862   7.3319921  61.8869130
  80.3465176  34.4503427  42.4887228  80.2971649  34.3115354  41.5429306
  79.5791340  34.9848914  42.6927185  15.0582021  56.6147938  50.7408468
  14.7633260  55.7093135  50.8377354  15.9653991  56.5408567  50.4446189
  82.5397873  49.2060947  22.9467130  81.8276405  48.5957479  22.7555275
  82.1380615  49.8778772  23.4976697   8.7142096  38.8279271   2.5931594
   8.9079009  38.0364442   3.0954221   8.2788668  39.4076610   3.2181531
  90.2804279  30.1398420   0.4905116  90.3718567  31.0811210   0.6383846
  90.5715370  29.7393107   1.3096958  39.9070716  41.9282055  13.9044344
  39.8313284  42.3279476  14.7708642  40.6494331  42.3756313  13.4983015
  86.4147758  50.7811308  32.4180841  86.3058186  51.0703516  33.3240175
  86.5958023  51.5845728  31.9302917  93.1446171  50.9469604  29.6231818
  93.6100197  51.0376549  30.4546857  93.8162422  51.0887909  28.9560723
  46.5415955   1.6251983   1.4761177  45.8330345   1.7570715   2.1060222
  47.0797110   0.9340850   1.8621564  18.2430659   2.2061002  18.9613259
  17.3674021   2.4999036  18.7100756  18.3903609   1.4178312  18.4386718
  70.5741262  20.5030847   6.7944366  69.6437883  20.5407882   7.0164329
  70.7326460  21.3012862   6.2904763   9.0937529  26.2051868  58.4728813
   9.3523703  25.4494190  59.0002918   8.8781844  25.8368564  57.6160860
  56.1004114  29.6098590  28.4632206  56.8493462  29.0559554  28.2429481
  55.6219149  29.1129065  29.1267776  18.6834424  62.0995417  68.2285587
  18.4810728  61.3542202  68.7940441  18.5174173  61.7794755  67.3418657
  92.5471115  32.2879100  25.1480889  92.7443123  32.7645183  25.9544301
  92.4971008  31.3709188  25.4180098  81.6265488  21.3035679  30.1580644
  82.0785522  20.8757687  29.4308019  80.7284832  20.9762096  30.1077008
  69.9866676  49.0434074  26.0067654  69.6909714  49.7615862  25.4472923
  70.6186914  49.4475412  26.6012859   0.9354601  60.9116745  69.2031002
   0.5414114  61.2989092  68.4214306   0.1991854  60.7728291  69.7987843
  83.2518291  31.5852141  42.4415874  82.9981422  31.7367506  41.5311384
  82.4399471  31.6916251  42.9373264  82.9566860  47.3592329  17.8451860
  83.7190914  47.9369926  17.8792703  82.2068024  47.9462671  17.9416537
  75.0062656   3.8281897  19.1545737  74.0838718   3.6206532  19.3040633
  75.3826571   3.8922641  20.0323319  59.2753792  30.0856471  30.0204921
  59.5257616  29.4809318  30.7189631  59.7511816  29.7729945  29.2510152
  82.0244691  23.1583223  46.8427603  82.6236722  22.5139961  46.4658920
  82.4539658  24.0006837  46.6938035  82.0197868  33.6697698  30.2097011
  82.7123260  33.1007648  29.8737621  82.4665642  34.4877577  30.4276872
   8.2430659  20.5831170  17.9092991   7.8987894  19.8689938  17.3728871
   8.5159693  21.2477016  17.2767806  68.6631680  51.0324955  11.2283587
  68.4191656  51.1027241  10.3054488  69.0701342  50.1693821  11.3034964
  92.6251793  10.9892571  12.7350819  92.8564739  11.0906041  13.6583710
  93.3717251  10.5302119  12.3501420   7.8566657  34.0582442  29.5420480
   8.7409602  34.4126487  29.6350455   7.4065791  34.3239546  30.3439546
  93.9176273  16.5639889   9.1753864  94.1318130  17.4722373   8.9622170
  93.7881660  16.1426747   8.3257014  72.0463753  32.9529142  43.1866646
  72.5860500  32.6501083  43.9169312  72.2577667  33.8826346  43.1020117
  53.0830479  12.1899772  55.0287294  52.8293419  13.1082356  54.9356318
  53.3384228  11.9213879  54.1461945   9.5203314  11.8761516  30.9591269
   9.0280829  11.8230867  30.1399112   9.0383635  11.3132834  31.5650368
  93.3180141  69.5228052  20.3265238  92.7403069  68.7702942  20.1992130
  92.8157043  70.2686167  19.9983692  93.6368561  87.1648979  50.3419113
  93.8240433  88.1013870  50.2772570  92.9080582  87.1084309  50.9598923
  21.6874975  68.4896091  62.9293088  21.6775125  69.4459298  62.9691247
  21.3206476  68.2111123  63.7684075  36.3916105  84.3667153  72.6128067
  35.8801740  83.7158349  73.0934457  35.8795446  84.5376209  71.8223612
  71.3429928  73.8358879  15.3797257  70.4181242  73.6017847  15.4574513
  71.7169142  73.6217308  16.2344503  80.9045315  27.0504308  16.4594698
  81.5036488  27.4108624  17.1132207  81.4317322  26.9818068  15.6634879
  93.7213993  52.7901888  14.7447097  93.4590912  52.5343132  15.6289923
  94.6747017  52.8638744  14.7895491  82.6825714  20.7374573  25.9134269
  82.6025391  21.6913009  25.9099245  83.4625435  20.5606151  25.3874969
  92.1557617  17.7458274  16.4487684  92.6698017  17.3681796  15.7350588
  92.0755959  18.6723185  16.2220132  27.8911587  69.3396860  25.7621193
  27.4369284  70.1808101  25.7129359  28.5688159  69.4718403  26.4251041
  16.5048259  74.8125628  76.5422368  17.0680421  74.5402077  77.2666975
  15.6162733  74.6305254  76.8481294  91.0864830  41.6012526   2.9077822
  90.3227139  41.9127989   3.3934027  90.7318115  40.9670210   2.2847371
  40.5528921  42.0266271  76.3496075  40.2341836  41.1870644  76.6809558
  40.2379316  42.6698834  76.9846315  28.7255011  44.4766235  23.7818718
  27.8315173  44.6451902  24.0795517  29.2641459  45.0895357  24.2822981
  29.4078153  58.2954279  64.0229039  28.5400194  58.6959687  64.0751628
  29.2997068  57.4357572  64.4297354  76.8815136  45.2581739  32.2129083
  76.2783766  45.7440567  32.7753806  76.3128328  44.7612524  31.6247725
   0.2269659  26.9458795  16.8269622   1.0154066  26.8497729  16.2927759
   0.0839911  27.8911161  16.8750453  19.6516047  60.4176426  53.9676237
  19.0955553  59.9913549  53.3154535  20.5400572  60.3210974  53.6247540
  26.8223852  41.0523692  74.6902567  26.5748971  40.2097020  74.3096073
  27.6300806  40.8702552  75.1705612  30.6559655  84.2624122  31.8322110
  29.8118874  84.5991513  31.5315914  31.1199376  84.0272519  31.0286808
  81.9590759  25.3572106   1.8474506  82.8834915  25.1521063   1.9874793
  81.8336964  25.2651024   0.9029777  29.7639650  86.5340999  72.0497466
  29.9083608  87.4699119  72.1898730  30.4868024  86.2622598  71.4842038
  86.8186092  25.2651238   9.0130234  87.6031876  25.5715036   8.5582590
  86.1311245  25.8728528   8.7405157  82.3112583  50.7750702  20.0894690
  83.0590153  50.1954460  20.2347922  82.1309757  51.1537457  20.9498954
  90.7928944  35.6955147  47.3877621  90.3844070  36.1733866  46.6659546
  91.3587189  35.0529528  46.9597578  76.1560392  71.9160891  20.3872108
  76.1865330  71.9010067  21.3438082  76.2785673  72.8373671  20.1581693
  13.0985651  23.1420755  23.4310937  13.2163153  23.7375355  22.6909614
  13.0735884  22.2706676  23.0358005  56.0675049  13.1158292  11.7031312
  56.2793446  14.0263605  11.4974928  56.7357445  12.6053095  11.2459075
  71.0755154  26.7011699  32.7461688  70.2370164  26.6302356  32.2899644
  71.3045022  27.6284704  32.6836554  23.3534346  58.0219126   6.3516736
  23.0598174  58.5219860   7.1132177  22.5509749  57.8330803   5.8652288
  86.3369274  30.6256104  36.0127163  86.9574451  29.9078512  35.8861732
  86.8481064  31.3111067  36.4428592  74.3472815  13.9604759  18.0582213
  74.5773172  13.4856749  18.8568950  74.8990631  13.5703361  17.3803127
   1.4955721   2.3843352  38.1332397   1.1843501   2.0674673  37.2853208
   2.0373736   3.1442919  37.9207635   6.2312708  57.4137211  29.0290380
   6.3980399  56.5356874  29.3717909   5.3206644  57.3871756  28.7352204
   8.6163721  50.6084156  27.9608560   7.9840765  51.2487841  28.2869840
   9.4663058  50.9451866  28.2444668  57.3052022   3.1053361  64.7278659
  56.5993592   2.5612411  65.0771312  57.2919652   3.8929424  65.2716760
  64.9512577   6.1038440  16.4520919  64.5118475   6.9431579  16.3153398
  64.3430710   5.6004697  16.9933450   2.0000658  19.0470850  17.2037995
   2.7769099  19.5929706  17.3252773   1.4603625  19.5337725  16.5808260
  40.5707941  29.4101381  55.7551384  39.8394309  28.9478517  55.3457117
  40.3013049  30.3286099  55.7594204  80.6562042  63.0401659  24.0609193
  80.6740570  62.2671700  23.4966612  81.5694904  63.1721449  24.3153191
  19.9145422  43.4702206  11.5517449  19.4641886  44.1797686  11.0935390
  19.2143546  42.8736687  11.8164945  15.1631556  63.7105083  29.8747206
  14.4192419  64.2788363  30.0742888  15.5707560  64.1104078  29.1064906
  85.1446247   3.6687911  15.2252412  84.7319794   3.9550099  16.0401261
  85.1612854   4.4531459  14.6768415  85.2749825  40.1307297  41.7814255
  84.5926571  39.5479941  42.1147108  85.6885529  39.6355081  41.0743570
  70.4590985  79.5669204   3.0607012  70.5314538  78.6154216   3.1358409
  71.2888810  79.8980927   3.4042397  72.3306799  59.5959759  17.7278924
  71.8124628  60.2101994  17.2078824  72.6170921  58.9327431  17.0999444
  82.7293491  41.1133909  11.0207474  82.0302010  41.5602684  11.4979637
  82.4529839  40.1973629  10.9932458  63.5730550  79.7415137   9.4274455
  62.9409215  79.0682787   9.6792114  63.1017014  80.2902001   8.8005519
  73.4232712  67.2357130  32.3088169  73.7323618  66.4756060  32.8016949
  72.4764824  67.1105433  32.2443819  92.2574043  41.9313288  31.6995525
  92.4322128  41.0373354  31.4055300  91.3187313  42.0515108  31.5557837
   4.6391306  31.9510746   7.2843486   4.1680251  31.4715552   7.9657805
   5.1725111  32.5855231   7.7631158  89.3857479  34.3783975  56.8596649
  89.8215866  34.0371299  56.0787582  90.1005650  34.5860863  57.4614382
  72.0655918  39.1824555  17.7296960  71.2461042  39.3740797  17.2736788
  72.7491379  39.4771314  17.1278965  72.0627165  24.6161699  31.3154721
  71.5786505  25.2872443  31.7966914  72.2625780  25.0231934  30.4724908
  80.6556511  52.6901817  32.9195809  80.9810829  52.7582788  32.0219803
  79.7814322  53.0787039  32.8875113   4.4699583  21.8796659  40.5831575
   3.8434420  21.8371320  39.8607326   3.9726935  21.5917468  41.3487053
  83.6795998  76.0162592  37.6189756  84.5638657  76.2334156  37.3237538
  83.6072254  76.4267159  38.4806705  12.9632483  28.7681293  40.1480961
  12.2216807  28.4744716  40.6773233  13.2524882  29.5775390  40.5693102
   3.5516272  27.6657081  17.9212153   3.4665308  26.9480586  17.2935462
   3.4706889  27.2457862  18.7775707  56.7169666  22.1531129  55.3716707
  56.2595367  22.4079657  54.5703983  57.1441603  21.3255239  55.1506948
  89.7003841  53.6814690   1.0532443  88.8522434  53.2377577   1.0509223
  90.2893257  53.0700922   1.4955088  12.5317853  73.3366874  72.8289397
  13.2685083  72.7556947  73.0184532  12.5886672  73.4961155  71.8868260
  68.4875104   1.0400972  71.7589317  67.9476258   0.3414211  72.1285383
  68.5426232   0.8322248  70.8262019  63.4493685  26.7323589   8.2220870
  63.6458826  26.1061239   7.5253487  62.4944448  26.7257595   8.2877284
  37.2824764  40.9265232  22.6354742  38.0388880  40.4095316  22.3583627
  37.6582813  41.6544151  23.1306243  72.9124784  67.3704863  37.6935697
  72.9989338  66.7002249  37.0157003  73.5303307  67.1037960  38.3742785
  41.5812486  84.1512254  72.1231825  41.4518064  84.2209342  71.1773406
  40.7027048  84.2409828  72.4924181  45.8408461  21.1896086   7.6931494
  45.3959475  22.0351601   7.6353097  46.1762247  21.0345292   6.8101412
  63.6941004  54.7499609  57.8558016  64.6193457  54.7179461  58.0989552
  63.6492062  55.4179764  57.1717215  15.0118170  26.1171699  67.9270887
  15.5418024  26.0423541  67.1335173  14.4788180  25.3221369  67.9349756
  14.6722231  51.9489098  31.9896483  14.3164168  51.2421179  32.5282383
  14.2563067  52.7413607  32.3291516  56.9921589   5.1827562  13.2198787
  56.3227129   5.3185463  13.8904262  57.2769165   6.0655195  12.9835021
   9.1184245  73.8042450   1.7077877   8.2522402  73.5420513   1.3960072
   9.3971453  73.0845594   2.2740094  86.5899467  20.4814100   3.0279166
  86.9926453  20.8511782   3.8136211  86.4677238  19.5548642   3.2348186
  84.1879082  24.3253899   3.5169116  83.5328579  23.6574268   3.7193042
  84.9280453  24.1153455   4.0863991  17.0442019  14.2630482   2.5233284
  17.0971976  14.0470445   1.5923256  16.3952933  13.6530781   2.8741655
  30.9593290  66.7782095  57.8943030  31.0944551  67.7020171  58.1053833
  30.6970685  66.3788799  58.7237529  45.9101578  80.6874931  10.5615473
  45.0144908  80.5468678  10.8685279  46.0020634  81.6393155  10.5188835
  58.0396032  11.2184417  29.3860102  58.2787180  11.0491943  30.2972794
  57.4038172  11.9323862  29.4338560  14.6485243  43.2044888  29.5064855
  14.7746954  43.4688091  30.4177737  14.5770369  42.2506046  29.5414782
  76.7077780  75.2407789  47.2825670  76.1955357  75.3080511  48.0883646
  76.5306234  76.0582542  46.8171883   5.3530894  22.6125145  16.3319457
   6.2268076  22.6345634  16.7222834   5.2779112  23.4451795  15.8658457
  49.9963376   8.4002695  53.9159815  49.4264409   7.9293832  54.5240204
  50.2577111   9.1875419  54.3935959  93.5384750  34.7385335  12.8023946
  93.6446762  34.8561788  13.7463820  92.8447723  35.3523540  12.5610745
  42.7937981  87.9825515  38.4623814  42.2744366  87.2289804  38.1819773
  42.5623938  88.1036069  39.3832660  91.7699242  30.1570964  39.2818332
  92.1589088  30.9369826  39.6776867  92.3063850  29.4324255  39.6032166
  86.3206959  31.5632629  48.7031031  86.2754631  31.7503381  49.6407557
  87.0887470  30.9999800  48.6080360  63.0195808  56.1348343  22.6348233
  62.9178429  57.0763540  22.4954677  63.4079027  56.0623455  23.5067081
  25.4570780   2.9276302   8.3850002  26.0809145   2.2821476   8.0527318
  25.1360903   3.3754927   7.6022971  90.0211048  34.3802047   5.1006883
  89.9712944  33.8121295   5.8694804  90.8445072  34.8564267   5.2077121
   0.9354251  82.0340231  75.9869397   0.9446805  81.8730834  75.0434121
   1.8031591  81.7611650  76.2849730  82.6234627  52.2324705  22.7887416
  82.5032616  52.0875931  23.7272477  82.2863579  53.1155014  22.6376009
  84.0691360  64.6053174  76.4120919  84.0855964  64.0316549  75.6460161
  84.1293891  64.0094999  77.1588204  50.3239346  51.0987139  25.4046702
  50.0272512  51.7603064  24.7797680  51.2792110  51.1339951  25.3553629
  92.0660210  23.0229473   1.9458543  92.3611546  22.1249461   1.7951050
  92.8345108  23.5621738   1.7590415  61.3234663  54.6926260  18.6473787
  60.7321024  54.4898748  17.9225254  60.8515072  54.4054222  19.4290435
   7.5122462  50.4143381  11.5950024   7.4495612  50.0412083  10.7157564
   7.3829089  51.3539743  11.4662111  48.3669469  80.6377596   2.2187342
  48.0263564  81.4864671   1.9360226  47.6451680  80.2402246   2.7058029
  44.5553490  16.6826400  51.3821260  45.0818536  16.8141994  50.5936353
  45.1919839  16.4568195  52.0603101   9.3693457  48.0938435  46.8089247
   8.9284621  47.3560905  46.3875246   8.6910162  48.7644768  46.8885756
   0.9251223  32.4078989  23.7086415   0.1046286  32.3186064  24.1934657
   0.8135901  33.2074070  23.1942701  18.4596723  56.4631298  72.5493966
  17.8760332  56.6409233  73.2869498  17.9259675  56.6375724  71.7741774
  32.5994485  87.2196010  55.7009999  32.8680986  87.9745057  56.2246148
  31.7448038  87.4655727  55.3470199  58.1570622  30.4028043  59.1775171
  57.3272225  30.8287868  58.9627389  58.8156697  31.0868702  59.0570073
  19.0191263  61.3428775  72.9822440  19.9431890  61.5117195  73.1661753
  19.0283483  60.7693282  72.2159622  80.6258869  36.1556530  27.9376602
  81.0068703  36.9793725  27.6334190  79.6809244  36.2837911  27.8548074
  84.7531605  17.8928506  10.6135583  85.3983212  17.1925032  10.7111061
  84.0187168  17.6202452  11.1635673  77.6376152  20.5199742   2.9832712
  76.9615650  21.1268950   3.2846659  77.1776342  19.9228442   2.3932841
  67.7499342   8.2804793  21.3553739  68.6297321   7.9092014  21.2894917
  67.8840446   9.2263561  21.2956786  70.8621979  62.9581928  21.5197158
  71.3603020  62.1987343  21.2174773  69.9973249  62.8503036  21.1240101
  76.7343330  30.6137180  29.4770098  76.5598297  30.8064795  30.3982162
  76.9774628  31.4581633  29.0974951  88.8961776  81.4120177  76.3688489
  88.8489802  82.3679951  76.3795265  89.7747453  81.2192324  76.0414591
  67.8464937  63.5319996  21.5311432  67.9243088  64.4800806  21.4247489
  67.3824167  63.4213972  22.3609781  71.2421846  75.0916338   8.8398504
  71.3305759  75.0212812   9.7903609  70.6964397  74.3446350   8.5941172
  67.4608517  43.9140129   6.0950124  68.3246183  44.2258453   6.3650006
  67.1445084  44.5818424   5.4866028  75.2005577   3.5548222  25.4284835
  76.1311102   3.3421448  25.4996967  74.8032856   3.1533238  26.2012744
  74.9340773  56.4008331  30.4238987  74.1680241  56.9406319  30.6188750
  74.7977114  55.5998325  30.9298944  78.4832144   5.9135228  36.5419602
  79.0020704   5.1987821  36.9109631  77.7648640   5.4766077  36.0844541
  75.2341986  12.7862239   0.4414391  75.2080584  13.5966039   0.9501952
  76.1607313  12.5468659   0.4196727   5.3253851  44.1688442  56.7537737
   4.8687277  43.5207605  56.2174082   5.5430327  43.7016821  57.5603819
  56.4412591   6.3174257  65.0410704  55.5560967   6.5550193  65.3172402
  56.3880917   6.2635479  64.0868680  76.8846795  86.6054943  25.5740809
  77.1865460  85.8952504  25.0078130  77.6274583  87.2075006  25.6198406
  46.4231205  11.8654037   9.4842970  47.0457792  11.1533296   9.6308619
  45.5801296  11.5075338   9.7627217  84.4968510  68.8265038  13.1570852
  84.9888897  68.5416460  12.3870313  85.0206280  69.5374393  13.5264969
  68.3303356   1.3792855  31.8696809  68.1286335   1.7545980  31.0125399
  68.2579422   2.1158430  32.4767017  90.9391578  74.2642477  52.1803371
  90.4976543  74.0374139  52.9987804  91.5966876  73.5782865  52.0648043
  84.3411732  48.9234972  11.2465000  83.5569763  48.4195995  11.4640999
  84.0097618  49.7853661  10.9943688  74.8941548  61.6982690  76.5241990
  74.6777185  62.6228550  76.6447270  75.3231557  61.4442185  77.3412979
   2.7158175  35.1893950  77.0562077   2.6648150  34.3140745  76.6722202
   2.6450835  35.7832789  76.3088560  86.4876842   5.2063930   5.2870417
  86.0401058   4.3896049   5.0662279  87.3031521   5.1754701   4.7867531
  71.2937943   5.6025550   9.2336257  70.6123464   6.0796973   8.7601359
  71.1734788   4.6899030   8.9712794  75.1619720  25.9787297   3.9270213
  74.5824862  25.2657247   3.6585987  76.0436821  25.6164956   3.8398367
  17.7576647  29.9663472  58.1064653  18.2113562  29.5450664  58.8364792
  17.6628886  30.8792734  58.3781528  89.8233986  16.2673819  28.9534760
  89.1196823  16.5025902  29.5581961  90.3608131  15.6440294  29.4422030
  83.7420464  12.2164559  34.3400741  82.9133034  12.2841239  33.8658929
  83.4856892  12.0951402  35.2542925  12.7497302  29.0791488  36.7977858
  12.2985373  28.5899782  37.4858069  12.2776995  29.9102521  36.7459226
   8.1835979  67.7361563  75.8146862   7.8172391  66.8715552  76.0003651
   9.0567296  67.7154687  76.2063984  34.7996912  19.5328510  28.6207271
  35.0735007  19.1398096  27.7920055  34.4090758  18.8096714  29.1112947
  24.4989109  16.0607028  30.5524182  25.0387383  16.0543370  29.7619915
  23.7517881  16.6152847  30.3277469  79.9878454  49.1231537   2.9913279
  79.1897964  48.9870262   3.5020328  80.3180885  48.2405949   2.8232214
  94.1240215  29.9020123  16.2550652  93.4192657  29.9150133  16.9026601
  94.4912148  30.7855439  16.2829149  90.4607964  12.7784753  28.5756445
  91.0985565  13.0348301  27.9094791  90.4350281  11.8228412  28.5273767
   7.2539435  41.0248804  22.6121235   7.7958785  41.3329411  23.3385110
   7.0235358  41.8198204  22.1312737  62.4519157  42.7052164  55.8631945
  62.8006029  43.3329821  56.4960957  62.8051090  42.9926682  55.0212574
  90.8459854  74.8999119  16.2059736  91.7211056  74.6312237  15.9263170
  90.4791832  74.1217089  16.6256022   9.2604647  68.5478735  32.2049189
   8.6396799  69.2265797  32.4698973   9.3550692  68.6656380  31.2597132
  61.1281882  49.5306206  21.0475063  60.8000002  48.8472652  20.4630828
  61.8015013  49.9797821  20.5364943  52.9257577  59.5665994  75.2562222
  52.6282781  58.7770048  74.8042477  52.8233903  59.3633166  76.1859695
  93.5050297  20.2567840  43.5380363  94.2211819  20.8818865  43.4257984
  93.9002895  19.5212030  44.0059280   4.1674624  32.2670197  32.8661108
   3.5544882  31.7423034  32.3511600   3.6151514  32.9031277  33.3205891
   3.2966719  43.3472490  36.1819100   2.3521815  43.2162857  36.0980940
   3.6831007  42.5738811  35.7710576   7.5910769  42.3957300  16.8597364
   7.7135668  43.3450603  16.8606091   8.4520922  42.0429373  17.0842838
  19.9547189  61.7011669  61.4731304  20.9089559  61.6432265  61.4251308
  19.7757619  62.6373080  61.5616958  78.6292744  74.7231483   5.1995921
  78.8596964  74.0020466   5.7853824  79.4131422  74.8591948   4.6673560
  82.9878330  25.4356241  32.0361114  83.3808994  24.8798680  32.7090669
  82.3047352  24.8911452  31.6447711  45.7714558  35.3752947  18.0227077
  45.2595854  34.8019099  18.5931885  46.2151575  34.7789645  17.4195886
  85.5715942  44.9445009  22.0029330  84.8727798  44.7997570  21.3650131
  85.9705162  44.0824270  22.1209240  87.2798443  26.2143135  16.9572651
  87.9136658  26.1319017  17.6698017  87.7739811  26.6155577  16.2423742
   4.0034781  59.6425200  28.5414457   3.6223898  60.5205441  28.5506606
   4.1670523  59.4427347  29.4631624  76.1192799  62.6578283   0.7148675
  77.0175886  62.3878622   0.5241071  75.9370470  62.2897339   1.5794653
  89.9622059  64.2730141  32.9093528  90.7906437  64.7230577  33.0748296
  89.3682671  64.6103477  33.5799336  22.4878877  77.1920803  72.3578594
  22.0647424  77.9547504  72.7522184  21.8000692  76.7803410  71.8347816
  87.5634193  55.9489584  30.1159573  86.7556286  56.1177588  29.6309590
  88.1789684  55.6342888  29.4539094   4.7380934  73.2976961  39.8493075
   4.8882399  74.1017008  39.3520474   5.0278101  72.5970650  39.2650032
  92.1452332  23.6402225   4.5810217  91.5618992  22.9647040   4.9268982
  92.2515011  23.4146595   3.6568686  64.9387550  47.7438688  25.6539440
  65.8613920  47.5450897  25.4943943  64.9541473  48.4508610  26.2990475
  84.2381573  58.8466692  19.6294534  84.0294647  59.6857071  20.0401759
  83.5973644  58.2358503  19.9934745   0.5143652   7.9655439  21.5743470
   0.0548373   7.8783554  22.4094892  -0.0131979   7.4591863  20.9566808
  75.6270409  26.4241052  25.7012701  75.1642752  27.2468615  25.8598614
  76.5344954  26.6858697  25.5455756  62.1781540  72.4491787  55.4537535
  62.2345257  71.6238689  54.9721766  61.9372511  73.0969477  54.7914934
  88.6775875  63.8938427  30.4194212  88.2119751  64.7050905  30.2161694
  88.9893341  64.0148687  31.3163042  78.6249975   8.5844714  36.9199729
  78.2386020   8.5916907  37.7956891  78.8296417   7.6638800  36.7560577
  89.0629673  77.9610252  11.6598511  89.2591858  78.8322163  12.0044577
  88.2428837  78.0727768  11.1790061  85.2705479  53.4322739  23.8857555
  86.1611652  53.6096478  23.5831523  84.9031162  52.8500986  23.2207012
  74.0789318  58.4317827  54.3455362  73.5941505  57.6132202  54.4512653
  73.4804249  59.1074610  54.6640968  92.3159790  81.9106579  21.8627024
  93.2167721  81.8987560  22.1862149  92.2876263  82.6540375  21.2603545
  79.9772930  79.7149658  18.3818769  80.6906414  79.2934275  17.9026377
  80.1377964  79.4888735  19.2980397  36.7904196  59.8623323   1.9196135
  36.4980135  58.9510298   1.9355035  36.9292555  60.0531864   0.9919643
  12.9580126  50.9360456   3.1498724  12.5087462  51.3736391   2.4267548
  13.8863669  51.1117172   2.9964444   4.1055117  45.8495855  32.9518390
   4.2716418  45.8293962  33.8942957   3.6975584  45.0046539  32.7623892
  88.6716175  71.1811876   3.6486503  89.1308403  71.9224787   4.0434068
  88.8506794  70.4476833   4.2369846  58.4820938  25.9497571  32.8574109
  58.9072132  26.2884212  32.0694947  57.5508451  25.9290075  32.6370049
  75.4550123  24.0782857  54.9162245  75.7040548  24.4857383  54.0866470
  76.2825012  23.7825656  55.2957535  85.8084580  19.4423255  64.0142540
  86.4292714  19.5791921  64.7298602  86.3407513  19.5010528  63.2208733
  82.3607922  52.6966095  35.1802611  81.8170166  52.9148340  34.4233465
  82.9512310  53.4440899  35.2744746  77.9779243  32.2925544   1.9553271
  77.6412725  31.4275074   1.7216770  78.0223894  32.2820306   2.9114357
  87.5047398  37.7167010  43.1687641  87.9686546  38.2881784  43.7806702
  87.1304798  37.0293117  43.7198162  39.9081891  76.4829019  59.2623500
  39.0948575  76.0971621  59.5878057  40.6001943  75.9927276  59.7063069
  23.8992606  25.4956579  18.2852936  23.1608305  25.2555180  17.7255642
  23.8238440  24.9158192  19.0431416  33.1214152  75.6133080   7.8187966
  32.8801642  76.2950230   8.4459287  33.4686861  74.9032545   8.3586693
  63.6188412  51.2822723  11.5425336  62.9252529  51.8930149  11.2932110
  64.4302607  51.7326546  11.3080573  76.5854025  31.7171741  31.9283915
  77.3685932  32.2624278  32.0028663  75.9249973  32.1741629  32.4492145
  57.0049855  26.7517385  74.0892113  57.3861596  25.8755359  74.0325592
  57.7574918  27.3426160  74.0604244  90.8336544  62.7350998  38.8664150
  90.7017136  61.8716049  39.2578220  90.0225067  62.9079008  38.3884835
  45.5837339  81.3246825  75.9847877  44.9370283  80.8607796  75.4529947
  45.1544279  82.1470884  76.2205454  56.4960432  57.9179716  13.0273211
  55.5881500  57.8051805  12.7458310  56.4308643  58.1925726  13.9419663
  80.5526829  82.6602364  18.0369949  80.4095745  81.7138863  18.0243790
  81.4732361  82.7664852  17.7971637  73.7991953  42.3598242  10.5384076
  74.2083168  42.2455072   9.6806294  74.0051651  41.5535259  11.0113704
  87.0640182  42.6269913  38.4809279  86.3043880  42.5062323  39.0506744
  87.6248550  41.8738604  38.6666512  15.7742320  53.3589649  16.2337530
  16.5892992  52.8618574  16.3029313  15.2264224  52.8399992  15.6448448
  14.7054968  34.0512753  25.7075739  15.0634394  33.2551908  26.1004543
  13.9249907  34.2445993  26.2268734  28.9189809  82.3013476  49.5657293
  29.6902650  82.2150067  50.1260034  29.1996854  81.9584611  48.7172787
   6.6957579  38.6305141   0.8635002   6.2282954  39.4366169   1.0823750
   7.3650942  38.5497642   1.5429893  63.2381821  48.1433105   6.9412500
  63.9847755  48.7245512   6.7963827  62.6588821  48.3075190   6.1971539
   0.4193793  44.8030376  27.7468801   1.3424979  44.9895573  27.9180455
  -0.0461855  45.2049923  28.4803033  18.1347094  65.0077486  40.7036161
  17.5606833  64.2435789  40.6509972  18.4909640  64.9790096  41.5915871
  82.6294041  32.4958134   6.6466582  82.5650501  33.2055664   7.2856718
  82.8432655  32.9338622   5.8228803  85.1777267  42.1095228  10.9096479
  84.3298054  41.7176867  10.7005382  85.8149147  41.5580034  10.4557216
  90.9711552  49.7420359  41.7856216  90.5732536  50.5537367  41.4708996
  91.6617870  49.5519590  41.1506939  74.5452404  61.7651987  26.3748217
  75.1185369  62.3072815  26.9167757  73.7332916  62.2677040  26.3080788
  70.9374380  51.7318010  18.7842667  71.6516113  52.1275759  19.2838156
  70.1895475  52.3093653  18.9369607  88.1671521   5.9547672  60.9720020
  88.3619019   6.5245447  61.7160849  88.9029881   6.0827121  60.3733282
  75.7167149  39.4851828   7.3121959  75.4172945  39.1396666   8.1531465
  76.3706493  38.8535094   7.0128769   7.7294741  74.6255970  54.2555904
   8.2559023  75.2279091  54.7812653   8.3715067  74.1066408  53.7711239
  82.6385403  86.8865395  35.5214858  82.1630955  87.4008274  36.1739302
  83.3651161  86.4962006  36.0072470  88.1120682  27.5013423  22.7929306
  88.4362411  27.7710462  21.9336247  87.9198742  28.3228445  23.2450652
   5.4998980  48.3459759  16.0510099   5.7370768  48.9993954  16.7090511
   5.5782710  48.8074875  15.2160883  24.8476216  21.7860088  68.0291258
  24.2546794  21.0959158  68.3264790  25.6899401  21.5659198  68.4269826
  83.8850304  29.9494085  74.8760178  83.0086323  30.3070840  74.7337825
  84.4768807  30.6567583  74.6198946  42.2762775   6.5850848   7.6821250
  41.5576744   5.9947646   7.9087514  41.8817139   7.2272235   7.0920330
  57.0400810  69.7584581  19.3113172  56.2511635  69.3789196  19.6983480
  56.7553091  70.0834751  18.4572101  30.0344194   5.1733977  61.1311960
  30.8188833   5.4337603  61.6139650  30.2519144   5.3386217  60.2137947
  79.7291899  42.0095444  46.4137030  80.1369762  42.6362896  47.0113087
  80.1085663  41.1650467  46.6568708  26.6078768  44.3497705  57.5531387
  27.3831187  44.4185114  56.9959116  26.9542227  44.3417549  58.4454441
  81.3547421  75.6862259  24.8192382  81.4926720  74.7583246  25.0095034
  81.1944008  75.7160664  23.8760352  65.8388138  79.4409227   3.7238362
  65.5477333  79.0065289   2.9220834  66.6473579  78.9873075   3.9620104
  91.6697598  68.1948376  62.1493673  91.7424679  68.3775139  63.0861568
  90.9674263  68.7705660  61.8468809  70.5807924  49.6382189  13.2511985
  70.8405018  49.9289227  12.3769724  71.4031792  49.3972254  13.6776173
  75.6690216  61.4540958  56.9967890  75.2273369  60.6329632  57.2133350
  74.9858427  62.1203995  57.0711899  16.3017524   4.1461760  22.3243618
  15.4446424   3.8405520  22.6213193  16.7853368   3.3449274  22.1234417
  85.4241657  61.6343498   1.7723073  85.5133820  61.0059786   2.4888417
  84.9841022  62.3870707   2.1672499   3.6768732  39.2445445  72.6697636
   3.5965739  39.6729589  71.8175650   3.8238535  38.3219886  72.4611521
  92.2961140  28.7326884  21.2144518  92.3509598  29.6806622  21.3351560
  92.3830891  28.3733916  22.0973849   4.0418635  39.2282295  49.0719843
   4.6892939  38.6019230  49.3957138   3.2962809  38.6881328  48.8100052
   4.9383555  29.6551037  24.7255206   4.0741263  30.0583363  24.8076606
   5.0906763  29.2400670  25.5745053  21.4234457  67.3731470  11.3320482
  21.7668543  66.7431307  11.9655943  21.7092905  67.0381927  10.4821491
  72.5523901  39.4551587  39.2592883  72.1499157  38.6597300  38.9106655
  72.8289843  39.2157507  40.1438284  94.3778896  34.2579699  31.9547701
  94.6891785  34.8317194  31.2546682  93.4328556  34.4071722  31.9843173
  90.3466797  73.3777094  38.6885142  90.1336193  73.9113617  37.9229760
  91.3034916  73.3601427  38.7094450  14.3680633   8.6032492  42.5636435
  14.4796671   9.5503527  42.6458645  14.5339788   8.4219462  41.6385269
  22.7147494  60.3040791  17.5076032  22.1818743  60.4947090  16.7356384
  23.1289778  59.4638109  17.3111498  54.5772696  72.5493717  39.1545343
  54.2678690  73.0077410  39.9358153  55.5309486  72.6189280  39.1979599
  66.9474888  87.7468395  28.2973862  67.2317028  86.8579578  28.5103273
  66.9399261  87.7731323  27.3405766  88.8758373  17.8075266   2.9187712
  89.6003342  18.3979952   2.7121767  88.6232090  18.0417013   3.8118404
   9.4770349   0.5087000  53.3906221   8.5646881   0.7791907  53.2872725
   9.7203172   0.8154303  54.2640972  62.4987125  83.3138943  26.5674710
  62.3685694  82.3708916  26.4672589  63.4415388  83.4128189  26.6998696
  90.9659672  44.3672132  21.2235689  90.3384209  43.6630297  21.3865185
  91.7814445  44.0571928  21.6174102  39.4908915  55.3157997   7.5658894
  39.8684512  55.1121759   8.4215856  39.3480692  56.2620687   7.5861567
  77.5665188  33.8402271  27.7474666  78.3342981  33.4917569  28.2005811
  77.5453520  34.7661018  27.9894161  87.6151427  45.4779768  66.7874432
  87.9014881  44.7496414  66.2362957  86.6849597  45.3115511  66.9400692
  66.3461501   2.5365445  11.6539081  66.6520709   1.9773766  12.3680289
  66.1068255   3.3596465  12.0798858  89.7791060  35.5262184  65.0603485
  90.4771199  34.8713827  65.0744295  89.0788402  35.1412129  65.5872536
   1.0295338  11.6554022  38.0476665   0.6407246  10.8381701  37.7359152
   0.3508352  12.3144507  37.9018760  68.6179509  53.7076473  68.7014771
  68.9555683  54.2989874  69.3742085  67.9345598  54.2121220  68.2602119
  37.9816628  54.1899824  74.5329714  38.3056235  54.8505116  73.9206171
  38.7516713  53.6628246  74.7460985  67.5405914   7.3493716   4.6420558
  67.6096908   8.2863089   4.4587215  66.8849528   7.2889849   5.3368457
  75.0352516  59.7876072  65.5796051  74.5272913  59.7195959  64.7711611
  75.2929582  60.7084036  65.6238031  15.6688503  65.0431958  45.6806167
  16.4423171  65.4865995  46.0289939  15.4521302  64.3852010  46.3411506
  93.3349067  18.1283805  20.9209617  94.1251093  18.6184832  20.6937869
  93.2134825  17.5189111  20.1929362  12.7259517  47.5173235  33.8861322
  12.4260843  48.2579660  33.3591056  11.9284487  47.0271921  34.0861082
  30.6822515  20.0599504  41.1517477  31.0038114  19.8574090  42.0302725
  31.3712049  20.5987644  40.7628345  18.5382164  41.1676884  16.1572444
  17.9684019  41.7737913  16.6307282  18.7999749  40.5224419  16.8140316
   6.9717127  53.1797981  40.4672146   7.8526080  53.4317017  40.7443380
   7.0632648  52.9726791  39.5371842  59.3170864  17.3748681  45.1607402
  58.6940614  17.8622672  44.6217521  60.0219447  17.9985186  45.3352912
   9.2921937  40.5214548  42.3582792   9.6346200  41.3374043  42.7232552
   8.8204354  40.7909632  41.5702152  27.5583267  24.3824601  68.3585405
  27.4266362  24.1255140  67.4459267  28.3640671  23.9362383  68.6191177
  21.6311145  52.9773474  72.4590015  21.5551090  52.1520042  71.9801807
  20.8483601  53.4701300  72.2126389  10.1729465   9.4349980  44.4807768
   9.9013805   8.5207951  44.5627260  11.0835266   9.4417304  44.7757864
  20.7445741  43.6212158  69.5379162  19.7975922  43.6386299  69.6763182
  20.8488226  43.3336258  68.6309147  53.7628323  43.4791228   5.2846511
  53.6038178  43.1055400   4.4178279  53.0699456  44.1301390   5.3956683
  80.2602508  57.3769522  57.1794081  79.6410372  57.3041391  57.9057026
  81.0139706  57.8343010  57.5521946   4.2240563  53.8937521  69.2617273
   3.7612775  53.0606222  69.1725016   5.1092589  53.7109661  68.9467096
  91.9023584  78.1368399  63.9551735  91.2418361  78.8208914  64.0647697
  92.7373186  78.6043644  63.9774084   7.2122383  53.9314747  34.9361873
   7.9532909  54.0609217  34.3443108   6.6319597  54.6717978  34.7589135
  22.0453957  87.5259963  13.8513358  21.9787929  86.6330901  13.5129340
  22.9769734  87.7369347  13.7888892   2.1918413  31.2130952  71.7645264
   2.7059788  31.4918900  71.0067892   1.4588004  31.8278313  71.7958832
  91.6038244  45.5389118  74.1370583  91.9780960  46.3172007  73.7242460
  92.1740664  44.8223591  73.8584757  60.7461565   6.7282244   1.8345721
  61.3628790   7.4137112   2.0914682  61.0669737   5.9405514   2.2737439
  93.3964070  44.1598797  47.2666311  93.9879665  43.9113951  46.5563202
  92.9793291  44.9651527  46.9603395  58.7332299  83.6405268   0.8479388
  59.1774753  84.1232982   0.1509364  57.8054670  83.6855593   0.6167300
  12.9860318  27.7867246  43.5292435  12.2309124  27.2041798  43.4475756
  13.4401262  27.4815464  44.3146706  86.7323019  60.7765150  76.0908747
  87.3231604  61.4388037  75.7324266  86.9593890  60.7304096  77.0196056
  28.1719905  17.8998467   3.9360126  28.6930663  17.7119586   4.7166617
  28.4578973  18.7710234   3.6611636   0.5342214  15.6311795  29.9262126
  -0.3238805  15.3941819  29.5744594   0.7726280  16.4309928  29.4575008
  79.0127510  34.8738095  13.0249866  79.1089899  34.3274352  12.2449573
  78.1164748  35.2061841  12.9755099  27.3682523  42.3519135  61.7893934
  27.1537471  42.1665001  62.7036381  27.4375534  41.4894676  61.3799810
  44.7747707  67.6920891  40.0495434  44.6750832  66.7746401  39.7954082
  45.4892683  68.0162287  39.5012164  12.0292485  52.3403883  53.2315683
  12.2949922  53.0255795  53.8448572  12.5106013  51.5637636  53.5168552
  19.6385661  50.9021625   5.6953605  19.8798695  51.7839542   5.4117282
  18.7915591  51.0128811   6.1272796  90.2308168  26.9230199  48.8435984
  90.7154768  26.7266679  49.6453381  90.6200563  27.7360034  48.5214520
  11.0819769  15.5297792  76.0950232  11.2253702  16.4661014  75.9572840
  10.2846861  15.4846644  76.6227770  15.8206701  61.1709023  61.6588879
  15.6470895  60.3486156  61.2006855  14.9863553  61.6394663  61.6344166
  19.6511594  88.6462632  53.0177005  20.3219012  88.0115929  53.2697471
  18.8578263  88.3449068  53.4604629  20.2615285  44.2635107  56.3360214
  20.9202933  43.8971090  55.7460976  20.5336571  43.9755630  57.2073793
  75.5724122  33.5438919  54.2793322  76.1003508  33.7856364  53.5183620
  75.6113746  32.5878024  54.3039083  91.1242833  53.0070925  62.7558613
  90.3198533  53.0924892  62.2441673  91.6803878  52.4293041  62.2332335
  56.3634014  32.2984597  14.5215972  56.6399896  31.5205333  14.0372832
  56.5409571  33.0268189  13.9264567  43.2935324  74.3028393   1.4972194
  44.0047971  74.9395552   1.5673955  43.0390790  74.3286767   0.5748256
  22.7592245  76.0186210  19.2610057  22.0528689  76.5351549  18.8730796
  23.5555658  76.5069714  19.0522273  49.6949625  22.7550197  63.6815548
  49.9086857  22.7716470  64.6144438  49.6257019  23.6773849  63.4352303
   7.5184301  79.5260420   3.6553081   7.5377920  78.7031570   3.1667216
   6.9456366  80.0959006   3.1420787  85.7898744  74.9590969  53.3481836
  85.8652123  74.3668318  54.0963650  85.8525773  75.8350897  53.7288904
   8.6470717  68.7382507  36.2560129   7.8583288  69.1094160  35.8606005
   9.3690205  69.1385031  35.7714319  63.2832156  26.6630360  10.9941466
  63.3458519  25.7524201  11.2824042  63.2687270  26.6112801  10.0384601
  82.8010513  61.0786200  45.2538824  82.4652686  61.0120153  46.1477757
  83.5758557  60.5166101  45.2465820  70.9726262  22.7610490  19.8416408
  70.2071327  22.7255770  19.2680629  71.6037232  23.3008906  19.3657096
  55.1830715  53.2159755   1.3108571  55.1193607  54.1009661   1.6699775
  55.8101791  52.7708098   1.8807586  54.5421580  19.9584776  57.4196625
  53.6122897  20.1722533  57.4963140  54.7709921  20.2029234  56.5229416
  75.2501883  27.6529574  76.6396952  75.1931347  26.7276216  76.8778753
  74.3433394  27.9591608  76.6495228   1.1157012  33.0752945  76.5811014
   0.7327172  33.4905219  75.8083534   1.8324582  32.5427055  76.2363672
  90.6678397  15.3746173   6.8232806  90.1780921  15.2489516   6.0105117
  91.5557534  15.0837895   6.6152843  91.3574254  38.8571644  73.0798721
  91.7345106  38.8514829  72.2000933  91.8019674  38.1423831  73.5356140
  73.6126989  16.6523835   1.9213374  73.7733299  17.4649426   2.4011024
  74.1650445  16.0035607   2.3574336  40.1357553  57.8971937  20.0994666
  39.2232213  58.0413928  20.3499110  40.6353822  58.0920866  20.8923228
  90.9740507  68.4953785  54.4431829  91.9304081  68.4577656  54.4291162
  90.7013728  67.5937796  54.6134758  68.6030364  28.4204003   7.1609290
  67.8321591  28.4208390   6.5935023  69.2302829  28.9881942   6.7132648
  81.9426471  17.4619767   6.5660174  82.1714753  17.4269292   7.4948009
  81.0028118  17.6432845   6.5575679  27.1189022  50.0711584  69.2638350
  26.2254643  50.4144812  69.2523670  27.1163225  49.3747377  68.6071587
  79.0450805  68.2098785  10.4751666  79.1638701  68.4470907  11.3948711
  79.7948497  68.6022726  10.0278457  93.0835845  40.5248594  37.2108126
  94.0228722  40.4787254  37.3892570  93.0270020  40.7621861  36.2852287
  15.6897688  36.5667224  26.4069319  15.3822351  35.8865237  25.8077788
  15.2821529  37.3710179  26.0857058   5.4185957  51.4151621  45.7928085
   4.9851483  52.0586300  46.3534355   4.8137963  51.2883711  45.0618029
  93.3511807  38.9673162  62.9289722  93.0264646  39.2277789  62.0670271
  93.2077442  38.0215454  62.9631996  81.8787911  44.9052715  37.7818680
  81.3087930  45.0899601  37.0353937  81.8411245  45.6998062  38.3143353
  32.9103160  85.1835728  50.1907778  33.6286926  85.0704861  49.5683813
  32.1216106  85.1857281  49.6484041  62.1026591  61.4281300  15.2286513
  62.3912051  62.3101118  15.4633411  61.3117436  61.5656641  14.7073348
  65.9130416  14.4127509  11.6048606  65.9538427  13.8115403  10.8611568
  66.4784515  15.1431367  11.3537105  71.7530074  28.6870837  63.6338520
  72.2688522  28.6772227  62.8276062  70.9115614  29.0630126  63.3752441
  65.4356486  36.0737750   9.4649680  65.6355563  36.1945102   8.5366996
  64.9823053  35.2316806   9.5047935  89.4017345  19.4447276  24.9403937
  89.5883757  20.2030083  24.3868526  88.5231763  19.6088025  25.2830966
  34.0790585  65.8079257  12.3649009  33.9035306  65.5475226  13.2691177
  33.2228434  66.0568920  12.0168479  15.4955924  63.7006712  74.3977308
  16.4381480  63.8608551  74.3512487  15.3776109  62.8443623  73.9865732
  21.2314800  79.0192905  18.8241466  21.1608914  79.9738541  18.8318046
  20.8373085  78.7566390  17.9923518  40.8935720  20.6137320  10.2745040
  40.2007777  21.2243268  10.5263789  40.9101969  20.6516024   9.3181975
  76.4800424  42.3621127  21.1803611  76.9055707  42.2438571  20.3311427
  76.7642933  41.6085765  21.6976817  92.8975587  27.4471045  66.3360834
  92.6369939  28.3253527  66.0585594  93.3055844  27.5776052  67.1920681
  23.4736490  45.9148836  28.3025193  23.8749051  45.8785915  29.1707993
  24.1410446  45.5600500  27.7152276  81.3027877   0.5316874   0.0235255
  82.1543616   0.2871606   0.3858264  81.2739283   1.4852187   0.1021226
  33.7820864   6.5498942  51.5498209  33.1512046   6.6299576  50.8344173
  34.6356177   6.6539478  51.1292410  12.1103907  56.7705917  58.4419394
  11.4358222  56.6890144  57.7677488  12.1496248  57.7084637  58.6292553
  53.7834221  22.7751109  43.3868201  53.9177257  22.5052974  42.4783023
  53.9840716  23.7110373  43.3908733  86.4426895  63.9296675  60.1833010
  86.5752550  63.8292122  59.2406654  86.2383940  64.8576403  60.2988911
   7.1628207  30.1866245  63.9687824   6.9127113  30.9508443  63.4495115
   7.9519552  29.8542190  63.5409927  72.7473930  87.9882422  27.0960601
  73.4403280  87.6145449  27.6405032  72.9851487  87.7407494  26.2024959
  27.0112872  55.5235004  59.1504240  26.9102931  55.2941895  58.2265997
  26.9871831  56.4803028  59.1637278  71.1297930  30.9301230  27.8833850
  70.2099371  30.7153174  28.0381663  71.6151667  30.3152987  28.4335120
   8.1406391  26.4021230  74.3750381   9.0671134  26.2046981  74.5125198
   7.9854876  26.1937428  73.4537697  13.1588054  13.8147056  43.1221819
  12.7286148  13.8640094  43.9758396  12.6171935  13.2094777  42.6156378
  18.4992826  74.5174551  62.8356743  18.0056107  75.3058529  63.0613899
  19.3516433  74.8431730  62.5465012  26.1418748  63.9595509  68.6060762
  26.6679573  64.3223238  67.8934336  26.5292478  63.1010246  68.7767076
   9.5370382  50.7242155  52.7813864   9.5355988  50.5618334  53.7247086
  10.3355145  51.2288523  52.6264381  44.9076191  88.4181443  13.9484771
  45.0782064  89.2490187  14.3920787  43.9909056  88.2253828  14.1452296
  43.1596327  77.4344826  59.3671560  42.3829269  77.3912477  58.8093996
  43.8893604  77.2479057  58.7764645  78.7771815  31.6443393  23.4492763
  78.0677730  31.9815060  23.9963515  79.2665905  32.4232814  23.1847747
  50.0027609  68.6975574  64.8630047  50.9147644  68.9616823  64.9843454
  49.8608017  68.0173159  65.5212975  69.6087659  13.4079263  26.8272765
  69.4219357  14.1764876  26.2881644  70.3571612  13.6682364  27.3642810
  49.3365112  13.1101519  63.5735941  49.0848377  12.6530749  62.7711201
  49.0831700  12.5139815  64.2783165  85.4675867  17.6027071  55.5702972
  84.5355244  17.4371350  55.4286003  85.4929097  18.2168984  56.3040257
  79.3566639  16.9986102   6.7267211  78.6665136  17.1760937   6.0876449
  78.9321620  16.4596221   7.3941978  52.8740549  88.7554550  72.5320721
  52.5002146  87.8792000  72.4390507  52.3864222  89.1482735  73.2560492
  42.1040923  10.8486602   5.1357349  41.2924344  10.9731766   4.6438583
  42.4624974  10.0261447   4.8021968   3.7524483  24.7369862  65.1816511
   3.7841842  24.3310308  64.3153811   4.4183668  24.2723060  65.6884623
  93.7793575  35.4185700  55.9113073  93.1238402  35.3872347  56.6081190
  93.8604614  34.5111036  55.6177807  12.8872681  79.4801044  53.1194019
  13.2383621  79.3247652  52.2425699  13.3054090  78.8149214  53.6661386
  15.5928886  51.0987473  39.3322110  16.0999453  51.7887592  39.7600007
  15.7953668  51.1946535  38.4016013  69.7103340  21.5244195   0.8852800
  69.4140166  20.6674668   0.5786021  69.1098142  21.7447659   1.5973600
  14.3722689  87.7357864  73.7672806  13.7259007  87.6093578  73.0726862
  14.3597627  88.6776352  73.9375496  24.0752170  85.1539174  10.7124122
  23.1581637  84.9078074  10.8335479  24.0392891  85.9961644  10.2590163
  21.4015452  19.7813699   7.7173122  21.9450061  19.7819850   6.9293483
  20.5423228  19.4866940   7.4154266  59.3478349  86.2814894  13.5033877
  59.0646246  85.3830758  13.6733134  60.3019288  86.2491360  13.5733207
  80.6388110  28.6708447  13.6521133  81.2551266  28.8914010  12.9537280
  80.4098457  29.5134064  14.0444167  16.9649768  43.9509201  74.8765278
  17.4856150  44.2662811  75.6152534  16.3542211  43.3240986  75.2642202
  53.0724767  83.4898749   6.6638358  53.8844922  83.0089727   6.5038570
  53.2180265  83.9345851   7.4988635  30.0464606  62.4457169  22.0174956
  29.6254873  62.3527861  22.8721166  30.5788827  61.6555834  21.9255805
  39.9310509   0.5732256  75.4975605  39.9328134  -0.3821272  75.4380989
  39.0721253   0.8323866  75.1639223  26.9581318  65.4567719  61.0824108
  27.7614236  65.5824471  60.5772781  26.6517830  64.5851088  60.8322430
   3.4775621  49.4836330  63.5739613   2.5450048  49.4872904  63.3581972
   3.6022463  48.6833239  64.0840483   3.7958519   7.3942658  27.1944221
   2.9828207   7.5715777  26.7213710   4.3150227   6.8654725  26.5885528
   0.6925269  66.1825943  73.7214708   1.2290573  65.4324198  73.9775991
   1.1174120  66.5233374  72.9343271  28.8570929  38.9387989  22.0092392
  29.2144251  38.6334348  22.8430843  28.0524206  38.4333682  21.8940306
  67.9434496  28.1206223  48.1763633  67.3609188  28.0563447  47.4195560
  67.3619241  28.0473658  48.9331229  87.1903261  43.7643290  69.8585272
  86.3256433  44.1461420  69.7076082  87.3534491  43.9021063  70.7916069
  15.1446311  23.5578295  13.3868106  15.2958171  24.4147918  12.9880698
  15.1553122  23.7267777  14.3289264   1.7510805  52.9756689  57.4644184
   2.3966509  52.2865009  57.6210117   2.1281192  53.7545109  57.8736544
  48.8609076  75.6968689  60.2537346  48.3939028  75.0994349  59.6696043
  48.2621098  76.4344454  60.3705740   6.0988224  32.3442888  56.9865227
   6.0290146  32.8990054  56.2095737   6.7870688  31.7150855  56.7705297
  82.5512316  32.9362416  36.5347433  82.6891222  32.0241022  36.7901206
  83.3872606  33.3651090  36.7173910   1.1488619  63.1102896  53.8284731
   1.5683711  63.9497900  53.6400986   1.8763286  62.5116825  53.9978647
  56.6577533  82.2113147   3.1438048  57.5951579  82.2936097   3.3191093
  56.5037087  82.7827158   2.3914750  90.7288908  28.2395506  62.9494238
  90.2885463  29.0762663  62.8003168  90.1610937  27.5922227  62.5313234
  27.8522962   3.7767035  66.5562630  28.6623931   4.1677195  66.2290335
  27.1559990   4.2898089  66.1462307  49.0977231   3.7347037  70.8240795
  49.7810188   3.1147009  71.0789108  48.5117713   3.2277113  70.2620745
  13.3948183  53.7929201  70.8996201  12.5827909  54.2691994  71.0728216
  13.3414972  53.5574913  69.9733591  33.3855444  24.9005458   5.2025397
  33.0730707  25.7301709   5.5635341  33.6965472  24.4102189   5.9635146
  59.7490713  24.2031476  16.2471946  60.2507505  25.0183436  16.2500461
  59.0827233  24.3343493  15.5726607  86.4106995  33.3863780   4.9331840
  86.2778622  32.4469897   4.8061545  87.0899135  33.6199424   4.3004497
  15.1046121  66.9256353  60.2596664  14.6150577  67.7450418  60.3313541
  15.6404495  67.0347166  59.4740391  90.8106362  53.3682632  59.2181349
  91.0209148  52.5718021  58.7306356  91.5780427  53.9288092  59.1036320
  62.9746532  87.4241924  74.9456644  63.8819742  87.3130226  74.6616936
  62.9732990  88.2532215  75.4241371  63.3589605   2.3444182  57.3611879
  63.2898238   2.1932036  56.4185381  63.3619669   1.4674765  57.7448463
   1.5988628   4.6363398  10.8192905   1.1945240   4.6718261  11.6861709
   0.9817140   4.1337439  10.2875407  53.1910336   6.1090132  27.6462062
  52.6161903   5.4768225  28.0776294  52.9376930   6.0725877  26.7238601
  72.0891037  63.3375359  59.4441938  72.2403373  63.2387543  58.5041952
  72.1784749  64.2771053  59.6037340   0.7067059  56.4828634  60.6453609
   0.9322041  57.4126530  60.6156635   0.2113834  56.3823843  61.4582491
  70.0895703  28.3453795  15.4315646  69.6078348  28.5009810  16.2439426
  70.7263774  27.6671883  15.6568797  80.4849221  31.1325645  65.2516222
  81.1533632  30.4474235  65.2517509  80.9178354  31.8896198  65.6461906
   5.5472416  61.7209339  56.0530090   5.8032215  62.2347546  56.8189716
   6.3465530  61.2622595  55.7942629  64.6818223  55.3694820  50.4823112
  63.7256898  55.4103613  50.4629421  64.9093761  54.7535276  49.7858572
  42.7718309  11.4458758  68.6195517  43.1664994  12.3077971  68.7520409
  42.3841229  11.2271601  69.4669485  79.5095934  53.4363174  49.4536209
  79.8184993  52.5916767  49.7813272  78.5948886  53.2817030  49.2177391
  59.1278050  25.9261367   1.0708745  58.9121652  25.5452773   1.9221528
  58.3633155  26.4559981   0.8449634   9.4693497   0.1586825  12.9330099
   9.3712643  -0.7523054  12.6560628   8.8186696   0.6367022  12.4188650
  56.6726950  27.5897795  57.3542690  56.5835121  26.9260699  58.0382013
  56.6092041  28.4236342  57.8199768   7.8395247  54.3605042  48.6613846
   8.5184205  55.0183058  48.5109472   7.8480303  53.8221931  47.8699446
   8.9106576  34.2978808  13.8658412   9.5671670  33.6578128  13.5909923
   8.6023299  33.9760587  14.7129520   7.8547978  48.0119991  27.5720167
   8.1065410  48.9349937  27.5414658   8.3487529  47.6532888  28.3092880
  74.9096121  79.4599104  43.2345295  74.2430224  78.8848209  42.8588104
  75.6738391  79.3412161  42.6705217  87.4383623  11.5185735  39.0720161
  87.8643281  10.7085177  39.3523677  86.6439277  11.2286612  38.6236270
  19.3582761  80.6655788  44.8712111  20.3121662  80.7135296  44.8077679
  19.1365254  79.8098707  44.5040274  66.0851446   7.7315232   7.0393832
  65.1292044   7.7145335   7.0854457  66.3470173   8.3471534   7.7239688
  12.5289476  45.9380913  64.9894905  13.2322240  45.6214714  65.5564022
  12.5351155  45.3390980  64.2429018  35.2189994  59.4608307  42.0288038
  34.9811840  60.2780724  41.5908623  34.8024225  59.5198154  42.8885794
  78.3273846   9.4331309   5.1648601  77.7066773   8.9675185   5.7253631
  79.0776640   8.8427064   5.0962337  30.7288486  18.9701268  12.9639991
  30.4066235  18.2570788  13.5153373  30.1631671  18.9504334  12.1920856
  79.3628830  25.5229995  22.3052486  79.3519277  26.3146922  21.7673476
  78.8858027  25.7659337  23.0987247   3.7714568  61.6735363  69.6088076
   2.8498799  61.4148378  69.6076107   4.0217566  61.6723585  68.6849165
  87.5153877  36.0536957  40.9231472  87.4578895  36.7846370  41.5384960
  87.5833400  36.4691114  40.0634718  71.3661313  18.3595273  16.2132342
  71.6733074  18.7399623  15.3903468  71.9185865  17.5884578  16.3415893
  37.0357227  45.2316380  70.7119703  36.6750646  45.7868910  71.4032364
  36.8459320  44.3383646  70.9988070  80.5020160  17.3525283  24.3348010
  79.6199447  17.7104565  24.4351276  80.9770531  18.0210397  23.8411792
  45.7923317  61.7694235  38.5873532  45.1437902  62.4460125  38.3928204
  46.3315868  61.7205286  37.7980232  71.2632789  44.6114397  70.9229708
  71.8477811  44.7428560  70.1764345  70.3931417  44.8256350  70.5865002
   6.5091479  65.0146246  64.0434504   5.6522167  65.1342630  64.4528246
   6.6813791  64.0760231  64.1182518  85.2888948  15.8041379  13.9340098
  84.9130780  15.3925463  14.7121986  85.9403616  15.1761338  13.6218627
  37.9409638  85.5422869   6.8439372  38.1706050  84.9155989   6.1578162
  38.7039760  85.5550900   7.4217589  58.8365865   2.0074794  28.9322837
  58.9410493   1.2540480  28.3512004  59.4265017   1.8287608  29.6646007
  84.6151144   0.7828900   5.0886233  84.2873317   0.0658318   4.5458301
  84.8923809   0.3604790   5.9015926  22.8570390  44.5514107  51.2071037
  23.2016563  44.1974878  50.3872204  23.6269045  44.6518421  51.7669678
  77.3737532  12.1660897   7.4038489  76.9104177  11.3369891   7.2849258
  78.2005793  11.9209716   7.8191836  21.4193439  51.2420797  40.0705147
  21.8380976  51.1878014  40.9295416  21.7118382  50.4548073  39.6112990
  37.4793908  78.7784424  16.4209445  37.7929184  78.7968865  15.5167373
  37.4976221  77.8522530  16.6619189  35.4746044  80.8769050  15.3881438
  34.9919883  81.5284768  15.8968337  36.1856026  80.6003323  15.9662612
  26.0966802  10.9194541  62.1882868  26.7741966  11.1991656  61.5726852
  26.3961172  11.2437856  63.0376244  85.7373007  83.4428501  44.3141794
  84.8086472  83.2554531  44.4509983  86.1831196  82.9700947  45.0170183
  71.2449837  23.0338141  13.2252772  72.1733386  22.8186270  13.3151897
  71.2217462  23.7204978  12.5588210  14.2415559  35.6072354  74.6264219
  14.7779608  34.8164010  74.5708942  14.1313195  35.8861852  73.7174273
  50.3451044   9.2428872   8.3249076  49.8588807   9.3398759   7.5061210
  51.2141305   8.9470336   8.0538066  43.7434978  12.6380631  17.1999820
  43.8062030  13.5441443  17.5021728  42.8632838  12.5692794  16.8302234
  63.5649014  12.1848246  11.3889964  64.4841478  12.3368403  11.1696513
  63.5902026  11.5289113  12.0856841  82.8703823  75.5745173  73.9498711
  83.1101932  75.9017801  73.0829096  82.8210594  76.3586235  74.4966602
  77.5891795  49.7335291  68.7157011  76.8246605  49.2864895  69.0788794
  77.4812402  50.6467724  68.9813423  32.3915465  78.1009236  12.7824100
  32.6563262  78.9306989  12.3854335  32.7804378  78.1188980  13.6568721
  23.3100581  73.4313154  48.4804964  23.9533901  72.8172827  48.1264925
  22.4628592  73.0463362  48.2562685  74.0985400  28.2262894   2.2303327
  73.1717474  28.1918093   2.4671872  74.5014125  27.5204798   2.7360566
  24.1057897  75.2058029  73.2504797  23.5016966  74.6843386  73.7790442
  23.5781670  75.9413958  72.9394341  52.4381402  88.8170138   1.3423141
  52.4960116  88.6097708   2.2750171  53.0263522  88.1904641   0.9207996
  15.9172249  82.4489021  41.0420370  16.1583567  81.9758415  40.2456093
  15.0660300  82.0863628  41.2875271  63.3209314  64.1850328  53.0946779
  64.0536036  63.6469603  52.7948427  62.5650730  63.8510895  52.6115704
  47.7932978  81.6758823  25.0745797  46.9074965  81.5899944  25.4270172
  47.8579569  80.9826756  24.4176769  74.6647936   1.7545411   5.4855903
  73.9960486   2.3429486   5.1351722  75.4065222   1.8523309   4.8885043
  11.5254116  63.3221960  73.4326982  10.8039212  62.7043629  73.3145237
  12.1982050  62.8197193  73.8921499  28.0164981  78.3253241  72.4393129
  27.4646497  78.4383869  71.6654158  27.5429034  77.6940823  72.9810429
  18.8558066  66.1403704  76.0742521  18.6824834  65.5345154  75.3537464
  18.3421040  65.7965755  76.8051100  73.7532252   9.3490407  10.0737079
  73.0999023   8.7640235  10.4573234  73.2429141  10.0734517   9.7117122
  91.2256195  34.5559335  68.8126802  91.1292677  34.3100095  69.7327137
  91.2954410  33.7220597  68.3479118  42.3886067  15.1529929  30.7764991
  42.2938973  15.0460574  29.8300250  42.7867729  16.0171267  30.8812507
  10.8240008  33.9178658  65.8748865  11.6050601  33.5376573  66.2769079
  11.1577368  34.6312761  65.3309202  39.7647363   6.8510005  10.7423289
  39.1968066   6.1958882  11.1479362  40.5835301   6.7962071  11.2350829
  78.0081231  18.2168242   4.6816333  77.9040081  19.1177937   4.3756278
  78.8182193  17.9161212   4.2698558  51.4339751  46.7445800   9.7478564
  52.2969288  46.6028926   9.3586715  51.5568346  47.4873873  10.3389342
  88.2479149  19.1601989  15.5336650  88.6112434  19.7721383  14.8935493
  87.3671633  19.4916388  15.7087596  88.4388496  34.0850782  67.2364235
  87.7560123  34.5540380  67.7160501  89.2202880  34.1764355  67.7816200
  53.3153355  29.7885272   2.1191724  53.5982704  29.6398732   1.2169059
  52.4694747  30.2286956   2.0354970   3.6774340  54.5444059  66.7694283
   2.8613269  54.1184568  66.5071869   3.7330246  54.3950415  67.7132654
   5.1469914  20.3177354  19.8683437   4.4116466  20.8555218  19.5745929
   4.7610895  19.7064778  20.4957755  27.9269576  61.6561317  65.9524679
  27.3610735  60.9098625  66.1501884  28.2991529  61.9052410  66.7984295
  24.7632551  65.4738522  70.1549387  25.2380252  64.8995113  69.5541382
  24.1685534  64.8895216  70.6251717   0.2705179  52.5563860  41.4826679
   0.3356398  52.6717091  42.4306583   1.1695591  52.3900700  41.1993027
  26.9884849   9.2862958  52.7181482  27.1870637   8.5317767  53.2726765
  27.6481819   9.2545742  52.0253086  80.5572857  50.3480721  57.2567749
  81.3002863  50.4943466  56.6712952  79.7875406  50.5209017  56.7146921
  77.9103329  84.8920155  74.1133881  77.7174391  85.1187801  75.0231123
  77.7383437  83.9519501  74.0592384  79.2228824  40.0537440  16.2638171
  80.0264794  39.6169421  15.9815677  79.0788466  40.7368132  15.6089099
  89.3909985  21.2495181   8.1486686  88.5996253  21.6746613   8.4791549
  89.3243104  20.3459927   8.4575828  58.1034670   6.7720029   1.2956365
  59.0439013   6.8792483   1.4381631  57.7067256   6.9938037   2.1380361
  13.3830786  73.1863976  20.9736800  12.6535058  73.0552626  21.5792871
  13.9033973  73.8836145  21.3729191   0.7385199  75.7943726  72.0495367
   1.6951177  75.7956457  72.0156097   0.5121108  74.9292326  72.3908615
  90.9682352  18.2990214   7.5192721  91.2168986  18.0993840   8.4217914
  90.9397799  17.4467036   7.0845588  24.9765626  79.8213640   7.5190909
  25.6424180  80.4466811   7.8051742  24.7829965  79.3033901   8.3004172
   4.6982972  36.4054057   9.1360648   4.7947852  36.8682334   9.9683555
   3.8431661  36.6814467   8.8062366  68.1913621  25.7023618   1.2067731
  68.6460525  26.0769555   1.9612058  68.2992423  26.3542315   0.5142005
  11.5289378  67.6609373  56.0263777  10.7633293  67.5645256  55.4600048
  11.2336695  67.3520041  56.8828917  65.5443171  33.5747057  64.1609287
  65.1139286  34.1589934  64.7851181  66.1595276  33.0686003  64.6915865
  91.8267453  56.3215685  70.3240728  90.8869406  56.1494350  70.3821182
  91.9447554  56.7180586  69.4608831  20.0393534  83.4152222  47.6817465
  20.4181194  82.7170372  48.2158947  20.7897425  83.9455605  47.4136448
  75.1380004  72.2629213  59.5823669  75.9172239  72.4949408  60.0875473
  75.4536690  71.6399717  58.9277554  76.5252358  21.9055506  13.3281787
  76.4435262  21.0114428  12.9963191  77.1837360  22.3111245  12.7641566
  50.4760033  56.7506739  12.2892364  51.3721472  56.5288111  12.0363792
  49.9346942  56.4082572  11.5779193  20.2204768  16.7933747  20.5050929
  19.5980803  17.1828124  19.8909267  20.3211991  17.4509999  21.1932929
  19.8244643  55.5286503  28.7140656  19.9886572  56.4477158  28.9252424
  20.6864190  55.1760387  28.4928656   5.2579147  61.9646072  73.3205795
   6.0793835  62.0310831  73.8074064   4.9807042  61.0564280  73.4414244
  12.7008235  65.3622437  60.4871082  13.6057341  65.6410694  60.3470135
  12.2562265  66.1456347  60.8109426  70.2873352  81.9026485   0.8597215
  69.8006228  81.3452139   0.2525886  70.2565840  81.4329830   1.6932042
  16.4871502  68.2937241  66.7748404  15.8920658  67.8112316  67.3486900
  16.5790427  67.7364254  66.0020447   1.8195192  42.3287341  14.2302688
   1.1135427  42.9448363  14.4258102   2.6179163  42.7898165  14.4875510
  25.1835680  87.9029465  22.1841121  24.8490691  88.4509850  22.8940344
  25.5040979  87.1140099  22.6212382  78.5474438  35.9464976  20.9732516
  78.7924069  36.1761615  20.0768836  78.6013454  36.7717501  21.4552005
  93.2110429  16.8165874  46.2507868  92.8928036  16.1465800  46.8558025
  93.0798799  17.6421571  46.7171144  25.7698488  44.4903708  36.3988519
  26.3067484  43.9473009  36.9759536  26.3648772  44.7555065  35.6975126
  16.0498881  54.4281101  54.3976927  15.7157660  54.4349146  55.2946568
  15.6395149  55.1872253  53.9834738  85.9787184  38.2074401  11.7186053
  86.3032180  37.3850581  11.3516982  85.3887254  38.5524127  11.0484298
  29.9222587  86.6901770   4.2446025  29.4426425  87.3096648   3.6946567
  29.2436797  86.1325398   4.6251281   7.8023857  58.8384771  51.2791967
   8.4919685  59.1392374  50.6873751   7.1395546  59.5281887  51.2447596
  29.0300655  78.2380581  65.1424456  28.5679007  77.9002380  64.3752956
  29.8601413  78.5662031  64.7967148  43.9207378  79.9629512  32.5515254
  43.0376128  79.8642078  32.9072936  43.9075866  79.4626179  31.7355998
  58.2168082  19.7188279  18.7618049  58.5918421  20.4300877  18.2424911
  58.4563637  19.9291798  19.6643623  65.2735713  86.2511578  12.9330142
  65.8913306  86.5379706  12.2604449  65.2314761  86.9837513  13.5476382
  27.8092766  75.7375431  61.4095402  27.3403573  75.1816845  60.7871485
  28.7129498  75.7410145  61.0939503  39.9016881  57.3172569  62.8328133
  40.6699514  57.2783852  62.2631693  40.2509594  57.5625896  63.6895847
   8.4789777  34.8836660  59.5570278   9.1307098  34.2954445  59.1756153
   8.9880008  35.6255245  59.8837900  28.2467294   7.1373725  54.0236759
  28.2719326   6.7020839  54.8758030  29.1665339   7.2358167  53.7777138
  65.6267754  26.0299823  26.7780765  66.2011043  25.5927512  26.1494239
  65.3743425  25.3402278  27.3918803  39.8011166  54.6832606   1.5263494
  40.0747925  55.2877185   0.8364471  40.4400260  54.8143527   2.2269519
  30.8917999  34.7440839  40.0939846  31.5893412  34.9287653  39.4650459
  30.4830575  33.9416480  39.7695470  88.1947166  14.0869471  28.5085090
  89.0398580  13.6446330  28.5880454  88.4139258  15.0181052  28.4750732
  59.0023841  36.6088367  64.6488285  58.3052959  37.0912981  64.2043829
  59.3441453  36.0131812  63.9820242   4.9373463  83.1026116  21.0755618
   4.9193695  82.2966471  20.5594905   5.8454517  83.4005943  21.0228046
  60.6184718  36.2143847  29.4244369  59.9360675  35.8699652  30.0005706
  60.5684248  35.6676146  28.6403640  80.3267695  63.1613255  50.9653997
  79.4064321  63.2626677  50.7226181  80.4261925  63.6933374  51.7548990
  22.9378819  16.7822945  71.2350988  22.4742937  16.6990232  70.4018021
  23.6910701  16.1978006  71.1496115  71.4097846  40.3928515  20.4971870
  71.0016012  41.2351176  20.2966865  71.3828522  39.9108550  19.6706374
  53.8890899   8.4125134  36.0934241  54.2388934   9.0776536  36.6862662
  52.9530186   8.6058327  36.0421451  16.2820828  53.6015224  73.6409903
  15.9076869  52.9604626  74.2452240  17.0220530  53.9768553  74.1182709
   1.4689915  16.0937831  14.2464908   1.5829174  16.3852164  13.3418830
   2.2606222  15.5907485  14.4375690  12.7918470  69.0208817  74.2670107
  13.6041617  69.4333887  74.5606375  13.0494416  68.4985638  73.5073662
  18.8717544  46.2147903  49.8302794  19.3377173  46.6207743  50.5612278
  18.4875631  46.9502401  49.3530560  74.0538699  48.2232138   6.3184531
  73.7203700  48.3582732   5.4314502  74.9752444  47.9946753   6.1956962
  40.5410654  12.5510308  12.5206550  41.0320312  13.3324048  12.7748950
  40.8306390  12.3663852  11.6271861  32.4377079  81.1408296  12.7916320
  31.6510904  81.1375299  12.2462352  32.2508236  81.7816725  13.4776481
  40.2352896  87.7392474   9.8957618  40.7977817  88.2991639  10.4308589
  40.7935098  87.4639979   9.1685374  59.0235713  22.5510499   2.5268252
  58.7727669  21.7094895   2.9077466  59.5811960  22.3208997   1.7836459
   4.6824270  54.3455839  44.4690895   5.3654766  53.8677883  43.9985752
   4.9989647  54.3893909  45.3713751  50.2659193  53.6491850  24.5657237
  50.1346830  54.5092466  24.1666015  50.9758201  53.7824312  25.1938327
  74.9885565  21.4502284   3.7475856  75.3891605  21.2728545   4.5986350
  74.7243935  22.3690840   3.7940581  12.7295939   3.6931941  27.5916846
  12.5292413   2.7821395  27.8063281  12.8203551   4.1249987  28.4411224
  37.6508719  73.5612342  11.8653949  38.0536133  73.9165446  11.0730632
  38.2237870  72.8386065  12.1219047  34.0966622  14.3974492  14.8684199
  34.9878518  14.3913838  14.5191653  33.8580577  15.3238961  14.8999198
  32.6855636  85.4866219  75.8929205  31.7389226  85.4099751  75.7736349
  33.0288792  84.6292973  75.6412220  26.9722907  14.1361853  20.4306205
  27.3954694  13.2830140  20.5267509  27.6893298  14.7380730  20.2310737
  30.1079369  69.3825579  50.4101324  29.6224022  70.1984167  50.5320406
  30.9997869  69.6630049  50.2047348  58.5553927  43.4400889   9.3988116
  58.2369563  42.8458258  10.0782855  57.7935565  43.5959002   8.8406356
  62.0595172   0.5461985  71.0748529  61.7475751   0.2753455  70.2113914
  61.5863350   1.3581663  71.2566137  86.2755891  76.1781693  31.8530917
  85.7660236  75.3698778  31.9100142  86.1644276  76.5921545  32.7089477
  29.7633612  76.2936273  16.6179927  29.9686928  76.6075650  15.7373603
  29.3773046  77.0508352  17.0582469  25.6822801  46.9822502  72.1572685
  26.0443807  47.6199102  72.7724934  26.4492297  46.5881634  71.7416763
   3.8064019  25.6178710  15.9421523   4.7263162  25.8601662  16.0483630
   3.6436145  25.7015654  15.0026210  19.7673082  65.4824924  72.1366835
  19.3710339  66.3343573  72.3197699  19.9586821  65.5039072  71.1990499
  60.5970696   5.6114107  74.4342422  60.0800589   4.9378496  74.8761082
  60.7973126   5.2356726  73.5769415  34.9005508  69.9685192  58.5456467
  34.2801046  70.4528236  58.0009222  35.5523276  70.6203222  58.8036489
   0.3175796   4.4868285  42.6092386   1.1203302   4.6364123  42.1097898
  -0.1101719   3.7565714  42.1620464  27.4227397  31.6459557  15.6696876
  26.4841763  31.7525193  15.8245357  27.5316207  31.8137500  14.7336181
  91.6756279  54.7117373  11.5143474  92.4785978  54.5164916  11.0312827
  91.9787199  55.0156161  12.3699363  13.6161566  25.5956769  60.2697420
  13.4217954  24.7470188  59.8719597  12.7595532  25.9505892  60.5074406
  19.5164934  10.7765299  71.9072819  18.6325577  10.8939368  71.5592766
  19.4524780  11.0522372  72.8216791  33.0746095  37.5599906  26.1062224
  32.1729485  37.2992751  26.2940200  33.1212680  38.4757659  26.3808139
  79.8496515  28.6121413  21.0929282  80.3958684  29.3051383  21.4639171
  80.4667360  28.0373618  20.6400855  83.4074790  27.1127555   5.6625541
  83.6624819  26.2151191   5.8757384  82.5614959  27.0236060   5.2236922
  27.6369643  43.4374619  67.4769592  27.0312715  43.8097191  68.1178904
  28.5036802  43.7040663  67.7834797  16.2382953  49.5882937   4.1355022
  17.1027438  49.2597911   3.8884147  16.4160268  50.2544257   4.7995170
  84.0464813  26.6604707  10.4503615  83.3297068  27.0840403   9.9780734
  84.7909385  27.2511145  10.3356631  89.5131356  53.0168483  12.5706752
  89.9038893  52.2847125  13.0476745  90.2530176  53.5848185  12.3557170
   3.4836881  53.4925887  41.4168914   4.1192405  53.4223601  42.1291907
   2.9593079  54.2620131  41.6387733  78.8923432  72.6140451  57.7583694
  79.0400912  73.0063057  58.6189127  79.6188142  72.0008516  57.6467371
  23.2646625  10.8324906   9.3194278  23.2389562  11.5476844   8.6837657
  23.9496581  11.0863063   9.9379619  52.3764685   0.7162100  57.7750063
  51.5505269   0.6181437  57.3012590  52.5929120   1.6446787  57.6893902
  35.0111604  78.3027363  68.0370474  35.5803061  79.0721798  68.0532122
  34.5958948  78.3300495  67.1750498  40.0395170   8.1862551  67.3038769
  40.3987888   8.4730917  68.1434488  40.8085564   8.0121332  66.7612076
  47.9217738  52.5133368   9.9727519  47.3878843  52.2459361  10.7208713
  47.2895438  52.6717135   9.2717250  88.0885412  66.0326910  53.8288832
  87.1534749  66.1215448  53.6445236  88.1582560  65.2177191  54.3260670
  69.6223158  13.1114527  38.9166720  69.9922812  12.2435042  38.7553485
  69.7064400  13.5671231  38.0791076  25.0217772  50.5736351  65.1724672
  25.7139802  51.1277723  65.5330420  25.3438640  49.6801424  65.2914667
  72.2392232  35.6051108   9.5853503  72.0035726  34.8303029   9.0750869
  72.0957011  36.3385436   8.9872535  80.3451604  17.7150246   1.2283977
  79.6825403  17.3580024   0.6370433  80.4247624  18.6338469   0.9721597
  13.9065330  55.4515406   5.8196052  14.6869533  55.1598117   6.2908443
  13.5530345  54.6543357   5.4249938  90.2972182  72.7102613  71.1484385
  90.8117699  73.1252813  71.8407011  90.7131805  71.8579292  71.0190630
   9.3454361  74.6004152  28.6651731   8.7195218  74.8553944  27.9873466
   9.3647361  73.6442184  28.6258864   4.1002148  80.5598164  64.1914177
   3.5109583  80.4453087  64.9370050   4.4108358  79.6762657  63.9937210
  86.7660767   9.1770074   0.9878953  86.7034680   9.3303153   1.9306644
  87.6867658   9.3361708   0.7799752  50.4651109   7.3837763  49.9953556
  50.2115157   8.2526594  50.3067446  51.2997750   7.2078806  50.4296684
  84.9311926  60.0153255  50.1356316  84.4209601  59.7045422  49.3877649
  85.2963539  59.2200708  50.5235243  86.3235051   3.9762780  10.2638324
  87.1536690   4.2060897  10.6812652  85.7285100   4.6853825  10.5075248
  23.0311942  52.8780890  69.1150665  23.1363201  53.0493402  68.1791973
  23.5742640  52.1073055  69.2799902  74.2833120   5.3724143  11.4813312
  73.5437244   5.9735820  11.3927825  73.8936955   4.5010850  11.4090903
  37.8285384  73.2077217  71.2871742  36.9181418  72.9332590  71.1772537
  38.0873847  73.5301781  70.4238939   2.0656912  59.1572615  14.6870692
   2.1770064  59.6137568  15.5210002   1.5192430  58.4005687  14.8993095
  56.4481831  59.4920063  75.1342440  55.8656311  59.1710901  75.8226299
  57.1131897  59.9988127  75.6002378  19.5537674  72.5804520  70.1595688
  18.6895871  72.5070524  70.5645847  19.8274970  71.6749334  70.0134706
  33.5922067  23.9399335  10.2832778  33.6902873  22.9967019  10.4133971
  32.9591672  24.2089984  10.9489329  61.5320489  47.7089640   2.4831279
  61.0434030  47.9034278   3.2828982  62.4313621  47.5695559   2.7798303
  80.1033777  54.9689624  18.7969764  79.6483153  54.5893618  19.5486720
  80.6338603  54.2513701  18.4507449  86.8747040  54.0276241  71.0843468
  86.0915526  54.3709612  71.5144968  87.2350111  53.3985996  71.7094374
  37.2050158  16.3087794   9.3785842  38.0713622  16.5641972   9.6954997
  37.0296733  16.9070908   8.6522849  68.8044226  20.1157519  26.7451556
  69.5452476  19.7642180  27.2389587  68.4639359  20.8218905  27.2944053
  58.6633313   7.6198956   8.7305911  59.0940982   7.2538087   9.5030292
  59.2659942   8.2943675   8.4173568   7.7202646  60.6091925   3.8656505
   6.7860500  60.8107516   3.9190467   8.1359879  61.2440535   4.4490512
  77.2351533  47.8690764   0.3076633  77.4064571  47.1260974   0.8863385
  78.0592591  48.0030581  -0.1604525  48.4425068  68.7896729  42.6566458
  47.8866053  69.4273424  42.2087812  49.0586138  68.4959173  41.9855595
   2.8999448  79.6615601  70.0927353   3.2345903  80.5053329  70.3965378
   2.5460431  79.2469215  70.8795357  64.3091814   5.1046702   0.4092534
  63.9615786   5.0582263  -0.4813926  64.6593528   5.9924027   0.4837020
  19.0647292  81.1511803  75.4359436  19.9020135  80.8326340  75.0987339
  18.4226298  80.8758068  74.7816467  67.7873829  48.5628077   3.7324126
  68.2222581  47.7155253   3.6363776  67.2496072  48.4682605   4.5186027
  82.6640839  13.3488509   5.2883418  81.8512339  12.8855845   5.0861247
  83.3533412  12.7042481   5.1282199  18.3917348  29.7395894   3.0710204
  17.6763741  29.4674489   2.4961885  19.0747039  30.0464055   2.4746545
  83.9390022   4.7593972   8.7839969  83.9898497   5.0763127   9.6857722
  83.0409628   4.9503752   8.5132774  22.4599950  44.0057322   2.2327312
  22.9165284  44.7893283   2.5389560  23.0435626  43.2829615   2.4635585
  39.3423104  59.0224075  39.8753500  39.4537258  59.1262150  38.9303398
  38.4913611  58.5945797  39.9706292  19.2407465  64.2742586  61.6128969
  19.4172335  64.6712351  62.4658298  18.5656798  64.8308897  61.2247229
  21.6813867  48.9942881   6.6919883  21.0309569  49.5733496   6.2946685
  22.4061696  49.5737025   6.9269450   0.4619654  81.2418175  73.5255575
   0.9415007  80.6205368  72.9775763  -0.4335169  80.9041214  73.5431623
   7.7363041   2.4551302  70.8163643   7.2290567   2.8925139  71.5001917
   7.1448472   2.4204451  70.0645590  73.8976723   7.3412368   4.6786578
  73.5420424   6.6322371   5.2144607  73.1285304   7.7519032   4.2836841
  58.6684087  36.7920119  73.3590031  58.7851814  37.6966578  73.0688238
  59.2262843  36.7148405  74.1329861  41.8903875  87.6063824  74.0770006
  42.6451302  87.2960472  73.5767126  42.0713282  87.3346138  74.9768019
  30.7467580  88.3172226  60.1790237  29.8137450  88.4921360  60.3019953
  30.9561872  87.6582813  60.8409643  29.7602871   6.3651186  73.4890318
  29.2691502   6.8035799  72.7942133  29.1435661   6.3079268  74.2188358
  53.1299353  31.8385741  19.4716056  52.9037166  32.0819136  20.3692897
  53.9266444  31.3152406  19.5588477  92.0193726   5.4041621   3.9426597
  91.7944080   6.2633702   4.2995723  92.1131760   5.5527589   3.0017264
   1.2137378  35.8476645  58.4632444   0.7259287  36.3098627  57.7815962
   2.0461239  36.3166338  58.5218811  10.1501004  36.3137957  17.4108489
  10.4599969  35.4239079  17.5790294   9.5893781  36.2303969  16.6395743
  59.1425848  85.5097198  73.6574364  59.0804482  85.8084583  72.7501726
  58.3922434  85.9127426  74.0942287  78.2840044  75.9723231  19.5865424
  78.1230063  75.4339453  20.3614410  79.0080363  75.5357215  19.1377814
  91.2792786  80.1511002  75.9717894  91.7943852  80.0561905  75.1706076
  91.9271560  80.1362133  76.6762495  30.1474495   5.2621847  65.4754877
  30.2906078   6.1759287  65.2288914  30.8594693   4.7847945  65.0496244
  76.8638569  37.1523520  25.5683883  76.6462928  36.3293025  25.1307948
  76.0904461  37.7021548  25.4427417  44.1229932  25.2429768  14.9819358
  44.8249261  25.8794829  14.8463424  44.4035499  24.4692752  14.4931491
  76.3730580  51.5256640   0.9101184  77.1126110  51.8097255   1.4473327
  76.1070103  50.6891963   1.2919076   8.4797925  55.4520941  74.9298620
   9.1404760  54.7726727  74.7952700   8.7614208  56.1745644  74.3686533
  21.5552330  61.8135595  73.8001585  21.8595433  61.2947893  74.5448065
  21.9993401  62.6558781  73.8976049  24.8783938   8.6357114   1.8154986
  24.4742839   8.0290553   2.4358972  24.4203059   9.4640824   1.9575914
  59.8094026  35.4908129  18.3507522  60.5476387  35.5994078  17.7512153
  59.6906784  34.5431992  18.4153159  79.3588641   9.7312838  74.7339916
  78.5820487   9.6805579  74.1770220  79.1979221  10.4851824  75.3014183
  18.7936036  44.9855086   7.5950702  19.0231244  44.1854140   7.1224101
  18.4496943  44.6779391   8.4337314  79.9512114  58.8947630  60.8528185
  79.9349060  58.5890770  61.7597485  79.8389329  59.8431396  60.9176636
  11.3620210  54.1131926  64.5236969  11.3088083  53.1844330  64.7491026
  10.6362116  54.2540836  63.9157629  78.2921452  30.6123015  26.7921622
  77.8217513  31.3845393  26.4781459  79.0313679  30.5212209  26.1909278
  13.4805362  48.2095191   0.9453424  13.3433358  47.2790572   1.1232265
  13.3531062  48.6366507   1.7924245  74.1517979  38.7447783   2.6748355
  74.8540563  38.1489035   2.4140771  74.0781182  39.3614337   1.9464524
  15.2387881  84.6218300  57.4239826  14.4518948  84.8588181  57.9147673
  15.4565239  85.4095173  56.9256020   8.3784318  71.4112091  65.2615929
   8.0143088  70.7858419  64.6350479   7.8203291  71.3281059  66.0347986
  59.7766739  54.6893546  10.6097396  59.9090255  55.1819083  11.4197429
  59.3350303  53.8866565  10.8869823  73.7791354  22.0994231  12.9541000
  74.0412289  22.2697875  12.0493777  74.5889753  22.1819875  13.4576591
  18.8922679  73.7217045  66.0092783  18.5951507  73.3489227  65.1792240
  19.1478014  74.6180773  65.7914448   9.7960466  85.6541157  70.0628614
  10.0545084  85.5888462  70.9821939  10.6043577  85.4963589  69.5750332
  54.6103811  67.9706955  51.2736607  54.6503162  68.0336142  52.2279549
  54.0217876  68.6785126  51.0113859  34.1607451  75.9530258  38.8400626
  33.5128641  76.0861063  39.5319963  33.8325596  76.4673662  38.1025124
  82.3623389  32.9689833  22.9432185  82.5835330  33.5396621  23.6791785
  81.4531833  33.1858823  22.7367671   9.9280155  78.9656019  67.6569843
   9.0712768  79.2486382  67.3374176  10.5376565  79.6234703  67.3226500
  67.0888910  18.9996859   2.4230369  66.6913986  19.2043492   3.2694133
  66.6802755  18.1751296   2.1596511  60.0477579   4.5033270  57.6225090
  59.6989539   3.7996107  57.0753765  59.4132617   4.5905215  58.3338785
  66.6005233  51.9130942  21.4136680  66.0154265  52.6197001  21.6868003
  67.3162645  52.3570868  20.9588988  57.8320932  72.3294878  65.9631729
  57.2916126  72.5859785  65.2159643  57.4026823  71.5486050  66.3125515
  24.7073150  77.5558138  76.7997408  24.3819952  76.6623831  76.9101000
  25.6514192  77.4861383  76.9413137  17.9741733   4.5568272  29.9391826
  17.3685233   3.8811490  30.2439387  17.9942338   5.1984164  30.6492503
  14.7836995  71.4316607  49.0373707  14.4530880  71.6375589  48.1629944
  15.3627253  72.1627903  49.2528009   1.2813680  39.8586032  14.6315559
   1.3679926  40.7820746  14.8680480   1.5017073  39.8280951  13.7005599
  78.6179203   6.4317939  13.5317214  77.8157467   6.5325591  13.0192836
  78.3143169   6.3226840  14.4329150  53.2263154  31.7733380  16.4587672
  52.8910852  32.0656392  17.3063548  54.1737175  31.7160031  16.5827544
  84.2437710  42.6784515  49.2556715  83.9328589  43.5636091  49.4455814
  84.1622021  42.5946188  48.3056450  34.1055829  32.8352210  21.9679053
  33.6355144  32.4990126  22.7309402  34.8481471  32.2404238  21.8628200
  76.9194463  38.0802637  66.0439444  77.5562957  37.3768622  65.9178925
  76.1320022  37.6367384  66.3593102   7.3900655   6.8212515  70.7598400
   8.3004144   6.9877821  70.5153751   7.4381545   6.5071970  71.6627741
  54.5273531  34.3314597  31.4137061  55.0264627  33.6864230  31.9147666
  54.3872649  33.9171120  30.5622848  13.8106072  52.5077248  62.5384140
  13.3623183  51.6713381  62.6638269  13.4201586  53.0889702  63.1910515
  57.6792076   5.0223929  59.8743010  58.1919220   4.2245776  60.0041056
  56.7717675   4.7481543  60.0068808   6.0629612  72.5938702  55.4651165
   6.4508682  73.2878494  54.9320555   5.3550714  72.2437429  54.9242544
  10.4242086  52.7474308  61.1439562  11.0957301  53.2733679  60.7095766
   9.8868144  53.3854198  61.6134310   5.7337396  34.8325631  27.7962573
   6.6368334  34.6575925  28.0609115   5.4528777  34.0295502  27.3574908
  70.2650255  43.0822417  19.7787746  70.4818017  44.0106913  19.8637660
  69.7961802  42.8708789  20.5860789  25.7817152   5.5284602  66.4890623
  25.9851143   6.3394743  66.9550228  24.9274299   5.2639586  66.8303347
   6.5057771   7.6920506   9.1486247   6.2281887   7.4314257   8.2704146
   5.6899278   7.8872344   9.6096309  53.6104682  10.2410418  41.0563612
  53.3878711  10.9727675  40.4808187  52.9437211  10.2647692  41.7427444
  93.3842071  50.4084921  49.2338514  92.8786079  50.3030491  48.4279442
  92.9821919  49.7967196  49.8505783  72.7141327  62.7822253  11.2547477
  73.1668693  62.0205161  10.8927234  73.3796341  63.4699771  11.2732394
  22.1213841  79.6127510  70.1495934  22.8332114  79.1046906  69.7604847
  21.4686227  78.9585304  70.3988552  65.4278901  19.9875352  13.4021552
  64.9587456  20.1250598  12.5792201  65.8528164  19.1363856  13.2962592
  74.6094551  80.5708790  54.6151590  75.4498508  80.9604073  54.3738413
  74.0233388  81.3187122  54.7311497  14.3528764  52.6371047  14.1547187
  14.3547790  51.8309161  13.6386855  13.7309806  53.2084414  13.7041171
  54.9566508  52.1767089  21.6076739  54.6484053  52.9675051  21.1651309
  55.3669977  52.4964091  22.4111922  22.3971248  68.3789062  58.6630869
  22.9640317  68.5400534  59.4173288  22.5302148  69.1389894  58.0967045
  90.6449086  61.5784213   6.6369327  91.3894135  62.1178481   6.9033034
  90.3133232  62.0020148   5.8451923  44.6153879  83.7376785  76.2425518
  44.2195511  84.1271019  75.4628754  43.8951349  83.6722660  76.8695974
  87.7705652  59.5623824  22.1449645  87.1252901  59.9694964  22.7229961
  87.8451568  60.1664302  21.4061816  41.4826584  74.3648529  56.8033552
  41.0085201  74.1402340  56.0027504  41.6819382  75.2964449  56.7103243
   6.6242409  54.0659714  60.6939173   6.7511672  53.1258059  60.8212328
   7.4589258  54.3747902  60.3415489  74.3275386  30.6344840  22.9639896
  74.0988845  31.4824769  23.3445914  73.9385921  30.6517264  22.0895465
  67.8245008  21.1738011  11.1134227  68.7619549  21.0699221  11.2765868
  67.7289152  22.0855042  10.8379443  86.1442127  86.3547134  66.4813423
  86.3777842  87.1188164  67.0084333  85.4189165  85.9488487  66.9561577
  87.7335483  24.6937320   1.0184796  86.9242698  25.0600096   1.3750489
  87.4899036  23.8161465   0.7240136  79.8184446   7.6342493  56.2994814
  80.3633455   7.5342566  55.5188942  80.3488925   7.2731406  57.0097351
  36.7996883  58.9377546  36.2512851  37.2302866  58.1025362  36.4335728
  37.4576592  59.5985842  36.4671826  25.4390331   7.7953580   8.6111243
  24.5751758   7.6433900   8.2278617  25.7483835   8.5990956   8.1933482
  93.8547063  68.0401325  60.4084969  93.0573401  67.9475641  60.9299088
  94.2397136  68.8651466  60.7040405   8.3145253  65.7310721   5.8208354
   8.4000008  65.1437899   6.5718444   7.4550096  66.1376044   5.9312900
   8.7514132  88.2753563  40.8040047   8.4140402  89.1270351  41.0815859
   9.0165991  87.8461075  41.6174221   5.1351563  41.0938594   1.8338569
   4.7511379  41.9622943   1.7131026   4.6157567  40.6974551   2.5333770
   2.1860567  62.3076820  62.6330423   2.0455691  63.0026722  61.9900131
   2.7330193  61.6673613  62.1780157  29.0247900  42.8233954  31.1089404
  28.4349400  43.5543105  30.9243377  29.8495728  43.2388922  31.3605865
  10.9969727  23.4069726   4.3055709  11.3011090  23.5157296   3.4045203
  11.7497603  23.6519238   4.8436626  80.3728920  52.4373099   6.8788798
  80.6929940  51.6898295   6.3738521  80.0895959  52.0599982   7.7117141
  56.8449357  67.1136728  23.8212951  57.0214680  66.8129363  22.9298766
  56.1657551  66.5212884  24.1438277  63.8820919  45.8981368  13.9753707
  63.0870251  45.9471747  14.5061191  64.5866216  45.7703158  14.6106132
   8.0921888  72.4817371  68.0264664   7.4268723  72.1970034  68.6529732
   8.5034657  73.2397556  68.4417868  72.1506694  87.8329459  16.4462836
  72.9324964  88.2394209  16.0724433  72.3191074  87.8113118  17.3882945
  41.0586643  76.5272188  27.0506740  41.7079544  76.0955286  26.4954305
  41.4508295  77.3739815  27.2638226  85.1138050  47.2607562   0.3536304
  85.4406292  46.4355227   0.7119640  84.1611892  47.1853587   0.4090436
  11.3242738  30.7061002   9.4294818  10.8039729  30.1314589   8.8679584
  10.9879653  31.5842625   9.2507060   9.9864453  47.9088545  61.8071365
  10.7802689  47.8694677  61.2737274   9.6664244  48.8039255  61.6945791
  15.6133239  10.3220793  17.9558452  15.9336297   9.5884892  17.4309810
  15.0232331   9.9205872  18.5936816  69.2368394  54.8461005  12.6081451
  69.7222173  55.6711146  12.6059135  68.6657346  54.9062869  13.3739455
   7.0290939  14.7853991  10.8338626   6.7215340  15.6886002  10.9104331
   7.6447384  14.6797225  11.5591510  11.3195384  64.2779922  36.0584426
  10.8556867  65.0426722  35.7173538  11.7986417  64.6078873  36.8186164
  36.1570990  21.6708380  68.5477829  35.6510717  21.9040591  69.3260956
  35.7643137  22.1863562  67.8433704  47.1412459  22.0503718  46.0297537
  47.1554092  22.8012949  46.6231680  47.9142514  21.5399271  46.2708855
  39.0687943  74.1923237  48.1218195  39.8129082  74.0583849  47.5348043
  38.8700080  75.1256943  48.0474234  35.3418684  82.3031425  76.5243721
  34.5388651  82.2021675  77.0354700  35.9085369  82.8452587  77.0732117
  16.6693389  51.4288425  45.8439636  15.9474814  51.4333439  45.2153683
  17.3353744  50.8726788  45.4398441  60.8057618  14.3423459   4.4632419
  61.1034099  13.4717080   4.1993697  61.6120541  14.8335692   4.6207889
  18.1277394  35.4745412  60.8560896  19.0183949  35.6336451  61.1685801
  17.6589847  36.2875557  61.0445309  24.3173806  17.2133538  12.2158225
  24.7995059  16.5727469  11.6929324  23.4872405  16.7816779  12.4176963
  93.1166941  27.4093482   8.7434276  92.4415070  27.5774190   8.0860789
  93.9339239  27.3820588   8.2458099  85.8832461  36.0840842   2.4501069
  86.7143208  36.1457392   1.9792112  85.4356438  35.3388688   2.0494302
  45.7156232   2.6248747  52.9821491  45.9894732   3.3039957  52.3656797
  44.9856988   2.1855265  52.5457907  87.2052843  52.0729205  19.2409976
  87.2189027  53.0300090  19.2459376  86.7920524  51.8435523  18.4086116
  71.2911451  38.6151454  13.8475974  70.8989609  38.9749190  14.6432002
  71.5028703  39.3829200  13.3166202  19.3439725  70.6543985   8.8915523
  19.5104316  71.5581861   8.6237987  20.1408377  70.3901902   9.3513663
  91.9151786   4.5379168  57.6201487  92.6586345   4.1698176  58.0976534
  91.6211227   3.8273913  57.0501328  16.9307625  73.7661982  71.4920044
  16.4470196  74.5108080  71.8494654  16.4033389  73.4722090  70.7492876
   2.1958081  42.6772639  25.6859763   2.3154871  42.5083110  24.7514327
   1.9335858  41.8319461  26.0505374  64.2932698  27.1630046  20.2507671
  64.0735688  26.5472886  20.9499438  63.6926111  27.8969189  20.3804191
   7.6426822  71.7882442  57.6814890   7.0814514  72.0036507  56.9366026
   8.0095297  70.9310532  57.4649858  46.9647837  70.5942488  71.6789293
  46.6606379  71.2851763  72.2674417  47.9193449  70.6307030  71.7398930
  78.9057281  76.2532234  55.7193184  79.5561482  75.6477118  55.3635883
  78.1838657  75.6911230  56.0007238  57.3340100  42.9595896   6.0481055
  56.7771417  43.4484240   6.6540511  56.9854218  43.1679389   5.1813205
   1.4411655  72.9121065  73.5780287   1.1248992  73.6681318  74.0726328
   2.3608786  72.8288412  73.8298750  41.4344835  65.6013060  72.4551821
  40.6170940  65.9034777  72.0592117  41.5819550  66.2004519  73.1869698
   8.2810509  75.5258846  63.9809179   8.6950123  76.2781858  64.4039011
   8.9531863  74.8444748  63.9930391  68.1920341  27.6420885  66.4839363
  67.3180631  27.2790343  66.3404131  68.3453038  28.2046992  65.7248497
  43.6162806  77.2290230  45.0300884  43.0876398  77.9763365  44.7502899
  44.4731903  77.3788977  44.6307468  28.1401650  43.2115409  17.8781207
  28.6285512  42.9394957  17.1011336  28.7953155  43.6252448  18.4401401
  26.9643450  64.7181845  41.1273050  26.4666581  64.2238379  40.4760265
  27.3137140  64.0513563  41.7184973  61.3472645  14.8146436  15.4923328
  62.0644452  14.9271294  16.1162170  61.7679167  14.8574540  14.6335776
  71.3020212  40.9292838  12.4396403  71.3298232  40.3373763  11.6879066
  71.8099761  41.6919276  12.1628936  15.9374730  32.1530387   5.8559592
  15.9599416  31.9280431   4.9258502  16.8568913  32.2649190   6.0975917
  42.3637342  70.9618855  71.0075188  43.1969261  71.4282322  71.0749626
  42.5941324  70.1133633  70.6291533   0.8132259  51.6089484   0.4694160
  -0.0414665  51.2335440   0.6810792   0.7051627  52.5485942   0.6164678
  70.2432254   2.8020960  72.5476170  69.6450523   2.1215159  72.2390318
  69.7590688   3.6190230  72.4273396  77.0021203   6.6864306  45.2796173
  77.9559806   6.7648131  45.2642441  76.8361572   5.8754832  45.7602835
  12.7640593  79.7338867  44.6718073  13.6831808  79.8914242  44.8877478
  12.4644423  79.1145134  45.3372669  79.6307373  65.6179094  75.5051994
  80.4986095  65.5137634  75.8953094  79.1809893  66.2346888  76.0827303
  54.3314555  20.0362307  54.5424604  54.7552589  20.6213766  53.9145947
  53.4209159  20.3304011  54.5671654  15.4808903  74.9771929  66.7074108
  14.6006060  74.8841763  66.3431597  15.8322048  75.7622576  66.2873077
   8.6104457  24.5773932   8.5947593   8.6533515  25.4228017   9.0416129
   9.2837636  24.6305463   7.9164870  27.8634667  75.1731968  66.6582727
  28.3312654  75.0439882  65.8332253  27.5601172  76.0803366  66.6220903
  92.5657895   5.6417090  65.1698256  92.3985437   5.9354788  64.2743015
  93.3889249   6.0663515  65.4114056  34.9596500  72.8255749  70.9994078
  34.9417353  72.6673508  70.0555468  34.6682787  71.9999266  71.3862371
  34.1104460  82.0368099  63.0519295  34.6142602  82.6793289  62.5523663
  33.8466644  81.3832474  62.4042368  51.7153072  84.1970348  36.5203786
  51.3029385  84.9154663  37.0000100  52.1588564  83.6823750  37.1946311
  89.2783124  79.8573634  22.7437862  89.8956543  79.4822642  23.3718188
  88.9186365  80.6239363  23.1901439  68.3539069  21.7951056   3.8310226
  67.6615864  21.2215850   4.1596492  68.0933386  22.6715848   4.1140826
   2.2462599  34.8233601  13.8241084   2.2201197  35.6239936  13.3001407
   2.0917599  35.1191041  14.7212680  35.0638170   4.4669679   4.8955138
  34.4335194   4.1373685   4.2549499  34.6918054   4.2254212   5.7437499
  76.0455960  49.3270251   2.3297341  76.5409583  48.7456843   1.7527612
  76.2564665  49.0244147   3.2130225  93.1874707   8.4418494  75.5467606
  93.8792995   8.6880022  74.9327517  92.8658632   7.6012808  75.2207947
  27.1863842  69.0684557  58.1865740  26.4230585  69.5943689  57.9478598
  27.2989035  68.4631634  57.4536371  83.8514191  49.8054835   4.7318633
  84.0066153  50.7448241   4.6329387  83.9517314  49.4517752   3.8480838
  50.3354862  40.2279764  73.7372160  49.4918671  40.6325060  73.5349941
  50.1359657  39.2977339  73.8423920   3.7274663  19.7576949   6.1824401
   2.8706924  20.1155278   5.9497913   3.9291350  19.1418406   5.4779704
   0.0811974  36.9341037  30.9964259  -0.1968415  37.5409171  30.3103431
   0.7897536  36.4294287  30.5970653  68.7925866  36.4261633  44.9979544
  69.3899349  37.1626192  45.1285315  68.7196162  36.3426215  44.0472031
  15.4270113  64.5950270  42.5488043  15.1892483  65.0729322  43.3433533
  15.9295797  65.2246952  42.0319176  67.3422340   1.4153487  59.3874025
  66.9465497   0.6687170  59.8370790  67.5743607   1.0782534  58.5221195
  55.8486766  50.8616587  25.6599887  56.5917778  50.6608435  25.0910361
  56.2026388  51.4669081  26.3116153  62.3537281  19.7385699  64.0556669
  62.9494336  20.1505953  64.6814442  62.9161981  19.1736704  63.5258007
  67.8102103  35.0942036   1.5102847  68.6120767  35.5779883   1.3123162
  67.9015827  34.2718980   1.0289319  26.8895452   3.4900567   0.0804647
  27.6856296   3.0609462   0.3940614  26.6086833   4.0385529   0.8129247
   3.8009244  67.4803543  68.7079477   3.9553714  67.1440315  69.5907068
   3.9066634  68.4280777  68.7908125  54.2434740  79.5092201  62.9546690
  53.9659071  80.1742172  62.3246193  55.0154209  79.8864365  63.3766079
  20.4292695  57.1904895  14.9015792  20.5952470  56.9291064  15.8073218
  21.2317388  56.9581553  14.4343646   8.0800263  38.0228087   9.6926864
   8.7690608  38.6259314   9.9714454   8.1523387  38.0011031   8.7384685
  48.3107345  52.8155753  18.7858756  47.7900569  52.7045008  19.5813544
  48.7979905  51.9959304  18.7021525  93.4696821  18.6118895  66.4076567
  93.2136777  18.7579638  67.3183441  93.8117460  19.4571406  66.1164904
  64.3895415  26.6593176  43.1111860  65.2276209  26.2379557  43.3017254
  64.4301585  27.4946982  43.5767174   4.7566168  37.9263350  11.3419803
   3.8344781  37.6854750  11.2531932   4.7388379  38.8276431  11.6637881
  19.5533550  84.4000912  70.2441883  19.8262715  84.3527412  69.3279409
  20.3720188  84.4761848  70.7343245  89.4373042  44.7219989  38.7585528
  88.6006958  45.1853129  38.7992175  89.7258073  44.6681735  39.6696551
  12.0778739  71.6833544  50.7546139  12.9603899  71.3267946  50.8559275
  11.9620013  72.2551632  51.5134525  77.3858589  69.2001006  21.0960944
  77.9523069  68.4710738  20.8433421  77.4979562  69.8440978  20.3968509
  22.4329631  53.3441302  21.9144710  23.2940785  52.9519316  21.7699416
  22.0603721  53.4338614  21.0373481  89.1446168  54.0678832   9.7976478
  89.8215634  54.6692607  10.1080211  89.1093904  53.3821341  10.4645331
  20.4215932  72.5789356  48.5934877  19.7339165  72.0267773  48.2213879
  19.9867284  73.4114695  48.7778950  87.9408437  49.4288394  22.4297984
  88.4511549  48.7867972  22.9233630  88.2466966  49.3354651  21.5275939
  91.3304454  45.9306666  14.7427543  91.8482954  45.7305476  15.5225070
  91.3095027  45.1092192  14.2518218   4.1731898  47.7966735   7.6072581
   4.7979443  47.4409816   8.2392390   3.4645025  47.1536967   7.5831969
  16.7531697  68.6246917   5.4699309  17.6138942  68.9814803   5.6892284
  16.5514390  68.0265376   6.1894782  50.3768963  50.7821223  21.3868602
  51.0231382  50.9315631  22.0769866  50.8753401  50.8523604  20.5727084
  12.6593566  87.9981232  69.4629669  12.6781178  87.7511787  70.3875732
  12.7279460  87.1677303  68.9918327  28.5598016  79.3204498  54.9142885
  28.0464721  79.6020937  54.1570520  27.9772806  79.4546890  55.6618690
  68.1839013  51.0432193   8.1770404  68.9020360  50.4103610   8.1763538
  68.5729653  51.8473384   7.8331740  94.0566451  33.0370471   1.4508613
  93.8815743  32.4791333   0.6930240  94.3083006  33.8803622   1.0744031
  76.5950662  39.4556185  17.7711566  77.2705609  39.2690608  17.1191295
  76.6908497  40.3901812  17.9545959  83.4561446   7.4059302  54.7499371
  83.1032708   6.5541941  55.0073385  83.3269933   7.9610163  55.5189896
  82.0177463   7.6468855  48.4551716  82.9324153   7.3647505  48.4598017
  82.0595411   8.5926730  48.3138561  28.5422611  62.7181625  71.6441441
  28.1448269  62.4133921  70.8284283  28.5242033  63.6728525  71.5773010
  80.8392980  87.1631050  68.3311176  80.4969408  87.9456234  67.8990364
  81.7895784  87.2375965  68.2436562  45.4721943   3.1682020  62.1417522
  44.7607246   2.5472838  61.9852400  45.0734022   3.8619810  62.6669836
  74.5170453   2.5228697  46.8585777  74.4756082   2.1800238  45.9658480
  73.6074403   2.5253683  47.1566486  63.9120579  57.1783781  56.4693403
  64.5893002  57.2822475  55.8009243  63.9645052  57.9798555  56.9900274
  32.6576297  45.2363154  21.3095554  33.1085746  44.7181842  20.6429084
  32.1118228  44.6033999  21.7761787  57.1541023  79.2366409  75.6189251
  56.9628859  79.9140692  74.9702644  58.0238962  79.4606161  75.9498692
  70.0817803  20.8754546  60.2961159  70.3856352  20.6997877  61.1866474
  70.3294423  21.7856795  60.1337147  93.3809096  42.1969268   4.1977580
  93.5481650  41.2855384   4.4377883  92.6208025  42.1561381   3.6174090
  30.9251947  12.5942618  47.1767712  30.9985300  12.8821188  46.2668324
  31.8050228  12.7089411  47.5359154  74.2644456   6.3127714  72.1053505
  73.3673909   6.4799506  71.8162489  74.4787553   5.4554182  71.7375851
  11.6899124  11.1982924  65.7221603  12.0018497  12.0981318  65.6261969
  11.9786015  10.7581812  64.9226665  13.7440268  41.5493342  17.7639850
  14.2191569  41.0163066  17.1265109  13.1211345  42.0520064  17.2390445
  19.3749845  71.3719368  40.9398985  19.6922421  70.4709387  41.0013914
  20.1675773  71.8983412  40.8353662   3.5757009  56.0848758   2.1159871
   2.7590625  56.4636466   2.4413665   3.9973204  56.7991206   1.6381486
  47.8474092  76.1958885  41.6689634  48.4600306  75.5278397  41.3613319
  46.9839096  75.7976103  41.5595150  60.9767199  85.5685234  54.2314005
  61.1878252  86.0418987  53.4266758  60.1403809  85.1415539  54.0457344
  56.1021328  82.8807640  70.6729364  56.3870335  83.2032394  71.5279627
  56.7006540  82.1598530  70.4772711  36.7948890  80.8014965  62.7018881
  36.3434219  81.1288261  63.4798813  37.0465660  81.5902042  62.2214270
  85.6653458  47.4181124  23.4747298  85.7627207  46.5577552  23.0666335
  86.1480862  48.0119368  22.8997787  29.9170892  49.8641059  25.2007373
  30.1333587  49.6319148  24.2976554  29.8649423  50.8198687  25.1963790
  56.6087914  76.1833334  64.8623133  56.5988255  76.3999319  63.9299965
  55.8383369  75.6293488  64.9877501  75.6443960  57.5486609  18.3815654
  74.8024899  57.1007869  18.2989295  76.2624210  56.9845721  17.9167159
   7.5220005  52.8873297  13.3921798   7.8277819  52.2587344  14.0460952
   6.6455094  53.1333491  13.6879333  40.3689098  66.4463425  49.0860033
  40.5257702  67.3767900  49.2469168  41.1972570  66.1213017  48.7332678
  62.3989344  84.1621590  43.3626747  62.3065758  84.3470860  42.4280596
  62.4707460  85.0246620  43.7715387  56.7094707  78.4477711  70.0030851
  55.7707453  78.3218098  69.8646498  57.1145678  77.6695538  69.6203232
  78.1777925  45.9133002   2.1368917  78.6203260  46.3058707   2.8894075
  77.4127013  45.4758307   2.5103744  47.2942546  67.7811304   5.7480224
  47.7312878  68.5955420   5.9969600  46.7824713  67.5384059   6.5196403
   9.8696280  48.1385088  64.6955395  10.1338279  48.1378698  63.7755251
   9.7650701  47.2127771  64.9153519  16.6226792  31.9540572  71.9215918
  17.1745217  31.3548112  72.4241877  15.8342862  31.4473343  71.7269135
  15.9937572  11.9638455  25.6791258  15.9443939  11.0643399  25.3555751
  16.5179443  11.9027066  26.4776993  58.5984591  75.5398336   3.6807616
  59.0787318  75.1702753   4.4217094  58.0335215  74.8271838   3.3820899
  92.5261721  57.0354605  19.0206027  92.4723475  57.3540497  18.1195831
  92.6451335  56.0896826  18.9335251  26.2664557   8.2477432  67.8736115
  26.2494493   8.2108587  68.8299513  27.0552683   8.7491614  67.6672506
  92.5071615  20.5144334  29.0784740  91.7972313  19.9142933  28.8503027
  92.5686732  21.1081743  28.3301950  75.4416870  82.4916774  70.1013184
  75.8395182  83.2921612  70.4436445  75.3960930  82.6323652  69.1556120
  27.6212883  43.2984352  73.5766983  27.2282481  42.4819374  73.8850451
  27.1759653  43.9824343  74.0767670  18.0002165  37.4984479  75.7591772
  17.2717893  38.0615973  75.4974699  18.5173297  38.0381155  76.3571596
  92.5207501  26.2799668  46.2796926  91.6247304  26.0736680  46.5458155
  92.9260479  26.6453862  47.0661020  72.7558701  73.4371549  46.6752338
  72.1153830  72.9686612  47.2105074  72.4975674  73.2487923  45.7729959
  16.3143182  25.1423430  70.2637005  15.7578099  25.6027508  69.6355677
  16.1301446  24.2153001  70.1123619  72.2775449  25.8379364  64.0554285
  71.8838992  26.6344285  63.6992359  71.6751375  25.5611467  64.7458839
  81.2944295  34.3250299  57.1524763  80.4746344  34.6643090  56.7932320
  81.7722478  35.1043653  57.4362993  29.7984576  40.2417564  33.9835382
  29.2302155  40.2925634  33.2149363  30.6776524  40.1235247  33.6239982
  47.7771019  87.0304693  58.3725548  47.0093619  86.6780649  58.8226843
  48.1872569  87.6088352  59.0155935  23.6561251  30.6690502  64.9369144
  22.8194475  31.1301780  64.9966002  23.4897733  29.8176742  65.3415346
  87.1327575  39.9400520  20.2052784  86.3779022  39.4593310  20.5448842
  87.8453453  39.3009663  20.2094507   2.6162529  58.6797857  69.3351984
   1.8201542  59.2108679  69.3554449   3.0745187  58.9651823  68.5447693
  90.8569803  67.2962904  41.7483330  91.2570052  66.4626932  41.5006876
  91.4914783  67.9577541  41.4724541   2.0770356  85.7289547  51.1449718
   1.1355802  85.8941829  51.1958694   2.3678943  85.7177997  52.0568419
  18.0039358   9.1734087  54.0081787  18.3478236   8.6496872  54.7318411
  17.2719455   8.6594224  53.6672401   3.5700217  12.8496706  52.3157263
   4.2886540  12.5038660  52.8450823   3.0283993  12.0854402  52.1186781
  63.6068992  33.8486144   1.3632568  63.9299971  33.6856934   0.4770883
  63.2301017  33.0127713   1.6382535   6.6522038  47.4875021  64.0570259
   6.9746643  48.3765554  64.2047691   5.8198035  47.4532127  64.5283699
  82.8817381  16.1655378  51.9521666  82.7324702  17.1049881  51.8454695
  82.8751328  15.8191121  51.0598803  32.3619496  84.1348702  29.5442724
  32.9699980  83.4193516  29.7301292  31.6497885  83.7229913  29.0549731
  68.2065158  73.9144307  67.7821970  67.3494365  74.0787309  67.3889399
  68.8332235  74.2302948  67.1312761  69.5526900  37.0566320  28.1745267
  68.7512436  37.2808909  28.6474156  69.3046608  36.3167024  27.6202559
  29.2910770  70.0345936   2.6057847  28.5212228  70.5515519   2.3684915
  29.9403599  70.2508202   1.9365247   3.4200904  85.0746298  73.6133909
   3.9256808  84.2677927  73.7114954   2.5179598  84.7786778  73.4917068
  84.9044429  62.4475282  41.2209749  85.3414952  61.5983933  41.2856913
  85.5886565  63.0852050  41.4245701  59.9826797  80.3808540  74.6920013
  59.5825319  80.3317350  73.8238430  60.5409618  81.1574942  74.6548176
  12.7565217  22.8499103  71.5694332  12.4524808  23.0030298  72.4640512
  13.7076354  22.9450130  71.6201305  66.6755222  83.8091046  71.4115000
  66.3356023  84.3426380  70.6931496  67.1978604  84.4169140  71.9349146
  45.8340635  18.7536633  22.2213817  45.0687923  18.3669436  21.7958951
  45.4803886  19.4772553  22.7386451  33.8691373  63.2259169   5.1166709
  33.7463541  64.1065255   5.4711898  34.6691424  62.9084840   5.5355437
  44.6670142  55.3241411  11.7548068  44.5412210  55.6655434  12.6401599
  44.9383667  54.4154611  11.8848117  90.0497793  17.4899900  73.7748098
  90.9661742  17.2136307  73.7659931  89.5649763  16.7039526  74.0264893
  83.7382068  47.7611876  35.9515738  83.5945596  48.6644459  35.6692243
  84.5194360  47.8039885  36.5030074  36.2082437  41.5860629  25.9336074
  36.7344818  40.8737415  26.2967952  36.8462137  42.1703303  25.5239089
  38.6706448  54.9846888  40.1567078  38.0858350  54.9329853  39.4006944
  39.3390059  54.3204689  39.9883747  11.1969888  18.3475029  70.0069809
  11.0157073  18.8091671  70.8256626  10.6925368  17.5366580  70.0724888
  72.9888588   4.3991992  32.1289523  72.6204348   4.0646073  31.3113101
  73.2206136   3.6146590  32.6259692  68.9874687  58.6298227  70.7065248
  68.4469451  59.3883705  70.9271479  69.2632761  58.7867737  69.8034620
  87.9943724  11.0628068  45.7938671  88.4137877  10.4425025  46.3901424
  88.5432359  11.0497856  45.0097704  22.4436951  54.7945213  31.3446283
  22.5755858  53.9320278  30.9510016  23.1542301  54.8788118  31.9804478
  43.9067029  77.8498143  69.8054123  44.4695197  78.6172908  69.9076319
  43.7047838  77.5798458  70.7012796  38.5858533  35.7698545  12.4842628
  38.6559412  35.6614163  11.5358146  39.1508648  36.5166846  12.6823505
  93.6645363  53.4606171  33.4512782  93.0567487  53.4649754  34.1907406
  93.5684757  54.3276167  33.0571771  63.8004317  47.9924870  69.1496229
  62.9426326  47.6709318  68.8721037  64.1433301  48.4521580  68.3832312
  14.1225755   4.8345599  48.5856247  13.4647214   5.4376972  48.2396698
  13.6200047   4.1975889  49.0934896   7.6576442  37.9380608  12.7398121
   8.0132312  38.7955260  12.9733551   7.3109400  38.0553627  11.8553531
  46.7080616  86.3293204  51.9890165  47.3930572  86.6953261  51.4295053
  46.1231374  85.8729938  51.3841534   6.4287472  29.5651436  43.6605501
   5.9609860  29.9127579  44.4198895   6.8721163  28.7832689  43.9896774
  73.8939356  66.7946738  53.3007479  73.9443802  67.6383942  53.7499952
  73.9589630  67.0139664  52.3712778  76.3643326  32.2057819  41.6605425
  76.0500290  33.0879116  41.4623260  76.7683425  31.9067860  40.8459234
   1.3968694   9.2278588  57.7377605   1.5276459   8.2801992  57.7050495
   0.9739147   9.3822604  58.5824490  47.2705545  20.6487775  52.9719400
  46.5482559  20.8257747  52.3692894  48.0246963  20.4941678  52.4030876
  34.5948637  72.8448048   6.0309394  34.2030367  73.4421483   5.3938468
  34.8843599  72.0955863   5.5102714   3.9909431   1.9169277  68.0713892
   4.6196637   1.4301290  67.5384998   4.5070210   2.6171845  68.4708071
  15.3518188  33.4084105  56.2427759  16.3074362  33.4334445  56.2917662
  15.1637292  33.2355666  55.3202915  83.1580840  70.1396793  32.6878834
  82.2806476  70.5188197  32.6370168  83.0909692  69.4711369  33.3696318
  14.9442887  19.5028865  37.0862556  15.4517913  18.8631856  36.5867996
  14.4415271  18.9768565  37.7081513   1.2302724   8.3428115  16.5379333
   0.2901690   8.2619762  16.3769901   1.2923141   8.6725223  17.4344122
  16.1756313   5.7007658  68.7392759  15.3054869   5.3257245  68.8750172
  16.7792106   4.9904174  68.9568281   1.6941299   6.2388158  52.7358437
   1.3203092   5.6317192  52.0971537   0.9999607   6.8789601  52.8926134
  88.5649522  40.7987547  52.8374386  89.5002659  40.9560013  52.7082348
  88.2258781  41.6301584  53.1691408  67.0647349  12.3267615  59.5080566
  66.3313880  11.8454754  59.1249084  66.6722192  12.8375947  60.2160215
  36.8020806  71.7308774   8.6215003  37.3287401  71.8363920   7.8292068
  36.9964555  70.8430448   8.9218410  32.7444220  28.2781744  12.3218513
  33.1929398  28.0644321  11.5036952  32.2610378  29.0811205  12.1273053
  87.8353353  27.7993059  75.8162117  87.6064750  27.7544498  74.8878527
  88.2931819  28.6346650  75.9099340  17.5805533  36.1597657  20.6639624
  17.2251344  35.2857018  20.8249617  17.7123737  36.5292788  21.5370679
  20.5587268  10.3183854  39.1570854  20.5298138   9.3621135  39.1877294
  19.6908426  10.5938303  39.4522786  93.1906979  39.7545808  -0.1361815
  93.6577289  39.0044263  -0.5041234  92.9110067  39.4608113   0.7308276
  79.4629731  12.6658583  41.9825506  79.0932920  13.5257554  41.7821836
  79.2352273  12.5151002  42.8999567  87.6237377  19.9937642  49.5949221
  88.2081719  20.0944924  48.8435745  88.1267985  19.4737899  50.2216530
  36.9542483  66.7542210   3.7147220  36.3459817  67.4550763   3.4801086
  37.7463362  66.9465580   3.2128986  40.9858810  81.2420720  42.5836039
  40.0987254  80.9925789  42.3248720  41.5321599  80.9908855  41.8388128
  67.0262483  43.0080153  26.7105277  67.8361514  43.5134256  26.6409095
  66.3343290  43.6683659  26.7481597  29.0725827  47.3241711  48.3715773
  28.7298465  48.2095385  48.2495594  28.8079357  47.0852041  49.2598820
  16.3549960  10.4179621  58.7773323  17.0279145   9.7383451  58.8164854
  15.5354035   9.9535686  58.9471531  32.8224516  11.9886208  63.3677864
  32.9502153  11.8936896  64.3116617  33.4546900  12.6581860  63.1066561
  60.7176712  70.4163351  22.0036204  59.8758486  70.8654848  21.9272502
  60.5136159  69.6014800  22.4625381  86.6804947  34.8316288  56.5462828
  87.6351972  34.8800159  56.5956211  86.3779195  35.2328348  57.3609686
  81.6191067  36.9420528  36.0527444  82.4939718  37.3031163  35.9096527
  81.6940131  36.4495015  36.8700671  49.9295567  60.4482573  76.2913418
  50.4761003  60.0167435  76.9480944  49.2632090  59.7978848  76.0694695
  76.2608007  48.2645103  13.7878974  77.2071412  48.3216452  13.9198192
  76.1621383  47.7841756  12.9658397   5.5924064  30.7207417  67.5731039
   6.5253556  30.8174086  67.7641344   5.5658919  30.2409124  66.7452812
  10.9055769  81.3430119  43.8071203  11.5035844  80.6145954  43.9745283
  10.2200377  81.2468815  44.4682026  86.8018272  32.8040433  75.0445604
  85.8580937  32.6823902  74.9406433  86.9445195  32.7735400  75.9905720
   6.7072970  39.7951865  58.5265541   6.4439774  39.0561581  59.0749407
   6.4629716  39.5336890  57.6387691   0.1345292  33.2766700  62.8493738
   0.6176784  33.1628156  63.6678123   0.2528040  32.4484921  62.3842239
   2.1693146  23.5230899  34.6029902   2.0356439  22.7160144  35.0999761
   1.3795763  24.0386510  34.7665191  15.1823282   8.0880260  77.2944593
  15.2901959   8.6692458  76.5416098  15.6488800   7.2890764  77.0490170
   1.3787571  33.5641074  67.4156094   2.3116374  33.3758903  67.3129416
   1.1942063  34.2292118  66.7524290  11.7175078  32.8743553  54.0956640
  12.1299112  33.4049320  54.7773123  11.9183278  31.9711494  54.3408632
  13.3372343  53.4432459  76.7350435  12.5051212  53.5931873  77.1837521
  13.1222582  53.5061502  75.8044195  81.3168981  38.9670277  60.1897192
  80.4550006  38.5914183  60.3693914  81.2326433  39.8882961  60.4354763
  71.5410799  30.5309817   3.2310184  71.4584464  29.7397706   2.6986774
  71.6186285  31.2412259   2.5940211  15.0345325  42.3206854  41.0371923
  15.4906595  41.9413280  40.2860117  14.7764957  43.1946850  40.7443237
  33.8222647  35.5209661  24.2491651  33.9198852  36.2118101  24.9044800
  33.0109477  35.7389450  23.7903833  18.7752223  57.6575899  24.2082787
  19.3174624  57.3437881  24.9319744  19.3284094  58.2915831  23.7519097
  93.0848212  27.9032803  23.7891960  94.0155992  28.1242394  23.7566113
  93.0620706  27.0134544  24.1412234  10.2863911  87.7045384   9.8352702
  11.2324432  87.8000918   9.7253116   9.9326804  88.5697022   9.6288379
  22.1799612  10.8129609  37.0007372  21.7687607  10.4829550  37.7996397
  21.8151927  10.2701402  36.3017941  62.9087128  52.1052837  57.2839308
  63.2034101  52.3499727  56.4067125  63.0092444  52.9039669  57.8018332
  16.6173744  66.8716812  48.6396551  17.1283317  66.2444305  48.1280756
  17.2378671  67.5685883  48.8530540  86.8719574   8.4821713  48.1852245
  86.2134512   8.9029831  47.6324844  87.6289799   8.3674514  47.6107740
  47.7357999  81.2983695  16.0850700  48.5849968  81.4946666  15.6893905
  47.2315815  82.1055451  15.9827788  74.6018114  50.1133108  75.5616951
  75.3169694  50.3576374  74.9742556  73.8313570  50.0686789  74.9954414
  21.9747448  26.9990087  63.9114332  21.3739610  26.6357851  63.2607746
  21.9587731  26.3678360  64.6308756  79.7326257  55.5078745  47.5439978
  79.0901532  55.3193808  46.8599415  79.6784916  54.7581148  48.1365871
  16.5047634  65.3842258  57.5533628  15.7233036  64.9241352  57.8597403
  17.1559870  64.6937704  57.4292326  36.7439604  38.2190585  73.6569548
  37.5324488  37.8345251  74.0399027  36.7146993  37.8686500  72.7666759
  64.4885877  84.2190757   3.8596328  65.2252248  83.8888255   3.3453067
  64.0676096  83.4328499   4.2072757  79.4552662  55.5740833  51.0858917
  80.3150441  55.9658003  50.9323549  79.5359006  54.6807909  50.7515812
   6.6777468  73.6846304  59.5356941   6.6048497  74.4683933  58.9910555
   6.6719007  72.9583311  58.9122438   7.5662748   8.0709979   0.7701715
   7.9862658   7.8782365  -0.0680892   7.4460785   7.2145507   1.1803945
  79.6330323   7.6312476  49.7365522  79.6173801   7.1372956  50.5563068
  80.5541803   7.6343548  49.4763422  14.1821659  64.6198845  51.7994261
  13.3624470  64.5300436  51.3134003  13.9092970  64.8304653  52.6924133
  23.4237424  87.7682152  26.1906131  22.9263637  87.1228733  25.6882365
  24.3397406  87.5647154  26.0014899  88.6042496  56.4290237  49.9302912
  89.3766962  56.2207699  50.4558277  88.2371398  57.2105932  50.3433418
  67.7828135  28.7148881  41.8712425  68.2945551  29.4664836  41.5721512
  68.2885589  28.3555818  42.6001787  55.0150746  20.0551268   4.2722877
  54.1489035  20.4065511   4.4783862  55.1622445  20.3010985   3.3590110
  74.4806399  53.7235212  38.0305743  73.5917153  53.3694696  38.0569005
  74.7144558  53.8523579  38.9497924  13.9500964  39.4613767  64.1178608
  13.6792719  39.9124193  63.3182096  14.8510754  39.1880941  63.9452791
  85.1850446  33.5967755  42.8402805  85.1358034  33.1883335  41.9759989
  85.4145386  32.8796959  43.4313440   9.9894816  64.3657017  39.5435405
   9.1425204  64.8014498  39.6384692  10.6254196  65.0807333  39.5201635
  84.9568905  35.3069091  64.9083900  84.6770157  34.4308710  65.1738310
  85.6615533  35.5279946  65.5173254  65.2967122  60.6962481   1.7538007
  66.1610034  60.3536144   1.9814666  65.1525000  61.4124945   2.3722060
  81.2353665   4.0563485  25.1990493  81.4348072   3.7693688  26.0901721
  81.7500276   4.8551509  25.0838359  11.7289412  36.3288641  64.5263386
  11.7999911  37.0280600  65.1761866  11.2132347  36.7125750  63.8170815
  12.4691665  30.8262515  48.6839867  13.0654800  30.6706047  49.4163942
  12.8542280  31.5663600  48.2147360  18.6714244  40.1400375  51.5659285
  18.7762046  39.2564702  51.9188595  19.5208538  40.5574226  51.7090797
   3.4787285  51.4831400  39.4731212   2.7998134  52.0205927  39.0651345
   3.7694961  51.9962072  40.2270746  59.0505256  32.7915645  73.8886166
  59.5261159  33.3298850  73.2559586  58.6206045  33.4231663  74.4652271
   4.6095368  40.8035326  67.3415184   4.9726078  41.4788532  67.9145384
   3.8911387  41.2393236  66.8830204   1.1765801  64.3591356  69.4989109
   0.2667524  64.6542597  69.4622326   1.2013418  63.7504005  70.2371883
  27.5865746  59.6221685  54.2928648  28.3208632  59.6411228  53.6791134
  27.6745605  58.7835026  54.7457743  73.8456549  10.7774222  43.5625601
  73.5545268  11.1220944  44.4067621  74.2456975   9.9337703  43.7733936
  69.5211458  10.3050804  62.8643036  70.2759266  10.7303691  63.2713270
  69.5113039  10.6411803  61.9681072  56.9969386  47.3089930   3.4355529
  56.4852315  47.9328391   3.9505275  56.8197531  47.5473162   2.5255855
   2.9750276  18.6539602  38.1838250   3.3339044  17.7678907  38.1356645
   2.0371717  18.5412610  38.0290437   4.6743524  18.2870770  47.8108263
   4.9473915  17.5885522  48.4055901   4.6174595  19.0652072  48.3653593
  40.2967450  63.8591149   5.2995952  40.4818520  62.9222217   5.3644069
  39.6410194  64.0211776   5.9778197  24.5512629  58.3384514  24.9714994
  23.9500690  58.7989378  25.5569482  25.3725100  58.8253307  25.0402808
   8.6446840  45.4117060  23.8839006   9.4831568  45.3618765  24.3429351
   8.0305958  45.7381582  24.5415878  27.6386857  37.7992511  15.4973602
  27.4187899  37.1602106  14.8194921  28.4440374  37.4634385  15.8908951
  19.7651362  57.4979019  21.1960673  19.3383205  56.7203522  21.5558934
  20.2807498  57.8462982  21.9233871  24.1505194  57.0502663  65.2418661
  24.5303440  56.9849730  64.3656778  23.3001208  56.6172886  65.1671457
  34.0079904  68.4273577  62.2187662  34.4636106  69.2578840  62.0814037
  34.6894431  67.8277159  62.5225496  72.2912540   5.0774020  46.6079187
  72.8648843   5.0688505  47.3741484  71.6121020   4.4338506  46.8099737
  82.6458504  30.5099750  26.5082097  83.1885948  30.3662729  25.7329607
  81.7468657  30.4296255  26.1894584  92.5292364  49.5163107  69.4844246
  92.5257251  49.6951056  68.5440826  91.9510060  48.7603807  69.5866585
  90.0384413  23.1420994  50.0064850  89.2882617  23.2845855  49.4292831
  90.3763883  22.2833252  49.7524595  92.5572418   3.7115422  52.2743511
  93.0884294   3.4178865  53.0145121  92.9001925   3.2243374  51.5251875
   0.2180712  13.9481875  -0.1400678  -0.1758726  14.6682498   0.3524287
   0.3909628  13.2745501   0.5176242   3.7447813  11.1695802  64.6851444
   4.6146238  11.0823143  65.0750017   3.6431226  12.1093309  64.5342588
  30.8642364  82.8214994  11.0834869  30.9455347  82.3229804  10.2704127
  29.9851102  83.1983295  11.0465129   3.4679744  70.8071852  35.0649738
   3.5829994  69.8571491  35.0856972   2.5240725  70.9362459  35.1578379
  23.5325813  29.9622226  49.1767979  22.8031301  29.3459630  49.2427969
  24.2635202  29.5146990  49.6030378  29.0167451  22.9960370  24.6211219
  28.1022811  23.0200291  24.9029231  29.5179582  22.9705501  25.4362082
  91.2699853  20.9095359  42.4577665  90.7303130  20.1297522  42.5878572
  92.0726157  20.7297325  42.9473448   6.1595577  22.5003767  62.5689030
   6.3296998  22.8047347  63.4603357   5.6037283  21.7292118  62.6811028
  75.9332206  30.0469089  43.0597019  75.6390991  29.4639182  42.3598146
  76.1924448  30.8505464  42.6089239   9.6497643  55.7353973  10.9495366
   9.1767061  55.9655476  11.7492104   9.3231612  54.8654032  10.7200289
  13.5611832  17.5982642  47.5295210  12.9125631  18.2787013  47.7098799
  14.1955400  17.6771808  48.2419777   6.7645466  30.7750154  41.1564064
   6.3623083  30.4367423  41.9564104   7.6796585  30.9253144  41.3934994
   5.3876165  74.7544232   7.4478610   4.4753960  74.5253745   7.2700294
   5.8966258  74.1155115   6.9489272   9.2929065  68.6346054  61.8695736
   8.5402495  68.0462170  61.8100786   9.2561328  68.9811468  62.7610826
  32.8177953  21.5871859  40.2386999  33.6558247  21.4575815  40.6827068
  32.9767060  21.3015532  39.3390393  15.2528429  19.3173778  59.6966887
  15.5230343  19.4551647  58.7888098  14.2968202  19.2871344  59.6601057
  74.0232863  28.4644437  44.9428558  73.3502593  28.2776666  44.2883492
  74.6843412  28.9693832  44.4692802  16.9761682  37.7314425  60.9151173
  17.6894486  38.3523226  61.0633469  16.4513373  38.1307602  60.2213383
   7.0220095  34.0446734  51.1833429   7.8184766  33.6028576  50.8889437
   6.3751692  33.3437347  51.2640476  13.1570721  35.9351707  77.1151781
  12.4112964  36.4126205  76.7517281  13.5106182  35.4431343  76.3741398
  91.7688926  56.0418558  55.8919477  92.2471476  56.7250013  56.3618612
  92.2564649  55.2388096  56.0752916  92.3232927  27.8994036  59.5679140
  92.8130760  27.5958633  60.3322506  91.7669331  28.6022592  59.9036074
  56.5321401  74.4035926  21.4227470  55.5887059  74.5456329  21.5001376
  56.9192460  75.0243845  22.0399936  86.6468181  35.3967786  44.1977406
  86.4163413  35.1404643  45.0907230  86.1540534  34.7940707  43.6408234
  77.7025773  23.0047941  56.1565018  77.4875917  22.8151345  57.0697641
  78.6051609  23.3223271  56.1838818   8.3941495  16.2505209  52.4858999
   8.7714928  16.8775415  51.8689013   8.3218503  15.4370713  51.9865942
  80.1074571  -0.2596524   8.3908828  80.9073669   0.0840756   7.9931148
  79.4033367   0.2540061   7.9951556  73.2089275  23.4163377   4.0819343
  72.9242903  24.1642710   3.5567649  72.7675462  22.6644418   3.6868747
  68.1632795  29.3173528  63.9401245  68.9268579  29.5155811  63.3980131
  67.4982800  29.0218306  63.3182955   9.0795344   8.7443078  36.2206411
   9.8454791   8.2686740  36.5420961   9.4292098   9.5794111  35.9098983
  28.0431199  47.0051193  64.4688797  28.0771255  46.0489893  64.4985867
  28.6624002  47.2878313  65.1417828  27.3858428  46.4461660  74.4250441
  26.7913127  47.0684004  74.8440838  28.0732965  46.9918108  74.0430593
  81.3227004  23.3379552  17.5941642  81.3642913  23.6400315  16.6868384
  80.5123252  23.7160537  17.9355796  14.0606892  38.3080149  55.5188513
  13.1888640  38.0339384  55.8035135  14.2389369  37.7736878  54.7449303
  21.1862111  21.9833612  14.7801232  20.8712649  21.1686945  14.3885159
  20.9512091  22.6605606  14.1457665  12.4427080  49.6408367  74.5315027
  12.4058080  49.2571020  75.4076433  12.7073491  48.9169312  73.9639187
  69.6745886  13.2565498  68.4227753  70.5915298  13.1760538  68.6853933
  69.5668187  12.6078272  67.7272320  33.3721733  82.2253895  70.3019428
  33.8219237  81.3812065  70.3381968  34.0755677  82.8676414  70.2071810
  17.1818304  71.1501455  32.0481420  16.6576445  70.4695225  32.4702883
  17.8790045  71.3395262  32.6760864  15.7459223  40.0440741   5.5913693
  15.1552176  40.7915592   5.4988223  15.1749706  39.2783761   5.5284673
   2.2099651  36.7552638  15.9402108   3.1129420  37.0575929  16.0374773
   1.7097779  37.5502419  15.7556736  30.3276992  64.0957737  68.7221050
  30.8405972  63.7574530  69.4560719  30.8326507  64.8430014  68.4013176
  11.8115664  66.8182421  46.2788677  11.1346924  67.4574423  46.0563850
  12.2142005  67.1633148  47.0757627  25.9603930  26.3334489  69.6210861
  26.2004542  25.8023453  68.8617897  25.1025081  26.0005665  69.8846292
  33.1963801  77.1812773  66.3514090  32.7102518  77.0707464  67.1685362
  32.6645994  76.7329264  65.6938219   3.6523694  74.2135954  42.1575356
   3.7014121  73.3889818  42.6411009   4.3342304  74.1405535  41.4897299
  47.2090244  60.9520626  35.6246662  48.0452061  61.4177036  35.6103134
  46.6868162  61.3764858  34.9439359  20.7408452  28.8077974  29.5427871
  20.9603477  29.6962190  29.8234320  20.2922654  28.4227610  30.2956200
  22.8604476  24.1177031  11.1314185  23.4400718  24.6045682  10.5455573
  22.6228444  23.3337781  10.6362041  30.7258677  57.8435135  49.8441982
  31.5391159  57.3929310  50.0718689  30.5862522  57.6337433  48.9207602
  88.4383150  53.2529926  56.4320278  88.5494163  52.7310371  57.2266674
  88.0030455  54.0520239  56.7292118  81.7737773  85.1959219   4.8886092
  82.2979644  84.4180074   4.6980556  80.8946040  84.8569479   5.0570758
  47.3895604  11.7959925   4.4426902  46.6833562  12.0950314   5.0154765
  47.4467331  12.4670979   3.7625583   3.9619211  85.1684370   4.5534118
   4.6907714  85.6513825   4.1638358   4.1868380  84.2475000   4.4210418
  70.3584780  36.1411572  35.4596925  69.7137513  36.3873053  36.1229920
  71.2020888  36.3730597  35.8479881  75.8761801  49.8468113  39.3749714
  76.0559823  50.5122662  38.7108350  74.9678793  49.5896435  39.2165899
   5.6952572  26.4223170  44.2420530   6.4991015  26.7626357  44.6348000
   5.7326084  25.4788733  44.3993711  91.8122918   4.5622298  21.9855865
  91.3642389   5.3895756  22.1615871  91.7249638   4.0648505  22.7987369
  31.2782025  51.8487406  29.0243816  31.0187721  50.9792900  28.7194538
  32.2181416  51.7741442  29.1892481   1.4896770  44.4499063  50.9580088
   2.2357105  44.5993328  50.3772020   1.8481424  43.9345121  51.6805792
  81.1488360  11.8854424  12.6138957  82.0528037  11.5825221  12.6993926
  80.7872957  11.8127105  13.4971984  64.5426348  78.4847942  19.4419845
  65.0335124  78.7253776  18.6562427  65.0159481  78.9071813  20.1587852
  49.1199865  39.4665551  49.4452381  48.4745397  40.1615381  49.3162823
  49.8590412  39.7204876  48.8924694  40.4845095  30.9328914  67.0155334
  40.6354713  30.5365038  67.8736258  39.5444870  31.1124349  66.9966745
   4.7697061  36.7629790  72.0705700   5.3940308  36.8298507  71.3480854
   4.5712918  35.8284521  72.1299362  15.0540423  34.1383123  70.3988123
  15.8202422  33.5958958  70.5857706  14.3070161  33.5804892  70.6156445
  15.8818769  24.9256086  61.6947031  16.2693906  24.0608168  61.5597916
  15.1329982  24.9480772  61.0989618   1.4198029  31.6665387  34.2544079
   1.5666632  30.8898544  34.7942472   1.6555518  31.3906527  33.3686638
   8.0823962  12.9470488   4.0554698   8.4217135  12.1953627   4.5413478
   8.5176985  13.7031123   4.4493182   0.5131067  26.6204309  58.6975622
   1.0210994  26.0369754  59.2612600  -0.0349139  27.1205473  59.3023682
  78.5924115  47.6534986  64.3911743  77.6797833  47.8139782  64.1512012
  78.9555564  47.1753359  63.6457109  87.9429313  60.7131529  43.1776619
  87.9953440  61.2268448  43.9836454  88.6731537  60.0972557  43.2382679
  42.5740495  88.0822506  19.6873839  43.0964020  88.5629359  19.0452655
  42.0800617  88.7594691  20.1495345  78.0805018  47.4047232  38.4425378
  77.8187813  47.9185629  39.2065406  79.0091469  47.6052332  38.3257246
  18.4109227   6.1077353   5.2218707  19.3445603   6.0980317   5.0110324
  17.9856746   6.3926980   4.4130500  41.0332012  56.1052608  40.9500599
  41.2279987  56.5378714  40.1187134  40.1205826  55.8284616  40.8679485
  75.8764138  42.6040077  61.3476133  75.3784790  41.8003225  61.1980057
  76.7861726  42.3563337  61.1826086  86.0533567  40.2452278  23.4048772
  85.8250197  39.3506718  23.1521606  85.3464117  40.5165434  23.9904094
  34.5667815  56.9694757  38.1639695  34.7931933  56.1624861  38.6262870
  34.8110318  56.8007612  37.2539639   2.3698881  76.2685314  15.7672866
   3.1065348  76.8238154  16.0227092   2.1324876  76.5734187  14.8915561
   8.1602705  56.0004520  51.4092875   8.2500654  56.9312763  51.2050056
   7.2690833  55.7805586  51.1378717  38.7940192  59.6668148  61.9864511
  39.2985201  60.1731443  62.6231146  39.0810061  58.7631226  62.1176291
   6.1301702  38.5400081  30.4628301   5.6372279  37.7467370  30.2531648
   5.9855545  39.1170764  29.7129583  21.5027094  49.8534918  51.3157034
  20.9812760  50.2316141  50.6076336  21.8000841  50.6083632  51.8236113
  40.5772495  30.5177760  47.1563435  41.1386108  31.2427258  47.4312019
  39.6889544  30.8142447  47.3545170  84.2099851  73.3438054  15.9138663
  84.1223376  73.1266060  16.8419726  83.6450188  72.7140727  15.4661162
  16.2902045  56.6728401  46.3168430  16.0492790  57.4262905  46.8558264
  15.5591631  56.5707445  45.7074308  87.6866200  48.1361246  70.7717133
  87.0900001  47.4389124  71.0440540  87.6835765  48.7533331  71.5033340
  58.0926671  40.5067301  60.1595211  58.6182918  40.0741100  60.8324146
  58.7257042  41.0112810  59.6487093   9.4074219  41.7640400  30.6781960
   9.6880114  41.2068272  29.9522400  10.1163828  42.3989439  30.7806969
  30.0998135  70.5846062   7.6903804  30.4727772  70.2194658   6.8880065
  30.4035244  71.4922419   7.7042373   3.2767719  71.2697744  40.6945944
   3.7028149  72.0583248  40.3585768   3.9961055  70.7302046  41.0227060
  53.4005737  25.3105807  40.7034826  52.5987625  25.4035544  41.2179613
  54.0976334  25.6008124  41.2917852   3.6033505  64.5373201  56.3881063
   2.6482546  64.5524645  56.4497042   3.8019896  63.7099695  55.9496164
  12.6004386  47.4681234  70.0906515  12.4579597  46.5399027  70.2759600
  13.2428682  47.4748421  69.3810940  37.1045136   8.1317174  49.3769407
  36.7604470   7.4358296  48.8169479  36.9672751   7.8115630  50.2685118
   5.8022165  37.7102256  60.0475979   5.9189272  36.8375182  60.4230881
   5.5503637  38.2588577  60.7904339  29.2761397   9.6714824  60.0141716
  28.9841461   9.0338057  60.6655836  29.2913365  10.5048406  60.4848242
  22.9992315   0.4340941  33.9191556  23.8181064   0.1647955  33.5030341
  23.2447848   1.1740977  34.4744205  40.9439611  74.3176079  70.6489372
  41.0491276  73.3675003  70.5992699  41.1360359  74.6264505  69.7635221
  43.9620963  53.2583645   3.8401111  43.6954215  53.0019757   4.7229369
  44.6985832  52.6821884   3.6355670  33.4620357  61.5918398  49.0636015
  34.1469216  62.0805788  48.6071968  32.7098155  61.6249514  48.4725857
  35.4512405  35.7458782  27.3154283  34.6214676  35.2992153  27.1475053
  35.7361889  35.4102659  28.1653714  24.7586560  22.4862671  58.8654613
  24.9340343  21.8792582  59.5844984  24.5701241  21.9215941  58.1159067
  28.7009907  44.4017172  55.8646345  28.8244700  45.3189087  55.6202173
  29.5889926  44.0530491  55.9428406  60.2421120  81.2063446   1.3706382
  60.6542185  81.5270057   0.5684026  59.6695712  81.9214788   1.6481479
   7.3750031  13.6340261  60.8721590   7.7157629  12.7742946  60.6252241
   6.4322209  13.5709667  60.7191324  88.8644021  83.4403959  22.5912936
  87.9615109  83.1359592  22.4999793  89.2264359  83.3850017  21.7069324
  59.8478427   8.3889914  41.3788605  59.7564902   8.8484609  42.2135878
  58.9754405   8.0367285  41.2026310  13.2061636  42.2681570  73.1965065
  12.4729407  42.2995234  72.5819874  13.1481791  43.0917597  73.6808062
  81.6151275  54.4116306  15.6349790  81.9853034  55.0719690  16.2207711
  81.8231394  54.7277880  14.7557700  31.2149353  73.1023350   7.6612933
  30.4663669  73.6576405   7.4433120  31.7681880  73.1288424   6.8806251
  73.7686386  26.6783094  69.9349594  73.2079258  27.4540854  69.9339771
  73.2090582  25.9787607  70.2722025   1.2877634  37.8677669  40.1923640
   1.5784124  36.9670549  40.3354533   0.3457835  37.8451022  40.3608592
  93.7068230   7.8655860   6.3852103  93.8649160   7.7519700   5.4480155
  93.6065561   8.8107726   6.4983447  34.1991544  60.4777971  20.2345832
  33.8698614  60.0580707  19.4398292  33.4113664  60.7324508  20.7149680
  78.1400778   4.9446049  71.2231207  78.9369120   4.9124637  70.6937313
  78.3063974   5.6353176  71.8645954  54.5886602   9.1551185  56.2416553
  53.9800443   9.7076994  56.7320395  54.9497118   9.7338372  55.5701208
  16.7351662  76.7757863  45.5000925  16.2867676  76.4414078  46.2768555
  16.7814862  76.0247964  44.9083996  27.9969832  60.8601501  20.8439525
  27.1778104  61.1854938  21.2172397  28.6614281  61.4775780  21.1497768
  16.7605972  27.3538709  60.7985210  16.2901556  26.5965962  61.1470222
  16.7508256  27.9912853  61.5125513  36.1015701  38.1260824  60.2792358
  36.4072347  37.2278810  60.4058743  36.5546346  38.6307430  60.9547234
  92.8563698  46.4871407  61.7178679  92.7501098  46.9891834  62.5258875
  92.9149914  47.1501064  61.0299253  36.9549814  45.1759749  26.9845470
  37.1804020  44.2515765  27.0889838  37.5100568  45.6308963  27.6179298
  30.0398088  50.6826305  55.3149605  30.8851790  51.0388899  55.0417280
  29.6614075  50.3220177  54.5130873  69.3992220  78.7694174  30.2672410
  69.6075802  79.3238956  29.5153284  69.4980507  79.3461102  31.0247970
  69.2066592  14.1916940   5.0685104  69.6969337  14.9831054   5.2910693
  69.8739219  13.5093781   4.9947723   7.9261917  30.9349942  55.7131481
   7.3348415  30.5252814  55.0817442   8.8019127  30.6857800  55.4177904
  12.0813358  47.9955578  40.8873844  12.2548187  47.0667839  40.7340336
  12.5373173  48.4450531  40.1758623  18.5628736  60.7198238  58.4579468
  18.3032346  61.3791752  59.1014290  19.0457880  60.0672960  58.9651299
   6.9524473  47.2563267  61.3820362   6.9286895  47.3945665  62.3289013
   7.8414541  47.5022984  61.1263037  32.8229976  36.9592857   8.5919249
  32.9903388  37.4834394   9.3751824  32.5438547  36.1078548   8.9286357
  83.5766973  49.8111963  56.4114714  83.5377338  49.4243097  57.2861290
  84.0773465  49.1812801  55.8930254  27.5737095  15.0055313  60.9126186
  26.8970060  15.6815815  60.8771229  28.2845449  15.3495336  60.3716850
  52.0729926  62.0104721   4.8529609  51.3589826  61.4036968   5.0485213
  52.5643423  62.0740834   5.6719573  68.5133423  52.7286816  73.6059570
  67.7979412  53.1528330  74.0797997  68.2386174  52.7488995  72.6892519
   4.9131733  45.7340050  60.5609131   4.5623004  46.2366247  59.8257303
   5.5925530  46.2963581  60.9329796  80.0606634   4.3906325  42.3464680
  79.2392280   4.8696941  42.4559021  80.4023196   4.6903351  41.5040445
  79.1747191  31.9094634  49.8114204  78.2574787  31.8242645  49.5513391
  79.2215182  31.4835787  50.6673813  15.4448819  59.0074492  47.8079891
  14.6880138  59.4272995  47.3991966  15.1741111  58.8547516  48.7133026
  38.6168575  10.5320108  44.5538330  39.2501497  11.1575007  44.2017889
  38.4620404   9.9181491  43.8358927  23.5424781  68.9240789  54.6482134
  24.4367838  68.7029505  54.3883038  23.2864952  68.2222271  55.2466345
  26.1922288  70.0353003  16.6287601  25.3075743  70.3815746  16.5116632
  26.7629504  70.7021523  16.2468994   8.9118832  35.9980011  44.9306393
   8.0856508  36.3408971  45.2712202   9.2944366  36.7306852  44.4478798
  15.8473098  71.2376499  28.2909822  15.3002071  71.6395092  28.9658284
  15.3807092  71.4064884  27.4724412  71.1386528  50.1206255  63.5942316
  70.9020176  50.1196814  62.6667404  70.4578700  50.6460571  64.0145731
   6.4244406  11.2200829  11.0126575   5.9042923  11.9904801  10.7842620
   6.0341804  10.5085322  10.5050929   4.4100348  10.2527663   7.9502662
   4.2888562   9.5155045   8.5485919   3.8146059  10.9270713   8.2773765
  39.7503814  86.6323224  13.4268554  38.9918152  86.4513960  13.9818938
  39.6131840  86.0905924  12.6497157  27.7438402  36.8422198  27.5679135
  28.1089401  35.9992480  27.8368592  26.8158412  36.7848468  27.7954197
  93.9677257  59.8221064  48.9712381  93.8652438  59.9320936  49.9165583
  94.7145448  60.3765297  48.7451696  13.9415753  55.4340315  28.6213040
  14.4681323  55.7104492  27.8712606  13.2280242  56.0708380  28.6607122
  18.3047700  34.3165398  58.1448269  18.2536304  34.8211432  58.9566135
  19.2233431  34.0545273  58.0831432  30.8203745   4.2415696  41.1325169
  30.8437729   3.5791701  40.4419327  31.7064023   4.6034616  41.1473989
  22.1962333  59.1366768  19.9292099  22.3246908  59.7225761  19.1832507
  21.3373637  58.7418652  19.7785485  26.4112163  63.3881092  17.1989262
  27.3435831  63.4146214  16.9839406  26.2610865  62.4932957  17.5038886
  83.5999157  52.6189852  73.1449127  83.9425423  51.8098259  72.7652979
  83.1230177  52.3345900  73.9246082  91.8265857  25.6777644  30.0899768
  91.9768495  25.2151346  29.2655826  91.0028930  25.3184319  30.4195857
  18.3456671  41.7804670  23.6738610  18.7041759  42.2978163  24.3950105
  17.8207886  41.1041689  24.1020584  92.9858912  38.4328437  43.0837059
  92.5163687  37.6374030  42.8325987  92.5703548  38.7083960  43.9007950
  86.8176276  13.4103534   3.4001620  85.9200913  13.2338855   3.6821540
  87.3374516  13.3458564   4.2013248  40.6717110  34.2958689  57.0956516
  41.1012745  34.8059487  56.4089775  39.9849558  34.8733950  57.4289083
  45.4075697  84.4091382   6.9497283  46.1024824  84.0967026   7.5291427
  44.8016957  83.6711255   6.8827422  33.6092830  46.0861254  67.1646595
  34.0624595  45.5693865  67.8308725  33.1047845  46.7293596  67.6626205
  18.7822270  70.7662439  60.4894304  19.3870044  71.4083052  60.1176357
  18.1559491  71.2890196  60.9901381   8.3376998  45.3465986  70.9274673
   8.7267280  46.0681486  70.4332495   7.5777322  45.0831699  70.4085398
  24.0910816  49.5176458  72.8172350  23.6590838  48.8050318  73.2881784
  23.7265158  49.4761086  71.9331551  29.8367788  84.0366998   0.0038989
  29.3999922  83.1859699  -0.0374286  30.7375657  83.8315335   0.2543386
  38.9940238  21.4876413  69.3420696  38.0941033  21.3698244  69.0379381
  39.0701008  22.4275064  69.5066833  23.1936145  15.9294438  54.4114923
  23.3170342  16.6640449  55.0126219  23.8191152  15.2687931  54.7090244
  36.7579937  69.8349333  27.1320939  35.8456922  69.6472740  27.3528218
  37.1237707  70.2168512  27.9299521  28.0538392  71.9666052  61.5612173
  28.9598560  72.0007372  61.8681431  27.9180956  71.0511494  61.3167810
  89.9641091  20.7614657  14.0461906  90.8078939  21.1520430  13.8187965
  89.5590049  21.3946625  14.6387942  37.2395468  75.5487680  41.6725922
  37.6691365  75.9187603  40.9013700  37.9218864  75.0333166  42.1026564
  11.3701701  33.3379889  75.1281834  10.6455612  33.5779715  75.7057476
  11.7197633  32.5306463  75.5052948  94.1983447  59.2246532  53.3363771
  94.2120702  58.5469151  52.6605749  93.8222979  59.9895954  52.9008484
  20.2452207  64.0706253  52.4374104  21.0758543  63.6793852  52.1668291
  20.4867673  64.6985245  53.1183100  77.5367190  71.9158745  70.1831913
  77.9073944  71.1825800  69.6921635  77.0389928  72.4120665  69.5333481
   2.9074618   4.4335741  32.1122956   3.1680584   5.1375324  32.7062345
   3.0017826   3.6349523  32.6314664  15.3003311  51.8328142  51.5391254
  15.2664924  51.4820385  52.4290943  14.7011614  52.5791645  51.5529060
  85.6761022  47.1260405  75.3256941  86.5374627  47.1679878  75.7410669
  85.1709600  47.8187943  75.7513189  34.6504784  66.5682220  69.1170454
  34.3125439  67.4483538  69.2825794  35.0090957  66.6121483  68.2306480
  84.0973725  43.2740688  31.4863634  83.7061443  43.9510822  32.0384693
  84.1408875  43.6702776  30.6160998  80.7155146  36.5179992  30.7471490
  81.6508474  36.4599133  30.9421134  80.6616308  36.4100361  29.7975850
  70.9516967   7.6359698   6.0134585  71.0899687   8.0756232   6.8524058
  70.0529653   7.3097560   6.0592731  93.6636376  56.9642639  63.0396938
  92.9661330  56.3779974  63.3329725  93.2833347  57.8402662  63.1046391
  22.8433800  87.5192928  69.5407867  23.1788540  88.2042599  68.9624166
  23.0995059  86.7005825  69.1161299  27.1312213  73.9284277  42.7339506
  27.2866607  73.4893417  43.5701752  26.3948989  73.4542418  42.3476744
  13.3551192  59.0463209  73.5774994  12.6364684  59.2415762  72.9761314
  13.2751238  58.1081438  73.7497187  12.3990273  35.6760955  30.9668422
  12.3685753  34.8815155  30.4339767  12.9187870  35.4312730  31.7324424
  78.5600800   0.3600261  17.8194316  79.4705516   0.1183459  17.6495345
  78.4433908   1.1917826  17.3603137  25.1621246  45.4730940  52.7972603
  25.3292108  46.3375711  52.4217701  25.9988403  45.0140905  52.7234030
   0.7029951  37.3907208  70.2563095   0.9414171  37.9686451  69.5314693
   1.0635865  36.5384507  70.0116825   0.7015572  40.8247471  50.4921818
   0.8165755  40.9162951  51.4380264   0.2503211  39.9873209  50.3857231
  10.6886697  35.7460022  49.9400616   9.9743390  36.3235188  50.2092075
  10.6319749  35.7240939  48.9847946  45.7054663  35.1034951  54.9719048
  46.5743589  34.9628806  55.3480482  45.4597950  35.9830523  55.2587032
  91.6017582  48.7099934  29.1324902  90.7424106  49.1280746  29.0780735
  92.2027126  49.4243860  29.3439698  24.5539045  55.6775522  52.9012489
  25.3839493  56.1049747  53.1123638  24.5478249  55.6250429  51.9455099
  48.4231520  22.1171546  20.4611325  47.7371407  22.5055313  21.0040712
  48.3878279  22.6102853  19.6414936   4.2892691  50.1759434  71.5928364
   4.3936411  50.1057434  72.5417328   3.4416842  50.6051636  71.4762115
   4.2721927  59.9756670  48.0910301   3.5841352  60.6154919  48.2738686
   4.1669345  59.7695732  47.1622276  61.1713982  69.4675684  75.0233698
  60.3378010  69.1332817  75.3544283  61.6035461  69.8379421  75.7929850
  21.6093826  25.1903391  56.5535927  21.6260147  25.0281477  55.6103802
  21.4909458  24.3242145  56.9435072  21.5515590  65.9310007  48.9347744
  21.0556412  65.7170820  49.7250509  22.4298906  65.5899954  49.1035414
  21.5038888  33.7587449  13.7284549  21.6434304  34.2557666  12.9223998
  20.5530707  33.7410447  13.8373740  31.2693810  79.4441128  55.2550173
  31.7813134  79.7464943  54.5048714  30.3714919  79.3929958  54.9272776
  75.2607918  66.9836330  43.2311916  75.4491472  66.7389393  42.3251677
  74.3184090  67.1509981  43.2431173   2.6287238  27.2772452   5.4574283
   2.2028701  27.4114320   6.3041099   3.5617964  27.3915145   5.6378444
   5.7560635  54.9288654  64.5410633   5.3344542  55.1609802  65.3684664
   5.2487838  54.1859913  64.2138910  38.9114881  24.9104428  75.2379513
  38.7891555  25.5884862  74.5734787  39.3328762  25.3638577  75.9680748
  55.0672466  31.4226624   9.7982772  55.4235572  30.7814166  10.4131492
  54.1989100  31.6292378  10.1440318  10.9911728  78.8827515  62.9465008
  10.9166050  79.2558098  62.0681477  10.1143241  78.9720106  63.3198643
   6.1968565  68.6558294  30.3314328   6.1067069  68.8987923  31.2528849
   6.1345232  67.7006674  30.3283811   7.7034175  68.3939075  52.3563862
   7.2377390  67.6769686  52.7869368   7.5612217  68.2446957  51.4216423
  91.9347038  78.8189173  45.1590109  91.7598384  79.1813374  44.2905045
  91.4684655  77.9829884  45.1680279  18.6749712  66.4377227   7.2323688
  18.9896873  67.3395148   7.1694644  17.9706767  66.4744296   7.8795608
  73.3456265  78.8583845  72.8141689  72.4134289  78.6754781  72.9315805
  73.6498176  78.1767875  72.2148991  87.0582134  13.7186906   9.5818694
  86.2993366  13.8362357   9.0104468  86.8804771  12.9037663  10.0514873
  24.1104198  81.4193535  51.0228825  24.1359305  80.8898544  50.2258778
  24.9425840  81.8923569  51.0229301  15.2674294  47.6720858  75.9094048
  15.4696655  48.5447836  76.2466383  14.3111646  47.6427746  75.8788919
   6.1055321  87.5326920  36.5279675   5.9861887  88.4773064  36.6264486
   6.7591393  87.3036861  37.1887112  13.9641786  37.0845318  35.7890606
  13.6063254  37.9678226  35.8783507  14.4682300  36.9480944  36.5912771
  10.6755459  31.7484188  73.0377722  11.0566437  31.0218120  73.5307598
  10.8182526  32.5152397  73.5926151   5.1220767  11.9684836  13.3679755
   5.3947465  12.4845120  14.1266521   5.9127752  11.5002105  13.1001075
  29.4919086  72.5032806  72.7749109  30.4111791  72.5146055  72.5083685
  29.4937754  72.8743553  73.6572552  59.8111773  83.6748219  57.8913403
  59.8489285  84.3595314  58.5591602  58.9351320  83.7560654  57.5142670
  19.8625958  80.0866604  57.5421429  20.3139710  79.7861481  56.7533541
  19.1148829  80.5864716  57.2145081  28.2895735   0.0655848  69.6253586
  27.7626470   0.8534628  69.4918728  29.1945553   0.3651911  69.5389175
  36.6655755  42.0421743  69.8076200  36.1222219  41.2799025  70.0074625
  36.4362907  42.2701740  68.9066887   9.0316606  13.5385168  67.3500538
   8.1322491  13.8015044  67.5453186   9.1706795  13.8147867  66.4441967
  92.0683748   1.4952513  15.7272418  92.9399449   1.6214654  16.1022933
  92.0308024   0.5621144  15.5172999  20.2537513  51.2319040  61.6826487
  21.1332798  50.9013987  61.4998198  19.6681476  50.5831766  61.2922001
  15.5734527  51.0751438  36.5660477  14.7060144  51.4766073  36.6171455
  15.5782986  50.6218529  35.7229948   7.3029751  47.5961399  52.4624348
   6.7788827  46.8475294  52.1775770   7.0463365  47.7351713  53.3740473
  40.4371548  22.3688245  35.3300977  40.4070234  23.3150554  35.4714203
  39.5184112  22.1037793  35.2865696  35.1931000  65.8542347  32.4645519
  35.9401250  65.4878283  32.9377651  34.4337559  65.6222439  32.9991603
  94.0705930  56.4207792  51.7924070  94.9422534  56.4047337  52.1876097
  93.6573815  55.6105566  52.0907831  72.7974057  41.3625476   4.1486819
  73.6656231  41.1566588   4.4951518  72.2867358  40.5659720   4.2932876
   6.2908546   0.2303120  12.2638877   5.8372466   0.9417340  12.7159389
   6.7832772  -0.2157930  12.9528983   2.0469586   6.1744591  -0.3106419
   2.6376907   6.6467616   0.2760394   1.5486662   5.5956122   0.2663119
  21.3843274  62.3064899  46.7411757  21.3209796  61.5684462  46.1349487
  21.7975211  61.9396400  47.5227928  81.7844004  34.3873307  26.1302837
  80.9118575  34.1611954  25.8081611  81.6272635  35.0516221  26.8012984
  30.9106588  52.1313047  44.0587759  31.3537955  51.7393541  44.8112631
  30.0207639  52.3022079  44.3671799  78.9145440  32.4082133   8.4001430
  78.2288820  31.7596099   8.2407363  79.2947537  32.5718591   7.5370677
  14.7527051  55.1833868  31.1996984  15.6707919  55.4531813  31.1759973
  14.4565630  55.2617073  30.2928376  15.0730149   7.7393290  20.6876357
  15.8081881   8.2463452  21.0321410  15.4819600   7.0013234  20.2356036
  14.2876887  81.3125515  31.4784002  13.5360658  80.7948875  31.7670512
  13.9145088  82.1577549  31.2281990   6.9012541   1.5006694  68.1004620
   7.3758394   2.3034292  67.8846455   7.4818087   0.7951450  67.8151178
  25.0095439  50.8748341  51.4062929  24.4326210  51.5525579  51.7585468
  25.5444336  50.6040430  52.1524811  57.5545835  68.2509136  30.7308459
  58.3483315  68.0678320  31.2335205  57.6623678  67.7501965  29.9222064
  15.9286892  43.7205744  34.8711038  15.2156889  43.5462523  35.4854918
  16.6461170  43.1630993  35.1723552  90.3865000  60.8124876  52.2095823
  90.1615961  59.9921036  52.6484680  89.7320958  60.9006166  51.5166044
  42.0915651  67.6960087  63.1665945  42.9528761  67.2853470  63.2422733
  41.8238497  67.5263309  62.2633982  11.2706602  83.3540726  59.6280718
  10.8189332  83.8205719  58.9248276  11.6545939  84.0461063  60.1665163
  93.0378763  82.6725388   6.0794878  92.5248664  82.7319622   6.8854165
  93.8700005  82.2866535   6.3531566  14.7009909  63.0469465  47.8465462
  13.9849770  62.8101158  48.4360075  14.7861278  62.2958899  47.2592688
  54.5232827  13.6717793  22.9046233  55.1931960  13.0451390  23.1780704
  54.8498571  14.5189902  23.2076438   9.5761907  26.0902619  50.8895540
   9.0311223  25.4581928  50.4209137  10.4666770  25.7504106  50.8014107
   2.0440976  30.5568072   3.3590205   1.9176809  30.8516833   4.2608531
   1.1773078  30.6295678   2.9595073  29.5495105   7.6585531  35.0689530
  29.2052579   7.2571272  34.2710924  29.0636516   7.2372043  35.7779217
  56.0473776  60.4330826  59.1957474  55.5312061  59.9020195  58.5893059
  56.2727451  61.2172699  58.6952591   3.3541656  33.1046581  52.8354311
   2.9530656  33.7696862  52.2758913   2.8760394  33.1672549  53.6622953
  32.2313452  75.8035183  70.9502172  32.5333929  76.7113113  70.9200764
  31.8098974  75.6630468  70.1023531  93.5702926  35.5005813  50.7509470
  93.3168024  34.8159528  51.3700247  92.7523883  35.7485223  50.3199100
  44.3738690  60.9847489   6.3767417  43.4883657  61.2325862   6.6426261
  44.4872371  61.3880661   5.5160983  14.2034352  41.2033701  49.9352074
  14.8587680  41.0145187  49.2635632  14.7110498  41.3256311  50.7374620
  19.0466321  30.9911823  54.1176653  18.5149622  30.3963685  54.6465826
  19.5480263  31.4970684  54.7571278  45.3857318  60.4136172  15.2187045
  45.3178170  60.9692409  14.4422324  45.1837292  59.5333102  14.9017032
  94.1859264  31.2048841  68.0582666  93.5505776  31.3915777  67.3671007
  94.8177183  31.9218230  68.0028534  81.8741371  48.0845785  45.1895142
  81.6093733  48.9499331  45.5014420  81.3720669  47.4722004  45.7272434
  10.9424417   7.5567099   2.2347577  11.1001698   7.3416564   1.3154634
  10.0558249   7.2393319   2.4062713   0.1290338  21.1172292   3.7936862
  -0.6126841  20.8354279   4.3291076   0.6295077  21.6995093   4.3652614
  12.3219860  69.0071201  69.9253178  12.6201367  68.8974571  69.0223742
  11.4614725  69.4186020  69.8451090  17.9810894  49.4901752  61.5896654
  17.9528236  48.8793230  62.3260736  17.5602174  49.0184784  60.8709145
  30.8503842  59.2228746  66.1431551  30.3584218  59.2149258  65.3220940
  30.8681154  58.3069468  66.4206266   3.1813386  35.9825802  53.4539366
   3.5905263  35.1919961  53.8057518   3.6010939  36.7006421  53.9276743
  94.0030510  30.7732987  61.4585018  93.1599129  30.7394385  61.0066128
  94.4885370  30.0226951  61.1162615  89.1258117  68.5883379  48.8000393
  88.3213677  68.2981205  49.2300081  88.8726320  68.7282515  47.8875923
  77.1934194  30.1604459   7.2729285  76.8528217  29.7231766   8.0533202
  76.4642889  30.6966779   6.9613917  84.9662872  42.3165178  40.3713846
  85.0149532  41.5518284  40.9450722  84.1375067  42.7363920  40.6017351
  39.7964883  65.2345753  67.2442484  40.3418732  64.6106148  66.7652225
  40.3995275  65.6624269  67.8521252  22.7558923  39.2136884  57.0248747
  22.1865702  39.8456359  56.5858459  23.6411214  39.5478034  56.8800640
  50.7017604   4.0662581  58.1072140  50.5207279   4.8177725  58.6717367
  49.9000803   3.5442168  58.1389856  33.2788801  77.6075220  52.6152945
  34.1483974  77.6703930  53.0105400  32.9143047  78.4887838  52.6971054
  25.2034712  51.4844561  62.5830746  24.5278144  52.0854568  62.2692013
  24.8994899  51.2136889  63.4493971   1.9202591  42.1790504  41.2000179
   1.0386752  41.9046640  41.4525127   2.2294465  42.7019310  41.9397688
  47.8138208  17.9255199  67.0982027  47.0882940  18.4513426  67.4348783
  48.5935354  18.3071363  67.5014973   8.8463020  10.1947403  40.1709175
   8.6955553  10.7678795  40.9225941   8.4902012  10.6784856  39.4256568
  52.1493057  74.3382469   6.5913184  51.2744060  74.3664875   6.2040408
  52.1014765  74.9388018   7.3351462  38.7798905  35.9230638  58.5367298
  38.4095860  36.0463333  59.4107485  38.5201001  36.7075586  58.0537081
  58.6895588   7.4618059  66.1847496  58.9214400   8.0214983  65.4436684
  57.9757884   6.9144446  65.8573818  43.0291510  65.1423216  59.4947100
  42.6243925  65.8008385  60.0592995  42.7736425  65.3972197  58.6081600
  42.4978352  72.8600597  42.9357862  42.4020481  73.5342455  43.6084938
  42.5346327  73.3468103  42.1124077   4.4692582  29.9958682  55.3436375
   4.9108544  30.4565930  56.0570478   5.1773900  29.7224736  54.7605085
   6.5620232  61.0450363  42.1813202   5.6285101  61.2409449  42.2613478
   6.9887584  61.9017029  42.1972275  49.0356255  36.3001752  67.1154881
  49.8197508  35.7538271  67.0618057  48.3086348  35.6776237  67.1032429
  33.9610720  81.9040871  66.3924360  34.6278048  81.2204647  66.3264179
  34.1626883  82.5053215  65.6754255  35.8681679  52.9371738  56.8987131
  35.9739518  53.6715746  57.5034380  36.4662743  52.2668266  57.2290659
  27.3384714  82.0907402  57.6121998  27.1886301  81.2329578  57.2147083
  26.4612269  82.4229527  57.8027487  46.6684961  44.0188408  51.9924307
  45.9312916  43.4516096  51.7665815  46.7586184  43.9281845  52.9410553
  13.6554992  69.2899275  50.1652098  13.5892832  68.7809134  49.3572807
  14.0150404  70.1327753  49.8884916  90.2789768  38.0057263  28.6929870
  90.4482572  37.6785350  27.8095150  89.4303556  38.4436870  28.6276889
  37.3831582  15.6416392  33.1727719  36.9253564  14.8055494  33.0855775
  38.1522703  15.5534279  32.6098180  86.1944734  81.1646736  63.5669231
  86.0068809  81.9747430  64.0410805  85.8204161  80.4744714  64.1145849
  46.7199802  72.6219511  50.6493378  46.9587851  72.5676203  49.7240019
  46.1669254  73.4009600  50.7086229  44.2710733  11.8130040  40.8109236
  43.9553833  12.6995170  40.9860420  44.6980190  11.8752158  39.9564767
  90.5447442  62.8513953  13.2738479  89.7916705  63.2939765  12.8823932
  91.1321122  62.6814601  12.5374015  50.5487871  32.4162674  42.3677921
  50.6761026  32.1228385  41.4656162  49.6703482  32.7964449  42.3742962
  26.7515945  36.2990260  39.1216254  26.3564587  36.7635822  38.3838677
  27.6418066  36.6468072  39.1745806  18.0344415  35.2065897  67.5189209
  17.8446233  34.3630743  67.9296350  17.4363708  35.2496791  66.7728090
  76.8896312  20.0671860   9.1648944  77.6157087  20.0201985   8.5429366
  76.5948564  20.9767911   9.1206630  19.3326259  88.5105610  39.3701291
  19.8070562  87.6957321  39.5350647  18.4269059  88.2356930  39.2274714
  91.6023927  29.3747211  36.4288068  91.3220631  30.2360559  36.1193776
  92.1390765  29.5600605  37.1994233  82.1181292  28.0127808   8.9695533
  81.1915475  28.1721970   8.7899192  82.5157625  28.8834807   8.9674552
  61.2408930  20.6355902  19.5052894  60.4648096  21.1534974  19.2915233
  61.5355674  20.9821221  20.3474982  33.1988859  51.5759277  48.7437868
  32.9780555  52.4093866  49.1594887  32.6464033  50.9328461  49.1881323
   4.7794679  67.8187609  47.3801565   5.1671880  67.4702787  46.5773678
   4.1770005  67.1345043  47.6717949  35.9818268  75.3135157  50.5771303
  36.6725492  75.9759998  50.5614567  35.8310318  75.1028728  49.6556520
  16.2432599  68.2705450  57.3217010  17.0511222  68.7527752  57.1455145
  16.4942729  67.3494196  57.2527409  39.3957445  86.6829625   1.3485177
  38.7784180  86.7740813   0.6226857  39.8624763  85.8676472   1.1650642
  36.6499567  22.6591468  71.2782335  37.1465921  23.2899189  70.7569790
  36.5624833  23.0738139  72.1365070  62.4005631   4.1606623  59.1147614
  61.5574315   4.1245467  58.6630344  62.9487947   3.5288054  58.6495495
  23.0840222   9.6184394  16.8051227  22.4556796  10.0365969  16.2164195
  23.6875836   9.1571805  16.2227233  65.2226812  67.7350756   5.2718337
  66.0128454  67.6494262   5.8052619  65.5477584  67.9072901   4.3881496
  14.2489278  67.9070759  47.8121471  15.1201499  67.8191185  48.1987572
  14.3714738  68.5121584  47.0806503  92.6552548  67.8374434  67.8894901
  92.6430300  68.6418152  67.3707771  93.3870515  67.3337412  67.5331354
  80.0401312  31.5313241  14.0115436  80.2835757  32.3814294  14.3779929
  79.1504258  31.6584155  13.6821445  46.8464950  49.4158149  16.9708522
  46.7846576  48.5082736  16.6728957  47.4435058  49.8319080  16.3490184
  71.6523174  73.2356730  44.1422351  71.9376710  74.1327587  43.9689048
  70.7377747  73.3229461  44.4109901   1.4797632  21.1948106   8.9633926
   2.3107688  21.6607091   9.0561183   0.8838264  21.8410537   8.5846408
  78.8076002  29.0983912  17.1558269  78.9924830  30.0196502  17.3383887
  79.5784015  28.7891528  16.6799434  24.6022701  73.1748056  32.6897478
  24.2370129  74.0232229  32.4387383  24.1966391  72.9798937  33.5345578
  21.1559176  87.3773289  59.3175268  21.1635160  87.6007843  60.2482462
  21.0666895  88.2186985  58.8699150  21.3476396  48.9022684  55.5851126
  22.1639943  48.9807796  55.0915194  20.7695198  49.5596504  55.1979923
  82.4835629  19.3301722  14.7359355  83.1474620  19.5113036  15.4012664
  82.9835636  19.0567490  13.9668639  31.8567443  59.3273401  52.1358728
  31.7755175  58.4127998  52.4065256  31.6667223  59.8294306  52.9283571
  32.5552177  88.8348579  58.3306551  33.3167100  88.7387562  58.9026070
  31.8112779  88.5836506  58.8780880  32.8980112  41.6076565  64.1273975
  33.3321238  41.7738581  64.9641514  32.1257520  41.0906935  64.3567419
   3.4868747  66.9068527  54.7346306   3.6730281  66.2521172  55.4076099
   2.8937724  67.5259304  55.1603174  19.5965695  87.7540302  73.6601400
  18.6682153  87.9496193  73.5331106  19.9428010  87.6496410  72.7738762
  44.0009403  56.5121365  37.0124269  44.9364138  56.5678167  37.2074223
  43.5710096  56.8086338  37.8146005  38.6363077  73.4667540  57.8777933
  39.2013526  74.0322351  58.4042788  38.8271236  73.7132597  56.9727802
  43.5259676  40.3220177  12.4214947  43.5951662  39.7503161  13.1860864
  42.6280785  40.2012062  12.1125758  18.6008751  48.4316349  54.2958260
  17.6773369  48.3254099  54.5239162  19.0493608  48.5004377  55.1386547
   7.0141284  24.2526862   6.4380153   7.5411026  24.4197222   7.2194465
   6.4282243  23.5396907   6.6921599  62.0236015  37.2701263  66.9506168
  62.9257154  37.2772050  67.2705746  62.0452642  36.6950703  66.1857176
  34.5087218  28.3774972  57.4493504  33.6521745  28.6828852  57.7481699
  35.1360416  28.8556194  57.9916620  33.0162382  56.3730288  50.3309584
  33.6350274  57.0928144  50.2075100  33.2259035  56.0227585  51.1967421
   4.4232432  59.5751044  10.8544143   4.4249932  59.4167372   9.9104102
   4.9967806  58.8973185  11.2120422  39.9543500  61.0480928  54.5022297
  40.5004263  60.3571272  54.8772001  39.5213819  60.6329203  53.7563086
  44.1024256  75.1065016  53.3295202  45.0282526  75.2251434  53.1173849
  43.6482286  75.2275753  52.4956894  66.9481465  35.6708094  14.4921001
  67.8452006  35.9254214  14.7082027  66.5139503  35.5802199  15.3403361
  45.1166487  76.5446615  62.3266792  44.6526146  75.8603764  61.8443298
  45.6667233  76.0683155  62.9485655  45.7216111   7.2416312  73.5500002
  45.1791778   7.8324515  74.0724230  45.1561597   6.4894587  73.3747053
  38.3603406  86.7935848  44.6303844  38.4495354  85.9124756  44.9935913
  39.0164208  87.3121643  45.0960732  52.9230499  70.5555916  52.8588009
  52.8353596  69.9030542  53.5535955  52.0441961  70.9224176  52.7624321
  16.4160705  77.2079086  49.9218321  16.7454767  77.9639244  50.4078007
  17.1435273  76.5857887  49.9247980  15.1010454  70.2231073  58.7640429
  15.3549540  71.1403942  58.6623240  15.6207108  69.7567272  58.1093168
  29.7737646  60.1499844  68.5194397  29.9055862  59.2903042  68.9191961
  30.2674460  60.1114464  67.7002764  30.2908659  87.8625488  50.3619480
  29.6410203  88.4186649  49.9322081  30.9539032  87.7055740  49.6896601
  25.8133006  85.0967884  72.0863438  26.1087775  85.8687210  72.5691032
  25.0247192  84.8126030  72.5485182  14.9709439  86.6272926  60.6820869
  15.3301620  85.7746315  60.9273720  14.3103325  86.8100643  61.3502312
  22.0751205   2.6092058  58.9620304  22.5405839   1.8481356  58.6151314
  21.3636926   2.2376162  59.4835854  11.4270675  63.9402437  51.7598152
  11.7051470  64.5054531  52.4805403  10.5714345  64.2836571  51.5025377
  36.3957858  17.5456464  72.9409027  36.9111872  16.7526197  72.7935886
  36.6679573  18.1413126  72.2428083  54.1639570   3.7677676  62.4327612
  53.6876300   3.1826502  61.8437147  53.5044626   4.3922621  62.7349281
  50.7453203  58.9044523  48.2341862  50.7234669  58.1481600  48.8205099
  50.0123072  58.7641144  47.6348305  37.4960041  57.9027033  43.1258917
  37.8027940  57.1120024  42.6821518  36.8919778  58.3076000  42.5034428
  41.1061001  68.0619812  58.0175447  41.5136909  68.7688828  57.5171518
  40.1820517  68.0952549  57.7700424  16.7941952  81.1005592  29.6449900
  16.6188753  81.1647606  28.7061739  16.0665214  80.5829620  29.9896836
  15.7099938  81.4968777  52.9422951  16.2567425  82.2823906  52.9585695
  15.3489459  81.4379883  53.8268328  77.9278404  37.0989558  15.9710773
  77.9020292  36.2158534  16.3394626  78.8264448  37.3938510  16.1186393
  39.2138982  84.2212200  44.9643040  39.1420484  83.9192104  45.8697653
  40.0942183  83.9601707  44.6938896  23.3214967  33.2813880  47.1454127
  24.2393891  33.1680009  47.3920901  22.8345220  33.1185576  47.9532321
  61.9776821  75.6679821  34.5599318  61.5673733  74.9636841  34.0580869
  62.6916790  75.9754705  34.0014648  21.7662549  61.1440468   2.6273659
  22.6559091  61.4728260   2.4983238  21.4110184  61.6848421   3.3327597
  17.9919565  59.8525047  51.5146351  17.0750344  59.6585846  51.3200045
  18.1316757  60.7304001  51.1596632  58.8648036   0.9144026  53.2511902
  58.9082506   0.4071814  54.0617943  59.0653494   1.8112761  53.5188198
  77.6510746   2.0170256   1.3039096  77.9771978   2.2364518   0.4311450
  77.2717184   1.1437556   1.2052901   4.5684592  24.0816113  13.0782207
   4.6471660  23.5898253  13.8956435   4.5976202  23.4137484  12.3931392
  34.9113941  31.5437031  58.4005594  34.3406653  32.1361566  57.9111719
  35.6716943  31.4198208  57.8323793  43.5178089  86.3765621  68.7328720
  43.8300037  85.4749775  68.6560249  42.5846529  86.3253593  68.5259008
  32.3473597  86.2616062  65.1507998  32.3613667  87.2056389  64.9932241
  31.4249325  86.0583210  65.3058290  35.7054654   8.3757216  44.8554993
  35.8451882   9.3223578  44.8797750  36.5669087   8.0116183  44.6515942
  39.0534019  58.1221390  47.9882050  38.1399202  57.9666281  48.2282019
  39.4206142  57.2470093  47.8635788  69.5482731  88.1800747  44.2654848
  68.8184452  88.6174679  43.8269997  69.6538067  88.6571598  45.0885773
  74.7924379  14.0882784   3.8411406  75.4180816  14.6413714   4.3089962
  75.0754884  13.1936461   4.0302217  79.4068553  42.6850748  14.4244671
  79.5939197  43.5153580  13.9864397  78.4841456  42.7471256  14.6714246
   9.2772734  84.6163845  45.7770348   8.4533280  84.8371696  46.2113142
   9.8431480  84.3024540  46.4823437  42.5832605  74.7006941  44.7207689
  42.5917482  74.5654154  45.6683207  42.8315258  75.6181812  44.6075773
  86.8132526  46.4934966   4.6619590  86.6607315  45.5486056   4.6490749
  85.9587652  46.8712088   4.8703178   7.4059641  71.6417170  42.5107527
   6.5710962  71.1735582  42.5031614   7.2114962  72.4711466  42.9471731
  37.8424644  82.9874706  60.8910704  38.7741995  83.1241703  61.0625839
  37.7659678  83.0278111  59.9377871  89.3156296  21.1996123  11.1833747
  89.3288332  20.9796330  12.1148570  89.5042068  22.1376559  11.1560996
  36.4944458  39.0136313  10.0587821  36.7364073  39.7776151  10.5822468
  35.5859613  38.8349152  10.3015757  33.7464619  70.3411579  74.5143032
  34.1328454  69.7951698  75.1990223  33.6347651  69.7491693  73.7704611
   2.1171552  65.4530287  77.0521164   1.8619081  66.0639000  76.3608074
   2.4330781  64.6801090  76.5841198  26.2431073  68.7864399  43.8487720
  27.1293211  68.8196754  43.4885550  26.3715863  68.7063074  44.7939205
  35.3883648  43.8471270  50.8773804  36.0233212  44.4338322  51.2882853
  35.8009458  43.5865927  50.0538969  41.6144514  62.5434399  58.0912447
  42.0600224  63.3070040  58.4582090  41.1282635  62.1729040  58.8278294
  23.3594608  26.7570853  31.1351323  23.3639741  25.8061838  31.0256004
  22.5090456  26.9485998  31.5305424  79.7006229  25.8442408  35.8168578
  78.8547805  26.2872416  35.7495284  80.3377107  26.5546233  35.8924246
  59.9707440   7.6962286  14.4974482  60.0862363   8.6456209  14.4579995
  59.4183472   7.4906069  13.7432551  38.8481259  67.1529531  53.7471056
  38.2799172  67.8210402  53.3636618  38.2947111  66.3743734  53.8085413
   9.9882907  54.5412588  52.5716972  10.0563455  54.0356541  51.7617798
   9.3960333  55.2614498  52.3554039  48.5628223  66.3667154  49.0414381
  48.9559078  65.5602932  48.7076759  48.3378887  66.8662357  48.2565069
  25.6963181  56.7802906  72.9372978  24.8602009  56.9390535  72.4991941
  25.9531021  57.6360941  73.2806587  51.0551310  81.2792301  64.5516539
  51.7025757  80.9844875  65.1921082  51.1540461  80.6752014  63.8157225
  40.5841176   4.2431304   7.5607093  39.6651284   4.4098470   7.3511870
  40.9453170   3.8565060   6.7630275  42.5729704  63.9760399  70.3073740
  42.3310518  64.6192360  70.9737158  41.7369366  63.6623383  69.9626017
  17.0930350  31.9732642  59.8035908  16.2169254  31.6922116  60.0675440
  16.9392753  32.6876664  59.1853523  17.8792191  67.8287029  70.2529860
  17.0002306  68.0232096  70.5782175  17.7803624  67.0067835  69.7724533
  15.3511167  34.3200135  61.9886589  14.9374151  33.6277294  61.4730740
  15.7645142  34.8882151  61.3386726  38.0536819  39.2589951  58.1158066
  37.4426746  39.1036153  58.8360548  38.4776092  40.0884533  58.3360672
  43.2536316  82.5301552  53.0013084  42.9480457  81.6246986  52.9465008
  42.6519060  82.9491901  53.6165905  29.1433457   0.0803095  57.2835779
  29.5946311   0.8448416  57.6414490  28.2227954   0.2198321  57.5057364
  34.6716690  58.7459898  45.6904316  34.8977375  59.4290638  46.3217258
  35.5080795  58.4969997  45.2971697  27.3905063  19.6494246  53.6738873
  27.2578716  18.7195122  53.4897566  27.4432850  19.6994495  54.6283197
  42.7719402  68.8136292  69.5412636  43.5393333  68.2620573  69.6932793
  42.5172997  68.6260176  68.6378336  29.5654178  54.7684717  23.0314398
  29.6012020  55.7249212  23.0190086  29.4202852  54.5223284  22.1178842
  83.5641581  42.8347060   2.6318153  83.1374246  42.0130774   2.8748401
  84.1028148  42.6096007   1.8732579   1.1591986   1.2621504  67.7820873
   2.1152213   1.2223631  67.7562761   0.8890131   0.3759772  68.0227757
  41.5502024  71.7780972  29.6560621  41.2643051  70.9421730  30.0244761
  41.4031076  71.6877222  28.7145615  25.5104017  70.7431316  51.2120819
  26.1009598  70.9064770  51.9474697  24.6505451  71.0189486  51.5295744
  47.5080872  72.0001078  56.0455227  48.3319759  71.5141630  56.0094976
  47.2608471  72.1206856  55.1287031  30.6999254  75.5362701  73.6526442
  29.9164152  75.0192213  73.4655666  31.1883092  75.5374670  72.8294134
  25.1463842  84.2219162  34.9071503  24.5574808  84.9604797  35.0619078
  24.7298026  83.4855270  35.3548384  18.9759696  37.8952789  67.4733973
  18.8537645  37.8694320  66.5243816  18.4787476  37.1451426  67.7994347
  12.1593499  50.3659058  62.0950699  12.3611093  49.5953131  61.5643024
  11.6906571  50.9507847  61.4996910   1.4842407  54.0390536   4.5160087
   0.7538716  53.4230086   4.5733436   1.9666712  53.7665984   3.7354549
  62.1666765  86.8024540  51.9228745  62.5582504  87.4870491  51.3804436
  62.2339249  86.0086536  51.3922215   9.4393271  69.1235828  73.2957888
   8.7933671  68.5031652  73.6335039  10.1533461  68.5739136  72.9728746
  27.0802307  63.4989595  76.4378071  27.2326684  64.0198326  75.6493378
  26.1318254  63.3715963  76.4610767   0.4765285  25.6370741  44.4692373
  -0.3952729  25.8038527  44.8275375   0.4472412  24.7241217  44.1830730
  79.9745562  53.5802317  67.5427341  80.3082742  54.4771004  67.5648355
  80.2790489  53.2319593  66.7047453  20.1201463  56.2831116  57.9439783
  20.1998639  57.2186756  58.1299829  19.4549036  56.2311888  57.2576952
  48.0269006  19.5837694  75.9868908  47.8369597  20.2511221  75.3275013
  48.8017622  19.9117094  76.4432669  21.0956573  33.1394720  73.6132383
  20.8182859  32.6677060  74.3985605  20.3555655  33.7084651  73.4017181
  24.6384883  66.4725494  73.6997080  23.7583733  66.0971355  73.6733675
  25.2024150  65.7431221  73.9569139   6.6684127  61.0897732  50.3626204
   6.3423842  61.0456038  49.4637394   6.0255140  61.6279793  50.8244038
  10.3612876  22.7098918  76.6258669  11.0577309  22.0756650  76.7960215
  10.5243015  23.0105233  75.7318449  27.8457689  75.5799532  57.1547174
  28.3902836  76.3607597  57.0543718  27.4183154  75.6935263  58.0036116
  14.9157989  39.0297508  59.4612360  15.2400172  38.8387036  58.5811138
  13.9758778  39.1688085  59.3452883  79.1458181  14.5171171  60.8347321
  79.9844936  14.4479948  61.2908840  79.3720392  14.8516470  59.9668932
  62.9182196  77.6267958  71.6704130  62.3778105  77.2569895  72.3685789
  62.7797604  78.5717010  71.7353630  33.4604995  59.6438262   8.2086070
  34.1639487  60.2564952   8.4231551  32.7333991  59.9068782   8.7728484
   7.6957411  77.6646757  54.0649128   7.7721858  78.4409666  53.5101557
   8.3284569  77.0461273  53.6998081  48.8166571  76.9358969  52.0041656
  49.6979761  76.6571951  52.2528219  48.8844585  77.1409321  51.0716438
  27.9895592  65.1626968  63.7563562  27.9618311  65.1806927  62.7997255
  28.3453918  64.3000269  63.9694691  88.9554173  31.0404822   7.5928863
  89.9103290  31.0858342   7.6410564  88.6676389  31.9489428   7.6829990
  59.0776232  72.6324692   1.9194253  59.8262552  72.2290721   1.4800532
  58.3561424  72.0205250   1.7737516   4.4203131   8.2403466  23.3584960
   3.8120691   8.7552354  22.8282436   4.1726677   7.3308846  23.1918128
  87.2129675  70.3759956  52.6984024  88.1280847  70.6204224  52.5603914
  87.2479167  69.6742153  53.3484125  71.9058564  47.2724158  69.1476011
  72.0421317  48.0966955  68.6804581  71.1722091  47.4492842  69.7364283
  43.0730534  71.8848515  59.9734259  42.2331190  71.8151045  59.5196962
  43.5790300  71.1364174  59.6571016  32.5883848  21.0465333  13.3095248
  31.8876702  20.4028603  13.2050498  32.7996093  21.3177678  12.4161895
  86.4974076   6.2484071  37.3377784  86.3568336   5.5624673  37.9904349
  85.7854158   6.1302945  36.7090209  18.0675662  71.7896128  25.4050565
  18.0465829  71.7261696  24.4501925  17.7943289  72.6878452  25.5914760
   5.2361453  70.7505560  75.2274227   5.3467673  69.8348141  74.9716806
   6.0204190  70.9532309  75.7373953  23.6120820  72.7655172  59.8816776
  23.9954686  73.4862566  60.3814602  23.5265851  72.0533705  60.5155277
  29.0166664  78.9101362  75.2481318  28.7729740  78.1767178  74.6833801
  29.7621441  79.3158436  74.8055267   3.0164140  63.5286665  75.5932713
   2.7887264  63.5174417  74.6636105   3.3515573  62.6493263  75.7684088
  36.3768959  51.5968752  45.2718210  35.8540392  52.1471500  45.8549643
  36.3624382  50.7320404  45.6817961  82.8237635  37.1064612  20.4435142
  83.0617434  36.8627688  21.3380607  81.9014281  37.3560092  20.5005820
  90.5334285   4.8948962  66.9088650  91.1342672   5.1417452  66.2058115
  89.8101953   4.4547087  66.4623165  27.9444266  18.2376772  63.7663507
  28.5132769  18.9973170  63.8912439  28.1526160  17.6593405  64.5001125
   5.8717935   4.3197104   4.4566424   5.7767431   3.5318944   4.9919398
   6.5814416   4.8083874   4.8735698  74.5834115  31.2417036  57.6870537
  75.1125577  30.4603392  57.8473997  74.2744211  31.1410910  56.7866993
  47.4897289  84.1360760  33.1398726  46.5542936  84.1672802  33.3404279
  47.8456211  84.9330997  33.5327196   2.8953711  13.6890599  12.6292499
   3.6511890  13.1017443  12.6347621   2.2261731  13.2135960  12.1369632
  36.8169007  82.6328340  18.0823787  37.4192760  83.0873647  18.6712535
  36.7420975  81.7519918  18.4494670  40.5310345  58.6349010  42.3737192
  40.9538889  57.7862740  42.2423744  39.9655700  58.7416840  41.6088152
  65.4273275   5.0683886  32.0050406  65.5480197   5.9239775  32.4169087
  65.8942536   5.1355082  31.1721492  45.4146719  68.1565428  35.3136015
  44.7219276  68.6606693  34.8867607  45.4752493  68.5296154  36.1930227
  70.0331766  64.7939154  18.5422786  69.1695762  65.0884482  18.8315566
  69.8506403  64.0778777  17.9338439  48.6633539  81.3637829  45.6463337
  47.9296780  81.2716675  45.0384998  48.8547421  82.3016453  45.6503630
  33.9640665  57.6520777  53.7750959  33.8539600  57.4490166  54.7040081
  33.9044857  56.8037367  53.3357811  35.0009489  62.5106955  67.6230001
  34.6868944  61.6307735  67.8311777  34.3931484  63.0953026  68.0758142
   3.8441766  16.3680655  54.7308159   3.2824863  16.8129355  55.3655052
   3.7656797  16.8914801  53.9332533   6.0828222   5.2445513  63.5836697
   6.3131632   4.5671564  64.2195320   5.6228126   4.7740370  62.8885174
  17.4150968  66.4590836  61.7098570  16.6582811  66.8617105  61.2840033
  18.1713188  66.8912315  61.3128567  41.7553616  83.6391735  54.9909115
  41.3906002  84.5221901  54.9321079  41.1866760  83.1860733  55.6134319
  46.0041332  68.6046743  44.4128990  46.7339325  68.5987997  43.7935495
  45.2301168  68.4461784  43.8725185  20.1696157  40.0516987  39.5067739
  20.2924299  40.9645796  39.2463946  21.0558033  39.7266650  39.6656895
  70.5257872   1.5941340  36.9026828  70.0011614   0.8972365  37.2968102
  70.2062014   2.3967749  37.3148203   5.3407621  85.2895832  57.8284073
   4.7803709  84.5288372  57.9815912   5.4112875  85.7114315  58.6847401
  89.1064831  44.8686504  62.1992397  88.2269051  44.8299456  61.8236351
  89.1512122  45.7290983  62.6162052  81.5951398  35.7753760  74.2934608
  80.9209970  36.4546114  74.3134832  81.2588361  35.0871474  74.8674583
  47.7639151  65.5841351  74.5323992  48.2443237  64.8754025  74.9603367
  47.1476460  65.1387882  73.9509249  23.0212855  81.4150715  74.0469694
  22.5711322  81.9516373  74.6994209  23.7004280  80.9562874  74.5414495
  58.6925629   3.3406264  32.0525146  59.4127587   2.7101237  32.0568633
  57.9964808   2.9057318  31.5599966  47.7058220  72.1481037  62.8697824
  47.1537495  71.9568205  63.6279774  48.3296967  71.4228106  62.8386927
  11.4290631  54.7191048  39.0263677  11.2390721  55.6562710  38.9832163
  12.3765969  54.6724319  39.1537833   9.7296423  68.4047270  19.5871723
   9.3668407  68.1756258  18.7315333   9.7565717  67.5760889  20.0655699
  65.9980869  80.9081841  32.8987336  66.2453651  81.7343998  32.4834633
  66.8314171  80.4817104  33.0985260  44.8797131  81.1804962  55.6437540
  45.0293779  81.7060471  56.4296532  43.9270926  81.1141872  55.5777979
   2.1627868  18.7505537  45.2088499   1.8500913  18.2590014  45.9683418
   2.8041662  19.3636996  45.5678892  48.2682371  32.2976995  11.1941361
  48.1960392  31.5218854  10.6381416  48.1715345  31.9632149  12.0857644
  39.4973373  87.6477528  72.3031044  38.7476158  87.3491383  72.8178740
  40.1647377  87.8629971  72.9546213  13.6613333  78.7616920  50.3395033
  14.0566158  78.2002163  49.6726227  13.5625386  79.6111584  49.9095201
   2.7343719  65.4355666   5.1553805   1.9187371  65.7526919   5.5431827
   3.0847351  66.1909816   4.6833404  92.4765049  73.8248539  60.1687765
  92.6898842  74.1597939  61.0397053  93.2397329  74.0439892  59.6342707
  72.0996762   5.2696416   4.5264800  71.3114131   5.4881903   5.0235828
  72.0471967   4.3224952   4.3984779  82.9163650  20.1455790  40.1123619
  82.0632556  19.7373873  39.9646449  82.7866510  21.0639483  39.8757195
  43.7874651  82.3114586  66.5690041  44.6821356  82.1158028  66.2905836
  43.2934284  81.5180492  66.3624668  47.9768515  86.2438202  69.8523140
  48.4311581  85.8564472  69.1041327  47.8737831  85.5204678  70.4706717
  91.7064315  42.0910308  26.3362773  91.4154274  42.3120162  27.2209819
  91.9742376  42.9277369  25.9562286  82.3346424  74.5598221  31.7412567
  82.6710510  75.0242662  32.5076461  82.2504139  75.2361917  31.0691953
  88.0839494  21.0438162  38.0738139  88.7502530  20.3586108  38.0212808
  87.2587922  20.5685526  38.1711316   5.0254160  53.8598251  50.6033611
   4.4545317  53.3081865  51.1381674   5.9116304  53.5772467  50.8292103
  79.2819888  56.4358374  23.1440719  78.5051531  55.9723040  22.8311809
  79.1602296  57.3367450  22.8444560  76.4712125  77.3524424   4.0181811
  76.2898046  77.3491046   3.0783351  76.0972971  76.5310809   4.3372043
  52.5819877  24.4038493  47.2096205  52.0621351  24.3756777  46.4063835
  52.0086983  24.8230559  47.8513670  25.7550542  72.1646449  13.3906634
  24.9576680  71.8472525  13.8145431  25.9477441  72.9920050  13.8317664
  15.3511655  79.9478817  64.7448063  14.8884082  79.1102982  64.7680473
  15.9471881  79.9130630  65.4929876  25.1045179  60.4908705  59.6127558
  25.0047612  59.6218348  59.2240953  24.3067765  60.6164312  60.1266384
  37.8815190  47.8085849  18.6066325  37.6080243  47.1527049  19.2479213
  38.8328855  47.8543803  18.7017043  89.9814513   0.7933146  69.1185045
  89.2531303   0.9395415  69.7221565  90.7639936   0.8691508  69.6645021
  74.3727732  81.8458271  64.8822403  74.7224522  81.0633850  64.4559288
  73.9369726  82.3272324  64.1789961  56.0952234  84.6257019  65.8238506
  55.1458073  84.7377491  65.7760715  56.4202881  85.4686928  66.1399555
  21.9785373  64.9376818  13.2610496  22.4665086  65.6339022  13.7008174
  21.8302934  64.2819163  13.9423926  33.9889781  29.3066308  24.3809875
  34.1346662  29.5266673  25.3010924  34.5280044  28.5297391  24.2322524
  90.2998403   5.1735407  52.6613569  91.1137727   4.6810252  52.5556612
  90.2552369   5.7318884  51.8851471  76.5475133  11.7754942  60.1868725
  76.1501029  11.7347914  61.0567236  77.2259477  11.1004072  60.2016783
  67.7608252  72.4296665  76.4909744  67.2196245  73.0740881  76.9471025
  67.1361876  71.9001293  75.9953403  51.1345053  63.6332560  45.6593895
  51.4922810  62.7579975  45.8082199  51.5235281  63.9133310  44.8308659
  93.2813218   3.5957438  27.0693612  92.4424032   3.1754881  27.2586608
  93.9374021   2.9526621  27.3381138  66.1067772  59.1729689  62.0471478
  65.9232235  60.1052332  61.9313049  65.4133415  58.7297773  61.5583086
  15.2577938  11.0584074  43.0559731  14.8213638  11.9079214  43.1198359
  16.1647190  11.2710100  42.8356981  61.9763963  35.9472319   8.5405429
  62.0827596  36.1681506   9.4658073  61.9091432  36.7935416   8.0984290
  43.5734558  73.6882544  63.6682224  43.9778471  73.8429022  62.8145361
  44.1925097  73.1204700  64.1271639  80.7810307  86.2280464  47.5660467
  80.2524853  85.7453251  46.9305515  80.9038448  85.6146908  48.2905674
  20.9500718  85.5390549  54.7888470  20.2635360  86.0748005  55.1861811
  20.4786038  84.9220848  54.2291164   7.4560492  30.7530591   6.5362628
   6.9345276  30.8600518   5.7407745   7.9827897  29.9704930   6.3738711
  34.6804309  75.7699203  63.7320280  35.1710868  76.3213491  64.3414688
  33.7691116  76.0399485  63.8452196  17.5744693  57.0573470  14.3686660
  17.0913665  57.3195597  15.1523002  18.4674756  57.3651740  14.5236285
   1.5496696  15.6837088  40.9238386   1.7835869  16.0698038  41.7679024
   2.3537124  15.2602774  40.6230831  45.0906610  85.0519466  49.9859238
  44.3378162  84.5235920  49.7207928  45.8495760  84.5677662  49.6605778
  55.2412701  81.5018845  31.8057871  54.9305820  81.9214725  31.0035110
  56.1243916  81.8491650  31.9311833  34.0078521  59.8302889  57.2290897
  33.8292813  60.7643461  57.3381138  34.4584680  59.5769596  58.0346966
  94.0153271  51.9278285   4.1737636  93.2214314  51.4393183   4.3913062
  94.7294456  51.3156840   4.3513854  67.7020529   6.0948950  64.3635941
  68.4853318   5.8050448  63.8959455  67.4521759   6.9106871  63.9296770
  36.3926324   8.1276518  69.1785669  36.1075446   8.3877569  68.3026075
  35.9541491   7.2912222  69.3346310   8.1682054  59.2879340   1.5279658
   8.0868237  59.9062773   2.2540935   7.3711507  58.7597892   1.5726503
  29.0249372  64.9957418  45.1619148  28.5722518  64.8929644  45.9990215
  28.5118437  64.4722939  44.5463085  87.3965549  37.7316213  54.5888186
  86.6655540  37.2310996  54.9512386  87.9358768  37.9519248  55.3483105
  45.2954796  13.8246638  69.0983915  45.1468030  13.4326941  68.2378769
  45.8393315  14.5921809  68.9212418  25.0211096  81.6282940  67.0759487
  25.4549026  81.9338417  66.2792730  24.7069860  80.7511902  66.8562841
   1.9375385  21.7657858  70.7886314   2.2441210  22.6634795  70.9165955
   1.6851486  21.4718252  71.6639185  27.8002381  83.6599922  67.7324104
  27.8997087  82.7091789  67.6845598  27.4529648  83.8206291  68.6098099
  14.0470807  62.7340647   3.0935557  13.3545272  62.4655577   3.6972983
  13.9575974  62.1411177   2.3474725  40.5479717  83.1898499  63.6019039
  39.9813271  83.8269234  63.1668329  40.3421402  83.2821846  64.5321369
  37.0052719  87.8440762  33.9584184  36.7156172  88.6785221  33.5895967
  36.3001513  87.5871944  34.5525932  51.2978951  36.9790980  11.6349586
  51.3584344  37.0747515  12.5854476  51.9591634  37.5797602  11.2911971
  36.6760015  81.7470074  47.5842476  37.0839286  81.3609505  48.3593559
  37.3897934  82.2059059  47.1413708  39.9813175  63.5145903  53.2752180
  40.7055664  64.0309334  53.6288977  40.0144148  62.6909113  53.7617254
  65.6765965   5.7085997  52.8606701  66.4090112   6.1634165  52.4448013
  65.1999954   6.3966566  53.3250618  43.3459845   5.7679373  58.3892488
  44.2719844   5.9974486  58.3112621  43.2749203   4.9120909  57.9665232
  78.1766990  26.4271742  42.7729368  78.9340738  25.8847719  42.9929829
  78.5265353  27.3165327  42.7191734  36.9672665   2.2750861  51.6217709
  37.6604596   2.4788386  50.9939194  36.8408093   1.3297564  51.5405226
  34.2015910  40.8938408  55.0488663  34.2549324  41.1142015  55.9788275
  34.4921541  41.6865444  54.5978403  21.4407603  32.1605202   9.2314704
  20.6340425  32.4854228   9.6313174  22.0134847  31.9644448   9.9729426
  27.2006941  75.3299570  36.3652611  26.3506317  74.9427795  36.5743494
  27.4945068  74.8566532  35.5868697  67.2808579  26.9878298  39.5688939
  67.4483708  27.2827345  40.4639912  68.1196478  26.6349036  39.2720699
  56.4063883  88.1399632  62.5239897  55.7339716  88.6874771  62.9293537
  57.1680307  88.2329369  63.0962515   2.3717634  23.0042359  22.2298606
   1.4567511  23.2275388  22.0592101   2.8623454  23.7798020  21.9577201
  13.9841449  34.8418045  64.4478178  14.3034112  34.8128605  63.5458946
  13.3197105  35.5308247  64.4446993  25.3130547  66.0234973  11.8308433
  24.8159854  66.0386512  11.0129626  24.7278707  66.4233348  12.4742110
  93.5728410   1.9087130  34.9227905  93.3804277   1.4110476  34.1280961
  94.3664554   1.5037829  35.2727079  30.1755643  56.9767189  56.8195915
  30.2701163  56.0332584  56.9506311  31.0142350  57.2523832  56.4496231
  63.2838419  11.1552244  54.8238897  63.8792327  10.9757334  55.5515718
  62.8397659  11.9660193  55.0721645  47.1289340  17.4180609  57.3261499
  47.2257963  17.3701388  58.2772303  46.5208367  18.1433970  57.1835756
  69.0232948   7.6423556  49.3132210  68.7426809   7.0643526  48.6037111
  69.9598149   7.7699763  49.1619825  36.1289763  78.0913305  53.4213257
  36.5378499  78.6962461  54.0402985  36.5474534  78.2872486  52.5830364
  44.9844980  80.4525185  61.2948656  45.1714325  80.8842278  60.4612494
  44.0761232  80.1613522  61.2153959  13.2637334  65.8088398  65.4098749
  14.1962409  65.5958891  65.3735971  13.0102658  65.6215191  66.3137007
  93.3113003  72.5057745  70.2839661  92.8442546  72.9717064  69.5904207
  93.2547592  73.0865240  71.0427618  93.8198474   7.0151526  71.1053610
  93.5989908   6.3507181  70.4526854  93.0182794   7.1239573  71.6171026
  64.3353510  86.9605923  57.8623915  65.1519918  86.5862846  58.1928778
  63.8868952  86.2255287  57.4443054  25.5184793  67.5670385  63.0497026
  24.9402022  67.1806049  63.7073469  26.1607885  66.8822098  62.8634739
  69.6532968  12.0783240  55.6139183  69.7866085  11.4732081  56.3435078
  68.8605669  11.7609984  55.1813507  30.0843692  85.2211094  24.3490648
  30.4798770  85.4410172  23.5055947  30.1498747  84.2676735  24.4030046
  51.9902611  71.6035557  61.7101336  51.1498404  72.0499134  61.6067362
  52.5414896  71.9672966  61.0172606  73.1397918  19.4967181  52.3421526
  73.8581470  20.0495726  52.6496601  72.5219825  19.4782549  53.0730391
  58.2639503  88.3404064  47.8461552  57.8538704  87.6783657  47.2895908
  58.5573101  87.8561592  48.6179543   9.1779770   3.9748198  45.8786249
   9.3151821   3.2628352  45.2537394   9.8355545   4.6295840  45.6438684
  70.6993866  81.2206173  74.9415779  70.4559040  80.5181885  75.5445290
  71.0949516  81.8895531  75.5003929  32.8397393  69.5189667  49.9314165
  33.1074429  69.7954845  49.0549994  33.6107635  69.6733713  50.4772282
  77.8978828   5.5701453  56.8801403  77.0845035   5.9980112  56.6126108
  78.5708860   6.2407214  56.7634249  30.0372230   9.6176535  68.3443880
  29.9950013   9.6018225  69.3005228  29.5611543  10.4102713  68.0967093
  11.0630099  43.1590602   0.1989968  10.6837956  44.0372416   0.1638921
  10.3519170  42.6037165   0.5186399  47.1000957  80.5988693  28.7468767
  47.4041319  81.2461376  29.3831372  47.8552628  80.4490471  28.1781006
  79.5377702  14.7028586   5.0665935  80.0114924  15.3208777   5.6232532
  80.1174718  14.5617482   4.3180831  74.3516210   3.1413180  53.3561707
  73.9390090   3.6272246  54.0702248  74.5749667   3.8102442  52.7089596
  56.1701015   0.0800234  67.6193810  56.0117582   0.9603983  67.9601288
  57.0882538  -0.0950998  67.8256798  38.9037585  67.5111532  56.4791584
  39.1439486  67.3967791  55.5596685  38.5242128  68.3889294  56.5201664
  47.7639213  13.2733828  52.2471905  46.9522765  13.2075316  52.7503061
  48.1486359  12.3983485  52.2976017  45.7402992  65.1707506  34.4359159
  45.7794666  65.9300089  35.0174904  44.9509811  64.7019482  34.7068954
  12.6997964  55.9029433   8.3810886  13.0678098  55.7960078   7.5039561
  11.8654458  55.4348704   8.3494647  92.7801421   2.2828680  61.4008665
  93.1426624   3.1328970  61.6503859  91.8373636   2.4346262  61.3348103
  23.5070133  85.2322769  44.7574949  24.2019606  85.8866215  44.6859932
  22.9837179  85.5194378  45.5057812  36.8814659  49.0594625  37.0528221
  36.6187549  49.9761391  36.9696236  37.7622390  49.0278864  36.6793609
  71.1846855  22.5354868  62.7321959  70.9623221  21.6070277  62.6632643
  70.4367402  22.9281145  63.1823635  71.7976001   0.9024817  51.7273474
  72.4847701   0.3998858  52.1648741  71.0854271   0.9406859  52.3657703
  38.1829548  52.8144455  43.6150217  37.6626635  52.7233362  44.4132853
  38.0258632  52.0026636  43.1327772  54.3856287  84.2373848  69.2950630
  55.0852919  83.7399769  69.7184896  54.0161562  83.6316395  68.6525679
  88.1579879  20.6205088  56.0145569  88.6236289  19.8475939  56.3339520
  87.2772697  20.3036982  55.8140707  56.9718361  81.7543793  45.1020861
  56.8970203  82.3858356  44.3866253  56.6698265  80.9281158  44.7248507
  47.7131573   3.3288390  21.6433787  47.4247840   4.2414671  21.6296744
  48.5999790   3.3524519  21.2839055  36.7557383  76.2608528  68.0688000
  36.0402465  76.8553591  67.8432751  37.5064826  76.8355036  68.2184267
  16.4943330  44.8018500   4.9095233  17.2753207  44.3761012   4.5559295
  16.8321959  45.5449340   5.4094203  49.0969992  83.6850834  57.9233551
  48.9335537  83.0125141  58.5845375  48.2247734  83.9622498  57.6429319
  42.2143332   3.4788987   5.3467925  42.2359483   2.5715110   5.6507953
  43.0413119   3.8530633   5.6506618  37.0863223  51.3101387  35.4923558
  37.0466542  52.2642422  35.4264736  37.9171968  51.0758400  35.0788593
  25.5761504  69.2421865  39.6638203  25.3636408  68.3810377  40.0236750
  25.4620719  69.1416550  38.7187743  78.6968488  56.9825885   0.7911094
  79.4594723  57.5610587   0.7883437  78.2280845  57.2004077  -0.0145261
  67.4348211  72.8472328  18.2784581  67.0279980  73.7096548  18.3618653
  66.7078066  72.2578812  18.0776012  74.1958717  38.3582312  61.9624138
  74.7661498  38.3990866  62.7301025  73.3134273  38.4795767  62.3128414
  27.4627606  53.1759402   1.2708743  26.9974629  52.3931834   0.9758885
  27.2779290  53.2252547   2.2087653  49.5995760  79.4591618  74.8878908
  48.8551474  79.9257183  75.2678680  49.2210054  78.9438725  74.1755724
  64.7332576  22.5019080  59.7596979  64.3550065  22.1652037  58.9474249
  65.1712302  21.7461973  60.1512527  90.0842765  25.4798704  25.9432054
  89.7848609  26.0333353  26.6645002  89.2930463  25.2987677  25.4358768
   7.1171106  60.0233656  39.5094371   7.0289816  60.4875284  40.3419161
   7.3610796  59.1315371  39.7571206  20.9408538  82.1093508   5.4977115
  21.5792100  81.4619014   5.7969459  21.4643352  82.7698371   5.0438960
  38.1055419  27.3549506  15.8881457  37.2096841  27.0874020  16.0933002
  38.1756513  27.2495648  14.9393447  47.6249483   0.3292376  76.5827036
  48.5666922   0.1858813  76.4888906  47.5302473   0.7458121  77.4392843
  30.4996411  42.0639846  11.1692031  29.7977797  42.2433612  11.7948611
  31.1171596  41.5153262  11.6528113  79.5255667  39.5145461   2.1738036
  79.8817820  38.7215182   2.5743611  78.5766989  39.3917510   2.2021611
  85.4149515  49.4703719   8.8031180  85.1317150  49.5384452   9.7149165
  84.9290282  50.1589820   8.3493217  21.3473821  49.2353392  47.5127459
  20.8899426  49.7405958  48.1848335  21.6335440  48.4409428  47.9636097
  66.0679725  15.3077608  63.6467838  65.7965568  14.7896391  64.4044876
  66.8632415  15.7555777  63.9352989  38.3213592  87.5516987  58.6560011
  37.8507590  88.3024883  58.2939482  37.7807498  86.7962265  58.4252882
  17.3682610  19.7245976  38.5525115  16.5813796  19.8626801  38.0252631
  17.3255984  18.8036153  38.8098033  15.3253044  24.3945319  52.9998636
  15.2205147  24.5085532  53.9444542  14.6271957  24.9248892  52.6156855
  16.6954887  76.5105438  37.3623371  16.8863165  77.2211647  37.9745746
  16.4455903  76.9536161  36.5514922  40.9998274  84.3411064  69.4562531
  41.0550594  83.4855080  69.0306473  40.0611019  84.4967747  69.5601511
  42.2941017  67.7559376  60.4708004  41.7419815  68.0127621  59.7322607
  42.8238392  68.5316324  60.6549406  75.1117605   9.9859902   7.7706607
  75.1488787   9.1098592   7.3869308  74.6330637   9.8680350   8.5911258
  12.9770827  62.2677040  49.6534729  12.2269106  61.9868898  49.1294336
  12.6086044  62.8799057  50.2903891  37.2841406  65.1931715  66.3384962
  38.1814456  65.3571272  66.6286516  37.3814702  64.6683979  65.5439043
  46.8384504  63.4697390  60.5102015  46.9015884  63.3587170  59.5615578
  46.2180471  64.1893482  60.6263638  50.1486588  73.7758541  36.7009878
  49.8979855  74.2837954  37.4726057  49.6672153  74.1818953  35.9801745
  65.9792233  69.1248083  43.4550810  66.5674019  68.8516617  42.7510452
  66.5542650  69.5312309  44.1034508  33.2252979  68.2098389  38.3758283
  33.4151435  68.8689327  37.7081513  34.0811229  67.8473186  38.6046839
  68.7733176   0.3249365  38.4178615  67.9879168  -0.1088995  38.0844474
  68.7383202   0.1890570  39.3647218  13.1087272  45.5462405   1.2693103
  13.5517661  45.5139777   2.1171935  12.1850984  45.4034850   1.4761098
  66.0823631  77.2775507  42.5242805  66.0554457  76.4277792  42.0845079
  65.4571295  77.1945238  43.2442951  28.9981771  76.5260363  33.7655902
  29.0081406  77.4821901  33.8091922  28.6327219  76.3294077  32.9030299
  35.3914165  77.2207165  73.2057762  35.6676173  76.9752741  72.3227644
  35.8052683  76.5720606  73.7751627  66.1619976   7.2192007  39.5986772
  66.6846803   7.6410967  40.2806091  66.3221792   7.7445132  38.8147020
  61.1321476   9.8452574  57.5309086  62.0022872  10.2172858  57.6747227
  61.0710314   9.1280562  58.1618690  34.8988605  84.9213314  70.2084160
  34.7620940  85.8510685  70.0264549  34.9908233  84.5192242  69.3446541
   6.1383880  24.5068270  46.2539959   5.1854099  24.4365126  46.1981297
   6.2899984  25.2178484  46.8766499  31.6987634  75.7073927  54.4169283
  31.2965107  76.3187742  53.7999725  32.6377726  75.8793116  54.3466663
  66.5138081  11.5055662  74.7308826  67.3068479  10.9714991  74.7766304
  66.0353068  11.2929350  75.5321693  32.3177737   7.7201945  30.6037879
  32.5416698   7.1190363  31.3142228  32.2139567   8.5696513  31.0325956
  11.8405044  80.7134342  39.5165944  10.9711003  81.0517120  39.3022752
  11.8282866  79.8079062  39.2065859  24.6736543  28.5536477  12.0827563
  25.0561110  29.3531367  12.4443896  23.8679282  28.4258506  12.5834640
  73.1183243  66.0959578  59.7259569  73.3417368  65.4737234  60.4181623
  72.7285719  66.8382597  60.1878166  75.4813102  20.1333243  59.5386982
  75.4096320  19.2051512  59.3159866  75.2291158  20.1785094  60.4609680
  11.7070806  59.5510578  58.3882618  12.4734187  60.1246023  58.3905840
  11.1300731  59.9249983  57.7223301  17.6229684  61.1098906  20.2057727
  17.7168767  61.3765475  19.2912753  16.9532029  60.4262587  20.1883491
  29.6525025  42.4118423  53.0638313  30.5187440  42.1177769  53.3455753
  29.0911818  41.6445208  53.1750488  68.7347320   0.2410609  41.3625956
  68.3419708   1.1077505  41.4665985  69.4861010   0.2458769  41.9555998
  19.7617544  15.5409056  34.7325325  20.5618871  15.4586703  34.2136431
  20.0213636  16.0624415  35.4920316  76.8245029  58.3597660  40.2424335
  76.4242315  59.2287016  40.2735138  76.1331892  57.7895069  39.9060869
  86.0768274  15.4643923  45.6784678  85.7681993  15.9476191  44.9119949
  86.7449001  14.8713404  45.3346777  73.2547048   7.2957236  42.5137186
  72.3184541   7.4242216  42.6658678  73.3647111   7.4280268  41.5721083
  78.0927280   1.1728770  20.9243464  77.9036668   0.4195219  20.3649259
  77.6964095   0.9509856  21.7669177  49.7504759  62.6297426  42.8238010
  50.0432730  61.7816019  43.1572008  50.5225277  62.9975653  42.3938322
  86.2436918  15.1483256  37.3501420  86.5646652  16.0401541  37.2165847
  85.7533267  14.9483305  36.5527844  83.2384446   9.1922480  66.8936062
  82.9934791   8.2916933  66.6809416  83.7889293   9.1131216  67.6726675
   6.1282176  81.2024689  56.2855434   5.4743361  81.7030144  55.7975578
   6.7581487  81.8584251  56.5841055  57.5928736  62.4499941  46.8227100
  57.5752592  62.2194767  47.7515697  56.6707039  62.5062084  46.5723562
  57.4171284  18.9980990  47.8618860  56.5004900  19.0365988  48.1348801
  57.3930147  19.1583926  46.9185066   3.4172548   6.9961363  56.7103958
   3.5344185   6.4041334  57.4533892   3.4029926   6.4207083  55.9455967
   5.5705994  43.3725977  47.1049881   6.4336514  43.2352400  46.7144680
   5.5354434  42.7517843  47.8327179  26.0607219  61.2725973  55.8025599
  25.1567197  60.9606600  55.8438635  26.4934087  60.6731224  55.1945782
   0.2187960  39.6441981   3.5493644   0.8058850  40.1989886   3.0357822
   0.5750124  38.7614009   3.4493240  42.7104963  11.3180548  43.3783054
  43.2468237  11.8938643  43.9233160  43.1270612  11.3471419  42.5169945
  65.9441185  80.8030701  71.7179108  65.4896450  80.1356506  72.2319555
  66.0115957  81.5544224  72.3071003  48.0389595  72.2214317  52.9395819
  47.6237774  72.1912575  52.0776415  48.8210726  71.6772604  52.8478861
  73.3707765   2.6548392  10.9823382  72.4225047   2.5247294  10.9918344
  73.5889200   2.7594382  10.0562143  39.0328550  68.0822563  60.5720377
  38.4799647  67.7302980  59.8744202  39.3730211  67.3085785  61.0214090
  92.8351215  -0.2836889  66.8815422  93.4190658  -0.2319521  66.1248589
  92.9523090   0.5526453  67.3321438  71.8053725  22.5576121  74.5132971
  71.3662008  22.2179800  73.7335491  72.3737911  21.8423086  74.7987366
  29.6744776  48.1295490  74.2825413  29.5533586  47.6300573  75.0900507
  30.6071115  48.3447361  74.2716265  20.2251021  15.0862834  29.7513373
  19.6083371  15.4188296  29.0992339  20.5251567  15.8668134  30.2171500
  70.4669237  50.3031397  60.7899570  70.4482555  50.2328777  59.8355198
  70.2710867  51.2233591  60.9662485  29.6646166  85.0188255  28.2138228
  29.5436430  84.6740627  29.0985417  28.8706923  84.7607040  27.7455401
  36.0330272  86.9027138  42.7447748  36.2945032  87.7877712  42.4907303
  36.5978599  86.6900730  43.4877300  47.8791383   4.9731833  57.0984650
  48.5730234   5.2962977  56.5237045  48.0530945   4.0354735  57.1802044
  62.3342896  79.7662306  45.4913998  62.8000641  79.7107410  44.6570110
  62.0213413  80.6699467  45.5313730  83.5143379  11.7359835  38.6565804
  82.9532150  11.8197829  37.8856373  83.4263900  12.5748354  39.1091514
   6.7312778  21.5120703  38.3430719   5.8185257  21.3060004  38.1414533
   6.8765367  22.3704726  37.9452300  28.9558482  67.7830029  63.1182909
  28.5352588  68.3968687  62.5162029  28.2295299  67.3082829  63.5224342
  52.7682829  64.0516853  51.8629932  52.6346922  63.2371283  52.3476362
  52.4164677  63.8720846  50.9910965  90.8362754  69.8630428  73.5938311
  91.6887780  70.2633286  73.7648392  90.6975057  69.9869728  72.6548862
  58.2959127  74.0867233  62.9470778  57.4335814  73.6784458  63.0240488
  58.1442785  75.0081539  63.1573296  46.1367178  87.6935577  67.4887609
  46.8011141  88.1167984  68.0325270  45.3754616  87.6092720  68.0628824
  84.3985898  53.5174987  16.7213042  83.6959702  52.9126498  16.4831527
  84.5797783  54.0029475  15.9164889   5.0391833  40.3687903  28.4708102
   5.0994031  39.6996924  27.7889617   4.1123287  40.6070086  28.4914191
  89.3241647  19.2174727  64.0613413  88.7788060  19.4499976  63.3098412
  89.1164115  18.2989889  64.2329931  39.6982670  78.9466572  60.5512953
  39.1170263  78.8665485  61.3075876  39.7291350  78.0655527  60.1785564
  73.5553125   0.4599768  53.6370754  73.2564405   0.7638174  54.4941616
  74.1922143   1.1179644  53.3584261  32.2108269  60.3212404  54.7345543
  32.9718685  60.4982233  54.1816282  32.5157404  60.4961777  55.6248665
  11.5881515  88.5209179  42.8699017  10.7534659  88.9862823  42.8154182
  11.4574337  87.8750992  43.5642195  66.4930824   7.4016100  33.2956409
  66.5702179   8.0266577  32.5748110  65.8296469   7.7811915  33.8718390
  89.8186830  14.6452528  41.7753696  89.6436218  13.7098605  41.6722727
  89.5980218  15.0253683  40.9250450  32.6335168  75.6397867  21.5419483
  31.8941355  75.1609564  21.9164658  32.2530627  76.4597321  21.2270212
  38.6834478  84.4581795  67.4449158  38.0666327  84.2697906  66.7376089
  38.1310368  84.5925617  68.2149887   4.2690004  51.0152537  48.6499500
   3.6350406  50.6147581  48.0550289   4.0761818  50.6259161  49.5028734
   7.6811422  24.4636637  49.4078445   7.9876388  23.5569006  49.4167757
   6.8027557  24.4233137  49.7860432  68.1553094  76.8814036   0.5065616
  68.7353913  76.7220637  -0.2379815  67.3002068  76.5640494   0.2161821
  65.2057842   9.4585234  44.9527550  66.0923413   9.6845442  44.6713924
  65.3311351   8.9493758  45.7535601  44.5080137  74.2505026  60.9806728
  44.5457220  74.6004725  60.0905418  44.2908478  73.3254242  60.8653212
  20.7181658   0.1691920  62.5957537  20.3568567   0.4432875  61.7528057
  21.3224424   0.8712488  62.8369999  87.2318605  41.0912043  65.2341843
  86.4581016  40.8130556  64.7441244  86.9256356  41.1765677  66.1370516
  24.0931241  42.0280215   2.9198535  24.0337102  41.0896727   3.0992778
  24.9533240  42.2818324   3.2543262   0.3965292  82.4275112  47.5262356
   0.5726824  82.1709442  46.6210461   1.1345110  82.9888153  47.7640295
  93.2664874   9.1385466  64.8816395  93.2182983   8.7178809  65.7400990
  94.1974214   9.1234785  64.6594524  32.4304788  33.3271453  12.2184165
  32.9716413  34.0231797  12.5911220  32.7766101  33.2017705  11.3348468
  75.1099157  86.8563652  64.9739885  74.6691275  87.1151352  64.1646862
  75.7059669  87.5807571  65.1642561  40.9137742  47.2148558  15.0878223
  40.4451816  47.9219386  15.5313094  40.4298989  47.0811126  14.2728313
  50.7522678  74.9390745  70.4860353  50.4000568  74.9999809  71.3739920
  51.6545820  75.2487516  70.5645084  91.4445499   0.7549006  29.9743462
  91.7376951  -0.0956625  30.3012133  91.9933131   1.3902670  30.4341292
  89.8693898  10.6614882  54.8229933  89.8363975  10.0848109  54.0597200
  90.0180295  10.0719744  55.5623293   2.6829590  33.2425791  55.4451466
   2.3959173  33.3417708  56.3528919   3.5374941  33.6728579  55.4157877
  21.3423793  21.5943667   4.4402869  21.5193049  21.3431260   3.5337527
  20.4059140  21.7919251   4.4556602   6.0064329  29.4569975  27.8682637
   6.4615358  30.0233275  28.4914708   6.6645397  28.8141257  27.6040006
  83.8237956   0.8517939  28.8581157  84.7306112   0.8096796  28.5545659
  83.8253120   0.3693396  29.6848392  11.4973654  19.4475371  41.8187046
  10.7856668  19.4940382  41.1803007  11.6238035  20.3528220  42.1027946
  54.7800091   2.4857909  65.5683422  54.4337204   3.3613116  65.3958035
  54.0027002   1.9390684  65.6828928  29.9197547  52.6231143   5.6820281
  30.6164853  52.3322913   6.2704356  30.3808658  53.0016181   4.9334701
  70.0271082  86.4790440  47.7993679  70.9017467  86.5193176  47.4125671
  69.7602224  87.3943901  47.8838873  35.7559657  88.1117535  49.1631508
  36.5840578  88.4204197  49.5308685  35.1786304  88.8743687  49.1996670
  24.9718070  72.5140905  65.2528667  25.1214910  72.8471279  64.3680477
  25.1974034  71.5853262  65.2005529  90.7682133  73.2137299  75.0085306
  90.4237175  72.5230694  74.4423676  90.2906799  74.0002060  74.7446203
  26.0930173  66.0847232   5.0790866  26.6162793  65.3245684   4.8249133
  25.1963250  65.7531878   5.1265796  16.8056787  26.6751581  56.3565683
  16.3145555  26.8854910  57.1507883  17.7179540  26.8538576  56.5847063
  65.7602739  79.5546675  66.7856693  66.5678406  80.0683594  66.7995071
  65.5801773  79.3666840  67.7067852  67.4293900  82.5650215  39.3961835
  67.1856165  83.4644699  39.1775751  67.1845102  82.4674129  40.3163671
  75.0550607  11.1641222  52.1728468  76.0109666  11.1212450  52.1980333
  74.7898725  10.3488070  51.7471933  77.9034472  65.7275438  65.5254030
  78.6508560  65.1364899  65.4344893  77.7162266  65.7342958  66.4640903
  70.0046900  37.4029261  22.6486921  70.3184012  38.3045775  22.7182555
  70.7868341  36.8927485  22.4384546  52.8931239   1.1818510  54.7677851
  53.0513838   0.5651957  54.0530014  53.0682710   0.6776053  55.5623245
  71.2578681  10.9616667  58.2495165  71.6483405  11.8145281  58.4402609
  71.6371635  10.3732115  58.9022684  54.0313339  84.4199467   8.9083105
  54.4318867  84.3008804   9.7694802  54.2267036  85.3279400   8.6767596
  69.3230534  72.5098181  53.3783674  70.2033424  72.8854322  53.3628035
  68.7397814  73.2623148  53.2795334  71.3740686   4.9572474  60.7766581
  71.9896224   5.4994875  61.2699080  71.5496352   5.1691061  59.8598576
   5.7873405  22.0775515  44.9836302   6.4731373  21.8319422  44.3626738
   5.7891000  23.0347258  44.9761820  17.6218860  57.9507777   4.6057780
  16.7687146  58.2359549   4.2786677  18.0077617  57.4650809   3.8767894
   6.3565839  36.2270361  69.8298311   6.2476982  36.4432627  68.9037514
   7.3041404  36.1694056  69.9525213  57.7236799  34.0059954  28.0872965
  57.5757674  34.8824889  28.4424329  57.7043608  34.1258723  27.1378279
  60.9785298   5.4397875  40.5121231  60.5799988   6.1472803  41.0189295
  60.5391362   5.4768187  39.6625400  12.5707401  18.0932909  67.7281713
  12.2937835  17.1829420  67.6242971  11.9978489  18.4414584  68.4114027
  32.6792495  17.1892735   9.1861423  32.1269052  17.9508302   9.0095695
  33.5726468  17.5044677   9.0492995  14.6781985  48.7956855  17.6289638
  15.4014937  48.3733603  17.1655830  14.1268174  49.1561744  16.9345172
  29.4522159  74.6995112  12.9738505  29.6990602  75.5171630  13.4059890
  30.0319592  74.6456286  12.2140964  38.3172083  68.4140873  42.1953535
  38.4822845  69.0062189  41.4616203  37.8675127  68.9558268  42.8438282
  31.0485761  59.2578933   1.0554917  31.1432712  60.0617644   1.5664228
  31.3266818  58.5616729   1.6506179  31.7892671  78.1899071  44.0682840
  31.7770433  77.6284504  44.8434258  32.3547745  78.9226675  44.3121958
  28.9022414  66.7768046   4.4771464  28.7388436  66.9678256   3.5535415
  28.7426440  65.8365771   4.5591434  41.3239050  78.5205698  13.6574638
  41.7019272  77.7025890  13.3345973  41.6586351  78.6030722  14.5504260
  83.7559083  38.0896574  49.6250200  84.2018131  38.6269099  48.9702320
  84.0704397  38.4250552  50.4645491  66.5808371   8.1451708  62.6212072
  67.0207623   7.7443701  61.8715048  65.6482914   8.0761153  62.4167109
  38.1350255  79.1227102  55.3588057  37.4215651  79.7000217  55.6306839
  38.1044316  78.3951902  55.9801054  87.8299862  39.6189257  13.0340274
  87.1633536  39.3310019  12.4103816  88.6121089  39.1214034  12.7953036
  55.6265306  69.5152664  41.7917728  55.2525711  69.2066956  42.6171017
  55.0497341  69.1552305  41.1180401  71.5065673  19.3352324  57.8057528
  71.2537602  19.1651064  58.7131548  71.5530971  20.2893645  57.7449512
  30.6793904  71.4544821  77.2638941  29.7405291  71.2872028  77.1815062
  30.9217834  71.8717194  76.4372206  23.2979692  38.7743193  22.7121162
  23.9310945  38.2950693  22.1776080  23.4428514  39.6936518  22.4883485
  22.0581786  77.8019950   0.4419549  22.7368419  77.6634452   1.1025985
  21.4296548  77.0959422   0.5925162  33.0120103  12.0922372   0.8710511
  32.4721925  12.8257319   0.5763991  33.7352292  12.5024459   1.3453038
  77.6028636  21.7480856  70.8574057  76.8781665  22.1819884  71.3077116
  78.2376531  22.4463373  70.6970549   2.0341818  58.5837409   7.9494174
   2.9645721  58.4459159   8.1272109   1.6454665  57.7117202   8.0181201
  90.6874755  15.0902754  33.5219169  91.1433652  15.9181887  33.3704209
  89.8779538  15.3405958  33.9671636  25.1169364  12.0080897  10.8874496
  24.8576037  11.9036767  11.8029101  25.9928863  12.3917863  10.9289153
  67.9542592   3.0051333  29.8243666  68.3147648   3.8171965  30.1804805
  67.3657587   3.2905489  29.1254854  53.0994129  78.6526775  56.4179087
  53.8569880  79.0653181  56.0031319  53.0123186  77.8096867  55.9729242
  41.7810456  62.3867175  13.6413844  42.4364631  63.0580565  13.8310416
  42.0627515  61.6264579  14.1501887   9.2407812  23.6140829  59.4609833
   8.6519684  23.1274897  60.0378418   9.5071853  22.9770190  58.7981033
  60.8542442  83.4500885  68.4564114  60.9841776  84.3515015  68.1617880
  60.4619598  83.0064964  67.7043629   0.8111922  41.7871234  11.8387969
   1.5182702  42.0996806  11.2743743   1.1362020  41.9250438  12.7285083
  61.2436406  46.5321109  22.7356608  61.0013120  46.8387362  21.8618854
  62.1953217  46.6294905  22.7682765  69.2880801   9.0808016  57.7947521
  70.0770381   9.6010882  57.9466915  68.9870528   9.3500620  56.9269323
  21.1648668  22.7406889  57.5129080  21.6039289  21.8956858  57.6100254
  20.2315344  22.5307375  57.5450611  91.4790970  80.8857962   4.5138820
  92.1261579  81.4698836   4.9093421  90.6740982  81.0532805   5.0039371
  52.3333216  68.4036827  33.8136697  52.7124405  67.7058649  33.2792997
  52.9859638  69.1035461  33.7917972  43.8475625  52.8599498   6.5656074
  44.5914523  52.2605273   6.5060695  43.1369512  52.3253676   6.9198497
  92.3221257   3.9270216  33.6319828  91.8061879   4.4492346  34.2462516
  92.3604396   3.0574328  34.0302134  79.1041759  14.6452624  33.0925965
  78.9000896  14.4302946  32.1824503  78.2756522  14.9571520  33.4566092
   6.2972749   3.3965880  65.4020977   5.8936514   3.4664351  66.2672234
   5.8366550   2.6709467  64.9807787  77.3272374  30.4613978  70.1581335
  76.9726280  31.0818869  69.5213699  76.9135574  29.6273238  69.9357986
  32.1552194   7.7024847  69.0520954  32.4705614   8.4607035  69.5439291
  31.3426698   8.0023772  68.6446047   1.7850937  10.8913523  51.5143108
   0.9118713  10.7780081  51.1389875   1.7021383  10.5746752  52.4137926
  86.0060075  34.1191489  54.1260672  85.5324987  33.3101851  54.3199444
  86.4355615  34.3486124  54.9501228  16.7973161  70.1170969  40.1095533
  17.1788716  69.2538404  40.2690411  17.4859667  70.7332039  40.3593493
   8.6453832  25.3631598  55.9012794   9.3303169  25.3986555  55.2335739
   8.3981956  24.4393259  55.9419584  44.3073812   4.9668318  73.0261278
  43.7521032   4.3364531  72.5673008  45.1845876   4.5856768  72.9878521
  29.2098058  33.0168444  47.2964478  29.8999895  32.7102000  46.7083502
  28.5436071  32.3303706  47.2623682  79.9170116   9.9861342  46.0318232
  80.1694921  10.7911688  46.4839315  79.1322997   9.6888357  46.4923334
  38.3365273  77.8128958  51.5574694  38.4822249  78.7189245  51.8297195
  39.0696597  77.6173019  50.9739542  66.3367418  36.6610101  -0.3535907
  66.4998964  37.4673685   0.1356919  66.5938810  35.9607348   0.2461799
  36.1982059  32.8595114  24.8389196  36.3090563  32.6311994  23.9159799
  36.6371870  33.7051296  24.9308658  17.2358596  22.5219464  61.6506863
  18.0982518  22.4314761  62.0560598  17.0606494  21.6630530  61.2661934
  23.8639435  55.3621414  17.3167213  24.1530880  55.2548376  18.2228740
  23.4483084  54.5281985  17.0975955  57.5834822  81.0580927  69.6009827
  57.5337296  81.0812694  68.6453581  57.1029525  80.2675682  69.8467350
  28.2229018  74.6400928  46.1560392  28.6301136  74.5317268  47.0154953
  28.9578009  74.6543550  45.5428886  94.1559717   3.8354310  20.8630013
  93.3170224   4.0584707  21.2662983  94.8116120   4.2101389  21.4511847
  75.6702079  44.8861933  49.7907209  75.8592894  44.8190022  50.7266521
  76.4176192  44.4665861  49.3646479  55.6874554  82.5614101  29.1457891
  55.5517905  83.4257168  28.7574577  55.3125231  81.9517416  28.5102105
  10.1083839  24.0362144  31.6385579   9.6203512  24.5874977  32.2502279
   9.4350076  23.6282635  31.0941553  22.2262669   1.6587222  17.2232747
  22.8411508   1.8684076  16.5202951  21.4922261   1.2329957  16.7803609
   9.8116422  60.2459049  45.7950878   9.7393185  60.1989174  44.8417807
   8.9349514  60.0297117  46.1127472  85.5717321  23.3908749  34.6804118
  84.9177428  24.0851545  34.7610617  85.9648766  23.3298564  35.5510116
  45.5534983   7.2860044  47.0829248  44.8566055   7.1714371  47.7290249
  46.3597202   7.1023744  47.5651264  18.3666745  59.9676624  16.1977752
  18.0611304  60.1218906  15.3038581  17.7446345  59.3354490  16.5577777
  63.8673523  41.6031739  18.5646995  63.9297703  41.8870255  17.6526912
  63.0223897  41.9397470  18.8630088   3.9091301  34.0538287  43.8030481
   4.4753662  33.6621094  43.1380939   4.3687087  34.8498321  44.0702581
  11.7647815  13.4146905  45.3750420  11.0549426  13.9036584  44.9587822
  12.0245206  13.9569426  46.1198425  41.3683510  25.1143384  39.2628598
  40.4426479  25.2875304  39.4340587  41.8355751  25.7335639  39.8236537
  82.4415313  54.2279071  26.2191010  82.4861621  55.1621479  26.4226532
  81.7711591  54.1627234  25.5389643  73.5510792  64.3447495   1.6374601
  73.5702052  64.0565872   2.5500554  74.3533876  63.9876366   1.2566659
  77.5741663  41.5541601  36.0935640  76.6967823  41.5391731  36.4759326
  77.6435353  42.4179554  35.6870151  14.2723707  83.0581227   2.0317205
  14.1121653  82.2276774   2.4799712  13.7050727  83.6855045   2.4798186
  34.0973112  54.4359192   3.0378707  33.9827180  54.2588404   3.9715369
  34.9252895  54.0112993   2.8134091  62.8351630  80.8735543  20.1968694
  62.4384762  80.8209795  21.0664129  62.9230519  79.9620455  19.9181950
  55.4859387  74.8409599  36.2243962  55.3480296  73.9819759  36.6235971
  56.0190027  74.6622497  35.4497099  39.1408706  41.8382359  58.9382744
  39.9771786  41.4139652  58.7464142  39.2065001  42.0916128  59.8589945
  15.1576388  58.4718180  56.2916470  15.0964665  58.8666248  55.4218102
  15.8191538  58.9938545  56.7456388  29.7857666  13.2870376  44.0806913
  29.9759293  14.2251039  44.0705919  30.6405544  12.8682721  43.9796734
   9.4885480   0.4547659  50.6395817   9.2279363   0.9984572  49.8961353
   8.7694269  -0.1682097  50.7444525   8.9928389  19.5847464  48.1196070
   8.4457695  20.0510025  47.4875069   9.2207956  18.7652934  47.6805592
  22.9975986  29.3650174  42.2702932  23.2538247  29.2810583  41.3518572
  22.4781847  30.1684237  42.3015642   5.8033031  26.4996290  11.2631893
   5.2814060  26.0502005  11.9279218   6.5485364  26.8577218  11.7455041
  15.4632342  53.5477257  11.5063691  14.5673156  53.4082508  11.1995983
  15.5960548  54.4930506  11.4360070  16.0766876   0.5282880  55.3154707
  16.7687798   0.4578422  55.9729481  16.1760843   1.4100942  54.9566269
  51.9655970  89.1750088  20.0288852  52.3645023  88.5360566  19.4382556
  51.1190835  88.7922469  20.2594073  60.0635024  57.7966469  63.4783363
  59.9222111  57.4475425  64.3583345  59.7276645  58.6920708  63.5191154
   7.9813512  64.7956899  72.8050248   8.2323869  64.6525672  73.7175648
   7.8075226  63.9183512  72.4640087  62.2994661  83.9485335  40.5331850
  61.5055073  83.5207599  40.2124500  62.9239256  83.8658434  39.8124599
  24.4296622  27.1886873  60.0623751  24.4141507  28.1453800  60.0353813
  24.0391803  26.9192600  59.2310143  67.2055950  49.0191698  74.9208021
  66.6136517  49.6410322  75.3440285  66.6309180  48.3294010  74.5888424
   4.5691514  13.2356739  24.2802119   4.2280751  12.7561378  25.0351572
   5.1995671  12.6363623  23.8806701  55.4664377  67.6466837   3.3517726
  54.6860650  68.1973710   3.2885821  55.1880816  66.7967620   3.0106290
  32.9764342  55.4197979  31.3004470  32.6243615  54.8242903  31.9619989
  33.1511521  54.8605824  30.5434918  30.0557017  21.7942476  58.9579391
  30.2409840  22.5422049  58.3900785  30.6661248  21.1163640  58.6679602
   1.3376449   1.6801815  13.5871470   0.6769233   2.3177460  13.8576841
   0.8478051   1.0223956  13.0935812   0.6972218  41.5050697  47.2587013
   1.3763906  41.2483644  46.6349506   1.1753263  41.7117453  48.0617762
  46.7710546  25.9642711   0.3031810  46.1306146  26.4100721   0.8575566
  47.1305218  26.6564491  -0.2517096  84.2684426  32.0188594  71.1500835
  83.5330119  31.4103413  71.0788345  83.8615181  32.8662968  71.3303518
  12.1764636  60.4062605  35.2310634  12.2054172  60.2359200  36.1725426
  12.7248323  61.1815643  35.1109624  10.0420988  32.6175928  47.3810768
   9.6635783  32.6990700  48.2564688   9.3639493  32.1796751  46.8667078
  77.4487712  17.6025593  69.2363548  77.3053469  17.0760143  70.0227451
  76.6695680  18.1548238  69.1724873  76.1034407  22.8690267  51.4975786
  76.9699325  22.8270197  51.0930300  75.9773078  22.0024681  51.8841028
  81.0958396  80.0707877  45.0979137  81.0852121  79.1493374  44.8389769
  80.2799844  80.4276580  44.7468376  90.1662477  13.0506122  56.4291143
  89.2396941  13.2887375  56.3970709  90.2411117  12.2998679  55.8400393
  82.0225226  77.9697937  31.9224930  81.3222598  77.5644082  31.4110970
  81.9813095  78.8978112  31.6915894   5.3102809  30.9665537  46.0377598
   5.2036130  31.3311052  46.9163704   4.8060048  31.5519309  45.4727173
  30.0715345  42.0530890   4.3207534  29.7826275  41.1746642   4.0735038
  30.7564818  42.2671093   3.6872943  86.9510825  17.8862524  59.3928051
  87.6756998  17.2917867  59.1984510  86.4915146  17.4727976  60.1236153
   6.0839411  77.9537910  48.5772610   6.4429661  78.4571904  47.8465605
   6.4131376  78.3978730  49.3587017  74.1142308  51.4278120  50.7450342
  73.1924652  51.1714882  50.7153940  74.1929876  51.9464225  51.5457058
  42.5538686  61.4489630   2.4024661  42.2617415  61.7344633   1.5367969
  42.1735135  60.5769482   2.5080665   1.6743401  28.0058360  44.3489552
   1.2903380  27.1324396  44.4261312   2.3741120  27.9036641  43.7038898
   3.7069634  14.7355843  29.1420174   3.8409886  13.8339019  29.4339752
   2.7884579  14.9176216  29.3406177  21.1984229  36.9171381  54.7356224
  20.3715491  36.5019774  54.9808884  20.9514380  37.8014803  54.4651318
  82.1086528  13.6044753  41.5853500  82.3454656  13.9395094  40.7205343
  81.2705864  13.1623554  41.4496803  13.5151207  11.0863757  33.6881447
  12.6398766  11.4729583  33.7152028  13.5829401  10.7082438  32.8114176
  90.8887934  24.7500038  53.9521551  91.0036384  25.4071736  54.6385717
  90.5160909  23.9934373  54.4048500   5.8755976  23.9832020  41.5488148
   6.6551876  23.6457872  41.1076546   5.1818919  23.3668613  41.3140202
  40.0368357   3.6635542  51.6036272  39.6412611   4.1986844  52.2916603
  40.7926655   3.2533783  52.0239925  71.4969425  83.6625487  29.9560070
  71.2219237  83.4947842  29.0546465  71.3719778  84.6042916  30.0732040
  28.4164047  16.5817809  33.8392973  28.0305433  15.7323945  33.6250877
  27.8631568  17.2174942  33.3854032  72.2635164  15.7923007  39.8363042
  72.3282518  15.6800199  38.8879204  72.0231404  16.7114735  39.9528122
  64.2078379  75.9300557  10.8093913  64.6325568  75.3133502  10.2131351
  64.1119602  75.4439464  11.6283782  60.3691379  64.1332883  31.8654776
  61.3200316  64.0543121  31.9416070  60.1488527  64.8974270  32.3982072
  76.7406060  14.9147427   7.6137823  76.9093980  13.9799535   7.4958384
  76.4101471  15.2074862   6.7644703  10.5310106  44.0801287  33.7317824
   9.9916530  43.7404346  34.4458795  11.4315844  43.9436054  34.0259933
  63.7377990  76.7262870  54.5737982  64.0544786  75.8435398  54.7653770
  63.5024336  77.0870787  55.4285860  45.2241503  75.0522035  42.3223877
  44.3300854  75.0532478  41.9805098  45.5987202  74.2282468  42.0109034
  46.9866863  48.5059142   1.8668635  47.3282829  48.1300440   2.6782020
  47.5732413  49.2379936   1.6764911  42.8428221  26.5325499  41.1683750
  43.2564116  25.8385491  41.6817331  43.3455753  27.3190975  41.3800573
  91.8611993  11.0835516  51.7096901  91.1605613  11.3033199  51.0956526
  92.6184345  10.9005260  51.1535168  92.0392451  25.7820344  38.5704398
  92.3310915  24.8945808  38.3619165  92.4073263  25.9579563  39.4363499
  27.3314881  32.2054005  28.9187980  27.6293969  32.2831440  29.8251295
  26.6592169  31.5245295  28.9452195  26.9753337  35.3296614  50.9721041
  26.1428833  35.5397153  51.3953495  27.6410103  35.6519365  51.5797615
  80.4319813   0.2746530  62.6173592  80.4866817  -0.1385115  63.4790659
  79.7540369   0.9433089  62.7149439  73.7094580  83.9666957   9.2155319
  73.4267985  83.0762243   9.0072155  74.5473229  84.0640470   8.7630516
  72.7721657  23.1998587  25.3794312  73.2380356  22.5328350  24.8751712
  73.2310953  23.2294536  26.2189198   6.7208421  15.2738619  22.8466916
   6.1650902  15.0158346  23.5820794   7.5045562  14.7317660  22.9370046
  18.4533024   7.9103965  46.4056730  18.3856034   8.5094941  45.6622124
  19.3919480   7.7461392  46.4962053  16.5881765  45.7229567  71.0592794
  16.2316573  46.2573576  71.7688847  17.1648419  46.3168430  70.5786657
  37.3898721  48.5924196  70.9198809  37.2674513  48.2555437  70.0323248
  38.2993627  48.8901901  70.9397221  75.0509225  87.1676232  56.0626125
  75.4169475  87.6013315  55.2918005  74.2313718  87.6321588  56.2322474
   8.8412923  31.7706847  69.0946293   8.6182207  31.1239910  68.4251070
   8.9571643  32.5875974  68.6093903  12.2586429  48.5377789  11.1115098
  12.1744323  47.6632309  11.4913881  11.4516306  48.6604881  10.6116045
  68.9474334  22.6686215  49.8460150  68.7342062  21.7362094  49.8089552
  69.8391404  22.7242351  49.5025063   5.4739320  15.9483421  49.3653393
   4.7172391  15.5877757  49.8275518   6.1941284  15.8756232  49.9916458
  12.6928103  14.7403812  50.1965666  12.3409510  15.1275671  50.9981346
  13.0903530  13.9178765  50.4823589   5.3753540  78.0133754  64.0581274
   6.0914466  77.8940421  63.4342670   4.7431800  77.3316735  63.8303804
  84.1449072   3.8528571  66.1338949  84.7550537   3.2228273  66.5173197
  84.5952692   4.1786373  65.3546190  31.2850547  31.1372399  39.6009803
  31.5248632  30.5766320  40.3388453  32.1207070  31.3745570  39.1989875
  24.5107222  73.0100489  41.8136168  23.8158441  73.2098389  41.1863518
  24.4648027  72.0607710  41.9276190  58.7378233  70.0497252  59.9503756
  58.3109515  69.1933590  59.9248791  58.0565729  70.6650895  59.6793461
  77.5257142  80.1007798  64.1743843  76.6226419  80.1119307  63.8572590
  77.7940543  81.0195521  64.1654698  82.8051438  38.7728477  39.1731215
  83.3520760  39.2330098  38.5364532  82.2418143  39.4535494  39.5412755
   7.9535431  44.1871309  43.7487793   8.7661690  43.8621140  43.3611822
   8.2390636  44.8158026  44.4117165  93.8331210  17.2052526  43.6690283
  93.7215429  17.0530736  44.6074438  93.2999952  16.5286636  43.2516098
  13.7100518  31.2042165  41.1810398  12.9841614  31.6351795  40.7298374
  14.3838382  31.8804836  41.2511015  19.5116150  35.9155130  47.9847479
  19.5815277  35.2269745  48.6460018  19.2627537  35.4540873  47.1838808
  15.6784964  48.2646179  43.0257559  15.4797077  48.6472797  43.8803196
  14.9477506  47.6708794  42.8533602  85.0603210  66.7190450  38.8113570
  85.3580533  67.6173824  38.9548039  84.3494903  66.8009514  38.1755567
  11.9206321  19.8485899  47.9941797  10.9943986  19.8743892  48.2343006
  12.3082685  20.5928302  48.4546947  20.9019470  42.3206472  58.7808323
  20.3543115  41.5446711  58.8999557  21.7905211  42.0176554  58.9675474
  47.2524786   2.1840248  43.6594820  47.6970148   1.8049213  42.9012632
  46.5480375   1.5669128  43.8573980  24.7873569   9.4630271  50.7255220
  23.9951372   9.9178588  50.4396057  25.3302169  10.1488924  51.1142683
  60.3309812  42.2699118  54.0338135  60.3400936  41.3380957  53.8150215
  60.7682409  42.3206425  54.8837900  32.3016561  77.4501195   2.4838193
  32.2819216  77.4360505   1.5269263  32.3839677  78.3770314   2.7080806
  25.4954982  34.3789649  28.0915070  25.7794142  34.9922276  28.7693930
  25.9987235  33.5829186  28.2627010  91.2654689  56.4307681   8.9195617
  91.4154819  56.4209428   9.8648818  91.1564163  57.3569754   8.7039645
  64.4345464  11.7170322  43.0165815  63.8964071  12.4493766  43.3170938
  64.6334495  11.2236130  43.8123274  27.4257994  65.3554296  74.2715025
  27.4301505  66.2246227  74.6723938  27.9400301  65.4584122  73.4707594
  26.5862060  53.5759640  31.2891388  25.7840633  53.6541796  31.8055511
  27.2862959  53.5269451  31.9400644  18.3755469   4.5626453  56.9427729
  18.9725626   4.7712389  57.6613092  17.5415766   4.9537414  57.2030973
  19.3420446  69.9935007  55.1564217  20.1208067  69.6658325  54.7065353
  19.3766594  69.5867443  56.0222054  67.0583119  68.5069561  17.2875166
  67.7173485  68.3839130  17.9707181  66.3029756  68.0026102  17.5897360
  87.8155442  36.3053155  46.6722059  87.6541587  37.2404361  46.5467691
  87.3245635  36.0814619  47.4628115  23.5208488  46.8566895  42.5294924
  23.6421227  47.3415375  43.3458567  24.2558670  46.2440729  42.5033140
  39.6327496  50.4171038  34.9489665  39.8072672  49.5311260  34.6314478
  40.1718378  50.9808779  34.3941951  35.6460476  42.2234964  38.4830308
  35.5834055  43.1305456  38.1837511  36.5860367  42.0450449  38.5114765
  62.5280275  23.1588984  24.5189762  61.5796938  23.0925488  24.4072104
  62.7377524  22.5006294  25.1814961  91.2844454  88.5364804  32.7744150
  90.9168469  89.1897848  33.3696413  92.2266041  88.5636952  32.9412341
   7.2531158  16.2738860  38.9916825   8.0639625  16.2408090  39.4992900
   7.1266741  17.2036660  38.8025975   2.8199285   9.6847415  14.6421254
   3.3403891  10.3046417  15.1530802   2.1829607   9.3357861  15.2656102
  73.4887447  22.5536633  38.0294299  74.2790629  22.9351234  37.6471734
  73.7862839  21.7360473  38.4284353  86.4786567  13.0537927  55.5061483
  85.9826340  12.5729287  54.8436069  86.7234512  13.8724482  55.0747395
  13.3552730   2.0253536  36.1480618  13.3309913   1.4950986  35.3515244
  13.7172842   1.4407891  36.8139911  91.3237103   8.1710541  71.9125986
  91.5016087   8.6049151  71.0781240  91.3293787   8.8791198  72.5566816
   2.3122950   7.7477223  29.5045900   1.7213044   6.9986051  29.5806503
   2.8999138   7.5171220  28.7850356  33.9173412   8.3977735   7.4778283
  33.4502149   9.2211658   7.6194263  33.3078146   7.8605741   6.9717389
  11.0854554   9.7201478  60.8860064  11.5673387   9.3717337  61.6360950
  10.3253710   9.1445386  60.8013010  18.4338641  50.8793259  52.3557138
  17.6569223  50.5139017  51.9325542  18.5512793  50.3464079  53.1421232
  65.5465569  84.7315255  67.1878433  64.9460143  84.0324247  66.9293118
  65.5688717  84.6867979  68.1437397  35.2099204  38.2045436  39.8684573
  34.6477413  38.9560771  40.0565672  35.8694124  38.2192039  40.5620623
  25.5508661  25.5945039  14.2179596  25.6745911  25.4770994  13.2760787
  24.9003124  26.2930679  14.2888355  17.9139161  30.7767606  48.6529350
  18.2344687  31.6167045  48.3243418  16.9605744  30.8608556  48.6355877
  73.0343889  65.4336375  35.9143996  73.5544347  64.8518151  36.4687157
  73.4824156  65.4223221  35.0686002  79.7447588  28.7211847  43.0086040
  79.8900928  29.6561694  43.1532288  80.4516317  28.2915998  43.4902906
  44.5107079  22.9497147  41.2110090  44.9584627  22.1055007  41.1557913
  44.1370535  23.0801105  40.3394508  34.7708321  64.8133087  48.6163807
  34.1524839  65.1750803  49.2512035  35.2443790  64.1376019  49.1015720
  11.8723273  18.6927795  51.2318468  12.6088083  19.2009914  51.5717697
  12.2396278  17.8263128  51.0570383  69.7092747  79.3041485  73.3983517
  68.9167898  79.8045617  73.5927343  70.3841250  79.7007257  73.9492893
  89.2719399  88.0101588  20.9060788  88.7397848  87.9689488  21.7006493
  88.7861072  88.5928271  20.3223848   8.8200516  47.0504189  33.2211637
   8.6495245  47.2789240  34.1349125   9.3422180  46.2495565  33.2679868
  87.6297667  21.2056446   5.5555820  88.4613534  20.7501698   5.6868702
  87.4400492  21.6070437   6.4035904  32.9808521  43.3455133  37.4727082
  33.3961821  43.2763243  38.3323288  32.5869274  44.2178726  37.4665499
  14.7764015  29.8194647  73.9957619  14.9851918  30.2739406  74.8119020
  15.3132987  29.0273452  74.0185976  23.7551713  21.5537786  52.2995567
  24.0237474  20.6821799  52.5900984  22.9043579  21.6932487  52.7153635
  92.4993249   0.6339684  25.0301361  92.3914008  -0.2614878  24.7096014
  91.7559146   0.7692602  25.6177306  17.6780411  83.1402481  43.8074636
  18.3970925  82.6657402  44.2246485  17.3792931  82.5571549  43.1096220
  47.5814104   3.9901078  66.3110876  47.3865271   4.9220592  66.4096737
  47.9231405   3.9097655  65.4205847  82.5472714  22.6219821  60.8507299
  82.1413030  22.0766068  60.1769447  81.8108310  23.0446219  61.2926149
   3.0123052  28.1589532  34.0035820   3.8317356  27.7858782  33.6786532
   3.2603148  29.0157819  34.3508101  73.1431069  36.5056181  35.8742595
  73.3318247  35.5862164  36.0621953  73.1188240  36.9257331  36.7339969
  43.6798334  17.9490840  31.0765696  44.5508146  17.5529778  31.0495687
  43.7286472  18.5866487  31.7888618  34.0493131  23.5100222  27.6150918
  34.7945356  23.3343482  28.1895638  34.2223310  24.3810725  27.2579312
  37.0175481  34.6930957  47.6903677  37.3948693  35.0361800  48.5003996
  37.2859716  35.3186035  47.0173740  94.1524820  55.2253914  39.7426867
  94.2658631  55.0714302  40.6805944  94.2470424  56.1726093  39.6423078
  82.2785031  77.6114780  59.7969818  82.1325194  78.4889156  60.1505709
  81.9717656  77.6639372  58.8917780   6.3283962  28.5727334  49.8814058
   6.7055351  29.3707347  49.5110130   6.8050849  28.4405065  50.7008648
  79.7469956  13.2679507  10.4652770  80.4733271  13.7417361  10.0600513
  80.1353282  12.8426310  11.2298186  83.1698738  47.4922699  43.0576420
  83.1399690  46.6237491  43.4589052  82.7722298  48.0706304  43.7084961
  39.9050260  42.6400995  45.8846521  39.1898942  43.2537889  45.7167101
  40.6267929  43.1906748  46.1882162   0.6617498  21.7949915  53.6333752
   0.5210414  22.1525192  54.5100784   0.0362099  22.2632575  53.0805111
  54.1597727  64.6992960   3.5467322  53.4324744  65.0574818   4.0556224
  54.9288514  64.8342529   4.1003879  92.7563122  44.9088526  25.6365466
  93.3186307  44.8246193  26.4065695  93.3474308  44.7862387  24.8937297
  58.0835952  23.7507224  43.5422468  58.4827962  23.1762052  42.8889465
  58.6261906  23.6391282  44.3228674  69.1261326  73.7332541  34.5426369
  68.4677856  73.3213252  35.1022124  68.6354487  74.0361851  33.7786388
   7.7311873  31.2590289  28.8962150   7.8492206  32.2055173  28.8158250
   7.6609874  31.1055875  29.8384237  48.4286705  64.6323243  18.4309276
  48.9666429  64.9856582  17.7224239  48.2520333  63.7285653  18.1696780
  29.7292233  39.3565702  51.5841436  30.6723928  39.5070457  51.6475821
  29.6512032  38.4638453  51.2477112  19.2784989   7.5788403  19.2039752
  20.0090647   7.1197361  19.6183753  19.4666708   7.5315791  18.2666445
  42.4587345  20.8187819  37.6428390  42.2213793  20.7442999  36.7185307
  42.9790831  20.0352383  37.8203917  23.7424970  46.1786222  62.4540758
  23.8898396  46.2664795  63.3957767  22.8728366  46.5523672  62.3118210
  29.3840504  28.7186050   7.0497531  29.3876624  28.5644913   6.1050481
  28.4682441  28.9023542   7.2589564  29.0792966   2.1363130  30.5416155
  29.9089122   1.6698337  30.4398036  28.4118271   1.4924222  30.3047132
  53.6563400  82.1643582   0.0648435  53.0586270  81.7908111  -0.5827920
  53.1301573  82.2399393   0.8608659  85.2037789   8.1383687  28.2469845
  86.0550572   7.7030766  28.2925582  84.9954029   8.1597555  27.3129845
  32.5972915  25.9391761  66.5681458  32.5629473  26.2254286  65.6553984
  31.7153072  26.1007094  66.9031715  27.0785427  13.1544232  35.9173560
  26.3094115  12.6607037  36.2018013  27.5956726  12.5241864  35.4157472
  49.7654596  59.3870571   2.0704921  50.5280641  58.8139072   1.9919713
  49.8722401  59.8125890   2.9212268  40.3996181  34.1906524  64.2594194
  41.0279942  34.6797800  64.7905779  40.1573372  34.7950673  63.5578394
  30.5164110  86.2734774  35.9596109  30.3610932  85.6089836  36.6308451
  30.8621227  85.7838231  35.2133155   3.5742393  17.4191391  75.4709435
   3.1576011  17.6988447  76.2860584   4.1891631  16.7360759  75.7383871
  74.5693924  24.0905476  59.1029644  74.0724411  23.8324976  59.8792887
  73.9263525  24.5199680  58.5387564   3.6176383  43.6792850  38.7249589
   3.4249279  43.5378218  37.7980924   3.0908883  43.0235672  39.1819072
  43.1767161  66.4241889  66.8118994  43.0624362  65.5741599  66.3868992
  43.4703560  66.2114981  67.6977722  77.8951242  20.7342982  34.0924740
  78.5093727  20.1963067  34.5919681  78.2415869  21.6236186  34.1652918
  19.4048703  20.9989572  68.0859947  19.4178307  21.2576723  67.1645117
  19.4852281  21.8225265  68.5671473  41.9450569  29.7264028  33.5967517
  41.0091734  29.7413373  33.7970686  42.1493959  30.6255722  33.3399010
  90.4540657  15.8640206  55.6257963  91.3790946  16.0977030  55.7029104
  90.4555081  14.9129677  55.5175066  78.8995041  23.5613728  34.0155172
  79.1947331  24.2069983  34.6575737  78.6570050  24.0800190  33.2484221
  33.6657262  25.6956911  31.9220066  33.2754850  24.8514819  31.6956091
  34.5944476  25.5937696  31.7138648  55.0485420   7.0272201  52.2859144
  54.6892643   7.9135132  52.2454882  54.4278526   6.4942694  51.7889833
  10.9803808   6.3670385  55.1252174  10.5813384   7.2266364  54.9907303
  11.1540949   6.0427165  54.2415476  92.2895960  36.4389324  62.7281332
  92.0513204  36.3656783  61.8039656  92.3162808  35.5347013  63.0410004
  78.3888029  82.6961708  64.2985582  79.2286872  82.8349805  63.8608837
  78.1285225  83.5669082  64.5990610  36.3901520  43.5206795  48.1118155
  37.0806336  44.1497993  47.9028320  35.8261538  43.5183620  47.3384237
  87.7734359  31.1884737  17.0511115  88.2256724  30.8677816  16.2708092
  87.7281185  32.1367598  16.9289267  65.0526098  61.1670497   7.2970851
  65.8684614  60.6697896   7.2392161  65.2687028  61.9183639   7.8494056
  37.5589681  17.8661752  45.5656624  37.5035453  17.0326877  45.0982666
  37.6558805  18.5219884  44.8751926  92.8355115  44.2202282   5.8094060
  93.0169228  43.4561253   5.2621710  91.9164446  44.4251728   5.6375134
  68.7147951  12.7295172  32.8468132  68.3283806  12.7051246  31.9714165
  68.3794451  13.5380328  33.2342100  36.0503006  13.1926906  32.6278520
  35.1156902  13.0066514  32.7180052  36.4633346  12.3301649  32.5868177
  19.1324425  68.5953331  46.2892008  18.9101982  69.5235586  46.2168455
  19.9652553  68.5845184  46.7609406  17.6784861  54.8754549  30.6100464
  18.3319628  54.9512625  29.9147367  17.2561955  54.0313244  30.4508567
  28.3932710  11.7197800  67.5428438  28.0649304  12.3946857  66.9487667
  27.6248002  11.4478993  68.0446100  91.2760358  33.3746147  71.5040159
  91.1118223  32.4317837  71.5224314  90.4538958  33.7667155  71.7982531
   1.1259257  38.6749578  47.7147484   0.8186044  38.2880545  48.5345602
   0.5983675  39.4668961  47.6110840  62.2105312  39.7244143   7.7678365
  62.8256607  39.5866513   8.4881628  61.5528393  40.3209782   8.1253004
  81.9767382  40.9445333  48.3451605  81.7292049  40.5520487  49.1823673
  82.6643707  40.3715086  48.0059958  11.0670149  57.3143148  38.2387018
  10.2533269  57.4435329  37.7514172  11.7481518  57.2942638  37.5664806
  13.2934773  24.2301321  64.6570873  13.2576656  23.3697367  64.2391539
  13.1513238  24.0510154  65.5865717  21.1495662  42.4429750  38.4460211
  21.9537258  42.9403782  38.5948467  20.6362319  42.9898930  37.8513789
  39.5274568  74.2273331  43.1498432  40.2151299  74.0730047  42.5021410
  39.5951629  73.4865189  43.7522078  88.8283998   5.7424685   3.9221461
  89.2955452   5.1544043   3.3286937  88.9511568   6.6126725   3.5427936
  47.0413828  17.0509541  71.0896540  47.1399021  16.4390790  70.3601789
  46.1149788  16.9967186  71.3243151   1.6681120  85.4497272  59.6415615
   2.5485846  85.0932467  59.5235729   1.5928337  85.5947518  60.5847120
  93.4938030  14.6684003  69.2233419  93.5428864  14.6435642  68.2677221
  94.3896196  14.8547888  69.5044184  93.8360082  65.6536835  54.3061209
  93.3808481  65.6037205  53.4655428  94.7603332  65.5395621  54.0851355
  57.7205195  39.3164873  16.8081713  57.6379289  38.4937859  16.3259149
  56.8561925  39.4548845  17.1954918  87.5641890  19.8899221  61.9781828
  87.7559378  20.6750703  61.4653444  87.4057772  19.2093289  61.3240194
  86.2587770  25.5040789  72.4838305  85.8143779  25.5702925  73.3290243
  85.6893190  24.9432778  71.9570923  37.3375487  71.6921282  54.9945354
  38.0029964  72.3670626  55.1282406  36.9129992  71.9340801  54.1714668
  47.5266409  22.7838230  15.3711367  46.9878912  22.0413375  15.0978291
  47.3662663  23.4536457  14.7064185  81.8458786  41.0832405  30.2716303
  81.7061987  41.6788101  29.5354128  81.4243223  41.5167093  31.0136724
  85.3647204  33.5377884  21.9892931  85.9891363  32.8180909  21.8978000
  84.5433857  33.1124210  22.2356749  11.5121782  34.0902209  20.3070521
  11.9694889  34.7648478  20.8090258  10.8123112  33.7923980  20.8881879
   9.0084016  38.1197619  35.8320522   9.1353500  38.0891657  34.8838019
   8.3260298  38.7784863  35.9612179  15.3269327  37.2152352  45.7771301
  15.1210201  37.8751159  46.4392376  15.8938181  37.6698542  45.1540756
  25.2743173  26.8885851  22.2831631  25.7972097  27.3069906  22.9670882
  24.9629784  26.0764456  22.6828241  42.7117443  10.1096499  59.4736147
  43.6378288   9.9623370  59.2815208  42.5553036   9.6253353  60.2842903
  81.2728809  78.0192107  66.4875460  80.9026061  78.9018571  66.4955568
  80.8769070  77.6002866  65.7233906  10.9174228  22.0971417  43.0519152
  11.6954756  22.6311803  42.8917074  11.0563624  21.7269278  43.9236212
  21.7487216  39.7302938  42.6354074  21.3895607  38.8484979  42.5370455
  22.0843673  39.9505043  41.7664528  41.2395287  12.2352040  16.4665627
  40.6728411  13.0050027  16.4165306  40.6672525  11.5367424  16.7841804
  76.0558337  34.3836638   1.0551866  75.5163640  34.2220256   0.2811845
  76.3318390  33.5127827   1.3408836  33.0943203  11.6245508  54.5909262
  33.4635854  10.8896053  54.1013050  33.4851360  11.5527081  55.4617500
  47.9144287  18.5553432  37.0636749  48.2044029  17.6431251  37.0662379
  47.0507622  18.5309696  36.6517138  19.6525836  50.1417685  43.0483150
  18.9161897  49.6849918  43.4549046  20.2361608  49.4419479  42.7551937
  29.7498751  12.4056733  75.9566879  30.3257251  13.1671011  75.8869934
  30.3287601  11.6910851  76.2221861  10.1289272  43.1566763  59.6975040
   9.4588447  43.4904051  59.1009808  10.9573567  43.3443117  59.2562246
  21.0244536  31.6722679  64.7314882  20.9425306  31.3644814  63.8288307
  20.3672004  31.1723614  65.2155781  11.0879397  30.6113839  52.1135950
  10.9062099  29.9815178  51.4161205  11.8694711  31.0779381  51.8173409
  46.6887856  21.0007167  31.1463213  46.4975977  20.7869840  32.0595551
  46.2567568  21.8425655  31.0018563  52.2678804  26.7948961   3.9325368
  52.3461103  26.6097212   4.8683909  51.8776703  26.0026121   3.5634115
  24.5586300  39.4704103   4.0498316  23.6972165  39.1949677   3.7362555
  24.5287681  39.3204117   4.9947342   8.2939303  63.0800056  54.2859030
   7.4323350  63.4860373  54.1908979   8.8286519  63.7497854  54.7121668
  32.2356629  45.7997227  39.8888707  32.5651884  46.1220884  39.0499902
  32.7705002  46.2475300  40.5443430  28.0194616  28.8935971  29.0262580
  27.2159719  29.4138193  29.0284395  27.8038430  28.1177068  29.5436883
  87.2677704  44.3424320  45.7649899  87.6106205  44.9165392  46.4498854
  87.5116028  43.4608650  46.0471535  28.8372874  17.7352762  42.6511860
  29.3891525  17.6918995  41.8702888  28.7147450  18.6718678  42.8061438
   8.7901175  80.2916908  36.0760236   8.7565958  81.0538864  35.4979515
   8.8552403  80.6615353  36.9564819  37.2869372  32.4950290  57.1612740
  36.8836904  33.2449269  56.7239237  38.0683756  32.3064518  56.6416359
  22.5779891  52.4590731   3.5229853  23.3937097  51.9842100   3.3638144
  22.7663422  53.0109978   4.2820197  35.8434200  21.7782927   4.2673659
  35.5196619  22.6282024   3.9689299  35.7547903  21.2069249   3.5045329
  48.7080045  66.8751004  72.1830751  48.5309608  66.6612414  73.0991269
  49.1960319  66.1214998  71.8511902   8.2268831  88.3308438  63.2603455
   8.0278107  88.9132949  63.9933920   7.4664947  87.7525051  63.2006264
  86.6038056  55.2006197  39.0758634  85.8363744  55.4432869  38.5577989
  87.1562316  54.7076893  38.4691715  20.0543830  84.3175456  35.9753036
  20.3803393  83.4795272  36.3034940  20.1794240  84.2685971  35.0275683
  42.7340126  38.1496716  42.4854803  41.8008041  37.9499698  42.5594139
  42.8351784  38.4968138  41.5992022  54.7191477   3.6540234  26.3626742
  55.2570438   3.2073793  27.0164371  54.9098825   4.5833498  26.4899707
   1.9251911  25.6284904  24.2352009   1.8767390  26.5488195  24.4938087
   2.5053158  25.6238604  23.4738445  35.9388661  21.6866422  45.0829840
  36.0586238  22.6329589  45.0031471  34.9905157  21.5690327  45.1380301
  18.1004584  47.2560644  68.9996195  18.7183082  47.5895309  68.3490086
  17.3974812  47.9054832  69.0172720  12.7786660  46.6538906  15.0437236
  12.1624351  47.3181438  15.3523564  13.5645056  46.7920971  15.5724812
  79.6803664   7.9521713  68.9988754  79.8911833   7.2220716  69.5808898
  79.8679327   8.7341842  69.5180146  20.1789570  53.3359003  66.5177870
  20.0395966  54.2690849  66.6789675  20.6582355  53.3048058  65.6898022
  91.3505184  81.4593166  52.1285439  91.3679587  81.0743678  53.0047560
  92.1545731  81.9761997  52.0779753  29.1753602  41.7053032  24.6829414
  28.5577703  41.7247248  25.4139924  29.2105365  42.6109314  24.3749928
  24.8654318  39.8579741  55.5262089  25.5951071  39.2437196  55.6067896
  25.2574778  40.7172918  55.6814718  82.3267712  50.9897232  25.2707791
  82.6766362  51.2107897  26.1338878  81.6138854  50.3769302  25.4510832
   5.6119484  49.5786762  43.1914663   6.2941587  49.5001602  43.8582945
   5.7538080  48.8284397  42.6141882  30.8089638  39.0856910  31.5694261
  30.9317207  38.4950590  30.8262444  31.4065862  39.8135352  31.3981819
  25.7910657  68.7189388  73.4373569  26.1034107  68.7665844  72.5338078
  25.2850056  67.9072523  73.4733486   6.5523946  39.8955822  39.9692202
   5.8482915  40.5005598  40.2026129   6.4446718  39.1590786  40.5710411
  25.8425832  25.4567599  61.9716787  25.3229785  24.7042871  62.2545671
  25.2283740  25.9998417  61.4776707  86.6595223  38.7490606  58.8102388
  85.9552618  38.1153011  58.6738682  87.1488353  38.4061551  59.5580482
  14.8325121  15.5438197  66.9401646  15.5285418  14.9446034  66.6705084
  14.6009243  15.2595210  67.8243446  37.0124769  25.6307244  52.8018713
  36.4682007  25.7509470  53.5800362  36.8633771  26.4198661  52.2810507
  10.6472719  28.0465794  75.5654049  10.0923848  28.7138867  75.9691811
  11.2334883  28.5384226  74.9903679  14.0220797  45.3986120   3.9490810
  14.9695158  45.2622890   3.9527139  13.8823652  46.1255360   4.5559511
  42.5776148  29.6296573  26.2952423  42.8553581  28.7727189  25.9716010
  41.9824171  29.9586749  25.6216598  46.6022110  20.6572938  34.0207434
  46.3821888  20.7620001  34.9464107  47.5576305  20.7092476  33.9942908
  50.4783201  45.5605125  75.1383781  49.8987818  45.6777430  74.3856335
  50.8419657  44.6822119  75.0261879  25.6880641  60.9014702  49.7769117
  26.1403751  61.6473675  49.3828487  25.8544731  60.9890413  50.7154608
  31.7671776  28.1088042  50.0015020  31.2008286  27.4424529  50.3906822
  31.8446732  28.7818933  50.6776524  24.8035550  36.0257983  46.2094164
  24.1738248  35.3155875  46.0858250  25.6584644  35.6100154  46.0976839
  40.6316423  10.1619327  31.3444805  40.1866007   9.3464881  31.5751767
  39.9867964  10.8459926  31.5246725  47.8103733  29.7380376  51.7825794
  46.9127131  29.4191265  51.8760443  47.7195978  30.6869459  51.6956282
   9.4010144  33.6917210  55.4925442  10.0740242  33.2100987  55.0115776
   8.8384473  33.0116463  55.8630180  33.4991074  43.2104731  16.0227847
  32.7408099  42.6265860  16.0056651  33.2055521  43.9695883  16.5265691
  25.6748962  27.4460459  35.7576060  26.1890912  26.7912674  35.2852678
  26.3218570  27.9431295  36.2581873  33.6256337  85.6679249  42.5065470
  33.2956362  85.3087807  43.3301687  34.2747068  86.3193130  42.7722931
  22.8011847  31.1531973  34.4548535  23.0247116  30.2227354  34.4774055
  22.1379590  31.2236238  33.7682652   5.6970006  38.7754154  75.9858084
   6.5714651  38.3913517  75.9222746   5.5516040  38.8858628  76.9254351
   6.7335826  45.2932501  20.1138687   6.3551748  44.5207357  20.5337095
   6.1447853  46.0088015  20.3537345  78.6189416  60.1294926   2.9429992
  78.5848048  59.3875649   3.5468276  78.7454894  60.8920970   3.5074885
   4.6460047  21.3794756  48.6378431   4.6300480  22.3337030  48.7115145
   5.5479240  21.1380196  48.8487244  34.5426798   7.9026276  40.5464411
  34.4295597   8.0309546  39.6046519  34.2204142   8.7139088  40.9391260
  34.8923430   0.2501684  45.6651974  35.2475405   1.0829741  45.9758472
  35.0356606   0.2667242  44.7189331  22.0452189  82.3763084  54.0191793
  22.5956583  82.9810810  53.5216904  21.9421124  82.7943134  54.8740911
  88.3682834  88.4071663  55.1835155  88.5307251  89.2862210  54.8413086
  88.7282764  88.4250418  56.0702610  73.6152697  13.5620415  44.5101452
  74.3351841  12.9671669  44.3001890  73.2374287  13.7899709  43.6607218
  50.9462595  24.4750690  45.0972366  51.2167835  25.1538086  44.4788837
  50.9902859  23.6617231  44.5944834  18.4816146   2.9593995  51.7285585
  19.2439723   2.3951226  51.8575287  18.4068418   3.4515372  52.5461435
  55.6738043  45.3571892  10.9601736  55.0629187  45.2787542  11.6929102
  56.5390301  45.3652525  11.3694954  44.6276379   2.3195612  34.0602326
  43.8138485   1.9703251  33.6968994  44.7680473   1.8151815  34.8615575
  26.3415337  23.3109426  70.6524181  25.4573250  23.6758614  70.6172323
  26.8482757  23.8521647  70.0470066  53.6468887   3.5364828  46.0839653
  54.5546722   3.7164345  46.3284731  53.6565256   2.6295358  45.7780457
   3.0703560  12.1587396  59.8637009   2.9004234  11.2727416  60.1836395
   4.0098137  12.1712255  59.6806860  39.1771817  14.7382879  41.0168695
  39.7535920  14.0236628  40.7461405  39.5385170  15.0339961  41.8524647
  22.1638966  63.9190340  43.0641031  21.7061424  64.6698475  43.4422255
  21.6080499  63.6415195  42.3359203  27.3948455  30.0907660  31.9816804
  26.5941715  29.5935273  32.1487308  27.5020242  30.6401181  32.7581859
  11.1941683  12.7895582  33.2036662  11.1046147  12.9868364  32.2713065
  10.3202999  12.9381239  33.5649300  22.8601789  55.6710196  25.3700471
  22.7809286  55.5547190  26.3168454  23.5246277  56.3523197  25.2672100
  30.3243566  29.8158455  55.8530140  31.0952139  29.8524141  55.2867317
  30.5519557  29.1746402  56.5262794   1.9200552  52.6943827  74.3400717
   2.0970012  51.8027973  74.0400791   2.4504323  53.2492113  73.7681484
  48.3577585  29.1576266  30.0051618  48.5667324  30.0715470  30.1983261
  49.0876341  28.8539577  29.4654417  93.8277195  47.0105791  66.2938738
  93.7864996  46.0787964  66.5090847  93.4758083  47.0670080  65.4055023
  79.7627928  32.9684448  35.1228046  79.7343340  33.8127947  34.6728134
  80.6456818  32.9222059  35.4896879  65.6655148  81.6861072  14.4490226
  65.3066924  82.1452871  13.6896594  64.9326924  81.1702195  14.7852691
  34.4515343  74.1873363  73.2257466  34.9052091  74.0381387  72.3961977
  34.2836027  75.1295713  73.2408084  79.2272027  68.1557658  70.8341406
  79.8736938  67.4499610  70.8450184  79.2677434  68.5312799  71.7136733
   7.2537857  56.8771029  45.4375982   7.8995812  56.7288542  46.1283922
   7.3613173  56.1327696  44.8454523  26.8005085  76.1480713  73.4827518
  25.9375167  75.7866764  73.6849260  27.4170613  75.4920340  73.8078833
  54.7584105  40.9607458  53.4465694  55.3354073  41.5739441  52.9912758
  54.5886087  40.2705908  52.8054094   5.7162970  43.8471937  31.1819839
   4.8683468  43.5027695  30.9016562   5.7385731  44.7394609  30.8361554
  24.2777944  40.8175755  20.6947207  23.5010695  40.8218431  20.1353335
  24.9912500  41.0863733  20.1159620  20.3840113  69.0948009  70.8024025
  19.4302523  69.0140867  70.8103037  20.6862473  68.4237480  71.4144278
  18.0681705  54.1532612  52.1407270  17.5839341  54.2709303  52.9579830
  18.3269262  53.2317162  52.1462059  33.8515902  45.1275635  71.4081812
  33.6891246  46.0602617  71.5492821  33.4271884  44.6956825  72.1495295
  89.7154661  27.7727032  66.6700554  90.2919241  27.4219918  65.9911394
  90.3108569  28.1361699  67.3255205  65.2070117  79.6698779  51.3489723
  65.6811451  78.9234149  51.7153358  65.5182340  79.7314489  50.4458761
  32.4603616  87.8462784  48.1350088  33.2605802  87.4011297  47.8562117
  31.7842208  87.5165388  47.5431156  23.7997580  42.5830746  73.0432272
  23.8193631  41.6668940  73.3197355  24.1747260  43.0640030  73.7810183
  36.1943078  35.5160046  43.9022732  35.6935549  35.0532317  43.2304716
  37.0782971  35.5797553  43.5407066  11.0045576  31.5156388  36.9155979
  11.8472803  31.9688249  36.8896556  10.5306065  31.8474388  36.1530304
   4.5224264  36.6808677  29.2691946   4.8525038  35.9993935  28.6836410
   4.1626984  37.3466682  28.6830759  11.9677207  81.5512538  27.9506135
  11.1993214  81.6017526  28.5191584  12.2833058  82.4531460  27.8937817
  93.2646066   5.0922438   6.7563804  92.8370196   5.2431533   5.9133895
  93.8739091   5.8244654   6.8503650  30.1062012  11.1082208  57.8117752
  29.9806046  10.3030705  58.3139610  29.2224121  11.4553773  57.6908064
  27.0415902  51.0932064   9.0499282  26.5620708  51.0149193   9.8746490
  27.8776288  50.6579447   9.2167258  13.5250461  83.9646053  31.7925930
  14.2168474  84.5453358  31.4757299  13.1801152  84.4046497  32.5695205
  25.4383779   8.0219233  75.8210325  24.7651625   8.4625995  75.3025579
  25.2308917   8.2506716  76.7270470  44.9349594  23.5352826  75.5836916
  45.2849674  23.2320976  76.4214277  45.6346321  23.3602786  74.9543571
  86.5758433  11.8992877  28.8575268  87.2977670  11.4409792  28.4273982
  86.8267020  12.8225529  28.8278174  38.3254409  29.2548084  30.8607817
  38.7263250  30.0787163  31.1377311  38.5049510  29.2048049  29.9218941
  82.5285854  21.0470867  10.6458104  82.9174950  21.8091130  10.2165115
  83.1318976  20.8404660  11.3596404  93.3992526  72.8220797  51.0324478
  92.8429793  72.9960918  50.2731657  94.0680219  73.5061836  51.0012150
  48.2756281  26.3297248  41.2724543  48.1615782  27.2709966  41.4037418
  47.3961592  25.9655499  41.3731909  48.7985280  58.6207571  15.1176055
  49.7192004  58.8822523  15.1029952  48.6694649  58.1523552  14.2928775
  13.8230646  13.6989880  59.5318794  13.5604274  14.5937943  59.7476912
  13.0314481  13.1779671  59.6664667  72.5171709  25.0214624  57.5675821
  72.8735065  25.6295109  56.9198704  71.6075945  25.2975154  57.6802826
  23.7453842  25.7848024  46.3811350  23.3167791  26.5829372  46.0720825
  23.0248308  25.1833367  46.5689421  60.8362630  75.3285256   1.8785842
  60.2046636  75.5795398   2.5526078  60.3814176  74.6655765   1.3591178
   6.8019783  26.2204552  20.5878901   5.9396958  26.4909577  20.9033728
   7.3988563  26.4419603  21.3026667  19.2883921  34.2816329  50.4187393
  19.3190253  34.8807335  51.1646461  19.5334494  33.4315252  50.7841110
  49.6466589  15.9213805  65.9622240  50.2816963  16.2732947  65.3384352
  48.9538383  16.5809703  65.9965515  35.6104326   6.4196402  47.9036474
  34.9620605   5.8815312  48.3578300  35.3355265   6.4031774  46.9869184
  34.5705318  11.7525363  39.4479513  34.2266560  12.2395825  38.6991072
  35.5205631  11.7766583  39.3335319  10.9624732  76.7473364  61.1175585
  11.5638840  77.4298716  60.8197689  10.6824160  77.0370293  61.9858217
   9.4629604  38.1719756  59.8060465   9.9608314  38.9053988  60.1672220
   8.9239597  38.5636973  59.1188288  84.6474799  34.0772772  10.8928740
  83.8129689  33.9506626  11.3443077  84.4055684  34.2195916   9.9777472
  83.2083859  14.6727943  49.7494841  83.9538219  14.1553926  50.0542021
  82.6071550  14.0290499  49.3748569   1.9309494  86.1627102  65.8416176
   1.1704180  86.2677592  66.4132690   2.5252172  85.5973941  66.3350677
  32.4731588  28.1534386  60.4755497  33.2832551  27.7191591  60.2083874
  31.8226075  27.4517751  60.5016375  27.3945880  21.8430209  52.4858665
  27.2397304  20.9769821  52.8629971  28.3478117  21.9178653  52.4412394
  45.6338215  74.4745064  20.2647996  46.4005566  74.1966867  19.7636402
  44.8945332  74.0573692  19.8224401  21.5222549  30.8534098  32.1457314
  20.6486154  30.4847622  32.2764397  21.3970304  31.7992783  32.2224498
  21.1007214  60.2020359  65.8632898  20.3451562  60.6148863  65.4450703
  21.8546391  60.6881142  65.5292654  75.4831046   0.8778140  18.2321723
  75.3566140   1.7277858  18.6538108  76.4298731   0.8103606  18.1084426
  53.6423496  81.1532369  11.2005218  54.1524032  80.6864276  10.5385860
  52.7375224  81.0890761  10.8949073  39.9938861  56.3103524  24.5595725
  40.5871144  55.5654719  24.4622787  40.1098731  56.8156078  23.7549003
  36.2087345  22.6291347  59.4875526  37.1520567  22.5541735  59.6316242
  35.8309293  21.9121766  59.9969292  15.6036031  40.8507252  30.6494999
  15.9863722  41.1636543  31.4691329  15.3762615  39.9375510  30.8245969
  11.3650763  54.8187780  19.1218197  11.5353715  54.4829178  20.0018358
  11.5725315  54.0862894  18.5416007  81.9239019  86.8736710  27.4301267
  82.7237188  86.3544127  27.3470855  81.9530534  87.4786302  26.6889095
  30.1537633  38.0362344  41.9837809  29.8441267  37.2938251  42.5026131
  30.9965611  38.2667136  42.3746824  87.5361522  40.9355021  61.4711285
  87.1416761  40.1898289  61.9234514  86.9233795  41.6560793  61.6177750
  12.0301986  44.6449137  74.5202255  11.1957932  44.3918371  74.1253185
  11.7978430  45.3168821  75.1610851  93.4748639  11.7051792  55.0494576
  93.0481948  10.8743548  54.8398972  92.8709431  12.3731351  54.7248840
   0.6289832  39.0377283  11.4349580  -0.1176295  38.7721896  10.8980298
   0.4651937  39.9596143  11.6337788  42.5803185  52.5949621  43.2451010
  42.3051643  53.4555054  43.5613155  42.5859880  52.0430040  44.0271139
  24.8708868  32.1317506  17.0720553  23.9930844  32.3183489  16.7390764
  24.7476745  31.3978839  17.6741278  17.5140655  16.8880975  38.5069633
  18.4012043  16.6530919  38.7789750  17.5895214  17.0626473  37.5688434
  40.1456118  34.1232371  51.6818333  40.3811264  33.6502767  52.4800062
  39.7602463  34.9421144  51.9935417  77.7342429  28.4713340  12.3380375
  77.0964017  27.7584004  12.3714364  78.5102918  28.1190109  12.7737546
  24.0019464  48.2478476  54.4439793  24.0323472  47.3708916  54.8264122
  24.0078759  48.0972576  53.4987164  26.2260175  36.4608979  42.0566511
  27.0529985  36.5303063  42.5336361  26.4779496  36.4973187  41.1339188
   0.7072714  30.3021073  52.7156830   0.5010884  30.2487540  53.6488914
   0.3858457  29.4771624  52.3518372  57.2946453  21.6304541  49.9559116
  57.6319027  21.5105724  49.0681505  58.0522299  21.4824653  50.5219460
  38.2921028   0.9026747  16.9588864  38.0042148   0.8856487  17.8716087
  39.0996838   1.4163616  16.9720101  88.9748474  30.8372641  38.4877801
  88.7975659  31.7529583  38.2725906  89.9287184  30.7641029  38.4560084
  60.7001400  51.4424610  22.8137827  61.2426949  50.9511566  23.4306216
  60.6420946  50.8775568  22.0432329  13.0195463  25.4552698  25.1472068
  13.0329704  26.4097810  25.2176380  13.8978958  25.2250791  24.8443103
  22.4386525  41.9840240  43.8095284  23.3542943  41.9365454  43.5346127
  22.0575356  41.1561012  43.5170794  23.7758422  36.2760186  68.8567543
  24.2266464  37.1195364  68.8182068  22.8855181  36.4665461  68.5613728
   0.1453271  57.2743940  11.5541363   0.6369670  58.0943537  11.6008711
   0.5178478  56.7318201  12.2491729  24.3634415   9.4890553  57.9582977
  25.1024938   9.0830433  58.4112740  24.1471195   8.8760638  57.2556782
   7.9363489  80.4728508  19.5950699   8.8897133  80.4238510  19.5248687
   7.7750152  80.7010746  20.5105567  81.8633010  32.7158427  49.7758675
  81.0843422  32.1768284  49.6383238  82.2028782  32.8751612  48.8952255
  35.5377460   9.0904015  66.7095184  36.1492157   9.4182682  66.0500956
  35.0808835   9.8713958  67.0218611  50.6082678  28.4868312  18.1822991
  50.0996876  27.6761961  18.2034945  50.0015497  29.1412449  17.8360879
  91.5189951  57.7618313  12.2701490  92.4267023  57.4720764  12.3614800
  91.1312421  57.6100206  13.1320262  22.3439431  42.3361444  55.0741768
  22.9601979  42.5728655  55.7673025  22.8811693  42.2836685  54.2836905
  75.6044899  72.3515445  55.3932905  75.9433376  72.4792248  54.5072269
  74.6927534  72.0895010  55.2656078  39.6100280  53.6476299   5.0288280
  40.3478524  53.8800993   4.4650920  39.6174500  54.3110505   5.7187923
  90.2641263  53.4429789  31.3379216  90.6155794  53.1729412  30.4895163
  90.1250209  52.6228857  31.8115497  25.4098940  38.3188415  67.9260492
  25.3057098  39.2463493  68.1384230  26.0526252  37.9989028  68.5591078
  25.4730153  50.2818251  48.7626982  24.8670912  50.8039808  48.2369184
  25.2134156  50.4530668  49.6679688  15.1958930  84.3144989  43.9989758
  16.0283816  83.8940620  43.7834883  14.6144783  83.5900879  44.2300940
  46.9403076  28.3683705  44.3339729  46.8980360  28.3669186  45.2902365
  47.4004173  29.1788840  44.1157961  28.7841010  61.6603184  18.0809605
  29.1686010  62.5209188  18.2475913  28.4659266  61.3705301  18.9359570
  16.3621318  35.3063989  47.5478554  15.8417284  35.6952119  46.8448353
  16.5193212  36.0280609  48.1567287  45.1117841  61.2534788   3.6664374
  44.7830263  60.3596499   3.5704215  44.7644285  61.7194298   2.9058679
  34.9027061  22.5157976  32.9664707  35.4926395  21.7780638  32.8116870
  35.4758739  23.2823205  32.9787612  68.0360603  17.5043106  34.3117857
  67.2623682  17.7945936  34.7948694  68.7750626  17.8415728  34.8181105
  17.1155322  49.5221519  41.0531330  16.6214728  49.2753124  41.8349361
  16.5127432  50.0719595  40.5525446  48.1467104  30.9937882  44.0846777
  48.4718084  31.4564347  44.8570156  47.9476452  31.6876078  43.4560156
  64.4023994  85.2047196   0.5859359  63.5865858  85.1591387   1.0845359
  64.5753077  84.2997685   0.3263171   8.2027894  41.4720535  13.8344920
   8.1497335  40.6614733  14.3408298   9.1148877  41.7492247  13.9209986
  35.8598971  58.2375193  30.5221987  35.9793472  57.3254395  30.2574873
  36.7490506  58.5685539  30.6488991  61.4808253  88.0149689   0.1833900
  62.3817542  87.9448309  -0.1322715  61.5624526  88.3945742   1.0583003
  50.6316423  32.3439503  57.1083021  50.1955843  32.2794127  57.9579639
  49.9183273  32.4649811  56.4815903  47.6355410  49.2454624  72.2027493
  47.5266171  49.9750090  72.8127766  46.8878794  49.3158674  71.6092253
  30.8427715  54.3448782  53.8193178  30.5138898  53.5621262  53.3773184
  30.1685739  55.0070572  53.6669827  42.4502325  53.1996107  46.4685154
  41.5418530  53.3378315  46.2002373  42.6145267  52.2737169  46.2897539
  44.3330479  45.5962515  30.6242204  44.2594671  44.6423101  30.6527066
  44.1707087  45.8217525  29.7082376   7.3287046  62.4667597  65.1768494
   7.2576106  62.1949387  66.0918856   7.1174312  61.6789675  64.6758652
  56.5986109  73.6786699  33.1035709  56.7549372  73.1662560  32.3103333
  57.3237324  73.4482193  33.6843610  35.3130507  41.2783670  51.7432594
  35.7281017  41.4963961  52.5777864  35.4215956  42.0651484  51.2090063
  30.6697154  13.3004224  62.3833609  31.4413595  13.0166662  62.8735447
  30.9760475  13.3810496  61.4800978  29.4268990  32.4358225  75.7326221
  28.9391017  33.1795096  76.0864782  29.4854069  31.8188334  76.4620972
  38.1157491  76.5912738  27.1010764  39.0713671  76.6454640  27.0915969
  37.9255989  75.8027378  27.6092990  30.9924841  20.5260086  54.8726130
  31.9249511  20.3437328  54.7563648  30.9596872  21.1579943  55.5907726
  26.1404634  46.5487146  68.7213755  26.5496325  46.5853548  69.5859385
  25.3207088  46.0756063  68.8642168  33.8511515  45.7962132  46.2376261
  34.0559173  44.8700619  46.1090088  33.0186820  45.7940912  46.7100859
  33.2395220  55.8901739  15.6554615  33.5207152  56.6310596  16.1923480
  33.6116409  56.0657787  14.7912157  92.0018402  23.2731199  68.6421251
  91.7240577  24.0184212  69.1746616  92.7871699  23.5813308  68.1899118
  25.1016974  25.6139421  57.3090029  25.0198817  24.6755362  57.4791050
  25.2861452  25.6722426  56.3715506  42.5764418  38.3348513  46.0486174
  42.8101254  38.1917286  46.9657516  41.8597221  37.7216983  45.8855724
  28.4221983  12.1184981  60.5544853  28.1690431  12.3242354  59.6545887
  28.5145092  12.9717541  60.9783554  13.7274325   3.4000224  22.6448631
  13.7290359   2.7799225  23.3740425  12.9112291   3.2193476  22.1786022
  10.5625629  22.1810818  38.2292151  11.3390362  21.7359138  38.5685492
  10.7805359  23.1119561  38.2760262  48.0805683  47.0688105  37.1179008
  48.9278221  47.4786139  37.2924137  47.8032637  46.7216539  37.9657292
  19.0571404  61.2505722  36.3897634  18.6237526  61.7785311  37.0603371
  19.8796773  61.7091608  36.2184167  10.4011083  29.5145917  47.3580408
  11.0977030  29.9919319  47.8087425   9.8372787  30.1984406  46.9965410
  18.4990752  20.4433179  44.9830103  18.5188997  19.5208776  45.2378559
  19.4205129  20.6881404  44.8978853  86.6902924  51.3600588   0.0521464
  86.4009094  51.9937706  -0.6042836  86.2296581  51.6157532   0.8513134
   7.8932345  81.8832397  10.8283734   7.1016324  81.9479370  10.2941334
   7.6054615  82.1134567  11.7117894  12.7538049  47.4459982  52.7057838
  12.2716260  48.0668068  52.1595860  13.6667049  47.7255917  52.6374054
  35.4934144  34.7802496  56.5137005  35.8155131  35.6714439  56.6488123
  34.6136236  34.7838092  56.8907785  69.7823929  56.8943494  29.4299936
  69.9194245  57.6506394  30.0005031  69.1326659  56.3623613  29.8894238
   7.8598434  53.6531878  27.2087049   7.2573787  53.2548094  26.5805626
   8.3624601  54.2830753  26.6921329  29.3626261  57.2772789  21.9857526
  29.0602732  57.8877926  22.6581240  28.5689831  57.0331669  21.5095472
  29.3678546  45.8648586  27.8563547  29.2959309  44.9131489  27.7835035
  29.9004173  46.1230898  27.1040726   3.3868888  65.5828381  18.6088014
   3.2142341  65.4535770  19.5413852   3.6469698  64.7181082  18.2912612
  22.9476953  56.8250227  74.7984409  22.2868419  57.0409298  74.1405010
  22.7832723  55.9062099  75.0105238  92.8860672  48.8427830  54.0772963
  92.3763589  48.1725836  54.5325613  92.5799148  48.8022470  53.1712866
  50.3762722  47.0980215  77.0908976  51.2319422  46.8239689  77.4209785
  50.2714252  46.6178799  76.2694883   7.2835207  44.2919779  36.7541242
   6.8807250  45.0521946  37.1737218   7.7936989  43.8768721  37.4495649
  37.6487660  17.7744186  28.5197568  37.8335953  16.8451333  28.6557674
  38.0098939  18.2062590  29.2939234  27.6064134  30.9720445  67.2394514
  27.3816299  30.1560211  66.7924500  26.7682481  31.4188147  67.3582268
   9.6481925  22.3717713  71.0639334  10.3797519  22.1143818  70.5028629
   9.6860832  23.3280253  71.0832739  47.4087477  46.4058733  39.7508502
  47.1713448  46.8908310  40.5412197  47.8871155  45.6419992  40.0731707
  49.5969248  71.5766764  49.2883110  50.2145386  72.1172667  48.7958193
  49.8884344  70.6782341  49.1332150  16.9539058  46.8339252  36.9116783
  17.0601118  47.7817917  36.9923115  17.4208009  46.4755249  37.6665235
   2.7439076  20.2730155  50.4726601   3.0742750  20.5938458  51.3118029
   3.4529722  20.4472041  49.8536968  67.7856854  71.2741247  32.0571216
  67.0729736  71.8853536  32.2433265  68.4400752  71.8016019  31.5991099
  29.3056393  71.1137962  33.2704592  28.4892821  71.0549259  33.7667727
  29.8203611  70.3628731  33.5660982  18.0720413  43.0372858  20.6506968
  18.7615669  42.9942131  21.3132167  18.5142553  42.8192711  19.8302400
  42.0543146  56.8178225  50.4041767  42.2839308  57.4427080  49.7164106
  42.0260334  55.9710598  49.9587297  16.2390232  44.7345257  24.0350676
  16.4343476  45.5432940  24.5083189  17.0005691  44.1759539  24.1908932
  37.4347687  44.7637177  34.3929267  37.7587557  45.1183701  33.5649872
  36.4908504  44.9205971  34.3676615  42.5984764  25.1014233  36.7925096
  42.4452972  25.7905173  36.1460447  41.9563866  25.2723789  37.4815178
  56.5011835  27.2339463  19.1551900  55.6662655  26.8666053  18.8650048
  56.6995096  27.9149938  18.5124850  45.9239244  28.9584899  12.9085219
  46.8021297  28.9633942  12.5277758  45.6974602  29.8839808  13.0002260
  75.9885083   3.6715517  74.5791311  75.4325150   2.9002008  74.4690402
  75.4708039   4.2641506  75.1241485  45.5850458  57.7085781  42.3449993
  46.0453463  57.5722218  43.1731081  46.1665344  58.2754326  41.8382692
  14.6860993  18.2821691  64.4081163  15.6153321  18.3779228  64.6168947
  14.2398977  18.8518620  65.0346851  36.1511779  59.7620773  62.1333599
  35.8755898  60.6780863  62.1681547  37.1034336  59.7948122  62.2248554
   3.4637544   5.9838539  69.4575977   2.8394860   6.6920263  69.6157551
   4.1177869   6.3671756  68.8731861  18.7049258  46.2902737  31.0155678
  19.4744492  46.0082674  30.5210614  18.3024013  45.4758978  31.3172197
  14.5816791  51.0679722  70.6298304  14.8721981  51.6487217  71.3330793
  13.8619506  50.5676079  71.0143614  36.7474055  16.0570204  50.4477072
  36.5145540  15.2301896  50.0253773  37.5509453  15.8617520  50.9298134
  41.2506390  40.2477551  11.2015438  40.9005928  41.0934782  10.9214520
  41.2280798  39.7060752  10.4126811   9.3268955  28.2251239  70.1801443
   9.1118628  29.0716767  70.5717325  10.2257991  28.0529785  70.4604435
  18.7081957  54.9010181  22.2231674  18.6516798  54.1108227  21.6859221
  19.4439769  54.7374010  22.8131557  74.7409024  25.2813315  67.2106791
  74.2140665  25.9905624  66.8423462  75.4428031  25.7261825  67.6857328
  24.8095775  22.2161770  49.8804712  24.2583132  22.9892182  49.7590446
  24.6057129  21.9132090  50.7652760  71.1575603  30.7438612  66.0437679
  71.3760567  30.4596329  65.1562405  72.0021915  30.8076048  66.4896011
   6.9811082  50.7651329  16.7678607   7.3204237  50.8132076  17.6616085
   6.3827121  51.5090036  16.6985142  31.1503339  36.8335843  51.4892626
  30.4375720  36.6571116  50.8752155  31.3822126  35.9738898  51.8405342
  93.1496277  61.8392658  32.9263854  93.1090676  60.9045458  33.1285977
  93.4637949  62.2456408  33.7340903  48.0992842  18.6117864  31.0002923
  47.4521065  17.9834616  31.3206100  47.5831890  19.3731165  30.7352352
  52.8848712  10.8412561  57.7642576  53.1450270  11.4190635  58.4816770
  52.7247261  11.4311704  57.0276527  27.4268770  51.8076944  71.4005232
  26.8330669  52.5342989  71.2116575  27.1444511  51.1082077  70.8113003
  14.4753754  45.7589722  37.1462584  15.1822901  46.3484049  36.8834352
  13.6875665  46.1434507  36.7618513  46.7327547   8.5896873  37.6920462
  47.3538685   9.0060204  37.0944500  46.0631752   8.2157779  37.1192598
  52.6701784  34.1816974  18.1965184  52.8513479  33.3812261  18.6891210
  51.7194033  34.1848111  18.0858421  58.1279126  48.3951422  10.9703239
  57.7554500  47.5917956  11.3338264  58.9008886  48.1034323  10.4869636
  27.9447889  46.9967556  41.8120146  28.4316730  47.6859760  42.2638416
  28.4865546  46.7785501  41.0536575  16.8283582  59.4536972  24.7592306
  17.3905277  58.7341022  24.4722199  17.1102202  59.6348667  25.6558704
  26.6805506  26.5565777  40.9990358  26.9978571  27.3061657  41.5026903
  27.4515176  26.0007787  40.8853197  19.4661403  68.7900972  57.6160336
  19.6884656  67.8912973  57.8588486  19.4895017  69.2739820  58.4415865
  58.0181551  30.3864431  12.7755201  58.1712532  31.0468745  12.0997798
  58.8007641  30.4207158  13.3255959   6.7184860  10.6656098  35.0247407
   6.3564825  10.4965329  34.1549134   5.9849787  11.0251045  35.5237031
  57.2423506  39.7600961   5.2290970  57.9402971  39.4415832   4.6566856
  57.7008963  40.2141809   5.9360462  64.1084317  70.5439392  23.1784995
  63.7073210  69.6751538  23.1548961  63.7046388  70.9737673  23.9324458
  27.8924322  39.0769792  43.3414698  28.6405492  38.9461327  42.7588606
  27.1676302  39.2946792  42.7553797  18.3375609  24.7314358  47.9622459
  18.4983778  24.2384410  47.1576786  18.8512051  25.5325222  47.8589964
  35.9908795  14.7332549  39.0339041  36.1679268  15.5899501  38.6453676
  35.0397682  14.6387148  38.9821124  52.7744055  11.6179383  23.9692378
  52.6661205  11.1833024  23.1233072  53.3110094  12.3868024  23.7765241
  12.5745678  49.3872261  64.7512102  12.5981832  49.6142387  63.8216209
  12.3648548  48.4533739  64.7644520  30.2876973  44.8290348  70.8276749
  30.5835390  44.5365858  69.9655914  30.5647039  45.7438755  70.8783293
  32.5758505  51.0440636  54.7632599  33.0023813  50.3388023  55.2499962
  33.2949352  51.6094446  54.4813156  37.9462266  77.6809216  11.1117673
  37.0616198  77.3466301  10.9636009  38.0770230  78.3278799  10.4185355
  33.2794738  57.1026754  28.3425832  34.0687990  57.1639109  27.8045797
  33.3408213  56.2439489  28.7609792  15.0292850  38.0479026  30.6146336
  15.2248895  37.2566748  31.1165619  15.5417717  37.9549003  29.8115516
  20.8647466  44.9332190  29.2695022  21.4187384  44.1812897  29.4790912
  21.4816523  45.6316948  29.0508890  75.8018424  59.3055248  51.6535759
  75.7102766  59.0303659  52.5657892  76.6212382  58.9046240  51.3635731
  32.8726220  30.0298786  55.1392221  33.6490560  29.4766831  55.0534391
  33.0914021  30.8263803  54.6555328  34.5064128   1.7821699  49.4842148
  33.7710494   2.2909266  49.1426849  34.9493024   2.3775774  50.0888348
  29.1675520  34.4154739  24.0927792  29.5857882  33.5601854  23.9938259
  28.2574654  34.2133760  24.3098688  23.3456206   0.9617797  37.5257111
  22.4025059   1.0513903  37.3888350  23.4503365   0.0909511  37.9090190
  33.3769584  43.3547497  34.5012760  33.3837914  43.2453823  35.4521823
  33.8115811  44.1947174  34.3536639  10.0630176  33.9100242  39.7557330
  10.3331947  33.0587387  39.4114280  10.7917178  34.1856956  40.3118181
  30.9408355  35.3334832  67.1412277  30.1360488  35.2672434  66.6272640
  31.3787961  36.1136413  66.8009710  82.2602620  29.6064329  60.6134081
  83.0143430  29.4007659  60.0608730  81.5376701  29.7269344  59.9973154
  34.3764377  52.9952717  40.4854393  34.7308540  52.3340893  41.0799599
  34.9171472  53.7700319  40.6391096  33.8787079  68.3756304  16.5537000
  34.7077370  68.7810421  16.2995696  33.9262223  68.3108616  17.5075233
  67.2069931  29.7130322  35.2331328  67.9103613  30.0656772  34.6880245
  66.4027262  30.0189328  34.8138332  22.2698712  83.1215763  39.8834229
  21.9703531  82.4788666  40.5264187  21.4705110  83.5618305  39.5945764
  90.4531394  86.3337490  38.1091642  89.8944651  86.5619053  37.3661566
  89.9948489  86.6881420  38.8711381  38.0256701  51.5359211  57.9330873
  38.8970017  51.9003105  58.0887556  37.7524495  51.1960697  58.7851954
  47.1822739  23.2480502  57.5576591  47.0823812  23.6273551  58.4308004
  46.2860394  23.0878210  57.2621584   8.6236823  29.9555135  76.8137598
   7.8230542  29.7611570  76.3264704   8.6847979  29.2550135  77.4632215
  40.1494026  37.7177238  33.8068843  39.4712138  38.1389928  34.3349266
  39.6651745  37.2144365  33.1523204  59.9193859  62.4189234  25.9609675
  60.7552147  62.2135973  25.5420828  60.1465797  62.5994778  26.8731165
  40.7782125  60.0939322  47.0661020  40.2674437  59.4268370  47.5247192
  40.4698706  60.0513887  46.1609221  44.6075630  51.3223505  42.2193146
  43.9474249  50.9223127  41.6532564  44.1060495  51.8754530  42.8183079
  20.6115437  72.5224686  67.7362871  20.0060773  72.8888226  67.0917463
  20.1414371  72.5828362  68.5679054  42.0949268  64.4461679  54.9413586
  41.6980457  65.2606010  54.6324539  42.7831602  64.7285271  55.5437183
  36.3442230  18.7289596  57.4555111  36.7450118  19.2561090  58.1466818
  35.6393504  19.2787242  57.1132469  47.0381021  69.3232727  54.8162174
  47.1485043  69.2098045  53.8721991  47.3913956  70.1946068  54.9956608
  42.2907639  67.8605223  46.9665098  42.2504377  66.9094038  46.8666077
  43.2102299  68.0421495  47.1610022  65.4770374  63.0094290  51.9655371
  65.8043432  63.1524086  51.0774708  66.1648560  62.5011063  52.3953581
  37.8017783  66.3090277  38.0502892  37.0918131  66.2888336  37.4085951
  37.4177241  66.7303085  38.8192225  33.1197572  60.3951788  64.8743629
  32.3309946  60.1927757  65.3774643  33.3733082  61.2701654  65.1681995
   2.2486185  85.3523827  69.2678976   1.4562988  84.9273205  69.5962095
   1.9342372  86.1522484  68.8464642  67.9099751  63.4329844  44.2532635
  68.7195826  63.1270599  44.6621466  67.6876450  62.7493238  43.6212778
  48.4912872  57.2339630  47.3682785  47.6248884  56.9841337  47.6894712
  48.9911795  56.4176702  47.3679972  42.9305427  10.6267020   7.8482421
  42.0724599  10.3358456   8.1570037  42.7638022  10.9786364   6.9738467
  44.0097094  53.9578342  39.4879436  43.2774639  53.5570097  39.9563336
  43.9978218  54.8742485  39.7641230  20.9129119  61.8665457  69.9235439
  20.0685763  62.1264029  69.5550251  21.4849377  61.7642450  69.1629171
  35.6209660  65.8758879  56.1450911  36.4024782  65.3289700  56.2247849
  35.0400782  65.3808451  55.5673933  68.3712343   9.2420298  75.4421806
  67.8042010   8.8318259  74.7891569  69.2450193   8.9032561  75.2473354
  72.4797297  56.2430525  54.6921396  72.4616194  55.6736612  53.9229202
  73.1456423  55.8563852  55.2607250  27.2854328  42.9783392  41.9007015
  27.6042390  43.4629059  42.6621389  27.6633167  43.4363413  41.1499262
  47.6261616  61.3830900  47.2505903  47.6083374  61.4944458  46.3000536
  46.9325686  60.7484102  47.4304342  17.3377527   9.0934283  21.4950275
  17.2767938   9.9253374  21.0255075  18.1214250   8.6744791  21.1392450
   1.7673270  33.9094922   3.4318622   1.3652818  33.5060450   2.6625665
   2.1595518  34.7175690   3.1011088  30.0517623  25.4846999   3.2329448
  29.3183009  26.0989901   3.2631763  30.4454009  25.5386349   4.1037925
  49.3017292  88.5283756   4.7860083  48.5796070  88.9758873   5.2270424
  49.1383600  88.6712360   3.8537353  45.5530024  86.8988705  65.1287937
  45.8428335  87.1701717  65.9997845  44.6076250  87.0488071  65.1334620
   2.0752518  18.8651320   3.7598212   1.6860597  18.1281993   4.2306598
   1.6298048  19.6360347   4.1112788  27.6472068  60.5013037  26.8064308
  28.4900904  60.8574343  26.5254498  27.0864630  60.5754471  26.0342240
  13.6854947  71.9256163  46.6536808  13.9473259  71.0480309  46.3752460
  13.7240720  72.4517679  45.8549881  17.9240990  42.7276230  32.0829630
  18.3040476  42.5489235  31.2227654  17.1617389  43.2763529  31.8987560
  51.3104010  52.2020054  37.7515888  51.7250109  52.9345942  38.2072735
  50.6441784  51.8863487  38.3621120  62.3180819  80.2148056  53.0966806
  62.9680204  80.5146313  52.4611330  62.1775532  79.2933416  52.8789902
  49.7358561  46.3910484  41.7868519  50.5398083  46.7444611  42.1676254
  49.4335747  45.7436705  42.4238443  93.0136578  83.8205528  26.4635491
  93.7081402  83.9885616  25.8266020  92.2971724  84.3951321  26.1938286
  44.6808815  35.1069784  66.1785984  45.2844763  35.4464006  66.8394232
  44.9129438  34.1821289  66.0947323  27.5077724  81.2294960  34.4936633
  28.2704210  81.7010307  34.1586161  26.8451929  81.9078255  34.6243930
  28.9456630  60.2617884  43.2858992  29.0799236  59.3378925  43.0746651
  29.8280096  60.6318331  43.3135557  85.2869943   8.9638716  76.9053698
  85.4808048   9.8852545  76.7329597  86.1186507   8.5128790  76.7598391
  25.0009298  78.4149075  26.5022421  24.4823790  77.7675772  26.9800544
  25.0296092  78.0835724  25.6046748  45.1374722  84.7683239  42.0084858
  46.0602951  84.5235348  42.0770597  44.6948385  83.9620113  41.7435980
  49.6317673  62.2522354  68.8908958  49.8533201  63.1750584  69.0155792
  50.2167511  61.7829895  69.4857359  70.1532033   3.1405169  46.3288832
  69.2471674   2.8994852  46.5218449  70.4182533   2.5386149  45.6334066
  91.8036138  10.4662332  73.2788177  92.4504005  11.1502418  73.1055198
  91.6134845  10.5476293  74.2134072  57.7338171  51.7713404  55.1950741
  58.6215019  51.8809795  55.5359983  57.3711634  51.0440207  55.7007647
  66.6844797  71.6930628  26.5874767  66.3565207  72.0722389  25.7720613
  65.9144402  71.2945747  26.9930410  51.9852924  65.2224493  31.3528728
  51.6665316  64.3239260  31.2675214  52.4559689  65.2314520  32.1863103
  46.2081957  62.4781847  53.4980106  45.7717896  62.3546410  54.3409300
  46.6880846  63.3006954  53.5950327  48.3422995  65.6106138  33.6063409
  47.5441599  65.2226162  33.9650393  48.8916922  64.8606491  33.3784151
  76.3771695  29.8025414   3.4542544  75.7507772  29.1176650   3.2201465
  77.0883030  29.3365618   3.8940127  62.0834970  57.4919891  71.1930656
  61.2624454  57.0698261  70.9403133  62.1299410  58.2740164  70.6430578
  91.1483669  59.1811323  46.5811014  90.6925297  59.7130060  47.2334480
  91.4552689  58.4161711  47.0678091  58.1550360  67.2671318  26.3055205
  57.6400900  66.8979979  25.5880189  58.3372211  68.1660891  26.0318089
  53.2149601  58.1606483  59.6386242  52.2668171  58.2789993  59.5816612
  53.4460115  58.4921694  60.5063438  45.4493093  56.5968990  33.4396243
  44.9579859  57.1188974  32.8053117  45.4945421  57.1489239  34.2202997
  25.5812359  55.2687740   7.7669990  25.9709859  56.0509205   8.1576133
  25.0735521  55.5988598   7.0256943  10.7398307  63.0405045  19.9415362
  11.5631318  63.5285425  19.9566209  10.7605600  62.5613785  19.1131413
  62.6960850  72.5685406  59.6446419  63.0719328  71.7221355  59.8866510
  61.8299437  72.5712919  60.0520992  23.3124256  45.3569603  54.7520161
  23.7835145  45.4736042  53.9269686  22.3893499  45.4482698  54.5157385
  93.0944920  51.6361141  17.2617590  93.7105560  51.1708164  17.8276145
  92.3546219  51.0359859  17.1686447  40.3957701  62.7655602  69.2768097
  39.4950509  62.7629232  68.9528751  40.9334183  62.6727486  68.4903288
  34.9724126  66.3988352  25.8208370  35.8782625  66.1490107  25.6384802
  34.8546195  67.2278881  25.3571272  42.1772814  67.3766565  29.1073060
  42.3907948  68.0147982  28.4265590  42.4338436  67.8035402  29.9247241
  41.9623852  63.5554790  35.4742599  42.3858643  63.6802578  34.6249485
  41.0915661  63.9378738  35.3661728  30.9386730  59.8317432  45.8282948
  30.6154966  60.6738186  45.5078363  31.7784643  59.7129345  45.3845978
  93.8691333  24.8790270  34.7155976  93.1134752  24.7045523  34.1545486
  93.5536292  25.5240065  35.3485990  28.6325502  49.1174507  43.3979225
  28.2136893  49.4200563  44.2036629  29.5372033  48.9351940  43.6521149
  45.3520441  39.0083551  50.5355310  46.1175013  38.7257004  51.0359383
  44.7556400  39.3674207  51.1924982  60.4315804  19.6088406   5.2362235
  60.5249934  20.2692410   5.9227927  61.2936306  19.5704409   4.8219474
  35.8939028  87.7295685  16.7900169  36.6525102  87.1562958  16.6799843
  36.1114550  88.2718372  17.5482023  30.9795165  44.2852592  45.1440191
  31.2981153  43.8328838  45.9250975  30.5229950  45.0553799  45.4827452
  27.8918290  77.7169037  51.2345266  27.5853586  78.5293150  50.8316565
  27.0910287  77.2615671  51.4945555  57.3625422  75.7374001  23.6247516
  58.1744242  75.3027773  23.8858628  56.7379808  75.5125189  24.3143749
  10.7516694  60.9821701  29.0453506  10.2347732  60.2361488  29.3494868
  11.0801423  61.3887978  29.8472190  42.0182133  59.7803450  67.3460197
  42.0412922  60.6571627  66.9627571  41.2272406  59.7753143  67.8850651
   8.6352068  57.7012157  40.2926826   8.5960615  57.5745296  41.2406540
   9.5363414  57.9769659  40.1249027   5.9736360   1.8822390  38.0934381
   5.1708425   1.3934809  38.2747650   6.5618910   1.2385947  37.6985788
  26.7824125  57.2884226  65.6919909  26.3160563  56.8939972  64.9549913
  27.0539355  56.5443563  66.2294579  72.7331880   4.9832255  44.0655899
  72.7729753   5.1397425  45.0090694  72.9332975   5.8330447  43.6731768
  23.2685518  56.5611267  71.6406631  22.6762199  56.4120007  72.3776436
  22.8431964  56.1286592  70.9002066  85.5073455   3.1707484  60.8615494
  84.8636916   2.5058562  60.6168795  86.1647847   3.1347853  60.1667738
   0.7160058  58.3276939  31.0558200   0.2279691  58.3313179  30.2323890
   1.4279386  57.7048063  30.9095454  74.3746618   6.4596754  74.8272610
  74.3876651   6.4139468  73.8712406  73.7275413   5.8049589  75.0895834
  38.4057069  69.2496920   9.3285984  39.0460587  69.9142027   9.5827693
  38.7201500  68.4444571   9.7396350  77.7903655  23.6032492  27.9155517
  77.0482400  24.1329390  28.2069492  77.8074744  23.7171561  26.9653082
  57.3593616  64.0736580  41.1433935  58.2669544  63.9657259  40.8590460
  57.0626688  64.8688602  40.7008314  42.8927422  70.7318449  49.0219021
  42.8003025  70.7552576  48.0694675  43.8147783  70.5202770  49.1679239
   1.8903729   9.2083606  67.2745232   1.4015862   8.4363946  67.5598101
   1.7921898   9.2156419  66.3223998  62.2976255  49.9011421  24.7379446
  61.6931915  49.2320538  24.4166660  62.2282982  49.8486900  25.6911874
  89.7521785   6.7436034  50.4471874  89.7208122   6.8472296  49.4961309
  88.8463166   6.5633112  50.6984758  49.3499327  69.7730875  21.1791539
  48.8949823  69.8135662  22.0203495  49.5114326  70.6882906  20.9499192
  49.2138815  79.5409870  42.9391575  48.6315775  79.2649698  42.2313690
  49.0175009  80.4696751  43.0624723  45.5517960  70.4319620  69.2330313
  46.1621046  69.8797131  68.7443781  45.9754276  70.5649328  70.0810194
  35.2786827  79.1067219  50.2160978  34.3610358  79.2673683  50.4359770
  35.2446747  78.5316133  49.4516850  10.1259531   1.8710142  44.6285963
  11.0825123   1.9055563  44.6340227   9.8996128   1.6436487  43.7267590
  50.4304266  75.0694752  48.8926649  50.8039141  75.7325125  48.3120441
  49.7827148  75.5444813  49.4133091  13.3463430  34.7191525  33.3704305
  12.9202509  34.6701908  34.2261648  14.1965008  35.1211905  33.5488367
  73.0933553   5.4693124   1.6973146  72.9268343   5.4642388   2.6399072
  72.9715210   6.3824794   1.4374812  76.6585678   7.1344992   6.0421928
  76.9140417   6.2609479   5.7457717  75.9037501   7.3606154   5.4987319
  63.6631680  87.5825119  34.2735648  64.5382309  87.4187374  33.9218950
  63.3199215  86.7123508  34.4766212  68.3653310   9.8930556  14.9685884
  67.5452951   9.9963862  15.4513907  68.7321738   9.0705496  15.2928555
  28.8210535  67.1401405  40.3925562  28.5014892  68.0366945  40.4940796
  28.3109260  66.6312504  41.0226583  15.8441103  67.3380184  20.8411622
  14.8983264  67.3952818  20.7053518  16.0640466  66.4339447  20.6164265
  24.6504617  79.3731594  43.8710403  25.0175357  78.6506748  44.3804550
  25.4144549  79.8503494  43.5472536  52.3438978  73.4347439  50.7145262
  51.5304375  73.4532595  50.2103758  52.0612431  73.4899473  51.6273737
   9.4960380  35.6898665  23.7738967  10.2470386  35.3413367  23.2935262
   9.1945857  36.4280295  23.2442975   3.6911787  25.5262762  22.1099734
   4.4566930  25.1458079  22.5406265   4.0442718  26.2436777  21.5837693
  86.3169279  82.2197819  46.6038227  87.2555520  82.2412682  46.7902517
  85.9652032  82.9862881  47.0565701  61.0364676  79.8684978   4.7552615
  61.2071514  79.5144176   3.8824931  60.8229256  79.1018963   5.2871925
  73.2693958  78.7025261  58.5162020  74.0607071  78.8436604  57.9964542
  72.6222038  79.2943716  58.1326628  54.1225866  11.6035849  35.3797174
  54.3225768  11.7637354  34.4574451  53.2408431  11.2311465  35.3724265
  51.8757677  77.1735191  47.6764059  51.3792610  77.7694321  47.1155167
  52.4315596  77.7477646  48.2032585  53.7238073  48.7046814  55.8305788
  53.8757610  48.4748554  56.7472696  52.8638315  48.3350992  55.6303740
  35.0377270   4.8226556  62.3165612  34.8345277   3.8935194  62.4244861
  35.6620118   5.0141677  63.0164341  26.0387588  60.9695625  38.4680867
  25.9217286  60.7203007  39.3848205  26.8475533  60.5320358  38.2022858
  41.1149740  62.7613449  72.7443171  40.5166912  62.4146605  73.4062052
  40.8376455  63.6694050  72.6228905  57.9236126  67.3083115  36.4152718
  57.7155447  68.2390070  36.4973736  58.8264036  67.2364664  36.7251801
  43.1084919  32.3318315  51.0144901  42.8596354  33.1118846  50.5186892
  43.7141228  32.6551032  51.6815281  47.2136116  77.5503445  37.2128844
  46.7443657  77.3252010  38.0162215  46.5630865  77.9999304  36.6735148
  46.6188860  66.3211536  53.3558035  45.7995749  66.5308523  52.9074812
  47.2630167  66.2406158  52.6523542  37.7023983  31.5663171  45.2066517
  36.9534063  31.9842815  44.7817469  37.3164678  30.8816385  45.7530069
  28.1172673  35.7718131   0.3575118  28.0933969  36.6517302   0.7335504
  28.3018987  35.9130809  -0.5710236  62.4854231  64.8133135  55.4661226
  62.0377636  65.6495857  55.3377485  62.9450941  64.6585512  54.6409082
  53.6285734  70.2649498   7.6549530  54.3154478  70.8132458   8.0341673
  53.5067225  70.6109428   6.7708290  30.6883049  66.2831068  24.6345949
  30.0405979  66.9154692  24.3234301  30.7539153  66.4503956  25.5747771
  13.6208391  67.5460625  34.2947197  13.9953423  68.1272078  33.6327171
  13.5914910  68.0770683  35.0905848  54.5419884  51.7216444  45.0464964
  54.9853182  50.9638643  44.6651077  53.7162256  51.7827797  44.5662689
  13.2697551  24.5297000   5.8401187  14.0625636  24.0369317   5.6282981
  13.5690228  25.4333731   5.9403117  65.4433060  72.3344231  41.6512585
  65.3551722  71.4849424  42.0835161  66.1257648  72.7861166  42.1477032
  71.0220125   4.6499831  38.4894729  71.0372904   5.5491549  38.8173223
  70.1475528   4.3293673  38.7102795  20.4399133  55.3965425  39.9036908
  19.5785606  55.4749250  40.3137636  20.3154898  55.7377291  39.0180612
  59.0708017  51.4408207  62.9424000  59.6009398  52.1294165  62.5411129
  59.5471382  50.6319761  62.7550459  39.0209436  76.7779207  40.1887751
  38.7295389  76.9250393  39.2889595  38.8497257  77.6074505  40.6346416
  87.9916862   7.7009398  71.4360905  87.9518464   6.8157107  71.0741138
  87.4878600   7.6504427  72.2483969  50.8921719  80.0506973  57.5762701
  51.6969872  79.6073532  57.3080444  50.1902914  79.4634914  57.2955656
  40.7606936  65.2222681  23.6153960  39.9936509  64.7777557  23.9763451
  40.7000971  65.0760365  22.6713753  52.3428726  50.6546497  19.1968608
  52.7982187  51.3754988  18.7618089  53.0067301  50.2574873  19.7605860
  55.8568954  62.6268148  68.5500431  55.3149176  61.9828510  69.0058994
  55.7579660  62.4098492  67.6230192  77.9530668  82.6732349   9.5783275
  78.3750916  82.1510124   8.8961184  78.6151934  83.3163929   9.8316491
  59.9252939  75.4240274  18.7890828  60.2716017  76.0853720  18.1899786
  60.6658697  74.8411131  18.9563668  62.1550655  66.7510986  61.6992140
  62.4909019  66.7520761  60.8028603  62.4211168  65.9027100  62.0537376
  78.9823341  72.8119516  42.8914690  79.0571451  72.9894876  41.9538546
  79.6544552  72.1528339  43.0648088  45.1597404  73.5164595  47.6261282
  45.1734924  72.8995991  46.8943310  46.0733366  73.7811136  47.7334976
  76.3497737   3.1591421  56.9647264  76.9216827   3.8021666  56.5455961
  75.5197194   3.6200815  57.0862722  27.5713897  87.5046825  32.0608759
  28.5097289  87.5065613  32.2499442  27.1690345  87.8856850  32.8413749
  18.7728037  18.6119372  69.1154814  19.3124880  18.5778624  69.9052954
  18.5332693  19.5346171  69.0287018  36.1766815  69.0112257  36.5126061
  36.7488647  69.6374846  36.0691667  35.8077836  68.4816551  35.8057117
  57.1885824  80.6168938  22.7810693  57.2209454  80.5887699  21.8248296
  56.3713169  81.0738945  22.9797244  43.1186676  78.7943220  66.5052700
  42.8346920  78.1274605  65.8800650  44.0732527  78.7240362  66.5133572
  73.6617136  61.6403675  23.7454534  73.5273981  60.7192659  23.5223818
  73.9166117  61.6286707  24.6680164  10.1435579  21.5385729  57.6656485
  11.0391773  21.6873366  57.3623896   9.7068609  21.1173540  56.9253063
  55.5838013  75.3228092  54.3022060  55.4545546  75.1298857  53.3736038
  56.1045122  76.1259460  54.3097687  69.7108507  51.0834169  58.0965662
  69.3738890  50.7332563  57.2719002  68.9531517  51.0898447  58.6814451
  18.6184907  62.5419331  51.0412693  19.1098702  63.1602907  51.5820169
  17.7002358  62.7492762  51.2146187  84.6851972  -0.1205343  46.6320801
  84.9284175   0.3727537  45.8486605  83.9102271   0.3299624  46.9677877
  90.4905561  38.3646494  58.6903906  89.7255376  38.2259184  58.1320620
  90.2350858  39.0795142  59.2734289  72.6352027   1.7495734  29.5326233
  71.6888622   1.6408640  29.4385338  72.9428294   0.9021574  29.8543048
  83.1073093  73.4793711  52.0317841  83.8344669  73.3464479  52.6398993
  83.5275173  73.6253309  51.1842251  45.5698204  34.9070239  14.5658946
  45.2268887  34.1553855  15.0492859  46.0591078  34.5214272  13.8391578
  81.5225032  19.7327524  45.2898693  81.8148425  18.8419920  45.0966740
  81.4747098  19.7672278  46.2452555  57.1365908   5.9869677  43.9666748
  58.0694607   5.9664637  44.1801405  56.7229083   6.3748843  44.7377920
  81.1949733   2.9927450  44.2673206  80.6438831   2.2104269  44.2898417
  80.7612804   3.5733038  43.6419487  23.4738731  70.3994083  20.3535533
  24.3420434  70.5372429  19.9747169  23.5998631  69.6975231  20.9920812
  57.9248694   4.6131426  67.0484543  58.4327224   3.8187128  67.2133970
  58.5586241   5.2313048  66.6844988   9.8615278   7.3758799  67.0186043
   9.1580452   6.9068438  66.5698767   9.5099081   7.5584036  67.8899717
  31.4292911  24.9256331  62.5137568  32.1963847  24.3649107  62.6294994
  30.9180338  24.8000914  63.3131838  75.0265932  59.9013567  30.2492976
  74.4294834  60.5404377  29.8603725  75.8510065  60.3764200  30.3536820
  13.3458579  86.6799641   9.8571336  12.7890313  85.9644127  10.1639926
  13.7480950  87.0285225  10.6527090  93.0306581  11.6645056  41.3003206
  92.9783395  12.5886637  41.0565567  93.9090541  11.3952929  41.0316658
   4.7094171  35.3729913   0.0361951   4.4914882  36.2680957  -0.2236621
   5.6367366  35.4106471   0.2704795  39.9252772  56.5539312  44.4268465
  39.0441084  56.4120722  44.7727442  39.8656869  57.3830700  43.9522886
  57.5962594   6.9420153  53.1018019  56.7091897   6.9291312  52.7423954
  57.4712733   7.0541197  54.0441608  54.6634865  81.0724735  53.1215334
  55.2554226  81.6177464  52.6033354  53.8995409  81.6281319  53.2759905
  71.8121243  86.6171265  52.9394627  71.1645603  86.5543461  52.2373581
  72.1230030  87.5215054  52.8984022  47.8060809  28.2041651  61.0417128
  48.1542316  27.8294760  60.2326202  47.1455565  28.8324744  60.7498789
  35.9572618  21.7539498  16.1175998  36.4372365  20.9341571  16.2350448
  36.1034409  22.2358081  16.9316466  86.0667324  83.3473301  21.8096304
  85.2078056  83.7513065  21.9332075  86.2365913  83.4280777  20.8710909
  49.4275379  86.9932747  12.1065795  49.0963173  86.9593334  13.0040061
  48.9923382  87.7527332  11.7192161  38.3911315   3.5980994  67.2371960
  38.4725061   3.6309153  68.1903696  37.6917723   4.2195803  67.0349836
  15.1979125  70.8766794  42.6408291  14.5060503  70.2160406  42.6742554
  15.6647706  70.6935310  41.8255186  80.6466770  58.0077028  37.5604820
  80.5548763  57.1402740  37.1663189  80.1076698  58.5780859  37.0124269
  71.6140321  18.0549151  67.3477650  72.3178199  17.6782805  67.8760242
  71.3964442  17.3700911  66.7153883  44.1746807  69.5462179  58.7278223
  43.9938688  69.4985580  57.7890635  44.5886421  68.7083578  58.9348459
  48.0430079  80.8594322  36.4711928  48.6306524  81.3277340  37.0641565
  47.6845598  80.1479053  37.0017266  53.8505605  21.8051726  73.4624529
  54.4185141  21.8718916  74.2300510  53.3458713  21.0047442  73.6067724
  39.0635157  77.6826525  68.2902908  39.1094732  77.6912165  67.3342371
  39.9181342  77.3530769  68.5682201  63.9185286  47.3395920  22.9522061
  64.0767002  47.5374985  23.8752699  64.4764090  47.9548454  22.4763274
  50.0790742   6.5052134  26.4482784  50.0027409   7.4485022  26.3047504
  50.6919578   6.2093455  25.7751727  64.6889067  82.9966259  53.0075264
  64.7675657  82.3580170  53.7162066  64.2669106  83.7539291  53.4132862
  70.6270361  63.0084229  47.3848534  70.7287216  62.0573902  47.4226570
  70.8559513  63.3089256  48.2643604  49.6899748  79.6119356  47.3528099
  49.2330837  80.3394413  46.9306517  49.8518467  78.9878941  46.6452742
  59.3309307  64.7749615  47.0384073  59.5339584  65.0141048  46.1340761
  58.8216305  63.9679098  46.9641638  54.0362406  68.1988811  39.7741389
  53.5831118  67.7204514  39.0798712  53.4664106  68.9445925  39.9623919
   2.7925123   1.8664748  33.5199714   3.6409296   1.6252905  33.1481433
   2.3731149   1.0301215  33.7220883  92.4758819   9.5793539  53.8332891
  92.6203206   8.6824709  53.5316944  92.1911863  10.0521189  53.0511904
  50.4757690  86.4336205  54.3770170  50.9308100  87.0086384  54.9922609
  51.1174536  86.2654591  53.6869478  13.9596049  30.7917306  10.5779346
  13.1915538  31.0314891  10.0594314  14.6775023  31.2897202  10.1869567
  88.0853132   3.5557848  40.1281834  88.2853416   3.2297999  41.0056496
  87.9383090   4.4938856  40.2489376  18.9341950  66.3039684  56.1141634
  18.6647165  65.6597853  56.7688704  18.1627440  66.4185762  55.5592203
  44.8059416  82.0988369  25.0802827  44.2171669  82.8361416  24.9191594
  44.9416351  82.1033096  26.0278034  63.5981989  83.3762550  72.1290302
  64.4186687  82.8835964  72.1103096  63.1132412  83.0629635  71.3655519
  42.7360821  84.4779110  31.5175748  43.1781197  85.2502728  31.1650252
  42.8709602  83.8011169  30.8542633  74.4089508  57.4758053  38.6009908
  73.7992764  57.6225424  37.8778052  75.2040100  57.1474552  38.1811118
  89.9816755   5.2949530  63.4821033  90.9053281   5.4659754  63.2981205
  89.6262697   4.9798590  62.6510620  52.6324224  53.2992887   8.2077628
  52.6515245  53.8638973   7.4350488  51.8958855  53.6256456   8.7247127
  49.2260218  86.0053635  74.4889069  48.3356047  86.3380051  74.6017838
  49.2906094  85.2787399  75.1086473  51.8565416  74.1247845  18.3778155
  52.4760866  74.8430777  18.2495272  52.3053503  73.3557653  18.0265200
  42.9141347  63.5572955   4.4606860  42.7423064  62.8476664   3.8417037
  42.0902650  63.6653754   4.9358638  81.3513660  34.5704651  70.7565165
  81.6262245  34.3935132  71.6561651  81.6878605  35.4472280  70.5713272
  43.9632893  67.4425793  72.7778387  43.3255053  67.1748495  72.1161890
  44.7988510  67.4615335  72.3112440  57.2704029  81.5132523  66.8917847
  56.8139267  82.3042107  66.6050100  56.8100691  80.7983494  66.4521885
  74.8262552  14.3361193  53.0847931  74.0615991  14.3643671  52.5097036
  75.4850534  13.8551813  52.5838709  88.2848167  64.5150232  48.9248466
  88.2638264  63.8189173  48.2681656  88.4050941  64.0563488  49.7563362
   8.3203527  33.7704572  74.6395853   9.0735671  34.3227443  74.4301210
   7.5619575  34.3389902  74.5060165  71.1842778  18.5759646  19.0967786
  71.0019520  18.6662585  18.1614518  70.4426101  19.0009791  19.5275009
  61.7165613  70.5353975  39.5067024  62.5294399  70.1035070  39.7692442
  61.8553686  71.4578724  39.7211957  43.0750561  66.7709923  24.2293787
  43.3812666  65.8814669  24.4060373  42.1900892  66.6553736  23.8834095
  33.3677721  85.6119061  31.5701413  34.2744803  85.3561878  31.4006615
  32.9064512  85.4126644  30.7554507  22.3778558  68.7152958  16.3375568
  21.6916347  68.4387541  16.9448960  22.9512286  69.2739725  16.8622971
  70.4748392  77.5740051  39.7443748  70.4930210  76.7629194  39.2364025
  71.2859058  78.0235100  39.5069981  91.3552812   6.6135317  55.9147453
  91.5927890   5.9294516  56.5407324  92.1300319   6.7110640  55.3611374
  46.7801237  77.4291134  60.3812170  46.0800695  77.0843077  60.9355354
  46.4525318  78.2770538  60.0813580  54.1329908  75.6883621  70.8757973
  53.7582827  75.7578802  71.7538548  54.1984129  76.5933657  70.5709648
  83.5776571  31.4460760  33.6394644  82.8798440  31.0084730  33.1518221
  83.4236673  31.1993223  34.5514011  24.9492311  67.5977278  20.2962756
  25.2051497  67.1569824  21.1065125  25.3768182  67.0935678  19.6040165
  35.4892222  70.3875968   0.9798320  36.0186164  69.8229834   1.5430291
  35.1599662  69.8035094   0.2967055  89.3457845  18.9101702  51.4613152
  90.1123193  18.3467585  51.5672350  88.8153318  18.7418085  52.2400999
  48.0951587   9.9390322  35.8321118  48.6857215  10.3412730  36.4690351
  48.5831991   9.9561316  35.0088525   3.9208940  89.1026306  42.8484201
   3.1458628  88.6198997  42.5611401   4.5952207  88.4316540  42.9547262
  91.2554550  61.3918543  43.7217808  90.6109333  60.8082390  44.1220474
  92.0417500  61.2832212  44.2567301  47.2301722  78.7781811  54.0668774
  47.7294827  79.5701027  53.8674259  46.3795853  79.1001511  54.3653297
  40.0671959  42.3066378   9.5406169  39.9403977  42.7610731   8.7077647
  39.4299865  42.7076435  10.1317072  91.1378956  45.0701714  57.5197649
  91.6485977  44.2898083  57.7352762  91.0308933  45.5246973  58.3553410
  63.0246639  69.4229364  36.7322803  63.4172630  69.4948196  35.8622622
  63.7246370  69.0716934  37.2826385  48.1835747  68.9190578  52.0203924
  48.3240795  67.9850483  51.8651199  47.5113297  69.1687918  51.3863993
  38.0188560  76.8533802  62.3893929  37.5960040  76.0654116  62.0480251
  38.8596749  76.5462542  62.7284050  43.7439728  54.9160528   8.9883399
  43.9516211  55.1691008   9.8878294  43.0177212  54.2985487   9.0748364
  39.8118153  13.5256487  56.8997097  40.3744915  12.7663046  57.0514488
  39.9785057  14.1003710  57.6467943  20.9525220  26.3830563  11.1173137
  20.2930562  25.7254025  10.8963664  21.7763583  25.8964488  11.1444171
  15.3310789  31.4276892  76.1377764  16.2380375  31.6672713  75.9473515
  15.1447071  31.8448359  76.9788980  55.4352665  81.6512775  49.9271297
  56.2390804  81.3334942  49.5158768  54.9947023  80.8593750  50.2354050
  34.9582028  69.0499306  24.6742010  35.3102088  69.6647263  24.0305018
  35.4821181  69.2007971  25.4609561  41.5552092  72.9139042  50.4249048
  41.7542982  71.9895506  50.2760172  41.0019636  73.1620646  49.6842480
  60.3486681  68.6063433  36.7866778  61.2289858  68.9101219  37.0079994
  59.9714851  69.3197441  36.2718725  67.7990678  22.0246798  28.8757730
  68.6839989  22.3719508  28.7638283  67.6580647  22.0290095  29.8225212
  71.6290045  86.1127567  21.4313102  70.8031559  86.3182259  20.9931469
  72.1635151  85.6994724  20.7532787  28.5642743  54.7505236  26.3930440
  28.4892249  55.1362133  27.2658777  27.7184725  54.9253750  25.9803939
  82.1148586  59.7682190  16.6972184  81.6964626  59.7333813  17.5574291
  82.2136879  58.8510847  16.4416254  88.5413697   8.5652739  39.8510361
  88.5218433   7.9089743  39.1545272  88.2954648   8.0836779  40.6408691
  56.6481256  59.1366339  45.6772757  56.0800028  58.6910725  45.0488281
  56.6501665  60.0504446  45.3923559  47.6460123  78.7774706  11.1531711
  48.1698465  79.1811419  11.8451798  46.9853926  79.4358540  10.9378886
  81.4563942  64.0013695  38.4104252  81.6338634  64.0582228  39.3493104
  80.7818699  63.3264685  38.3346033  26.7195535  74.9029732  13.8611460
  26.5334249  75.6917095  13.3517516  27.6751137  74.8504925  13.8807917
  71.0862827  70.8641148   9.9020427  70.4897547  70.6898975  10.6300771
  71.9209814  70.4876900  10.1809907   0.9234438  45.1270723  58.8791132
   0.9256754  46.0815191  58.9516401   1.5132533  44.9410057  58.1485415
  46.6504207  24.4859606  59.7570848  47.2981993  25.1719672  59.5958090
  45.8237210  24.9569899  59.8616648  60.6443787  69.4426155  49.2820406
  61.3685226  69.4692421  48.6566305  60.6877851  68.5649157  49.6615076
  31.5712428  82.5149441  65.1515245  32.2526503  82.6191807  65.8156443
  31.5109754  81.5692234  65.0165939  61.9917157   6.1482054  51.3816500
  61.8400195   6.8935591  51.9627476  62.2771862   6.5416056  50.5570412
  67.1685886  47.0080662  72.9201889  67.1653128  46.7462683  71.9994926
  68.0959415  47.0538664  73.1528759  16.5366904   4.7621295   9.5773109
  15.7335345   4.7932812  10.0971206  16.7517487   5.6803605   9.4135078
  14.7422692  84.1850814  68.2401465  15.4300925  83.9694271  67.6103632
  15.2082965  84.3296299  69.0636502  33.5525155  62.4418879  56.2196159
  33.3834147  63.3742189  56.3552332  33.8475275  62.3816586  55.3110075
  86.7211107  19.5084578  35.3589320  86.0815957  18.9938837  34.8665190
  86.9597629  18.9496428  36.0985327  82.9344749  83.0002689  48.6632442
  83.6323261  83.6493874  48.7520123  83.3371544  82.2806454  48.1772137
  67.4138546  61.3017559  71.1713600  66.6177893  60.7751656  71.0991335
  67.2289658  62.0872450  70.6565332  56.5108109  76.4965677  74.9834776
  56.3275719  77.3934937  75.2630806  57.2503471  76.5797091  74.3814802
   0.8432020  10.4737192  69.8357630   1.2999643  11.2780005  70.0821829
  -0.0059019  10.5368906  70.2731037  66.2880853  19.7596461   5.1736152
  65.4066971  19.9996668   5.4595870  66.5705922  19.0942866   5.8010805
  69.7515869  60.1173639  33.1423807  70.1017761  61.0075235  33.1772470
  68.8120842  60.2235699  33.2916474  18.0625929  47.8197295  59.4007587
  18.9186205  47.9116064  58.9824152  18.2441820  47.3568922  60.2187014
  50.2263633  84.4675103   0.0383885  50.4342583  83.7712422   0.6614621
  51.0485998  84.6279040  -0.4246776  31.8513489  75.3019714  43.0876732
  31.1084986  75.9006166  43.0100250  32.4805641  75.6155300  42.4380589
  40.3727484  77.2247124  36.7352509  39.8380303  76.7523098  36.0971761
  40.0665140  78.1299782  36.6809630  34.2202520  82.0143986  28.7893653
  34.6578932  81.5160084  28.0992126  34.7866869  81.9126225  29.5542359
  38.9934683  64.8736620  57.3509312  38.7287927  64.8669481  58.2707882
  39.1770172  65.7937479  57.1612310  68.7054157  70.1705217  66.1334229
  67.8651094  69.9061537  66.5078926  68.4853077  70.8765888  65.5257559
  91.8854335   7.8583151  51.4644384  92.5949147   7.6608187  50.8529902
  91.0921577   7.5730044  51.0110760  18.0778230  10.6407553  40.0084782
  17.7446188  11.5324313  40.1091385  17.3869814  10.1791388  39.5332026
  32.8284836  54.3320990  44.5193338  32.4494004  54.6121931  45.3524446
  32.3551655  53.5299683  44.2984581  86.5579131  15.0628287  32.8298163
  85.6647352  15.3631693  32.9978991  86.5758565  14.1659647  33.1638074
  72.6902596  36.3994166   1.0890468  72.9129331  36.9404837   1.8466075
  73.1075017  35.5563018   1.2659486  79.0735435  64.6253920  60.6503391
  78.3030701  64.0998888  60.8658600  79.1653776  65.2292681  61.3873148
  89.2733720  12.5346190  11.3952589  88.6957553  12.0964724  10.7702649
  89.5482496  13.3345896  10.9472311  16.7657471  53.9446974  42.8785944
  17.2934306  53.6319304  42.1437740  15.8607066  53.8425493  42.5841475
  33.0434529  15.4049346  19.7551520  33.1607549  15.9233329  20.5512221
  32.7189366  16.0306403  19.1075214  34.1736619  45.7676074   0.9481176
  35.0954406  45.8078334   1.2029584  34.1684882  46.0259291   0.0264485
  46.2368917  77.3507881  64.8122168  46.2889004  77.7506542  65.6803417
  45.8896208  78.0432606  64.2499733  60.2502635  13.7733656  21.9575167
  59.9796346  13.3415419  21.1472607  60.4991177  14.6570021  21.6864157
  37.3159806  31.6143748   8.0917628  37.9302089  31.9592234   7.4436648
  37.8429477  31.4962098   8.8820632  86.0417894  13.1068903  42.8096628
  86.5266040  13.3048064  43.6109257  86.6122010  13.4103876  42.1034384
  45.8226299  53.3879185  30.6917977  45.6686068  53.6128378  31.6093612
  45.1266384  52.7667522  30.4773688  67.8053617  82.6126862  75.8979082
  66.9190073  82.9143715  76.0968876  68.3128023  82.8273773  76.6806221
  63.0172539  69.0958166  62.5588274  62.7071857  68.1997871  62.6900387
  62.3477745  69.5028305  62.0089483  12.3227562  23.3233458  32.9436374
  11.5392650  23.4405619  32.4063921  12.1743644  22.4989897  33.4069324
  82.2327998  48.1154448  61.2839651  82.9482511  48.5905081  60.8612537
  81.6025213  47.9567915  60.5812502  56.7102671  51.2120295  61.1355448
  57.4878502  51.3163614  61.6839123  56.5780592  52.0740271  60.7409382
  17.1352307  34.4550750   3.3850463  16.8849771  35.0087830   4.1246589
  17.8136746  33.8784167   3.7363418   9.9747909  11.1836153  47.5597239
  10.3607954  10.7771212  46.7838430   9.0302528  11.1245734  47.4162292
   3.8061250  16.1386782  37.6865721   4.1571773  15.5610663  38.3643317
   3.3545746  15.5506903  37.0810914  11.8755102  57.3014402  29.2759275
  11.2853312  57.4225378  28.5321164  12.1928060  58.1821299  29.4757771
   0.9923468  87.5121975  17.7873564   0.7717333  88.4224415  17.9848766
   1.9240008  87.5335693  17.5687289  90.0468795  66.4888811  23.7100577
  89.2460247  66.0055733  23.9132237  90.3113626  66.8758202  24.5446587
  55.1450637   3.5380751  34.3535066  55.9586504   3.1569964  34.6837831
  54.9038151   4.1926581  35.0089073  69.7762874  48.0228049  52.0741177
  69.3770221  47.7161795  51.2599945  69.3085411  48.8320834  52.2803116
  83.7170270   3.8324744  43.7713480  83.9577821   4.6170813  44.2639542
  82.7760795   3.7366015  43.9185286  84.8495057  27.8673750  76.2298012
  85.7643417  28.1247622  76.1155128  84.3489602  28.5767275  75.8266830
  62.2695398  64.3871975  24.4222951  62.8034163  64.3798876  23.6278415
  62.9046106  64.4290447  25.1372552  14.5907797  20.8766276  44.2099905
  13.6810459  21.0530287  44.4497681  14.7790874  20.0217539  44.5972395
  24.6259618  66.5319490  41.2776089  25.4210186  66.0044003  41.2013769
  24.0851140  66.2584925  40.5367088  52.1508935  12.5886065   1.4320418
  51.9649032  11.9274527   0.7653219  52.9054096  12.2424990   1.9086422
   4.3140901  16.2054354   5.5532354   3.6844267  15.7781798   6.1339307
   3.9825834  16.0328871   4.6720091  68.9552286  16.4424998  47.3686504
  69.6857861  16.9848543  47.6659203  69.3557838  15.8030802  46.7796421
  19.6373190   2.0053011  34.5334435  19.6083082   2.7816302  33.9742422
  19.9406351   1.3050848  33.9555812  77.2048187  61.8159676  54.6537971
  77.2243357  62.7563953  54.4764709  76.5987253  61.7233658  55.3888512
  86.1379433  44.5834827  61.4011669  85.9403229  43.7932777  61.9039106
  85.8055210  45.3003979  61.9413185  61.7057419  77.2809744  36.7701888
  62.6380539  77.4612188  36.8907499  61.6414881  76.9374228  35.8790779
  80.9091047  10.1875979  51.9879436  80.7384589   9.2731291  52.2134590
  81.7759469  10.3664213  52.3524141  63.3032969  18.3077627  33.6522627
  64.1252664  18.2970148  34.1426539  63.5589889  18.5470682  32.7614284
  46.7725706  58.1626558  44.7927666  46.9179249  57.5927830  45.5479813
  47.6516104  58.3633947  44.4714832  42.9851198  82.9990482  50.3728485
  43.0275822  82.9948807  51.3290977  42.8998709  82.0763493  50.1328659
  83.9972118  10.7750136  64.5445156  83.6431220  10.2894121  65.2895260
  84.2666915  10.0981337  63.9236736  76.8544582  37.6290613  39.3072009
  77.0303872  37.0590025  40.0557423  77.5568631  38.2789046  39.3307328
  68.0131558  36.5929133  62.0878315  68.9315704  36.3401991  61.9935894
  67.5399926  35.7622820  62.1368170  45.9715033  82.1638298  53.3236408
  45.2071476  82.6886368  53.0858135  45.6667233  81.6081619  54.0409803
  47.4320647  19.3770513  72.6034127  47.2733113  18.5004816  72.2532008
  48.3826300  19.4823131  72.5636850  20.8021569  42.7373886  50.7231855
  21.0448050  41.9218922  51.1617231  21.5648937  43.3050203  50.8339214
  56.5158701  70.4955482  28.6963773  56.1285543  69.6523333  28.4614062
  56.1491203  71.1124039  28.0629659  14.9928570  59.6750498  75.8839989
  15.8702290  59.3380547  75.7026625  14.4338846  59.2501211  75.2334452
  65.9604597  63.1243706  69.5497227  65.5530167  63.9786434  69.6926832
  66.6241884  63.2848167  68.8789368  55.1646280  66.2668514  46.8117666
  55.6985283  67.0612717  46.8205261  54.8514175  66.1788321  47.7119827
  53.0688381  76.0515070  35.3084254  53.9883184  75.8164692  35.4331017
  52.6445723  75.2321148  35.0538063  61.0599613  74.7688389  49.4277811
  61.8114185  74.7247028  50.0190496  60.4480267  74.1167021  49.7690821
  33.3421254  74.3271589  28.4433699  33.4489608  73.4128475  28.1809545
  32.6956916  74.6781635  27.8308749   5.8730906  68.1287432  21.4176989
   6.1295706  68.7018204  20.6951809   4.9617720  68.3611250  21.5958238
  56.8690157  63.3393383  22.1913171  57.4220276  63.6670971  21.4821053
  56.0879278  63.0045557  21.7508006  69.5809034   2.8466040  60.9211397
  68.9292267   3.0322367  60.2450562  70.3138164   3.4259993  60.7128716
  52.4956751  86.5248013  45.0787926  52.3864269  86.0576153  45.9070587
  52.6228046  87.4385166  45.3341532  66.2981799   4.7756487  40.7215691
  65.3773621   4.5580679  40.8664179  66.2900618   5.7011610  40.4774475
  58.9183044  86.0737610  30.7068896  58.0138445  86.2115002  30.4254460
  59.0980816  85.1576805  30.4954076  68.7032795  76.6321802  32.2545433
  69.2121363  77.3632908  31.9041467  68.1049967  76.3953686  31.5458751
  23.8301206  83.9682865  42.2378731  23.4088421  84.4317436  42.9617310
  23.1243730  83.8121986  41.6103458  76.1527777  48.5821009  60.5423450
  76.2375784  48.8204288  59.6191788  75.8754826  49.3902683  60.9738588
  59.6753693  68.2025194  23.2863927  58.9897060  68.5923767  23.8287091
  59.5525455  67.2585726  23.3869505  28.2876155  66.0951767  48.7220208
  29.1819140  65.8966598  48.9995996  28.3239075  67.0062599  48.4307258
  78.1811670  15.0974470  23.6381912  78.0068067  15.7056147  24.3564916
  78.4951547  14.3021971  24.0685606  58.0968761  66.4315796  73.2524347
  58.9095688  66.3728428  73.7547493  57.4854231  65.8614826  73.7186384
  17.3382199  45.1798630  45.4339647  17.2106838  44.6068048  44.6779442
  18.2638586  45.4210091  45.3982735  87.8628829   6.5137869  53.9497614
  88.6760095   6.5041357  53.4448195  87.7704337   7.4220091  54.2375565
  58.7115669  77.1430874  65.8065176  57.8378534  76.8140697  65.5953074
  59.0179396  77.5473976  64.9947929  33.9256171   3.9712817  14.1117287
  34.6995893   3.7206751  13.6073506  33.1867373   3.7141424  13.5602140
  57.6703405  87.9059124  76.8726063  57.5162029  87.3174953  76.1335278
  58.0816889  87.3531818  77.5370693  77.4232677  27.9384428  19.6075642
  78.2119087  28.1817728  20.0923967  77.5057796  28.3959681  18.7708497
  75.1470187  45.2739245  36.6386604  74.3422082  45.7457739  36.8528223
  75.4512122  45.6761557  35.8250856  73.2579234  23.3389956   7.3979682
  73.3334783  23.2562643   6.4473474  72.3385051  23.1472689   7.5827473
   8.9258064  22.5564581  52.0632887   8.4742035  23.0508238  52.7473211
   8.7902321  21.6393286  52.3014450  73.6410443  59.2111727   2.0318635
  74.5911614  59.3272731   2.0265658  73.4166162  59.0314814   1.1188634
  53.7162876  75.7191467  46.4916706  52.8853178  76.0825205  46.7977476
  54.0315247  75.1912069  47.2252512  69.4252256  16.3365847  53.4457541
  69.4906429  16.3051611  52.4913073  68.6430434  16.8617159  53.6150551
  80.5134106  74.0552902  55.0176334  81.4558029  73.9220428  54.9158096
  80.1972485  73.2408714  55.4087830  48.5302178  33.0450103   5.5544170
  48.8133828  32.1648595   5.3066524  48.7155454  33.1012341   6.4918216
   2.4820913  12.0240790   9.1785055   2.9559673  12.6575571   9.7173822
   1.6458620  11.9047266   9.6287322  66.9120577  33.6724192  53.5915899
  66.7695168  34.1635042  54.4007540  66.0666731  33.6986643  53.1434059
  61.6979980  77.4890995  43.1332445  60.9704208  77.4641705  42.5117636
  61.6613054  76.6428423  43.5790396  24.8696542  64.3862295  53.5588503
  25.6417918  64.8288441  53.2065296  25.1081300  63.4592533  53.5676575
  82.9414272  76.0482502  33.7396908  82.4055767  76.1699629  34.5234537
  82.7970505  76.8423796  33.2251525   7.4605526   2.0907313  42.3853779
   7.1405758   2.7577120  41.7779398   6.6833843   1.5793997  42.6107216
  79.0188599  31.3652205  62.7825260  79.6802235  31.5490150  63.4496498
  78.6831379  30.4983115  63.0105305  29.3470311  80.7992077  41.0940790
  30.1958895  80.4172611  41.3172197  29.5432782  81.4319706  40.4031849
  77.3123363   5.9109885  59.7265339  77.6004651   5.6898218  58.8409233
  77.0680717   5.0712496  60.1156425  86.3280201  85.4051876  50.5538034
  86.7956448  85.1474190  51.3482332  87.0136833  85.5015564  49.8928881
  73.9184526  27.5168997  66.0130596  73.2671502  28.1397063  65.6903362
  74.2320970  27.0695311  65.2271080  71.5202761  78.5091257  27.3501372
  71.5068769  79.2057467  28.0064678  71.4714384  77.6997757  27.8588653
  54.6280210  47.1191260   6.2808307  55.0621526  47.9554888   6.4489253
  54.3204610  47.1863219   5.3768809  71.9942045  80.9639072  70.4220772
  72.4059439  80.4235172  69.7477770  71.1550760  81.2234879  70.0416660
  12.2536911  15.5638510  60.5035400  11.4077390  15.2643591  60.8365536
  12.2770275  16.4973551  60.7139158  11.3346542   9.9923712  28.2553434
  10.7485117  10.7389361  28.1316137  12.2043527  10.3335482  28.0468893
   1.6366015  85.4325962  54.0460634   0.8551512  84.8983574  54.1880560
   1.4131365  86.2868309  54.4156218  79.6906948  80.2123928  57.7119017
  80.3487492  79.8164606  57.1405554  80.1096821  80.2468777  58.5718393
  29.1077245  44.2441756  48.9666319  28.4029306  43.6336047  49.1827345
  28.7349619  45.1095682  49.1350937  59.4575739  62.2330379  68.9665461
  59.2853737  61.7128468  68.1817055  58.6999750  62.8134203  69.0402079
  60.5325487   7.5128752  10.6117082  60.9666279   6.6621786  10.6760037
  61.1064890   8.1113726  11.0898530  21.1423792  24.8554999  71.3994455
  21.0970796  25.3771502  72.2007322  20.5950369  25.3298003  70.7736063
   0.4759420  16.8302161  23.8180041   1.2421430  16.3187128  23.5581398
   0.1928009  17.2634035  23.0127621  24.3959726   1.5358168  25.5714989
  24.3425764   1.2641722  24.6552062  24.1269697   2.4544150  25.5650568
  88.3255373  52.4453220  66.9946931  87.5399696  52.9353008  67.2376655
  89.0502249  52.9724750  67.3311041   4.5850671  19.3202120  69.2674446
   4.9319519  18.9562041  70.0819349   4.5289339  20.2617270  69.4306517
  10.8380140  24.8748690  38.8894320  11.1302150  25.0481325  39.7843242
  11.5251697  25.2472121  38.3367872  89.6724922  81.8594882   6.6961368
  90.3589875  81.8638655   7.3631747  89.3961507  82.7736041   6.6308482
  52.6923673  55.2771613   6.1419280  52.2645108  56.1149070   6.3189872
  53.4152333  55.2402922   6.7682918  89.6315575  77.0518827  44.8189926
  89.0141773  76.7737198  45.4955292  89.3018436  77.9024029  44.5289278
  31.6056792  59.1026732   5.7135757  32.2051303  59.2737624   6.4399512
  31.3050620  59.9698493   5.4417880  81.7148736  12.1206099  63.8634300
  82.3979715  11.7871195  64.4451427  81.5935424  11.4275366  63.2144642
  75.1141504  26.9228369   9.6401882  75.0377229  26.8392474  10.5906630
  74.7783569  26.0939127   9.2990792   5.4255430  55.4850241   9.6649345
   5.1535527  55.7416865   8.7838157   5.9558026  56.2190291   9.9752505
   6.7878164   8.0153471  43.3388996   5.8445610   7.9870516  43.1786060
   7.0461525   8.9034087  43.0922318  31.6094612  27.8095537   1.7743060
  30.9970414  27.3744589   2.3674887  31.1471246  28.5974127   1.4883700
   9.3227876   0.2622515  67.5623751  10.2193655   0.5378157  67.3714828
   9.2699684  -0.6318372  67.2246504  15.6740059  15.1560503  57.9435158
  15.7971967  14.7294623  57.0955324  15.5459703  14.4338709  58.5585785
  20.3091825  27.2531802  70.1334906  20.2549089  27.4881846  69.2071724
  21.1757959  27.5542265  70.4065895   1.1386312  39.1008002  44.1091204
   0.3047575  38.8714224  43.6989117   1.0594000  38.7810618  45.0078535
  45.2479903  47.8553435   5.1938422  45.1026551  47.2850940   4.4389041
  46.0232894  47.4925753   5.6222709  43.4973231   1.7154604  51.3285923
  43.8316682   0.8943564  50.9677076  43.2405284   2.2272402  50.5615425
  52.9974508  71.8018627  31.4785600  52.7936172  72.7239227  31.6350508
  53.0358839  71.4133883  32.3525405  72.7913287  16.0251337  52.0676517
  72.6290372  15.5700594  52.8939724  73.6496213  16.4328009  52.1832895
  92.5926879  38.8013750  39.2829704  92.9722932  39.4763953  38.7204075
  92.5163272  38.0331141  38.7171316  71.2678912  11.4841753  51.7734385
  70.4102472  11.1246687  52.0002317  71.7939046  10.7194334  51.5395212
  71.1049417  11.6608340  33.0895472  70.8070448  10.7801634  32.8616905
  70.3125289  12.1969420  33.0596232  68.9776757   4.6527964  12.1617448
  68.7730697   4.5841128  11.2291944  69.0786985   3.7463290  12.4521792
  79.5171645  12.5503737  21.3697410  79.5613864  12.7257353  22.3097014
  79.1810611  13.3622843  20.9901762  10.0211061   3.1765086  51.7517757
  10.0136102   2.2433573  51.9648457   9.1173614   3.4606940  51.8885899
  56.6721633  24.4303519  40.3211069  56.0828284  24.7079188  41.0224390
  57.4291352  25.0107867  40.4005766  14.9090446  30.6917578  33.2422328
  15.6494106  30.1271254  33.4642386  14.5351947  30.9400183  34.0877104
   1.4120640  27.0438963  49.0720367   1.8540586  27.7351958  49.5649576
   2.1161617  26.4538580  48.8030815  70.2520660  21.8488127  42.7554703
  70.2071193  22.0588690  43.6882544  71.1139253  22.1617895  42.4807405
  61.9721906  29.3990180   2.2652944  61.8221776  28.5747525   2.7282413
  61.2237946  29.4813964   1.6742452  91.2239888  34.5264059  21.7760348
  91.8868640  35.1867300  21.5740275  91.3152698  34.3753916  22.7168298
  67.3349380  66.3107824  58.6170530  66.7554760  65.9881830  57.9268503
  67.8648281  65.5513334  58.8593149  71.4772180   9.4700819  68.9993095
  72.4306110   9.5003325  68.9195824  71.2547448   8.5488421  68.8649035
   9.0675510   3.3473116  65.2183390   8.2149852   3.2932097  65.6501198
   9.6021761   3.8774210  65.8094358  39.5462908  11.3514048  65.8743191
  38.8423361  10.8576113  65.4537916  40.3470625  10.8969504  65.6126499
   9.4292892  14.3192488  20.3995967   9.0193857  14.5927435  21.2202120
   9.4913162  13.3665663  20.4687166  88.7940979  68.6951971  67.2046852
  88.1409073  69.1648531  66.6860390  89.0187359  67.9318762  66.6726065
  30.5870263  48.9528033   4.5098670  30.0599782  49.4248626   3.8651927
  31.3941352  48.7329051   4.0446361  85.2756027  27.7862746  13.3132792
  84.5319989  27.7839667  12.7105546  85.9742788  28.2273012  12.8299773
  26.3417594  50.5090663   1.3897594  25.7827632  50.8009860   2.1098550
  26.0380094  49.6224734   1.1950000  59.0374708  70.7683611  38.8476944
  59.9574327  70.8289576  39.1050458  58.8250303  69.8391294  38.9350700
  75.6160358  23.8848406  31.9803405  76.0360482  24.6034151  32.4530649
  74.7091344  24.1697222  31.8680859  73.0451396   8.6970431  51.9888115
  73.5232213   7.9645926  52.3776293  73.0285362   8.5018355  51.0518742
  76.1540556  50.8178329  11.9891393  76.8420362  51.2469101  12.4978745
  75.6604242  50.3107834  12.6337004  86.1947730  33.5772425  29.8431039
  86.8177465  33.0033499  30.2889562  85.5321697  32.9833609  29.4902873
  22.3364080  13.8232046  30.6763315  22.7859224  14.3949896  31.2986183
  21.6443552  14.3704039  30.3050351  65.9680223  87.6463509  75.1226664
  66.9164515  87.7077675  75.2364159  65.8199596  86.7481995  74.8266459
  69.4785516  23.7318942  16.8005736  68.8775174  24.3130442  17.2666724
  70.1840894  24.3060586  16.5025981  75.5151323  14.0949541  31.7036676
  75.0659707  14.9372393  31.7747712  75.5110791  13.7453848  32.5947428
  17.7786077  42.8801924  43.5193634  18.6917890  43.1610304  43.4605217
  17.6336015  42.3686034  42.7234459  91.1728719   3.9998728  44.4363165
  90.2688649   3.8473898  44.7115517  91.6995719   3.7529188  45.1964712
  74.4545269  74.4621992  26.6712403  75.0225067  75.0865459  27.1227026
  73.7606955  74.2700577  27.3020411  56.0161498   6.0668474  24.2936897
  56.4321926   6.6391760  24.9383378  55.4967073   6.6578394  23.7485886
   1.1487399  77.7444315  52.5437117   0.9571181  77.8490305  53.4756804
   1.5842352  78.5599518  52.2957230  50.1618341  14.1628367  71.4320660
  50.6325224  13.3491331  71.2515974  50.2330890  14.6657378  70.6207418
  28.3535592  50.0932929   5.8621104  28.6994903  50.1335379   4.9705108
  28.6101214  50.9269091   6.2564166  71.9146016   2.3005015  65.6554079
  72.0464614   1.8796641  66.5049648  71.2526706   2.9718500  65.8208418
  59.0730953  67.8306532  39.4097614  59.6761465  67.5154972  40.0829935
  59.5701313  67.7669954  38.5942030  92.4359563  24.2299658  60.8022690
  91.8960813  23.8560301  61.4986467  92.8916600  24.9613100  61.2190533
  65.9590578  71.3579845  51.8519688  65.0413990  71.2072897  52.0787430
  66.4477348  70.7696104  52.4275017  31.0523486  71.4536428  29.9960780
  31.2625122  70.6762552  30.5135107  30.3672671  71.8966007  30.4967594
  56.3584852  70.1930857  63.4518147  55.8802605  69.6093416  62.8629351
  56.8913174  69.6070766  63.9893198  68.1571511   6.9784743  46.7267513
  67.6492861   6.1806494  46.8743610  67.5047091   7.6787382  46.7137146
  18.2019914  42.8053671  69.6789312  18.3648504  41.9163233  69.3637896
  17.4573053  42.7160078  70.2736521  60.5426900  51.1853835  12.5978358
  61.2558095  50.5780932  12.7950175  60.7362954  51.9611212  13.1241305
  40.1296663  56.0149097  52.4486876  40.7643032  56.4429045  51.8739748
  39.5901561  55.4878378  51.8593216   1.7867721   7.8875071  70.0142479
   1.6652502   8.8028342  69.7619677   1.0172476   7.6810938  70.5447721
   6.3989843   8.6331374  52.4921465   6.9654716   9.4041830  52.4636364
   5.9079612   8.6662012  51.6711473  32.8188515  86.4251900  15.1089621
  31.8894958  86.5781879  15.2796161  33.1543159  86.0541534  15.9250665
  84.5242694  10.7760340  43.3403254  83.8477710  11.2824541  43.7899065
  85.1249984  11.4349085  42.9921389  49.2391729  77.8830814  49.2319059
  49.5070934  78.5432100  48.5926247  48.2882643  77.8292894  49.1364574
  14.0058912  29.0262038  60.4452515  14.1882623  28.4844786  61.2130404
  14.4782413  28.5971934  59.7317600  62.6547432  76.9400358  20.7478261
  63.2281160  77.4307871  20.1590657  63.0947065  76.9777060  21.5970874
  42.2486687  79.4511938  44.3661165  41.6651058  78.9521837  43.7945652
  42.0108747  80.3654575  44.2118073  87.5797656  34.8612410  25.3190875
  87.2366956  33.9794070  25.1745105  87.1724180  35.1455504  26.1372948
  87.4886608  59.8171473  63.5475636  88.1860924  59.5096350  64.1265726
  87.8220749  59.6566868  62.6647758  66.6109610  87.1254539  25.5467963
  66.8527985  87.1718979  24.6218157  65.7424498  87.5257683  25.5876803
  88.4415391   4.6513182  11.8508720  88.4890416   5.2656370  12.5833929
  88.6046794   3.7947279  12.2456849  71.9869089  82.1021938  55.0343132
  71.1062384  82.3225880  54.7308636  72.5484705  82.7744102  54.6482992
  12.2875754  26.7591187   8.8962539  12.0582644  26.7429826   9.8254378
  13.1728808  26.3967988   8.8617118  33.8307166  87.4524975  51.8583298
  34.7427082  87.3664856  51.5806532  33.4003139  86.6705513  51.5125751
  59.6114254  85.8286476  64.6033192  59.6809769  86.0223103  65.5381393
  60.5167389  85.7134724  64.3145752  68.6011914   4.9828535  68.9855289
  67.6903322   4.6893507  68.9648914  68.8555291   4.9099833  69.9054384
   2.7835671  29.9822613   9.8420413   3.5595290  29.9140403  10.3983386
   2.0995156  29.5211789  10.3275378  51.9333553  79.9286270  70.2225542
  51.2259579  79.4223166  70.6218910  51.6333914  80.8364677  70.2681112
   9.4538320  14.1681868  72.4187899  10.2943577  14.6261317  72.4135876
   9.5309700  13.5180479  71.7205000   3.2407297   2.3953158  51.7821693
   2.8636373   2.6505953  52.6241112   3.9477695   1.7915064  52.0096207
  58.1381273  71.2745571  75.8367014  57.8613949  70.8281851  75.0364494
  57.8646469  70.6901455  76.5437412  46.8384600  76.0807180  11.2051976
  47.5807762  75.5855608  11.5516365  47.1498632  76.9851160  11.1688244
  20.5810655  10.1453692  19.2478192  20.0245680   9.3754679  19.3652582
  21.4725221   9.8163515  19.3630254  64.4918394  82.7122307  22.5611234
  63.8393831  83.4044170  22.4542880  64.3097878  82.0994568  21.8486643
  84.5591357  25.0931746  39.5483041  85.3128389  25.6495577  39.7447586
  83.9141038  25.6892783  39.1677475  71.8562603  67.6578426  45.7145119
  71.8496513  66.7637014  45.3729010  70.9979343  68.0103779  45.4795027
  25.6923699  86.9823456  44.9879837  25.9206271  86.6608047  44.1157770
  25.4534769  87.8989792  44.8503923  54.2263031  86.1400223  58.5374117
  53.7237692  85.3264046  58.4958744  54.4820499  86.3101196  57.6308298
  83.6938623  12.0337111  17.1446264  82.8653720  12.0884043  17.6209056
  84.3582156  12.2706801  17.7917039  59.3085289  78.0563974  63.3979321
  59.8576260  77.5641632  62.7876616  58.9017248  78.7354994  62.8598213
  19.6771349  33.6873061  45.6589317  19.1401399  33.2230860  46.3010883
  19.9337782  33.0134589  45.0294018  28.7783298  10.5057055  38.2903075
  27.8823415  10.1835352  38.3885145  28.9304721  11.0332209  39.0744066
  72.3952583  22.0307356  33.0978179  72.7667192  22.4847323  33.8542151
  72.5121406  22.6419264  32.3704839  50.5193917  56.5725562   4.7107680
  50.7839887  57.2471663   5.3361686  50.9027307  55.7650229   5.0530704
   4.6376906  83.5923195  43.1511831   4.1109667  82.8463173  42.8643513
   5.1941214  83.7958241  42.3993826  80.2188304  16.9036013  47.1642303
  80.8183292  17.0992380  46.4441156  80.5114272  17.4682814  47.8795958
  93.4614518  59.8324972  65.5761242  93.2525686  60.4509836  66.2761831
  93.2782987  60.3134733  64.7690630  49.0843776   2.0293909  29.1370440
  49.7992137   1.9841868  29.7720218  49.5101145   1.9094092  28.2881713
  71.7604113  82.5618839  51.1740494  71.7464161  83.2371044  51.8523598
  72.4695110  81.9744492  51.4354610  71.8312553  13.5679919  50.1172161
  71.6856769  12.9861838  50.8632278  71.6686061  14.4457251  50.4626989
  41.6684930  23.8612363   2.2544129  42.4480741  24.4124028   2.3229440
  41.1853473  24.0280244   3.0637248   0.1014815  71.4369297  28.7812376
   0.3175364  70.5938482  28.3827734   0.9487639  71.8139601  29.0182829
  41.0720444  82.1169090  34.2040896  41.4780235  82.2424984  33.3463955
  41.3934660  81.2647915  34.4987512  48.6211984  63.5337970  14.5620998
  48.5162084  62.5992629  14.7405608  49.1176335  63.8661620  15.3099807
  40.3250504  70.7262945  39.3724346  40.5868912  71.4607382  38.8172150
  40.7710648  70.8841705  40.2045250  91.9264221  76.7677355  71.5654993
  91.0349083  76.9219637  71.2530136  92.4102974  77.5516558  71.3055706
  63.2796192  75.1769733  51.0048866  63.8229704  75.8810186  50.6508780
  63.7967539  74.8137188  51.7238092  14.7337593   3.7240511  31.5856910
  15.3905166   3.8623339  32.2681713  15.1069702   3.0405718  31.0291028
   7.7936182  60.7860994  36.6343069   7.5452624  60.4156685  37.4812603
   8.5812769  61.2978888  36.8184233  70.6205490   4.7001940  49.3996859
  69.8110011   5.0568682  49.7652674  70.4090050   3.7900358  49.1920996
  57.9436827  39.4367838  63.3785582  58.8182402  39.6101141  63.0302238
  57.4868298  38.9886713  62.6667213  16.1417290  75.1309166  73.7364618
  15.5829474  75.8537063  74.0220497  16.4377448  74.7213707  74.5494054
   6.6203083  48.9616305  45.8431482   5.9072555  48.3709246  46.0857344
   6.2940277  49.8340994  46.0635090  77.6635218  77.1338558  37.6744390
  78.4007311  76.5687561  37.9055667  77.1449757  77.1913099  38.4769607
  30.4060793  88.1222057   8.9971137  30.9013963  88.9412785   8.9931387
  30.2265048  87.9464149   8.0734891   3.3573402  16.4297873  57.7018785
   3.1951727  15.5498034  58.0418110   3.9173711  16.8413645  58.3600569
  31.4475131  80.7691956  38.9328241  30.9055209  81.4625263  38.5562968
  30.8896756  79.9916029  38.9128470  79.7415495  87.6074886  70.7589293
  80.0553131  87.4289417  69.8724174  79.8299026  86.7717361  71.2171316
  25.3350366   7.0001990  29.8638415  25.1692213   6.9579893  28.9220572
  25.3041185   7.9342371  30.0708461   0.9188808   1.4021403  43.1860971
   1.5602077   2.0483309  43.4816742   0.5485929   1.7797858  42.3882818
  61.2006105  21.4214331  10.1674807  61.9118799  22.0533091  10.0623405
  61.6306509  20.5673605  10.1243317  10.9575762  15.6666762  34.3342495
  10.3782858  16.0053736  35.0168467  10.4805959  14.9252039  33.9615011
  69.9687794   3.9765841  66.5707064  69.1933611   4.2618758  67.0539951
  69.7754076   4.1926962  65.6584930  20.4903043  22.9157168  76.2202787
  20.6973470  22.1851355  76.8030453  20.5689348  23.6929900  76.7733574
  71.1580709  19.0838629  28.0269384  72.0887712  18.8970476  28.1499124
  70.8198646  19.2097479  28.9135051  47.0106856  51.8537947  12.5002368
  47.1058909  50.9417769  12.7748092  46.1174600  52.0878455  12.7524074
  88.3316043   1.8809420  49.0989590  87.7888015   2.0871550  48.3379889
  88.9244560   1.1952025  48.7915182  79.8095798  84.4970989  11.0828483
  80.6863976  84.6686363  10.7393312  79.3856192  85.3551769  11.0965800
  67.9837111  31.7598349  46.4941597  68.9249757  31.9333273  46.4816904
  67.6030067  32.4663836  45.9725428  68.2950163  70.0669384  53.2695627
  68.4253359  69.6811962  54.1358519  68.6347914  70.9581232  53.3506298
  51.0400534  55.9890842  58.0641031  50.7814789  55.9658527  57.1427822
  51.0489225  56.9199324  58.2869816  31.5687704  82.8029633  68.2037592
  31.4488173  83.6930561  68.5348034  32.4686933  82.5786304  68.4404898
  24.3240179  34.2240340  70.6902218  23.9241518  34.7797018  70.0212145
  25.1027216  33.8623625  70.2670765  85.4804230  56.3778210  74.2390537
  86.3952160  56.6559935  74.1944456  85.4782104  55.6629848  74.8756361
  22.6727594  31.4254576  54.7874212  22.4840463  30.7752615  54.1107655
  21.8234171  31.6048247  55.1907587  10.5000128   0.5953699  64.2486477
   9.8419155   0.0581652  64.6897364  10.2205671   1.4966112  64.4095802
  83.5218143  61.7668390  58.3867264  83.6077023  61.2778425  59.2051029
  82.6234531  61.6002893  58.1013489  37.5997941  38.5926863   1.3718970
  37.4425141  39.3494174   1.9365724  37.4387137  37.8358218   1.9353183
   5.0228609   3.7740809  39.8052144   5.9262050   3.8247687  40.1176786
   5.0060524   2.9973131  39.2461205  19.3131937  27.2843176  21.9193077
  18.3769335  27.2935301  21.7203856  19.5201410  26.3596445  22.0549393
  90.5745891  15.1098639  36.8673468  90.5335286  14.3445498  36.2939048
  90.0553849  14.8636729  37.6328850  85.2673626  59.9471188  45.6661463
  85.8321857  60.6977034  45.4822206  85.4035759  59.3574572  44.9245405
  86.1256269  34.6804434  34.9668932  86.1294893  33.7516314  34.7355390
  85.7923463  35.1206499  34.1849899  70.8845881   0.5980879  64.0190601
  71.7056850   0.2361876  63.6858130  71.1459735   1.3864046  64.4949484
  82.7405933   2.0045668  60.5606461  82.3568586   2.6320845  59.9481153
  82.3820260   2.2519308  61.4129782  17.7408804  36.3999564  40.2663898
  16.8265833  36.3392836  40.5431652  18.2204736  36.6085631  41.0680819
  16.3362993   3.1846052  54.7311258  15.5313314   3.3755785  54.2496824
  17.0184768   3.6572939  54.2542219   5.5341686  24.0849787  56.2702179
   5.6319631  23.8612562  57.1957541   4.8055233  24.7053629  56.2494612
  66.7873812  83.1907749  11.9528222  67.0024967  82.3466206  12.3495030
  65.8375978  83.2642746  12.0463383  68.4489346  64.8440886  72.7194166
  68.9436674  65.5192327  72.2550440  67.9076910  65.3294182  73.3421040
  19.5550752  27.3103380  24.7872281  20.1582098  27.5005960  24.0687108
  19.4631684  26.3576174  24.7768831  77.5663616   2.4199280  26.0821509
  78.2805159   2.6824206  26.6629362  77.2939446   1.5627906  26.4097738
  53.6647193  76.2938803  18.3209622  54.5567583  76.6325265  18.3972275
  53.1203036  77.0743149  18.2172096  13.2139182  33.1842375  37.2227788
  13.8939559  33.5930681  37.7581644  12.9172409  33.8820195  36.6385555
  34.4208646  17.7372026  48.8433027  35.0163269  17.4284720  49.5261955
  34.8000622  17.4083531  48.0282593  26.4471149   5.6131446  44.3243408
  27.0774508   6.2605673  44.6401739  26.8358374   4.7689077  44.5532274
  14.3693125   0.1957836   8.6470616  13.9186943   0.1245699   9.4885510
  14.4312775   1.1375540   8.4874976  81.6658698  80.8997780  53.8936377
  81.6056644  79.9492222  53.9887714  81.3479768  81.2446105  54.7280645
   1.8989380  40.5372033  62.2864549   1.2330874  40.1444057  62.8508894
   1.6474469  40.2747566  61.4009575  19.9041259   7.4728060  52.4953318
  19.3694258   7.8895724  53.1710815  20.7772851   7.4141735  52.8831291
  40.4795038  68.8027686  23.8989806  40.3172098  69.7457975  23.9232492
  39.8589026  68.4366387  24.5290899  38.9141536  44.6718073   3.6895540
  38.9855456  45.2486181   4.4500935  39.7958493  44.6560860   3.3172661
  37.3624778  11.0060871  22.1488094  37.5524902  10.2528703  21.5895343
  38.2107687  11.2489986  22.5197935  54.1355400  84.4475260  24.3320584
  53.2301091  84.7439372  24.2395020  54.5988910  84.8622104  23.6043382
  11.8482873  80.4899532  33.0165005  11.3379237  81.0553873  32.4368072
  11.4426991  79.6274763  32.9278040  21.4863753  17.4440217  29.8855162
  20.8146954  18.0516970  29.5759869  22.0123601  17.2526133  29.1090274
  17.4388504   5.5565661  20.1001430  17.2263026   5.1453501  20.9379721
  18.1638348   6.1484402  20.3009272  10.0446200  10.2658856  18.6196005
  10.0832510  10.0442672  17.6892114  10.0907028   9.4219691  19.0689480
   6.9259155  24.0743566  32.2288179   6.9343263  24.8362374  32.8082132
   6.6776204  23.3446121  32.7963161   3.0393258  10.2621090  36.8925214
   2.5871769  10.9759712  37.3421812   3.3048943  10.6378639  36.0531688
  75.8332541   7.6391494  63.9758587  76.1175396   8.5318744  64.1719627
  76.1081662   7.4936491  63.0706024  12.8472137  24.2744184  42.9123163
  13.7999713  24.3661118  42.9210758  12.5640190  24.7889042  42.1564484
  84.2468860  40.1808739  37.4154973  84.0193202  39.7071433  36.6154838
  84.5626982  41.0308743  37.1089053   8.0996248  54.6991318  43.9480305
   8.1665608  54.3268245  44.8273134   8.3356926  53.9783305  43.3641243
  10.1337302  28.6186171  37.7264309   9.5290971  28.0159616  38.1593966
   9.7223973  29.4779921  37.8186798   0.5475256  16.2738383  60.7608271
  -0.0180383  15.5553138  61.0438299   1.4273055  15.8968294  60.7517147
  31.5606642  46.1542368  47.7866650  30.9149647  46.6807652  48.2579088
  31.2966490  45.2487946  47.9500723  86.0174047  74.4154066  47.0696878
  85.8010732  73.9774436  47.8928614  85.4905115  73.9621228  46.4115477
  69.3327730  58.7353057  50.2460909  70.1990269  58.4019011  50.4799223
  68.8121169  57.9504436  50.0753880   9.8091817  57.4579811  54.1165638
   8.8913423  57.1982861  54.0368080   9.8056453  58.4019613  53.9580822
  38.0763650  13.8402808  62.4387074  37.3175907  13.7933314  63.0203295
  38.7910938  13.4553516  62.9458809  19.5969164   7.9309171  27.8297877
  20.3897119   8.4521699  27.7032804  19.1884553   7.9023528  26.9645858
  24.5733428  31.4124203  25.9126163  24.9388933  30.5534315  26.1241341
  24.5402217  31.8718386  26.7517066  18.6522579   6.7484295  41.7933655
  17.7258241   6.7022383  42.0296240  19.1141856   6.4455426  42.5751019
  57.0383175  22.4292567  69.0637581  57.0519622  22.5451687  68.1137006
  56.5761478  23.2003287  69.3925087  75.3142940  79.6853685  11.8863308
  75.3272198  80.5416375  11.4586997  75.5455672  79.0676916  11.1926305
  26.5467978   8.2167739  59.2591667  27.1811342   7.5603622  59.5472097
  27.0370269   8.7748784  58.6554909  19.5650768  10.3391123  42.5943851
  18.8906896  10.4338813  43.2670307  19.0780509  10.2944040  41.7715645
  92.5996410  86.9468646  61.4841986  92.8505145  86.8744545  60.5633020
  91.6613542  87.1349819  61.4627504  18.8237238  18.8869178   7.5033188
  17.9019809  18.9899600   7.7399719  18.8755167  18.0127025   7.1169275
  12.8032634  88.4265489  47.2853994  13.4018132  87.8262630  46.8408489
  13.3654210  89.1322348  47.6051140   3.5676572  83.4126079  53.2435799
   3.4824893  82.6149934  53.7658739   2.8007194  83.9352858  53.4777689
  20.3693959  76.0100740  57.3333979  19.5343682  76.4681667  57.4288607
  20.9893224  76.6929811  57.0773506   7.3183390  59.6855444   8.5154772
   8.0026027  59.0880102   8.2138646   7.7695438  60.2868217   9.1080230
  60.5717604  79.0016037  67.1539307  60.8483827  79.5238930  66.4009857
  59.9121054  78.4041351  66.8016243  23.1145597  36.1904263  59.5486164
  23.0831718  36.2093234  58.5921192  23.9612722  35.7933497  59.7526789
   7.9240057  86.9177546  34.3415117   7.3321411  86.8613779  35.0916791
   8.2858226  87.8027239  34.3878722  79.1096105  17.7186549  34.6950340
  78.6123576  17.0797789  34.1843390  78.5030701  18.0030644  35.3787374
   8.5294527  19.7862673  52.4612284   8.7094665  19.2002213  51.7261267
   7.6515228  19.5412040  52.7534866   8.1989914   1.6482912  31.2677240
   8.2467526   2.0686084  30.4090714   7.2727197   1.4336795  31.3781500
  26.5017697  77.4266237  58.6309338  25.7663104  77.5482422  59.2313862
  27.2240302  77.9061776  59.0366459  40.1716614  15.1130915  68.5191917
  39.7338986  14.2624438  68.4876251  41.0128736  14.9341035  68.9393759
  15.8746219  14.9360514  42.4740744  15.6541944  15.7564569  42.0329618
  15.0447667  14.4619143  42.5266647   5.8064985  33.9131761   8.7938583
   6.7178702  33.9483309   9.0843689   5.5209190  34.8267746   8.7900352
  15.9104478  18.1282544  14.8900831  16.7515326  18.3039951  14.4682741
  15.5400336  17.3999119  14.3915427  41.6359933  32.5889459  76.4835298
  40.7224955  32.8193084  76.6529029  42.0683010  33.4273914  76.3212007
  24.3606707  65.2250403  49.1634274  24.2659041  65.3296345  48.2166910
  25.2198788  64.8180622  49.2746210  15.8574200   8.2095283  34.1051364
  15.0944912   8.6494637  34.4801426  15.9818745   7.4357665  34.6547127
  78.7730717  14.9650631  76.5350181  78.2701443  15.4698906  75.8959220
  79.5238255  15.5214557  76.7424498  63.7637217  81.5243053  29.3508339
  64.0434170  82.1266323  28.6614823  63.6832815  82.0735228  30.1306558
  75.8255206  76.4090913  27.7747703  76.1454116  76.9726950  28.4792209
  75.3550314  77.0018822  27.1887064  69.4423969  15.7586816  71.5220211
  68.8909777  16.0984805  72.2267933  70.2889641  16.1857060  71.6531972
  73.9955174  55.2611560  19.1616714  73.8076698  54.8436016  18.3210802
  73.2472001  55.0349325  19.7140098  82.0679839  59.8278549  69.3297623
  82.8699286  59.4671491  69.7079293  81.6079600  60.2192262  70.0723515
  75.1878141  86.2082028  22.5674796  76.0193228  85.8758110  22.2293353
  75.1637768  87.1230857  22.2870445  84.3333279  47.1707338   5.2894562
  84.4197594  47.3345274   6.2285691  84.0316473  48.0040401   4.9277580
   4.3208003   0.5634922  46.1968184   5.0448430   1.1865079  46.1348057
   3.6638731   0.8981980  45.5863667  84.2633497  88.0234338  58.9990139
  84.1769015  87.3293175  59.6524334  83.3836256  88.3932836  58.9246464
  93.2815103  17.0453370  14.1095567  93.3562153  17.6175487  13.3458650
  94.1386696  16.6249299  14.1786075  19.5434201  53.8125086  32.4758196
  20.0745893  53.9638329  31.6940308  18.6697447  54.1207123  32.2351313
  88.9130603  85.2380297  32.9386210  89.2127572  84.7281122  33.6912155
  89.7164594  85.4794928  32.4776673  66.9118132  47.3690271  60.8473063
  66.8854727  48.2889843  61.1104012  67.3908844  46.9321585  61.5514851
  20.8537817   2.3695728  31.9301605  20.9123254   3.1874359  31.4362955
  21.1096716   1.6926289  31.3036633  30.1567817  40.3637028  14.4725299
  30.2394795  40.0481033  15.3724134  29.3346763  40.8539248  14.4652379
  15.7004881  29.8269653  28.5643673  14.9940836  29.7060251  29.1988730
  16.0569334  28.9484596  28.4324360  75.5447896  70.1775053  75.2337432
  76.3826640  70.4002741  75.6394194  75.2498515  70.9935621  74.8296441
  16.5470672  17.6281857  35.8535290  16.2840033  16.7266345  35.6684995
  17.3254728  17.7661169  35.3138137  54.6769364  15.3178862  68.7129955
  54.7286971  16.0793141  68.1352572  54.9402936  15.6500676  69.5712094
  60.6348398  31.9156018   8.0096992  60.9763983  32.1125403   8.8819297
  61.2925795  31.3401642   7.6192172  33.9988184  23.6153078   7.6663637
  33.7644529  23.4910893   8.5860777  34.9479723  23.7388182   7.6756394
  79.8135104   1.0852257  50.2589417  79.7350730   0.1329143  50.3153515
  79.2828240   1.3246717  49.4991589   5.6472441  85.5074677  17.4730015
   6.1046645  84.6997523  17.7066588   4.8737928  85.2139917  16.9914663
  91.2556021   8.7623465  18.0721211  90.5576872   8.1093055  18.0203164
  91.8134712   8.5771388  17.3166656  45.2993038  44.7892395   6.6411765
  44.9777559  44.0575811   7.1679767  44.6473876  44.8896546   5.9475215
  73.9812814  60.8405131   9.7643369  74.1611885  61.0315078   8.8438010
  74.7675406  60.3907317  10.0737309  15.6862140  20.1089811  16.7435431
  16.4074969  20.6327176  16.3947129  15.2900922  19.7031689  15.9724164
  49.0748261  73.2020849  28.5282111  49.5628725  72.6197165  29.1103530
  49.2688035  74.0817922  28.8518143  65.7315636   9.0805244  31.3415766
  65.1645279   8.5312188  30.8003139  65.8009672   9.9033248  30.8574104
  23.3864999  34.2555451  54.6898985  23.1980133  33.3173108  54.7104311
  22.6211810  34.6443796  54.2664289  27.5985456  16.2103927  12.1034217
  27.6800966  16.9229686  11.4695323  26.9878840  15.5961156  11.6960049
  12.0156550   3.2806563  31.7432499  12.9120588   3.6159903  31.7588949
  11.6398919   3.6389717  30.9391069  43.6485529   6.0277212  13.8297117
  43.6419678   6.9274253  13.5030293  44.2511845   6.0472554  14.5731413
  48.9299771  84.0215141  45.7588577  49.2540261  84.8966372  45.5458212
  48.0802771  84.1747668  46.1720896  13.5467184   8.4301120  35.6471229
  13.2154489   9.2362565  36.0428786  13.4251845   7.7637506  36.3234544
   9.7216100   4.5712122  35.7713795   9.8557425   3.9565656  35.0499582
   8.8489509   4.3624911  36.1047459  69.5317929  69.2644066   7.5211674
  68.8346695  68.9088505   6.9699585  69.5206385  68.7155026   8.3052671
  69.0012633  85.0060490  26.2080002  69.5071499  85.5907053  26.7723465
  68.2849251  85.5499235  25.8804464  12.2726691  13.8256311  22.0752788
  13.1308472  13.5822022  21.7281413  11.6476512  13.3853555  21.4993095
  19.2286503  11.7835140  74.5289040  18.6474597  11.3745451  75.1701450
  20.0936151  11.7562652  74.9379587   6.2226290  12.4107838   7.5472695
   5.8982772  13.0188298   8.2115793   5.7212567  11.6083181   7.6918626
  53.7933874   1.4134137  29.2079401  53.9035225   0.5204253  28.8813305
  54.6419239   1.8299378  29.0571856  68.2805871  88.2723526  40.5721092
  69.0997307  88.1898838  41.0604095  68.2186447  87.4601817  40.0693464
  17.2062683  21.4157367  42.9869413  16.3034666  21.4574432  43.3022833
  17.6729238  20.9219623  43.6612177  84.8480140  82.4967474  40.0478458
  85.2907168  83.1057948  40.6388712  83.9155661  82.6508141  40.1996231
  23.1667089   2.9496297  29.2233896  23.8561726   3.3328345  28.6811471
  22.7150011   3.7027889  29.6041036  52.5950480  23.1383657  39.5591879
  52.7432537  24.0048480  39.9379706  52.7923012  23.2467484  38.6288238
  75.7629778  51.2356615  62.0539904  76.6238513  51.0491371  62.4286032
  75.4810681  52.0397139  62.4901819  69.1366448  28.3208036  44.1043568
  69.5330085  29.1893268  44.0351057  68.7636318  28.2973313  44.9855709
  88.2443662   7.3881024  68.4561205  88.2280352   7.8597814  69.2888784
  88.5574671   6.5124559  68.6829281  16.0995996  18.3917463  53.3263159
  15.7077599  17.9266798  52.5871229  17.0090401  18.0935788  53.3419752
  81.7190718  67.3165458  51.3303518  82.6056968  67.4456042  50.9934950
  81.1581861  67.3745125  50.5568647  45.4434608  82.7230155  47.6913023
  45.5670153  83.6163425  47.3704720  44.5744585  82.4736375  47.3768568
  37.6721978  36.0189462  50.2041149  38.0392265  36.7085648  49.6509838
  37.4337864  36.4651465  51.0166979  28.5913515  18.8231695  39.0562105
  29.3078423  18.5770559  39.6412778  27.9377317  18.1340206  39.1749001
  29.8259759  28.8132262  31.4429545  29.7228885  28.5376477  30.5320978
  28.9448643  29.0671253  31.7175555   5.0262064  38.1475925  67.6637793
   4.9058753  39.0937614  67.7444935   4.4141960  37.8861451  66.9757986
  71.9051318  77.8102022  55.9309435  71.5757643  78.1108838  55.0839853
  72.0415269  78.6132485  56.4336824  60.5682914  74.4047028  37.0875120
  60.8776445  73.5086292  36.9549036  61.1233989  74.9365860  36.5172601
  24.2304921  39.5150137  34.8610353  25.1772070  39.4866920  34.9994516
  23.8569093  39.3042350  35.7167459  88.0098571  39.0708423  36.1025667
  88.8687064  39.0510225  35.6804109  87.5161602  39.7268248  35.6104469
  90.3177684   1.1868270  53.6809015  89.9027841   0.6233393  53.0278301
  90.9606655   0.6224870  54.1103601  20.1533675   4.5638752  59.0453386
  20.0173020   4.6955359  59.9836254  20.9189868   3.9918217  58.9922953
  90.8355631   5.2288043  35.7872868  90.9584095   6.1550438  35.9951830
  91.4972713   4.7761482  36.3102365  77.5192224  79.5899600  46.8582106
  76.9629477  79.0030414  46.3460398  77.8702389  80.2076542  46.2167454
  58.5399284  84.8714980  11.1284244  58.5659643  85.6535175  11.6797853
  59.1132073  85.0794303  10.3906250   7.2669917  20.8507609  58.6112261
   7.5685108  19.9715137  58.3826590   7.5337321  21.3954830  57.8707123
  15.7401940  85.1967439  40.4698753  15.8925196  84.3052748  40.7834244
  14.7905251  85.2547690  40.3650331  20.4485178  20.0511479  40.7210398
  21.1702490  20.0392818  41.3496876  20.2569246  19.1274452  40.5588818
  52.5372696  22.1297479  27.9932690  52.4937487  21.5158439  27.2601509
  51.9034529  21.7922688  28.6262131  47.6521944  79.9408752  23.0235577
  47.2152435  79.9110204  22.1724319  47.8856360  79.0304840  23.2050085
  59.8445003  73.9783508  27.8105950  60.6642001  74.0940732  28.2911491
  59.2530413  74.6310955  28.1852055  26.7880225  14.7121704  66.0796356
  26.2866950  15.1530111  65.3936577  26.1379933  14.1979110  66.5584135
  50.9117969  15.6470302  69.1498033  50.2457316  15.1502589  68.6746119
  51.6399749  15.7221297  68.5330800  85.1528131  70.6121963  43.3840752
  84.6971523  71.4167505  43.6316633  84.6079861  70.2304739  42.6958323
  58.9712627  49.9153921  74.3729038  58.7069304  49.8973617  75.2927053
  59.4865687  49.1172397  74.2560963  32.5071904  53.4665984  23.3274770
  32.7361867  54.3391913  23.6474347  31.5637442  53.3978051  23.4737849
  52.3934673  51.0308212  59.8551798  52.1354507  51.4593095  59.0390539
  52.5964760  51.7522186  60.4506683  24.4077659  36.6485500  17.2545707
  25.0136709  37.3868680  17.1913552  24.9408984  35.9295559  17.5937593
  83.4540402  76.5770882  53.3682632  83.3803164  75.9397286  52.6579332
  84.2876064  77.0193618  53.2076597  14.8624063  14.0368271  47.5270844
  15.2361536  14.1857886  46.6585493  15.5456758  14.3216491  48.1339216
  10.3767669  18.1622159  44.3874359  10.4651904  19.0413821  44.0193605
  10.6350970  17.5772619  43.6751652  29.2816353  27.3500824  20.9499407
  28.7117553  28.1125927  21.0501719  29.0174007  26.7592359  21.6551423
  73.0790793  72.7833813  13.0156732  72.2664468  73.1687635  12.6880431
  73.5146998  73.4997171  13.4775484  41.5225326  83.9827472  14.4606876
  41.4892303  84.8767969  14.8009777  40.6826602  83.5990363  14.7128987
  39.6018720   3.3123982  39.0039778  40.0078154   3.7442964  39.7555780
  40.0391912   2.4625835  38.9510822  74.0008496  87.5521325   8.9202797
  73.8164209  87.1390796   8.0767131  73.7354921  86.9004129   9.5691854
  22.6773047  11.8965948  64.8819351  23.1277490  11.0953963  64.6147013
  22.4252534  12.3155141  64.0590048  39.9717617  24.9350357  34.9149895
  40.2143097  25.8601475  34.9546242  39.0414357  24.9215007  35.1398087
  22.3435426  24.1551661  59.5655489  23.0549073  23.5605764  59.3275166
  21.6074300  23.8785458  59.0197897  70.5046915  54.5568389  32.3703551
  69.8072277  54.9410480  31.8391681  71.0653024  54.1054219  31.7393494
  84.9489876   8.5282683  52.4173450  85.7199361   8.9520323  52.7945614
  84.5071354   8.1256378  53.1649303  37.0365047  32.6818776  27.5615001
  36.6408277  31.9882226  28.0892444  36.7886257  32.4692297  26.6617393
  34.5444798  68.5062218  32.1342993  34.6986508  67.5617123  32.1533513
  34.4875121  68.7582445  33.0559659  37.2358023  71.3751906  29.3151832
  37.4054228  70.8080572  30.0673938  36.6025125  72.0167893  29.6369410
  34.8428106  18.9242816  20.4201674  35.1557612  19.7891343  20.1549840
  33.9027381  19.0413868  20.5572176  92.4260794  81.3958925  56.0289335
  92.5487791  82.2335595  56.4755774  93.0698906  80.8131719  56.4316463
   1.8375346  74.5259398  39.9665737   1.1720821  74.5654291  40.6534863
   2.6255652  74.2175776  40.4139566   1.7367908   4.5497161  17.4987054
   2.2233619   5.3021592  17.8353202   0.8187176   4.7653857  17.6625943
  50.2083015  12.2014797  46.7409277  50.1635313  12.6478744  45.8953762
  49.8344946  11.3360548  46.5749741  18.9979768  29.9522901  43.0441713
  19.9469793  30.0378180  42.9530001  18.8717711  29.0869141  43.4333086
  73.7864660  71.0660523  39.5409274  74.1486501  70.5797571  40.2815819
  74.5503138  71.3108200  39.0185714  52.9891729  12.2544920  39.0369010
  53.6640644  12.9070520  39.2237663  52.5072050  12.6147890  38.2925057
  35.9051871  11.2769914  24.4076777  36.5259194  11.6070235  23.7580585
  35.0444388  11.4579403  24.0300512  24.5811009   0.9881067  30.8643174
  24.3445563   0.1713971  30.4246974  24.3357682   1.6740796  30.2434421
  27.6687431  45.0324774  12.0271552  27.3445344  45.1703835  12.9171562
  27.5205874  45.8689260  11.5859818  18.8059390  19.4384289  30.8841276
  18.8634133  19.8578072  30.0256109  19.0069067  20.1376390  31.5061831
  91.9803821  69.9976557  36.5781903  92.5594031  69.2536253  36.4127040
  92.4107014  70.7364148  36.1477327  49.0592861   5.5642599  28.6397028
  49.7189093   4.9070188  28.8614225  49.2783117   5.8317971  27.7471328
  10.0587985  81.5591800  56.7589140  10.2411219  81.6871017  55.8279848
   9.1971776  81.9547146  56.8907881  90.1090108  77.9150349  24.6372986
  89.4462453  77.3785907  25.0722694  90.8743154  77.3438436  24.5718813
  26.6517925   4.1444173  58.8399601  26.1246657   3.4181422  59.1729641
  26.7693615   4.7209328  59.5949697  12.9418418  67.0642728  14.2013013
  12.6713320  66.1568159  14.3412125  12.6111695  67.5335783  14.9672246
  18.1345880  38.5966802  38.5380721  17.9935932  37.8780651  39.1544652
  18.9329624  39.0245247  38.8475537  20.8742806  85.9786785   3.5384738
  21.5051696  86.3649008   4.1459671  20.1907965  86.6427691   3.4486845
  62.7188615  64.0036815  15.7356143  63.5476765  64.4705123  15.8422291
  62.0645510  64.5861357  16.1214328  21.4026999   2.8101411  39.3209863
  21.8856812   2.0345733  39.6063924  21.0180449   2.5573564  38.4817171
  94.3806325  68.4432477  49.7234726  94.3028532  69.3933517  49.8099947
  93.4834396  68.1207389  49.8087025  22.4819732  14.8598969  57.2451591
  22.5263548  14.3492556  58.0535603  22.3911166  14.2050827  56.5529203
   9.8778951  19.5807421  39.6754622   9.7449654  20.3421640  39.1108394
  10.1305854  18.8789344  39.0755916  19.0693665   3.0812645   6.8707287
  18.3675373   2.6591235   6.3752848  19.0841973   3.9813977   6.5455031
  86.9435011  71.5671855  10.5555689  87.7810179  71.6782373  10.1056087
  86.6880761  72.4542957  10.8086026  76.1991217  40.1832438  51.9885635
  75.7526495  40.1929855  52.8352022  76.8880012  39.5262313  52.0886087
   2.5210455  25.1684237  55.7925272   2.8910464  25.1616645  56.6753006
   2.0406365  25.9946990  55.7405043   2.1714970  18.1713390  25.6063223
   2.5219163  18.9324069  25.1434898   1.5218139  17.8045535  25.0066471
  26.5860009   9.8345524  27.5915241  25.9100461  10.0160241  28.2445049
  27.3400998  10.3499091  27.8778315  37.8149104  12.2136617  38.9860702
  37.7510858  11.9966602  38.0559778  37.4390531  13.0913901  39.0535688
  41.6092870  88.0376731  30.3053927  42.2810504  87.3604354  30.2259302
  40.9102771  87.7518433  29.7172475  87.1239199  42.8066730  30.3183556
  86.5348192  43.5584831  30.3813624  86.5418275  42.0469761  30.3021145
  14.1101766  10.4847538  27.9452109  14.5727539  11.1796403  27.4768233
  14.6254194  10.3476834  28.7401748  85.3511201  50.5325359  63.6099958
  85.6956326  49.6464223  63.4988785  85.0802909  50.5709404  64.5272779
   9.8925158  88.2795628  12.7483761   9.0959641  88.7901257  12.8935134
  10.0041720  88.2749738  11.7977214  10.2983662  61.5553898  56.6692400
  10.7666394  61.5876692  55.8350277  10.7432458  62.2006386  57.2187567
  22.3966195  61.5322843  60.1940910  22.9737504  62.2764483  60.3654723
  22.0400121  61.7015925  59.3220834  70.2120333  87.6143572  27.4013567
  69.8144578  88.4505707  27.6440740  71.1242490  87.8301361  27.2076201
   7.3843489   8.6657679  28.0662870   6.8145094   8.3122897  27.3832273
   7.9837046   7.9486459  28.2730246  28.1140924   6.1913520  32.1916056
  28.8138628   5.6762010  31.7901444  27.8034163   5.6492573  32.9167557
  24.6841383   5.5184060  34.8313761  24.6290112   5.1612508  33.9450169
  23.7967205   5.8217186  35.0230050  16.8951464   4.9393794  32.8049827
  17.8057253   4.7852147  33.0566001  16.4778590   5.2640831  33.6028981
  41.5327263  30.3005958  17.0522487  41.7136192  31.1245656  16.5999424
  40.6710672  30.0351048  16.7308652  87.8825720   6.2763685  41.2267399
  86.9856473   5.9428364  41.2494230  88.2016124   6.1666965  42.1225214
  33.4803820  21.1257148  10.4923725  34.0989637  20.5348420  10.9218597
  33.2874990  20.7033658   9.6553248  39.5698619  31.7426777  31.4329648
  38.8860750  32.3284149  31.7578912  40.2719736  31.8120694  32.0798445
   5.8503067  21.0110641  24.3768358   6.4130968  21.1421418  23.6137390
   6.3562530  20.4368782  24.9517798  25.8069181   9.7747564  38.4325528
  25.0268078   9.3010038  38.1440783  25.7598758   9.7541237  39.3883753
   9.9419338  53.3717871  50.1527214  10.7528424  53.2651806  49.6554375
   9.2811012  53.5785389  49.4918251  65.7340452  12.3963305   9.7741397
  65.1789104  11.9146153   9.1609462  66.6043890  12.3757407   9.3762572
  69.2854278  85.4321232  37.8487825  69.3500303  85.6553289  38.7773490
  70.1936721  85.3816432  37.5508308  14.0939951  58.7669230  25.2567744
  13.6010551  59.5146036  25.5947256  14.9744511  59.1099024  25.1038241
   5.8731979  86.4157200  22.2040153   6.3011229  86.1165905  23.0062842
   5.0498950  86.8027401  22.5016975  23.1519938  14.3687367   9.3941289
  23.0333805  13.8348770   8.6085349  22.2842646  14.3979096   9.7971481
  54.0797234  18.5410917  15.9138632  54.6021891  19.3031907  16.1638021
  53.9720917  18.0474257  16.7268455  46.2093544  67.0041704   8.1622112
  46.8809080  67.1904612   8.8183701  46.2103367  66.0502815   8.0826336
  77.5221061  87.7085528  29.9521756  77.6259695  87.2767805  30.8001232
  78.4160363  87.8173204  29.6276927  45.0460752  52.7986720  76.9408642
  45.9154685  53.0438575  77.2575183  45.0284668  53.0994383  76.0323152
  34.9412799  26.4090371  39.6425986  34.4489408  25.9887195  40.3477001
  34.5867538  27.2971058  39.5992875  14.8677754  30.3211713  18.7015688
  14.3593717  29.5526075  18.4425950  14.2137623  30.9477472  19.0112448
   3.0999929  30.1200485  35.6623006   3.4218118  30.9975171  35.8689761
   3.0431888  29.6798539  36.5103769  69.2397594  14.7569358  36.5168214
  69.0905762  15.6620336  36.7902684  68.3713531  14.4325495  36.2783408
   1.9111368  46.8006992  19.8619998   2.0173824  47.5543737  19.2815518
   1.2783284  47.0914698  20.5186868  30.0197172  77.8548241  47.9229927
  29.4819975  78.2727814  47.2503805  29.5760489  77.0261049  48.1035709
  49.7691727   5.0450963  33.3020830  50.2397776   4.3602109  33.7771606
  48.8583803   4.7507131  33.2973337   7.4360901  35.5895019  48.7810898
   7.3332894  35.1425672  49.6212769   7.4381012  36.5204573  49.0036821
  35.5332136  73.4818363  10.2612591  35.6163406  72.9610252   9.4624621
  36.2418985  73.1710434  10.8246493  35.0460005  20.6675553   0.0509634
  34.9978900  20.2678132   0.9193659  34.7481489  21.5673566   0.1846565
  45.8401588  63.5102120  14.4810184  46.6635409  63.3981171  14.9561103
  46.0983649  63.8870910  13.6398776  37.2742009  37.0390582  38.4677863
  36.4470458  37.4370313  38.7391973  37.7248025  36.8398452  39.2884588
  48.9608526  25.4476404  47.0900631  49.6464014  25.1784730  46.4786673
  48.6327982  24.6272945  47.4583626  78.4305431  50.7803154  21.0286450
  78.3311870  50.5541420  21.9534183  78.3785786  49.9417305  20.5700564
  90.0441461  44.5392847  53.1070185  89.1902461  44.5162153  53.5389376
  89.8395725  44.5421886  52.1719360  56.6531134  84.6767235   6.8437332
  55.8421326  85.0034714   7.2333187  56.4228487  83.8136101   6.4998454
  32.5910878  20.8686447  34.5534492  32.9136443  19.9839580  34.7252560
  33.3770990  21.4149117  34.5562387  44.2465019   5.4439253  54.0523338
  43.4384108   5.2153778  54.5116711  43.9519691   5.8496666  53.2369471
  52.6137733  33.1809020  14.0163398  52.6060438  33.1019902  14.9702501
  52.7915239  32.2937083  13.7040496  47.3680639  59.3799639  31.8335748
  47.8559923  58.5960293  32.0857668  46.4843464  59.0625906  31.6477084
  32.3462176  13.3146870  41.6289330  31.5957522  13.8255858  41.3255930
  33.0869675  13.9178538  41.5679884  28.2102633  27.5462770  70.8458757
  27.8091908  28.4119296  70.9234285  27.5903678  27.0413828  70.3195286
  60.0855732  44.8713303  24.8596406  60.3042889  45.3120661  24.0385771
  59.1441584  44.7085333  24.8006988  87.8921472  65.6131357  25.6411576
  88.3026229  65.1688403  26.3830090  88.1178342  66.5357536  25.7598019
  25.8868289  54.5884514  42.3423004  25.4972601  54.3547058  41.4997864
  26.7271399  54.9867105  42.1153736  40.1727152  18.6283457  46.1321735
  39.2311478  18.5168099  46.0008621  40.3989267  17.9842603  46.8031549
  72.3662414   8.8317138  49.2929983  71.5782942   8.6386520  48.7849665
  72.7703824   9.5698941  48.8369370  13.7217343  12.0708907  39.1751838
  14.2322850  12.8797555  39.1390204  13.1290364  12.1947062  39.9165416
  41.8668222  70.5242395  46.1654139  41.8709946  69.6149492  46.4644241
  42.5126600  70.5471373  45.4592991  33.7997556   5.6149471  27.4545622
  33.9067030   4.9486482  28.1334138  34.2901325   5.2751189  26.7060447
   4.1783318  48.9998055  50.9952402   4.8347834  48.3108187  50.8922672
   4.2017964  49.2155790  51.9275045  10.3038359  58.2837534  21.8142724
   9.5921868  57.9163456  22.3384833  10.9311306  58.6119080  22.4585176
  85.1219665  84.8927593  33.6653209  85.6835591  84.1550079  33.4274817
  85.2170097  85.5097824  32.9397297  36.3557839   1.7125098  47.2419977
  36.6564822   2.6188165  47.3084784  35.8041525   1.5859461  48.0139542
   7.8368828  18.3267030  34.4823758   8.2311293  19.1858873  34.6327083
   7.9792067  18.1575117  33.5510556  36.2228608  56.0292578  20.9714150
  35.4362988  56.2242699  21.4808464  36.0065818  55.2282524  20.4940772
  42.9637289  39.6677732   7.3207521  42.2696018  39.9404192   6.7206830
  43.6051893  39.2294240   6.7616355  63.9695259  86.5332591  47.5135851
  63.8696261  85.6324983  47.8216171  63.0897972  86.7912164  47.2383261
  35.1501870   3.7071577  70.5453157  34.1983008   3.7374175  70.4492521
  35.3020930   3.0426934  71.2173605  24.6114537  71.7338604   2.1564393
  24.5912263  71.8364197   1.2049645  23.7732550  71.3245004   2.3710871
  68.3163913  60.7355204  65.1448063  68.8788708  60.3081837  64.4988696
  68.2435496  61.6393963  64.8383192  32.1295381  40.0626326  22.4725175
  31.9379926  40.9587097  22.7492523  33.0424762  39.9240637  22.7246594
  60.0176330  80.7864475  42.1578884  60.1440691  80.4076475  41.2879705
  59.3759249  81.4840323  42.0244074  90.1783510  13.6574423  15.7802069
  90.2674602  12.9079711  15.1914942  90.5643411  14.3883777  15.2975297
  61.2905073  22.5650239  60.6814241  61.9543457  22.9221821  61.2713289
  61.3057232  23.1482291  59.9225616  41.0863543  17.8336060  17.9691076
  40.2281237  17.4110436  18.0025113  41.5418100  17.3943460  17.2508860
   5.1601690  10.4629338  28.5997605   5.0450653  10.6259978  27.6636004
   6.0219216  10.0517380  28.6670756  33.1373525  11.1112583  10.8885205
  33.0028391  10.5369270  10.1346755  33.7238765  10.6190789  11.4629614
  61.7443092  27.6831082  58.4189252  62.4017127  26.9899717  58.4790413
  61.2732466  27.4966517  57.6067893  83.8537025  15.9314036  32.1600986
  83.0295849  15.5550253  31.8512344  84.2544937  16.3064718  31.3759255
  56.0297333  87.3257461  37.6453924  56.4279835  87.7379201  36.8787503
  56.5145307  86.5079200  37.7565861  91.2388854  26.3428712  10.2813351
  92.0241756  26.7024016   9.8686731  91.4721795  26.2565494  11.2056482
  75.3845549  27.8655624  21.2076020  75.9923029  27.6760530  20.4927850
  75.0060511  28.7151194  20.9812903  42.8143215  13.7160218  48.7536669
  43.3670807  14.4575322  48.5069895  43.3531857  13.2064497  49.3588018
  41.0608673   9.1706353  36.1715508  40.8285570   8.3156252  35.8093047
  41.8432617   9.4319308  35.6859493  56.8911552   8.7994045  16.5350568
  57.0340014   9.6097529  16.0460150  57.1994114   8.9960158  17.4196792
  48.2975864  12.4284744  16.1059916  48.3435202  12.7030468  17.0218158
  48.0791473  13.2278693  15.6269491  30.8610535   1.3593221   9.6343708
  31.2237477   0.9610219   8.8431424  30.8691263   2.2994485   9.4545692
  30.7079720  49.3935919   7.2378200  30.2429247  49.2898417   6.4076412
  31.1870003  48.5722733   7.3482794  15.1338029  46.8527222  48.3325243
  14.7575021  46.8003702  47.4539518  14.6861601  47.5936365  48.7410498
  51.6529036  29.6315312  47.0748663  50.7262850  29.3921542  47.0925474
  51.6666412  30.5547404  47.3273134   7.9373860  43.0203104   6.9321615
   8.0504149  43.4898329   6.1057210   8.4144294  42.1997023   6.8086022
  55.0281047  62.5147146  20.3809905  54.3735527  63.2048982  20.4879427
  55.3373205  62.6153034  19.4807124  29.9601412  55.7650757  40.9087753
  30.7420826  55.7871914  40.3571320  30.0985003  56.4635372  41.5484953
  59.2896347  79.5013994  26.0261726  59.3635042  79.1000181  25.1603389
  60.1920952  79.5636421  26.3390994  21.8775201  42.5215387  34.0339375
  21.2002039  43.1918287  33.9434695  21.8862510  42.3144579  34.9684286
  49.9956826  22.1952382  10.0293716  50.7344321  22.7227583  10.3330119
  49.2222372  22.7051392  10.2702315  22.0486093  24.5447469  16.2998378
  22.1087480  24.8920822  15.4099095  21.6151667  23.6974669  16.1974740
  53.7361383  29.5638156  25.1094866  54.4516754  29.2562985  24.5530057
  53.8634634  29.1039848  25.9392929  33.6696410  17.1101654  17.4193323
  34.5146298  16.8482888  17.7849114  33.8784695  17.8324461  16.8269348
  43.7135363  28.5192609  63.4610939  43.1441975  27.7602887  63.5877752
  43.4543610  29.1307926  64.1503620   5.9719141  77.5806001  76.8101550
   6.6099794  78.0861858  76.3066795   5.5300863  77.0359877  76.1586801
  29.0343022  37.8786087  35.1239848  29.4044757  38.7601781  35.0788498
  28.9723015  37.5978374  34.2109919  37.9920101  14.4625628   3.8545686
  37.6222134  15.0079739   3.1602997  37.6913738  13.5772562   3.6494312
  82.6506342  42.4780035  43.6897802  83.0134358  41.6957426  44.1053200
  81.9996931  42.1419191  43.0736971  27.6971006  54.9565649  14.0180647
  28.5504723  54.7081089  13.6627340  27.0644808  54.5023108  13.4615791
   8.7077090  78.5064715  27.1602941   7.7540180  78.4255880  27.1475768
   8.8946435  79.0124714  27.9510212  31.5763569   5.0514072  55.3658533
  32.3957062   5.2442443  54.9100971  31.3561654   5.8660120  55.8176994
  18.6435878  39.8368788  60.8821201  19.0824628  40.4164553  61.5047884
  19.3496871  39.4975042  60.3321409  17.2581622  87.5329177  12.5640559
  18.1371400  87.8894758  12.4355876  16.7985293  87.7288441  11.7476130
  86.4372476  22.2906113   0.9395004  85.6047901  22.7513099   0.8346079
  86.2806322  21.6725254   1.6534150  25.8143187  50.2776861  60.1991081
  25.6740618  50.4384661  61.1322260  25.5388927  49.3703413  60.0683546
  13.9141682  76.8465748  13.7962325  14.3683568  76.7082348  14.6273788
  14.2521015  76.1598244  13.2214244  22.8698254  23.8843203  33.8220811
  23.0288601  24.2647386  34.6859217  23.3488297  23.0556703  33.8334203
  83.0441152  76.5575689  46.7976570  82.4013077  76.3629848  47.4796867
  83.8685952  76.6702062  47.2707081  34.1223478  35.1789165  13.2471526
  34.7619319  35.5083251  13.8785422  34.6407485  34.9612403  12.4724853
  31.0879254  37.1527600  37.8468752  30.3096962  37.6232791  38.1455445
  31.5702534  37.7943182  37.3253441  18.6347222  14.4035208  55.0051117
  17.7099574  14.3659711  55.2493048  18.9812219  15.1504016  55.4933119
  87.3362075  10.0364646  69.9578516  87.7766596   9.3308076  70.4314367
  87.9267489  10.7852611  70.0402669  38.7942028   9.5296824  39.9937916
  39.6617079   9.8481810  39.7443366  38.2041454  10.2541113  39.7857857
  35.8139110  33.4484172  15.3172052  36.1094785  32.5603151  15.1168382
  34.8628116  33.4130287  15.2152765  42.2482824  22.7939653  57.7921247
  42.8165150  22.1642733  58.2357788  41.8098736  22.2830319  57.1117020
  19.5899558  41.6910744  54.8120260  19.9470294  42.2141409  54.0943003
  20.1541114  41.8921900  55.5586958  46.1485195  16.6129160  31.7154598
  45.5687666  16.6275942  32.4769759  46.3052320  15.6829512  31.5516329
  25.1433730  21.4358854   9.6362835  24.7084069  20.8624578  10.2673280
  25.6193399  20.8390999   9.0587586  82.5902985  88.2451737  52.1487951
  82.0405518  88.5529681  51.4281893  82.8946768  87.3827265  51.8663549
  41.1419153  24.0938497   8.3759934  41.9498158  24.0822220   8.8892138
  41.2632370  23.4048629   7.7226883  80.2620982  83.7217921  53.2698965
  79.8264157  82.9609072  52.8858852  80.1951073  84.4004548  52.5982141
  68.7836709  11.5137029  35.4939032  68.4280266  10.6480491  35.2929258
  68.8011064  11.9670630  34.6510553  34.7214746  26.5845037  60.1500082
  35.3745174  25.9377027  60.4172468  34.4053435  26.2698507  59.3030787
  17.6802230  48.4230089  48.4896374  16.9446445  48.1098557  47.9632425
  17.2715867  48.8915157  49.2174768  70.0208616  10.6756759  27.1922326
  69.8708296  11.6181076  27.2666883  70.9724855  10.5807173  27.2325897
  43.3748198  14.1350412  21.5961123  42.9585218  14.3422365  20.7594538
  44.2354774  14.5508265  21.5448618  42.0688677  20.7994723  52.6549864
  42.5969172  21.5076160  53.0236721  42.6488781  20.0380754  52.6648760
   8.0777115  26.7463112  39.0017939   8.0250543  26.6117048  39.9480176
   7.7788615  25.9186363  38.6251307  10.7926083  24.7700596   7.1153426
  11.5190911  24.2858100   6.7229688  11.2142599  25.4373145   7.6568335
  29.1828060  45.3071070  36.7614269  28.4536695  45.7434416  36.3207412
  28.9425445  44.3805504  36.7617726  60.2411917  57.0948329  16.9771464
  59.8746351  56.2202969  17.1077426  61.1844781  56.9785908  17.0908626
   8.9223599  76.9917107  43.4778404   9.5048487  76.2344790  43.5373640
   8.8817340  77.3334312  44.3710375  71.5842425  78.8269883  50.6422281
  71.8998717  78.2190973  49.9735928  72.3530601  79.0088719  51.1826658
  50.8900213  22.9911375  31.9953966  50.5273962  22.1880627  31.6214895
  50.8464241  23.6282778  31.2823868  44.6453714  18.9302719  56.8425989
  44.7546721  19.6694148  56.2443066  44.3405342  19.3260741  57.6590824
   7.7500564  34.6081066  40.9744501   7.8900635  35.4701257  41.3663101
   8.6051702  34.3643689  40.6200457  51.5158033  35.0517464  67.1873569
  52.1103430  34.3050456  67.2594357  52.0313883  35.7986593  67.4915314
  22.6870820  80.0673026  26.4621544  23.5153720  79.6083069  26.3225532
  22.1210906  79.7609144  25.7536244  84.9799930  85.4667708   5.1564902
  84.6674238  84.8997921   5.8615208  85.1662051  86.3019389   5.5855012
  13.1292641  45.1096916  49.5769072  12.2557747  45.3891516  49.3027687
  13.7260783  45.6009722  49.0123796  40.6090355   4.4477066  75.2729273
  41.3554287   5.0311255  75.1360035  40.7565355   3.7233317  74.6648502
  20.6451678  12.8688955  21.7357230  20.6928110  12.1723688  22.3905611
  21.5269375  13.2408774  21.7171311  90.1374086  26.6913056  43.3890629
  90.4500704  26.0574651  44.0346003  89.3287983  26.3080359  43.0492353
  49.2802429  31.8566012  21.8861985  49.6269464  32.0066929  22.7656889
  48.7238169  31.0830402  21.9768858  91.0571547  28.7613368  53.8379049
  91.2390502  29.5562172  54.3392134  90.8318235  28.1072617  54.4994497
  37.6366305  69.9015999  57.0413399  37.5754356  70.4902506  56.2890244
  37.4984479  70.4679966  57.8005028  74.7108780  61.5974086  50.7204962
  75.0253474  60.7400531  51.0073471  75.3387188  62.2185749  51.0895491
  15.3826567  79.0097272  44.7095156  16.0039231  79.6342528  45.0839853
  15.6423136  78.1645042  45.0761318  16.4668727  10.0840819  29.2421484
  16.3873494   9.3418884  28.6429358  16.3977933   9.6961105  30.1144648
   6.4862877  17.7598953  55.6711769   5.5309451  17.8103173  55.6393957
   6.6864759  16.8550289  55.4316521  18.6305165  14.5956600  21.2575388
  19.3064117  13.9186800  21.2244725  19.0696275  15.3878427  20.9479260
  45.9581184  20.4292297  36.7048550  46.5901852  20.7417822  37.3521805
  45.3850031  19.8396695  37.1949506  30.2451611  33.3385444  50.1845694
  29.5924783  33.9599013  49.8618412  30.2001309  32.6042223  49.5722198
  21.0155296  45.3923321  52.9144526  21.5609598  45.0692081  52.1972847
  20.5679440  46.1558008  52.5497389  84.9148809  73.8034815  31.7346597
  84.0802943  74.0189415  31.3183951  84.6700560  73.3997363  32.5672960
  38.5893106  18.6107397  66.7036724  38.2376385  17.8921211  66.1781788
  37.9111075  18.7842965  67.3564768  15.4926610  41.7246532  14.1337502
  15.1396692  42.2046185  14.8829234  15.3919911  40.8027744  14.3709075
  13.7038514  82.0932507  63.9228725  13.6237380  81.8301117  63.0060482
  14.0557381  81.3201135  64.3640804  81.2909873  77.1321491  57.3129122
  80.4634793  76.6681674  57.4401371  81.2615188  77.4294666  56.4035360
  55.9283018  29.5683908   3.7785423  54.9927235  29.7254944   3.6510822
  56.0179281  29.4044948   4.7173375  21.7695332  37.2707844  29.4210339
  22.7132368  37.1563721  29.5331240  21.3793588  36.7259598  30.1045275
  90.7898505  84.4129923  76.5090997  90.9274657  84.0732339  77.3933281
  91.6676600  84.6346715  76.1983867  36.9049048  42.4151325  32.4733829
  37.0094061  43.2262039  32.9708505  36.9912982  42.6825571  31.5583682
  19.5143735  16.8429089  59.2314863  19.0892541  16.6267610  60.0614166
  20.3417277  17.2517848  59.4855309  84.5731531  83.8367033  30.3009582
  84.7626101  83.2644927  31.0445380  85.3465949  84.3955839  30.2256489
   0.9879429  22.0402670  32.1515322   1.2829453  22.3433971  31.2928605
   1.1623222  22.7762008  32.7382374   4.2613694  33.9071465  66.4549446
   5.1165271  33.6688566  66.8129301   4.0574992  34.7491527  66.8620062
  20.6906509   7.5243300  39.7032952  21.2455487   6.9726366  40.2546167
  19.8195398   7.4538833  40.0937223  19.7352481  22.0999002  65.6807423
  19.3344593  21.8893123  64.8373842  20.6770802  22.0687461  65.5127764
  51.5529378  51.7952862  75.4388962  50.7309003  51.3120732  75.3552919
  51.9578870  51.4436635  76.2317452  21.5671158   4.2880917  64.8860073
  20.7745385   4.7964913  65.0580025  22.2150612   4.6409598  65.4958248
  77.9826700  74.8247200  28.2039261  77.1208524  75.1903874  28.0044532
  78.5953676  75.5321294  28.0029154  47.3048496   4.6547943  36.3820577
  46.5580320   4.8635271  36.9432402  48.0105066   5.2157354  36.7039657
  23.8808846  28.8597131  34.1705680  23.5188580  28.6208010  33.3172846
  24.7727895  28.5124660  34.1580629  58.8689041   2.5016990  56.3735819
  57.9613924   2.4343219  56.6704226  59.1179085   1.6028327  56.1584806
  31.1914802  33.1905770  27.2829080  31.6317582  33.7309718  27.9389262
  31.8549252  33.0443859  26.6085935  46.8096196  79.8561287  69.4499254
  47.3613559  80.4608977  68.9538670  46.8351613  80.1894385  70.3468561
  35.5889988  15.2210557  30.6030440  35.3863764  14.3612254  30.9716463
  36.5431166  15.2825499  30.6489992  82.4744533  85.5305532  38.8509560
  81.7479872  85.6304941  39.4661736  83.2498204  85.4517615  39.4066811
  15.6891584  25.1886249  43.1488419  15.5237222  26.1257148  43.2523966
  16.5559185  25.1415730  42.7454233  49.8765659  44.5649481  37.1201992
  49.9534035  44.4126844  36.1783171  49.2005491  45.2379370  37.1996641
  34.4858456   7.9608065  14.8396397  35.0445318   7.7371150  14.0952849
  34.8797464   8.7528932  15.2052510  54.0160275   7.0420682  19.8467326
  53.1481886   6.7391264  20.1137757  53.8894796   7.3797786  18.9600706
  22.2088480  36.9986868  15.2498400  22.6679277  36.6440678  14.4884443
  22.8451061  36.9388247  15.9624565  12.7369544  81.7187273  50.3880739
  13.1577059  82.4250489  50.8782864  12.9776284  81.8835145  49.4763994
  25.1132870  31.3740778  57.3971605  24.3812656  31.2167954  56.8008089
  25.8487368  30.9055567  57.0024061  66.9225597  38.4591150  27.9132175
  66.9086885  38.1395888  27.0110273  66.8072987  37.6732612  28.4474277
  37.3060846   9.6745569  64.2262745  37.3692799   8.7375683  64.4114494
  36.4257884   9.7891045  63.8682413  71.0837586  82.8351286  72.7543784
  70.9655793  82.1583656  73.4209059  71.1411341  82.3520020  71.9300429
  18.1156945  33.3039331  47.9026794  17.4133718  33.9091992  47.6647139
  18.1706357  33.3638740  48.8564157  55.4560423  38.2812309  76.9062281
  55.7966471  37.6605225  76.2620687  56.1628962  38.9157438  77.0244741
  41.1716175  46.8135452  31.2813687  40.2204323  46.7082739  31.2614012
  41.3292408  47.4317884  31.9949269  28.1750819  85.0851375  31.0391140
  27.5248429  84.4571823  30.7243252  27.6740071  85.8819845  31.2128663
  16.1432564   7.2672528  53.1225729  15.4617763   7.1939987  52.4544048
  15.8442903   6.6994959  53.8328600  38.1022668  21.3323259  13.5035336
  38.3727336  21.6794157  12.6534700  37.1495485  21.2633061  13.4419215
  42.6613951  74.5685625  18.5128915  42.6802540  74.7577143  17.5747573
  42.3678112  73.6591673  18.5680103  35.3628635  15.5447471   2.8538039
  35.7788754  16.1410427   3.4763780  34.5695806  15.2480626   3.2998002
   1.3060900  83.9191699  40.5335522   1.5168425  84.5172232  39.8165131
   0.4088637  84.1455769  40.7784128  82.2697570  17.2302377   9.1810107
  81.3879432  17.3598886   9.5300484  82.8189053  17.1108937   9.9558818
  24.5901489  38.2011652  25.2243423  24.3622541  38.2587147  24.2964506
  24.3057609  37.3257327  25.4869699  17.8439856  82.8185654  57.4669600
  17.8646910  83.7720871  57.5480986  16.9456244  82.5783348  57.6938248
  49.6039867  68.9870405  26.0956573  49.9034119  69.8927355  26.1750078
  48.8624763  68.9262867  26.6979051  48.8239813  37.6798844  59.8894691
  48.1791449  38.3838558  59.9590921  49.4748640  38.0115914  59.2709589
  86.8452011  69.7440380  32.6083183  87.7449476  69.7334069  32.2818613
  86.8810045  70.2933878  33.3913660  71.5904236  19.4882500  33.3502078
  72.1696091  20.2477527  33.2874990  71.3188457  19.4692636  34.2678761
  31.6496062  40.7127762  41.1669683  30.9573174  40.0547457  41.1040306
  31.7061305  40.9123373  42.1014261  80.8149035  74.0018585  72.2823961
  81.1338456  74.5075038  73.0299438  79.8681481  73.9511016  72.4139802
  17.5837052  33.5056782  36.0665011  17.5179327  32.5555849  35.9704328
  18.4748733  33.7136698  35.7858062  74.3412832  57.2501507   6.5123447
  74.2464546  56.3858512   6.1120589  74.1967061  57.0986989   7.4463637
  33.5114527  13.8977015  11.6008127  34.2788553  13.4685433  11.2224650
  32.9180145  13.1788826  11.8184471  10.8704317  36.2060070  58.4180069
  10.4890931  37.0109510  58.7685490  11.7017806  36.1124825  58.8831377
  62.1124315   2.3726687  30.1055646  62.5558519   2.8187808  30.8270884
  62.4065590   2.8353909  29.3209600  11.8359181   1.0774574  76.3290579
  12.5667569   1.6505584  76.5607045  12.1600529   0.5628309  75.5899171
  23.0553961  35.6920481  33.7787914  23.1702185  35.8903599  34.7081566
  22.5682235  36.4398050  33.4327364  30.4383683  28.3820009  47.5111103
  30.8287740  28.6550117  48.3413410  30.6754613  29.0755081  46.8954277
  10.4588795  21.8783069  12.9750574   9.8763144  22.6376152  12.9924119
  11.1855197  22.1467280  12.4127626   4.7248730  33.8348436  14.0934813
   5.2271450  34.6358299  14.2430651   3.8934511  34.1380858  13.7287724
  45.8295536  16.3158560   3.9014789  46.4310455  16.1560309   3.1742284
  44.9949694  15.9515750   3.6065140  34.3007708  38.3714390  54.0877438
  33.5093617  37.9638672  54.4395828  34.2538500  39.2805290  54.3836880
  26.8552446  27.0371985  44.4259405  27.7516127  27.1450257  44.7439480
  26.4589381  27.9024220  44.5287132  35.9593058  67.8567505  49.2073679
  36.3833427  67.0465040  48.9246511  35.4478955  67.6038742  49.9759674
   0.8291578  64.2785072  56.8434191   0.1203425  64.8656416  57.1062565
   0.4526567  63.7477589  56.1414289  32.7629757  48.1231785   3.0936557
  33.6568975  47.8336287   3.2761291  32.7420568  48.2528687   2.1455133
  20.5410266  68.1064844  23.7964392  20.6825233  67.8265381  22.8920937
  19.8036456  67.5762606  24.0987086  12.3391986  43.4238434   7.6706260
  11.7520022  42.9160643   8.2306188  12.3944497  44.2798662   8.0953670
  14.2159820  46.0351229  58.3344603  13.6428940  45.2781010  58.4557819
  15.1016736  45.6765366  58.3909941  52.6948261  39.5859861  21.6500854
  53.2515621  39.0071368  22.1708632  51.8024111  39.3026686  21.8489814
  39.0463853  39.2151952  21.8189979  39.4121814  38.3493662  22.0000052
  38.5005713  39.0871906  21.0431552  19.9935195  88.3086952  29.0643835
  20.3091618  89.2113022  29.0207887  20.7873580  87.7814147  29.1539621
  66.0241795  44.9444818  19.7762704  66.2674618  45.5404615  20.4846883
  65.9111547  45.5121517  19.0138960  32.2782016  88.6695480  44.4691849
  32.0096827  89.0863991  45.2879429  31.7570162  87.8678131  44.4264317
  28.6938262  71.9051361  23.4806156  27.9280591  71.6080189  23.9720964
  28.5775375  71.5314722  22.6070690  35.3545713   5.4354793  20.4791689
  35.0631285   6.0458368  21.1564851  34.8386717   4.6438372  20.6320786
  37.2546315  30.3984785  36.5494108  36.3319588  30.2435970  36.7517018
  37.7224016  30.1207185  37.3369837  36.8934560   4.5190093  27.7932072
  36.3978696   4.5274010  26.9743323  36.7134285   5.3708857  28.1908607
  41.8557596  63.1763363  27.5495839  41.0605192  63.3983612  27.0652986
  41.7252350  63.5639334  28.4150124  30.4696870  45.5492163  66.4968729
  30.7801080  46.1152506  65.7901382  29.9551702  46.1283445  67.0591116
  40.1978922  24.6103215  51.4403057  40.0108957  25.1517510  50.6734180
  40.2196074  23.7151718  51.1019754  65.4620865  37.1019179  20.1405525
  65.9383205  37.8829008  19.8585749  66.1240104  36.5595919  20.5694652
  68.3421803  28.3121824  57.3065281  68.0953598  28.3484674  56.3824129
  68.3686161  27.3774171  57.5108528  41.7819643  21.9457054  26.2980080
  41.3491201  22.4046230  25.5780983  42.5433111  22.4879217  26.5043545
  24.2203903  33.0526900  13.5589385  24.6812439  33.7817907  13.9739776
  23.3040214  33.1767488  13.8061416  44.1071320  41.5424252  42.2302389
  44.8642206  41.2226963  41.7395020  43.9975548  40.9100342  42.9403877
  12.9557121  44.3821001  34.7604537  13.7881815  44.3647242  34.2883039
  13.0624986  43.7354851  35.4581022  50.0424862  59.8093796  21.6266894
  49.7934961  59.5318127  20.7451057  50.3943157  59.0189838  22.0362306
  91.2591850  76.4976412  11.0406041  90.6152331  77.1001178  11.4128661
  92.1020709  76.8221968  11.3575280  22.3229575  63.7607336  36.6947675
  22.1343136  63.1419897  37.4003196  21.4928722  64.2131090  36.5446043
  58.2715225  19.8060918  55.4514980  57.8496027  19.0386021  55.8377314
  58.6678267  19.4802737  54.6434021  49.9763632  31.4710355  29.1288757
  50.6791306  30.8265853  29.0450120  49.4668674  31.3759017  28.3241415
  50.5816698  39.3421984  34.1043782  51.2793779  39.9944663  34.0412545
  50.7770729  38.7143850  33.4087491  30.3810072  10.1739705  23.0571866
  30.2075672  11.0280919  23.4529471  29.9222302   9.5511585  23.6209774
  79.7940111  21.9669461  14.7868860  79.8505020  21.0130739  14.7306085
  80.6776428  22.2454333  15.0274384   4.3961173  27.5971460  20.6578827
   5.0881493  28.2457709  20.7867599   3.5861525  28.1072235  20.6610823
  61.9129229  23.6963534  29.0746284  61.6041183  23.5233998  29.9639845
  61.3701916  23.1364274  28.5195065  19.5685908  75.9864789  21.2625289
  19.8521325  75.1512998  21.6344333  18.8769433  75.7508320  20.6442046
  13.8195419  57.3008776  10.6120598  13.7737083  56.6316366   9.9292386
  14.7325444  57.2878790  10.8992708   6.8608782  15.6116304  57.9499368
   6.2783715  15.9180603  57.2549383   6.3587734  15.7357463  58.7553660
  29.7773170  23.5598207  50.3188086  29.0271997  23.2354665  49.8204565
  29.8007154  23.0096173  51.1017275  27.5884604  35.0016999  46.1182356
  27.8358316  34.3598366  46.7838573  27.9642344  35.8255386  46.4285851
  65.8157444  33.8382101  30.9670424  66.4474916  33.1970310  30.6414294
  65.0199890  33.6676168  30.4631543  47.6990700  38.9729881  43.5507059
  47.8961515  39.8901510  43.7409687  46.7575884  38.8935113  43.7041044
  49.4960022  45.9433460  11.6810286  49.0998316  46.6882753  12.1330953
  50.0046825  46.3364744  10.9718597  27.8849053  28.8023186  36.7448807
  28.3031178  29.3389773  36.0715842  28.5478687  28.7182760  37.4301910
  35.9992218  49.5795107  40.9044075  35.8782005  50.1962614  41.6263533
  35.1290965  49.2084837  40.7579565  51.4303096  72.1012572  70.1024948
  52.3227842  72.2410324  69.7859762  51.1749311  72.9435662  70.4787008
  85.5172443  66.5433264  35.8099008  84.8736382  66.1057806  36.3671732
  86.1078644  65.8435249  35.5311775  74.0955414  32.8032041  12.0744812
  73.8034286  32.9857516  11.1814094  74.6050729  33.5747170  12.3222291
  78.7911223  77.8126496  63.3995914  78.5461997  77.5473374  62.5131035
  78.3396565  78.6459988  63.5335302  28.9381027  35.4534626  41.9301367
  29.6029997  35.2627921  41.2684822  29.0973330  34.8111486  42.6217365
  33.3500433  22.6741934  44.2455578  33.0671644  21.8490982  43.8513088
  32.6249409  22.9277658  44.8166609  70.2329333  63.6437515  70.3857921
  71.0342606  63.4229627  69.9110739  70.5243166  63.8135687  71.2816100
  42.6624775  50.0842476  21.6928887  43.3962917  49.7186184  21.1988592
  42.5865078  50.9848309  21.3775992  46.3215637  40.3721285  41.1803532
  46.5538549  40.1002932  40.2924490  47.0753431  40.1190090  41.7132521
  40.6129885  29.7703981  39.9171925  40.9660006  30.5346441  40.3727627
  40.7721424  29.0403008  40.5154037  45.3186274  48.2160902  39.3578696
  45.7741451  47.4242496  39.0719962  45.2099609  48.7316179  38.5587120
  12.5051725  38.6095762  30.8057427  13.3593690  38.7575006  30.3999114
  12.4345338  37.6574969  30.8749485  32.3049498  19.7342312  21.4792442
  32.5716066  20.6465650  21.5922594  31.3485336  19.7653401  21.4561796
  50.4118919  48.5072231  37.3356509  50.3433132  49.4613838  37.3689318
  50.8631516  48.2711172  38.1461120  40.9869862  49.0883493  38.8843107
  40.5845022  48.4290314  39.4495916  40.2992058  49.7402620  38.7493992
  11.9447684  42.7026510  22.3307300  12.8065062  43.0060768  22.0451212
  11.3449609  43.3991766  22.0636797  57.5404072  44.3808889  23.9115357
  56.9359875  43.6517763  23.7725902  56.9769049  45.1170683  24.1497302
   5.2158827  46.2000036  50.7046795   4.8250294  46.2786818  51.5748930
   4.7503048  45.4690838  50.2981949  45.9653950  51.4900303   6.4029068
  46.5284872  52.2018862   6.7069125  46.4846659  51.0425186   5.7348323
  19.4499111  69.2576742  38.8739347  19.4389164  69.5172787  37.9526758
  20.3209567  69.5070648  39.1826701  18.2301299  35.2750632   8.7700828
  18.7518804  34.6643397   9.2906840  18.8174312  36.0130831   8.6068900
  26.2113619  20.2030563  46.6083241  26.7278242  20.9290624  46.2584400
  26.3461661  19.4903648  45.9837198  40.0890970  47.0541811  40.2816963
  40.2040815  46.3718557  40.9430885  39.1713142  47.3137712  40.3624249
  12.0871890   4.8495710  59.1299582  12.1630144   4.3612859  58.3101654
  11.3129497   5.3995651  59.0104151  66.1896467  39.5786881  19.1296768
  66.4054155  39.5260835  18.1985974  65.8428812  40.4633093  19.2455685
  27.4615550  30.0117207  56.6090250  27.7368903  29.2124009  56.1601257
  28.2146764  30.5981636  56.5374422  83.2716751  22.1559811   4.8674047
  82.8613281  22.3354936   5.7133472  83.7905693  21.3654470   5.0158525
  44.1824907  70.7766679  73.3720712  43.5889905  70.0470999  73.1939609
  44.7598546  70.4524806  74.0632908  65.2751333  84.5949531  31.9717050
  64.6384196  83.9401990  31.6851306  65.0474885  85.3826484  31.4777946
  82.3384269  67.8115109  76.3523150  83.2630189  67.6796535  76.5620000
  81.9696124  68.2142356  77.1384593  41.5131521   4.9699867  55.3499269
  40.8405352   4.4162112  54.9535036  41.0388708   5.7455677  55.6495333
  46.6726442  82.4154356  66.8804864  47.3605986  82.2350600  67.5211225
  47.1273931  82.8425768  66.1545483  44.0848207  10.7120562  10.7885504
  43.7957525   9.8992527  10.3737938  43.9681244  10.5572975  11.7259216
  26.2580681  78.8623857  35.2031064  26.7684245  78.3406734  35.8224487
  26.8554759  79.5569277  34.9257088  17.0756531  36.1814284  28.5314822
  16.5744305  36.3765407  27.7396870  17.0726359  35.2258706  28.5874701
  19.8367608  56.0520744  37.1328497  19.5074153  56.9503355  37.1030307
  20.5136824  56.0225916  36.4567280  21.1069775  30.2228546  24.0076542
  20.6664252  30.3616309  24.8460388  21.4191842  29.3188953  24.0478897
  23.3001971  58.2043362  43.8549566  23.5065818  57.3139429  43.5706329
  22.3578572  58.1899405  44.0223503  38.5916281  11.0695231  28.7870860
  37.8742695  11.1374962  28.1570029  38.7303996  11.9669414  29.0897655
  62.7058657  33.9646426  56.9517319  63.4946569  34.3592647  56.5798299
  63.0284651  33.4032181  57.6566891  38.4197330   5.4665154  30.4508018
  38.4702492   6.2337166  31.0209608  38.4377337   5.8257353  29.5637441
  31.1145234  49.4978189  27.7934694  31.9810319  49.1005993  27.7062440
  30.7264495  49.4197989  26.9219518  39.6089026  45.9798584  69.4824664
  38.7193581  45.7238063  69.7261314  39.5156190  46.8656501  69.1318778
  26.8112874  24.5691395  33.3982849  27.3820233  25.0299716  34.0132022
  26.6016793  23.7449694  33.8376474  25.9866142  29.1868210  39.5106196
  26.0799050  28.3090520  39.8808217  25.5255079  29.0499663  38.6830425
  41.1030054  52.2180796  24.2073560  41.2448788  53.1170607  23.9108157
  40.6277466  51.8010139  23.4887338  56.5157270  19.5937037  14.3176293
  56.2730169  20.0160456  15.1416147  57.4499273  19.4068694  14.4103348
  67.5923157  10.0937581  44.0892410  67.6071787  11.0333657  44.2713070
  68.5151100   9.8416615  44.0557146  17.5242424  56.1844683  39.7457647
  17.0264876  56.7517900  39.1570234  17.9546773  56.7872286  40.3520966
  21.4149141  34.0909767  66.4997244  21.9685602  34.6474361  65.9519482
  21.1181545  33.3959484  65.9122753  50.9044647  65.7605410  35.0669742
  51.2769699  66.3060713  34.3742490  50.0145435  65.5707407  34.7699070
  43.0317450  58.0780506  32.6225305  43.2201958  58.7321186  33.2955170
  43.1524801  58.5440350  31.7951775  45.5495501  34.6505117  27.7159142
  45.3236532  34.7169518  28.6437011  46.4521074  34.3317628  27.7113891
  27.3148370  61.3904142  41.1260605  27.6328039  61.0616493  41.9669199
  28.0544138  61.8790102  40.7647800  32.8543234  45.4623413  17.2438240
  32.5122857  46.3547802  17.2966921  33.1028652  45.2474451  18.1428671
  32.8942108  46.8603134  37.3487616  32.5027251  47.5849247  36.8610024
  33.8378072  46.9993496  37.2679925  36.1077499  48.8998079  33.5537815
  36.3507891  49.2375040  34.4158292  36.4581943  49.5426559  32.9372048
  55.4171848  72.3065519  19.7915697  56.0029697  72.0558214  19.0772724
  55.8916521  72.9928398  20.2607369  28.3530712  51.6174364  20.8323002
  29.1803575  51.4240122  20.3913736  28.2041597  50.8638716  21.4034367
  74.3825795  79.7888041  31.2055874  74.0296640  80.5210400  30.7001042
  73.7093439  79.6031237  31.8601918  60.0709438  33.0482888  22.7817798
  60.6692982  33.6092448  22.2882891  59.2208815  33.4822512  22.7089524
  46.9572067  48.4542322  26.8315458  47.2715712  48.2795238  25.9444809
  47.3341465  49.3049717  27.0560193  45.3867435  50.2008343  36.8046165
  45.3362942  50.8412457  37.5142360  44.6965122  50.4633141  36.1955881
  78.3419085  11.1303830  39.9161720  78.8835001  11.7710495  40.3771067
  78.0163860  10.5516744  40.6056404  35.6661797  17.8998470  51.9718599
  36.1154985  17.1252894  51.6336155  34.8149776  17.5742424  52.2645521
  38.2990432  34.5777225  28.9647675  37.9937601  33.8193393  28.4668827
  37.7033567  34.6290779  29.7122645  71.9651175  51.5076065  27.0307493
  72.8568554  51.8521976  26.9828582  72.0268679  50.7661867  27.6330042
  47.8830147  41.4404345   0.2974288  48.3791590  41.0997820   1.0417591
  47.1298170  40.8544111   0.2232738  44.7380304  55.6073570   6.2844837
  44.1070414  56.1915302   6.7049885  44.3975019  54.7281647   6.4496887
  31.0816932  78.2542706  62.5973892  31.7527914  78.7748003  63.0388689
  30.5925202  78.8887596  62.0735884  78.3850670  63.4672594   7.7494133
  78.5240221  63.6117077   8.6853933  78.5781908  62.5388479   7.6190811
  49.3863153  51.3454580  39.9117899  48.7914371  51.5722036  40.6265879
  49.7024870  50.4692650  40.1321268  62.8811455  60.1273680  42.5863266
  63.8072062  60.3692436  42.5982809  62.7158785  59.8569250  41.6831207
  49.1358376  69.7925854  38.9191031  49.5972824  69.4947100  38.1351566
  48.6575937  70.5712557  38.6341739  42.6040649  57.8879881  46.7604589
  42.5300550  58.8343573  46.8834829  42.5547218  57.7651119  45.8124638
  24.7035336  67.0135975  37.3123002  24.1367722  66.7688990  38.0438328
  25.3717375  66.3286734  37.2874928  54.3765715   5.7074839  30.2198005
  53.6400703   5.6298357  30.8262372  53.9964631   6.0904032  29.4291544
  27.0057440  84.9855232  36.8198252  26.1915135  84.8340034  36.3399291
  27.5954628  84.2960644  36.5146852  12.6843516  21.3353059  15.5156501
  11.9786517  21.3837096  14.8707660  13.2780568  22.0464703  15.2748378
  50.0668573  52.1249151  64.6895266  49.1613340  51.8932104  64.4831991
  50.0333643  52.4413919  65.5922747  40.8610773  34.0377712  23.9794540
  40.4146719  34.8468232  24.2292356  40.6742430  33.4303284  24.6952319
  27.5005627  46.7579126  35.2323580  27.2958827  47.6534224  35.5014443
  27.3825359  46.7603540  34.2824650  30.9536910  55.4154778  36.9068527
  30.0545692  55.2483845  37.1895027  31.3212514  55.9716272  37.5937486
  21.8634582  66.5465403  52.1025181  21.0514307  66.3059187  51.6564846
  21.7967153  66.1309719  52.9622173  47.7284193  42.0036030  15.7257998
  46.7913198  42.1960735  15.6935787  47.8497934  41.2971926  15.0913870
  44.6338654  64.9946880  51.5038061  44.4359732  64.5548773  52.3306274
  44.0824080  64.5517063  50.8589077  20.2450991  63.6435938  28.7668538
  20.2897167  64.4830179  28.3090305  20.7832527  63.0538654  28.2387924
  84.8430252  39.9183869  47.7158117  85.1728249  39.4616771  46.9419336
  84.7848225  40.8350134  47.4462986  27.8240752  26.6500568  31.0539508
  28.5725307  26.4031792  31.5971780  27.2856975  25.8595991  31.0144567
  59.7025967  55.9017563  43.5535908  58.8522434  55.4694605  43.6326075
  59.8220205  56.3501978  44.3907690  23.1300735  50.6483746  17.3974097
  23.8911819  50.3438807  17.8916037  22.5931764  49.8650217  17.2777128
  56.3405132  58.9164352  65.2413225  55.7823896  59.0588760  66.0058069
  56.4207220  59.7812033  64.8388577  28.4388781  65.1588202  29.8457456
  28.5712099  64.4951820  29.1687632  28.7193775  65.9774971  29.4366884
  29.8954654  20.3676629  34.1904879  30.8374214  20.5376410  34.1982818
  29.5157170  21.1011600  34.6742272  61.7565060  78.0314636  60.0275421
  62.4286747  77.5099564  59.5888519  61.0058212  78.0025053  59.4343519
  35.3400803  55.6989050  40.8683491  34.8145795  55.9450150  41.6296053
  36.1460137  55.3398991  41.2395954  20.8753324  64.7025824  17.9965734
  20.1962900  65.1759529  18.4772527  20.4593444  64.4622087  17.1686804
  15.0048507  -0.0466150  45.0664997  15.4157747   0.8173281  45.0977659
  15.1540960  -0.4144949  45.9374905  38.1312823  84.6829796  33.1480026
  39.0503764  84.9367237  33.2323313  37.6673603  85.2574062  33.7571359
  16.4820210  29.0635678   1.2953790  16.7653243  29.8626277   0.8510049
  15.5871360  29.2513701   1.5784772  37.2064495  56.4451742  45.5409336
  37.2384930  57.1036243  46.2349463  37.3993182  56.9320917  44.7397232
  44.5697641  80.0913334  39.2069173  44.8248959  79.1877174  39.3929768
  44.7963619  80.2193642  38.2857800  36.5682578  49.4623327   2.2846964
  35.8974457  49.5716810   1.6106895  36.7671776  50.3536367   2.5714692
  44.0629435  63.8433170  37.0699286  43.3428860  63.6253834  36.4781022
  43.6849070  64.4705772  37.6862621  56.7672348  58.6621428  23.1493473
  57.0856476  57.7626467  23.0735302  57.5577354  59.1858339  23.2800698
  57.7013683  82.4968433  41.3392305  57.1041632  82.1495914  42.0018005
  57.1388865  82.9984474  40.7491112  62.2632551  65.3361320  65.7208633
  62.5406694  65.1638937  66.6206455  62.1035242  64.4685984  65.3492451
  39.6545935  71.9181013  45.1019907  40.4112768  71.4057207  45.3868198
  38.8999534  71.4488316  45.4577112  45.8486891  59.1382504  47.3207617
  45.3396940  59.2557383  46.5186691  45.7601404  58.2076168  47.5264645
  61.1181736  45.8664942  54.8940992  61.6164017  45.5253839  54.1513729
  60.2827930  46.1413336  54.5161724  50.1140305  24.2713031  53.9978711
  50.0160119  25.2210912  53.9306609  50.1096627  24.0960607  54.9388830
  34.6007705  46.0042715  22.8669405  35.2036762  46.4137697  22.2464156
  33.8848710  45.6749916  22.3235297  67.1947384  49.9564981  62.1133995
  68.1001186  50.2286148  62.2632980  66.7631721  50.0845480  62.9581404
  18.7741888  47.8749371   1.2170506  18.9164722  48.4980774   1.9295681
  19.6542907  47.6001787   0.9598330  70.7286787  84.2318344  44.0706301
  70.0571394  84.8971367  43.9201641  70.5563498  83.9137173  44.9568272
  34.8381639  77.7845860  47.6412249  34.5924211  76.9463587  47.2497988
  34.6108079  78.4350157  46.9767857  40.3451729  78.1768942  21.7094994
  41.0626221  78.0970144  21.0809159  40.2095890  77.2861576  22.0326662
  21.7742133  53.5307026  44.9938917  20.9704781  53.1002140  44.7024775
  22.2651935  52.8425884  45.4429626  52.8428936  80.7160568  14.0986240
  53.1115437  81.5970898  14.3590939  52.9439783  80.7064152  13.1468260
  40.7831144  56.6630983  32.0516562  41.6138983  57.1372128  32.0870638
  40.7563448  56.1654234  32.8688669  83.7716770  58.8139057  47.7933836
  84.2130470  59.0998459  46.9935942  83.1012917  58.2012129  47.4910307
  91.1237144  56.3943768  60.7638884  91.3677406  57.3190498  60.8046436
  91.9531345  55.9238815  60.8471680  51.6228056  47.9108906  39.9556899
  50.6725025  47.8990698  40.0697803  51.9682264  47.5951099  40.7906723
  25.2074954  42.7413330  76.1619436  25.6949803  42.0898971  75.6577427
  25.7632968  43.5205040  76.1473184  11.0990918  69.0193796  41.0434675
  10.3826010  69.0474749  40.4093695  10.8332777  69.6284723  41.7323637
  38.6403656  65.6373930  14.0836656  37.8278923  65.1445675  14.1987336
  39.1899133  65.3684855  14.8198152  53.4899950  78.5887718  33.4836745
  53.7107658  77.6615095  33.5712624  53.8617086  78.8447809  32.6395631
  43.5659647  86.1555386   2.9978812  42.7215147  85.9153175   3.3792359
  44.1232252  85.3922558   3.1498787  40.9564972  77.9386330  31.6451454
  40.6351757  77.0557928  31.8283939  40.4822350  78.2076359  30.8584166
  62.3546076  28.6981773  21.8155909  62.4004221  28.5146618  22.7539182
  62.5989246  29.6205592  21.7397308  83.5819295   8.9039713  20.9201455
  83.1095556   9.6835810  20.6280899  82.9398492   8.4129053  21.4328074
  23.4070206  82.1498871  71.4329290  23.6051440  81.8594837  72.3232412
  22.9611492  81.4040947  71.0313892  50.8727407  65.7856083   2.5785297
  51.4053440  65.9859133   3.3482337  49.9740601  65.9627628   2.8564191
  42.0490503  49.0478420  32.5312328  41.2762356  48.9610052  33.0893135
  42.0860910  49.9799728  32.3167634  42.4651432  53.5633564  36.6842246
  43.2462692  53.9304256  37.0981526  42.4822950  53.9087677  35.7916832
   7.2460092   6.3523012  57.6671553   6.6934074   6.1354166  56.9162750
   6.9931854   5.7210833  58.3408642  16.8204248  78.7835169  41.9641066
  16.9231153  77.8607225  42.1967649  15.9301078  79.0022612  42.2392750
  44.7462177  53.0729961  21.8473029  44.0709305  52.5425339  21.4244175
  44.7615290  52.7636576  22.7530122  79.4149923  67.6080942  30.0442457
  79.1290522  68.5215807  30.0483227  79.2969322  67.3161316  30.9481549
  65.1361752  56.4291573  46.3496256  64.4267702  56.7327213  45.7832146
  65.5828714  55.7571459  45.8347559  74.7062445  82.4353218   6.7143500
  74.2071152  81.9820213   7.3937845  74.1706562  82.3487949   5.9257472
  47.2775412  71.1533213  41.7621660  46.4877892  71.6761065  41.6235590
  47.9968929  71.7791653  41.6780186  44.7812748  88.9007092  60.9595537
  45.1863670  88.1375694  60.5475426  44.3650866  89.3704224  60.2367878
  70.7125568  53.6569595   1.4359139  70.9483624  52.8482151   0.9814265
  71.3125420  54.3138552   1.0827267  30.9800482  68.7700129  34.2088866
  30.1919270  68.5851288  34.7196841  31.6256690  68.1394625  34.5279741
  54.5066071  77.9347372  60.1396418  55.2140093  78.5760736  60.2067280
  54.6976900  77.4505234  59.3363619  55.8797836  45.9040689  70.5719328
  55.5091190  45.4620409  71.3357735  56.6106415  46.4138699  70.9214687
  16.1390699   2.3382002  29.8935938  16.5935053   1.5163046  30.0785398
  16.0898889   2.3750025  28.9383650  81.2699318  88.7909889  37.7412152
  80.3453827  88.5718155  37.6254630  81.4781475  88.4913635  38.6261463
  64.4039965  78.0070257  37.1823049  64.7439671  77.1151447  37.1102309
  64.9165249  78.5105562  36.5498447  60.9169674  60.6482792  49.1967487
  61.4813042  61.3969660  49.3896866  61.4639711  59.8835278  49.3761015
  37.0954585  29.5082831  42.8182650  37.8222585  29.9230242  43.2830048
  37.3257709  28.5795307  42.7936029  32.8012490  83.7848663  36.6861582
  33.1149364  82.8817368  36.6392875  32.5325084  83.9918232  35.7910728
  46.8959856  76.1932755  25.5394244  47.2647285  75.3104162  25.5681229
  46.9759846  76.4565659  24.6226335  66.4435676   1.5605837  63.2523680
  67.1388009   0.9243876  63.0846310  66.8978122   2.3225027  63.6120510
  40.5899429  56.0400915  47.5270700  41.2254333  56.7518377  47.4509001
  40.5910921  55.6246662  46.6647148  59.3134928  79.0722990  44.6831894
  59.9892187  78.7664509  44.0781403  59.2340517  80.0084686  44.5001459
  30.5464411  87.4537659  22.1873140  31.0376239  88.0815315  21.6573238
  29.6305156  87.7054787  22.0691681  40.1312177  51.5260741  12.7250274
  39.2910544  51.0991427  12.5574382  40.7049243  51.2076232  12.0281108
   3.3601869   0.2193648  30.8910179   3.7705482  -0.1028722  30.0885224
   4.0644993   0.2135474  31.5391994  37.3021841  69.7576237  31.5528131
  36.3818741  69.4962025  31.5831709  37.7227807  69.2330456  32.2340965
  67.8311396  57.5811577  25.1931787  67.4110079  58.3848190  24.8868370
  67.9445601  57.7139282  26.1343169  78.3907890  55.6017685  31.1363530
  77.9992819  56.0482502  31.8870902  78.2517958  56.2003803  30.4024744
  75.4379463  75.3640556  31.7212915  75.1838875  75.7342196  30.8759165
  74.9673367  75.8929586  32.3655105  23.0172361  15.8724791  43.8466311
  22.8676618  14.9303252  43.9253569  23.5626997  16.0923296  44.6018600
  44.5167732  55.0999832  45.6268454  44.0712881  55.6598616  44.9909878
  43.8420630  54.4882965  45.9215117  65.1203156  72.9631996  67.6693106
  65.0382757  73.5953188  66.9552183  65.1524353  72.1118164  67.2330236
  85.0385761  86.6325665  56.4598274  85.0460911  87.2863388  55.7607126
  84.1156292  86.3992596  56.5596676  57.7574396  58.8092852  60.5300951
  57.6842117  58.3513546  59.6927357  57.2734928  59.6248531  60.4001904
  79.0808916  76.0689163  31.1506414  78.3344316  75.9898138  30.5566978
  78.9345694  76.8955994  31.6104436  63.7645340  60.3547001  39.4495845
  64.3488503  59.8047924  39.9715161  62.8922224  59.9928188  39.6056199
  45.6211472  88.2381248   1.6678526  45.0632906  88.3566761   2.4365996
  45.0268984  87.9224396   0.9870823  48.9822340  26.9992805   5.1110274
  48.9592695  27.3142385   4.2074198  49.7618294  27.4077773   5.4873151
  76.4147472  68.4547567  14.6393275  76.0713911  69.2778206  14.9870443
  75.7881641  68.2011366  13.9616084  60.6702232  74.9723768  44.2947721
  60.6183386  75.3212261  45.1846313  59.7651386  74.7585678  44.0681839
  74.6963933   0.3396326  35.7557607  74.3429378   1.0149294  35.1767254
  74.1384843   0.3743750  36.5327787  43.6576557  70.5778074  44.1570473
  43.9983559  70.2163410  43.3388186  43.5773897  71.5167236  43.9890385
  51.4147043  44.3470860  16.7180049  52.1768332  44.9060249  16.8695939
  50.8991432  44.8175526  16.0629559  65.5990866   3.8706690  49.6221399
  65.5708268   2.9139525  49.6111822  64.7020939   4.1390806  49.4231606
  82.9304504  79.1739511  22.5072503  83.2400703  78.4067202  22.9886198
  83.6745644  79.7760296  22.5119758  36.7133154   8.5713965  25.2077222
  36.7133058   9.4400412  24.8056340  35.7898725   8.3211809  25.2373767
   9.5070423  34.1943938  26.2679577   8.8872207  34.2360503  26.9961834
   9.2802919  34.9437624  25.7172656  63.4141636  55.4935074  28.3041477
  62.7802086  56.0515261  27.8536558  64.2499399  55.6908226  27.8813267
  51.6646957  65.5553293  47.8368092  51.5210390  66.4361238  47.4906921
  51.5059853  64.9762297  47.0913696  58.5358286  80.1863766  20.3766894
  58.4087086  80.1987743  19.4280469  59.1171265  79.4416666  20.5307364
  79.2043781  49.7013044  52.0858335  78.8478041  49.2986345  52.8776312
  79.7698498  49.0275478  51.7083025  29.7342936  29.8357960  13.6950286
  29.2304103  29.1518876  14.1361602  29.1889684  30.6191727  13.7669261
  59.9553919  41.5908241  58.6374712  60.1189756  42.4395704  59.0486908
  60.6784964  41.0379076  58.9335060  74.2802572  76.2791729  10.6565785
  75.1035213  76.4608145  11.1098731  74.5322418  75.7328701   9.9120724
  15.5121483   3.4987742  57.2391224  15.8919395   3.5208708  56.3607693
  15.3621544   4.4183737  57.4584055  70.0241354   9.2298418  32.7915382
  69.5581225   8.9087874  33.5635400  69.5560101   8.8435656  32.0513463
  23.2521963  58.7431240  67.1723175  23.4410167  58.0501080  66.5396118
  22.5384092  59.2420912  66.7751169  65.2257061  69.4498062  32.8929472
  65.1083422  70.1146460  33.5715079  65.6433344  68.7169218  33.3453822
  87.5699806  75.0623226  28.6256671  86.7985344  75.6148624  28.4999824
  87.3944092  74.5869875  29.4377422  66.4691019  63.6487532  18.8695359
  67.0187283  63.6278629  19.6529293  65.6906796  63.1461096  19.1096187
  20.6877279  43.5981035  22.1948409  20.9499407  42.9353571  22.8337812
  20.2683139  44.2817593  22.7172780  63.4150743  63.2122803  40.9198189
  63.5224342  62.5638628  40.2239275  64.0106297  62.9226971  41.6109705
  36.7906165  86.3751698  61.6263008  37.3308587  86.2188435  60.8517456
  36.8469024  87.3197079  61.7709208  49.6313953  76.4138174  37.8176403
  48.8319635  76.8962955  37.6070285  50.0005627  76.8782282  38.5688186
  50.8221197  53.7265682  21.2132859  50.0033951  53.3837223  21.5715790
  50.5563641  54.4821167  20.6891155  66.8682432  74.0451479  46.8213081
  66.7065573  74.8428726  47.3250151  66.1652756  74.0253019  46.1719465
  84.4787693  85.5795097  40.3461599  85.1171780  85.3544044  41.0229063
  85.0038433  85.7166481  39.5576692  41.8767834  37.9971933   1.7019679
  41.2495518  37.6904225   2.3567250  42.1991158  37.1976352   1.2859890
  42.9117107  69.7288513   1.4501493  42.0545578  69.5171928   1.0803919
  43.3262110  68.8784790   1.5960781  72.3649931  46.4473391   3.4500590
  72.3638391  47.4028921   3.3939525  72.7907324  46.1604929   2.6421604
  44.2613697  74.3692970  33.7788582  43.8291597  74.0571070  32.9839015
  45.1929998  74.2167950  33.6206222  22.1338854  39.8025298  36.9299531
  21.9592867  39.2119193  37.6627040  21.5793238  40.5642176  37.0988727
  15.3646135  73.3429861  69.1285992  15.5946863  72.5162601  68.7045479
  15.2859104  73.9680386  68.4079409  64.2086554  83.7531567  12.6457512
  64.3371964  84.6860886  12.8170490  63.8318300  83.7207890  11.7664397
  71.4725065  82.2795963  16.9868422  71.1312342  82.3140812  17.8804719
  71.4059734  83.1804276  16.6701257  51.4553642  79.6752691  77.1471453
  50.9260607  79.1855192  76.5176868  52.1235037  80.1062870  76.6141844
  43.9077997  67.8085709  13.9888906  44.5499897  68.4498596  13.6846435
  44.0358496  67.7725601  14.9368036  73.6279535  64.5176601  39.2943287
  73.8841057  64.0765429  38.4843707  74.3081045  64.2771816  39.9234509
  91.0516930  70.5018568  22.0902753  90.4484463  71.2386227  22.1877623
  91.9209003  70.9027386  22.0874691  60.7096195  63.1169844  64.5133495
  60.7308054  63.6490488  63.7179279  61.3884592  62.4559641  64.3774891
  55.9642982  71.3637400  26.2695599  55.4328299  70.6071711  26.0218072
  55.4859924  72.1165466  25.9220934  46.2539530  72.8095865  26.0342336
  45.5380487  73.2346106  25.5619311  46.9294834  72.6704741  25.3705025
  27.5983906  71.9750595  36.6594267  27.2887325  72.0923519  37.5575280
  26.8260741  72.1348524  36.1169982  52.0828867  66.0340118  23.0707383
  51.5167856  66.0788631  23.8412905  51.5025282  66.2307024  22.3353934
  46.1270425  86.8487945  18.1211925  46.6061637  87.6084112  17.7900469
  46.1774537  86.9303685  19.0735769  67.8279734  46.9834709  67.5786972
  68.3568621  47.7811337  67.5943661  68.4620476  46.2736368  67.6802731
  55.2360010  79.8677540  55.4588223  55.0647354  79.9686098  54.5224857
  55.3985071  80.7583046  55.7698727  48.4712696  65.4379129  12.6396096
  48.6236191  64.7118330  13.2444477  47.6860237  65.1846695  12.1543443
   8.2243834  27.2851849  63.2136583   9.0016947  26.8400884  63.5511589
   8.5584269  28.1012583  62.8412676  41.4105940  58.8601637  55.1669455
  41.8862486  58.4676600  54.4348764  41.0306883  58.1151915  55.6326914
  55.6668091  60.2028847  38.0040121  56.0225153  60.5508327  38.8217139
  56.3839912  60.2873468  37.3757219  70.8044147  72.5136375  48.6505127
  71.0621643  71.7195082  48.1823778  69.8703003  72.3969555  48.8238716
  79.9239445  75.1145077  45.9168911  80.3316975  74.9838209  46.7729759
  79.2951679  74.3970013  45.8390474  75.6722212  46.9194555  34.2186737
  74.7353745  47.0969534  34.1347194  76.0017061  47.6282215  34.7712350
  59.5871162  86.7316341  26.6846561  59.4776297  87.6423550  26.9582081
  59.0869617  86.2270927  27.3261476  32.6127145  26.8893203  69.4975339
  31.8318602  27.4288330  69.6217172  32.7701279  26.9094858  68.5535817
  25.0150503  22.1462733  34.7471023  25.0830187  22.5411612  35.6163955
  25.1092066  21.2065417  34.9028921  54.1759682  51.4028120  17.0025468
  54.6425009  50.6981945  17.4520922  54.1773558  51.1415911  16.0816813
  51.3239574  84.9787712  58.8695049  51.9696712  84.2914963  58.7053633
  50.4792500  84.5319843  58.8139820  38.7538859  42.1593437  72.2480543
  37.9467723  41.9771823  71.7667888  39.4186684  42.2687778  71.5681158
  60.5261421  73.7827158  61.5871668  59.6784639  73.6035490  61.9940758
  61.1678839  73.4448433  62.2118568  46.0729170  74.6279955  28.1209111
  46.3132048  73.8309050  27.6485276  45.9223843  75.2773523  27.4339557
  73.8720465  45.3823090  46.9865131  73.9989805  44.5072269  47.3530483
  74.7543144  45.6785107  46.7626667  44.0736818  85.4018497  26.6077423
  43.4576225  85.2062893  27.3137569  43.6942577  86.1590004  26.1616540
  41.8700600  85.5915356  52.3888397  42.4480152  86.2567711  52.7625561
  42.4426937  85.0601196  51.8357468  89.0414143  53.2058573  61.2431908
  88.1226444  53.2682276  60.9820127  89.5306301  53.3325243  60.4302597
  37.8419137  65.9499502  48.3113098  38.7162828  66.2307072  48.5812807
  37.9943585  65.3919411  47.5486708  46.4392900  71.6039705  58.4391975
  45.5686712  71.2601423  58.2391214  46.8552542  71.7149734  57.5842810
  50.9676565   6.0140806  39.8056865  51.4585031   6.5837866  40.3979063
  50.6730665   5.2905184  40.3587818  36.6653725  33.8119850  72.9319282
  36.0055062  33.7438259  72.2418831  37.4897811  33.9413271  72.4630408
  54.4315529  59.3330526  57.1870184  54.5737457  58.8191843  56.3920641
  54.0836239  58.7044621  57.8195095  85.2909139  10.9067541  26.4388728
  84.3671993  11.0410029  26.2268496  85.3733447  11.1995608  27.3464537
  77.0279121  63.0836344  61.0054922  77.2281170  62.2014475  60.6926060
  76.4323425  63.4418011  60.3472757  83.2599449  86.7258644  67.1210194
  83.4695053  87.6571369  67.0498562  83.0909538  86.4488983  66.2204838
  68.6674881  50.9334850  64.3523932  68.0144167  51.5696716  64.6439409
  68.5402203  50.1789379  64.9274540  60.8434772  66.9042063  50.2284384
  60.0478268  66.4388752  49.9702883  61.5557480  66.3894844  49.8490143
  33.3196449  83.3456135  26.3077307  34.2752314  83.2952881  26.2842298
  33.1011248  83.3169174  27.2392130  65.5031347  64.9378347  65.4851246
  66.3207340  64.8427916  65.9737253  65.2047443  65.8244944  65.6876898
  71.0202265  75.2879190  38.4259462  71.0463667  75.5336094  37.5011849
  71.7858219  74.7261190  38.5462403  37.6681992  47.9666767  68.0377130
  38.3728215  48.3274040  67.4995468  37.2525641  47.3097572  67.4792014
  81.9299796  17.5665957  41.9362402  82.7842906  17.4560362  41.5189028
  81.4000800  18.0201441  41.2807035  44.7953844  88.0802345  32.9148173
  44.4816065  87.6270294  33.6973643  45.5957937  88.5218906  33.1985688
  40.2270746  58.3519173  34.7799253  40.8493376  57.6403522  34.9306011
  40.7745075  59.1078949  34.5676827  17.5027956  12.0520598  27.7769208
  17.3487104  12.7330786  28.4316778  17.3462595  11.2311941  28.2437301
  14.1960440  66.7509794   6.4251739  13.5619650  66.3829994   7.0406151
  13.8077650  66.6013527   5.5631536  58.6482000  81.0462284  49.5674658
  58.8940763  80.1966286  49.9334764  59.2351151  81.1641598  48.8205719
  52.5660753  60.9056377  40.2055788  53.0063152  61.7269945  40.4242086
  52.4853134  60.9236336  39.2519617  82.0364145   3.1971270  29.7888756
  81.9403938   2.4401575  29.2109418  81.5122321   2.9782778  30.5593061
  22.6210093  70.7343721  57.2678661  22.0666766  71.4967728  57.4342775
  22.9477310  70.8654976  56.3777590  70.3166914  67.2498989  39.1523552
  70.0099277  66.3606453  39.3294358  71.1724854  67.1304798  38.7405372
  34.0838814  69.4633627  34.5461416  33.7323093  68.6483812  34.9045229
  33.6816978  70.1513386  35.0763917  86.7844251   0.6238371  24.0275574
  87.0557454   1.4148909  23.5618734  86.0912517   0.2510649  23.4827805
  53.0928612  82.2271919  47.7794695  52.7225113  82.1267033  48.6563826
  53.0603409  81.3475227  47.4034929  37.4016881  66.1137581  44.1089153
  37.5757694  66.6617298  43.3436394  38.2527375  65.7367754  44.3321466
  21.1102117   4.6934992  52.2886753  21.3905634   3.7818438  52.2079992
  20.2054990   4.6944243  51.9760513  39.0363812  43.4708595  51.0113478
  39.0412474  42.9947662  50.1809597  38.9730525  42.7876520  51.6787720
   4.3450747  47.4579096  45.8029890   3.7181960  47.9045296  45.2339649
   3.8435374  47.2424030  46.5892744  72.5457144  64.5253754  18.0105376
  72.4752378  64.4879675  17.0566690  71.6816473  64.8149681  18.3033717
   4.2316924  71.6287231  53.8950777   4.1614352  71.6498041  52.9406929
   3.6062346  70.9568834  54.1664982  54.8605490  55.9912300  26.8658042
  54.1271639  56.5827131  27.0347095  55.5931425  56.5712595  26.6581917
  72.7139378  51.8074560  42.0782232  72.8075266  52.4341774  41.3608027
  71.7920017  51.5512228  42.0536757   9.7834298  16.6056070  66.0004715
   9.4228598  15.8672533  65.5094973  10.5842206  16.2617836  66.3963906
  76.1355403  22.4948508   8.0932444  75.4241231  22.8890330   7.5885242
  76.8908265  23.0574805   7.9222816  13.2371722  65.1546240  48.5689735
  13.8882933  64.5576668  48.2003212  13.5894881  66.0281706  48.3986044
  68.5629988  77.8369808  44.0091610  69.1050529  77.0983410  43.7319899
  67.8773642  77.8939390  43.3436584  82.1262074  58.1127405  31.9716477
  82.9787159  57.9227781  31.5800047  82.3309803  58.4127235  32.8572607
   8.5106195   6.1252695  30.1148200   8.8274921   6.1875922  31.0158992
   7.7589191   5.5348498  30.1655626  18.4347357   4.6309382  53.7440205
  18.9698805   4.8983485  54.4912481  18.7190450   5.2010065  53.0295801
  74.7981930  54.8783493  33.0047989  74.6129704  53.9442348  32.9080892
  74.0959120  55.2047920  33.5673547  46.9795609  66.5097284  25.4601979
  47.1990728  66.7835855  24.5696640  47.3198509  67.2101021  26.0168958
  90.9895089   2.9164034  41.7432022  90.8638528   3.2587248  42.6282167
  91.5108636   2.1229559  41.8650818  74.9695206  76.6213608  21.6470695
  74.3931580  76.6526794  22.4106526  74.4743919  77.0598602  20.9551144
  42.2764015  62.5506449  24.4679880  42.0312834  63.3838224  24.0655446
  43.1467342  62.3620081  24.1170311  64.5936537  67.3203897  18.2719529
  64.3760872  67.4600601  17.3503304  64.3993330  66.3959455  18.4264815
  93.9487648  76.5337086  35.4026198  93.7619305  76.5042305  34.4642949
  93.2123375  77.0160580  35.7784367  86.5301183   3.0412775  47.0355225
  86.0654929   3.8780981  47.0446682  85.8366731   2.3827463  46.9942188
   3.1303689  38.8077697  58.1673042   2.7229640  38.6806068  59.0240900
   3.9961621  38.4084758  58.2521443  42.4325657  63.0052042  50.3917265
  41.6257715  63.2343578  50.8530283  42.1536350  62.8331137  49.4923878
  43.1414080  85.6187248  20.5948329  43.7832403  85.8594704  21.2629128
  42.9025602  86.4486790  20.1820707  59.3369102  59.2265844  44.7734308
  58.5339212  59.0429211  45.2609873  59.7318363  59.9676847  45.2328157
   8.2115949  18.6261469  57.5464106   9.1371454  18.5269266  57.3233700
   7.7525724  18.0700880  56.9168663  71.0842943  70.7168484  64.6189165
  70.8553362  70.1748705  63.8638878  70.3588533  70.5934954  65.2310896
  43.3026981  72.0608759  22.8862762  42.3561287  72.1014023  22.7499175
  43.6117792  71.4312744  22.2348905  49.5825005  62.4445677  56.7462826
  48.6859512  62.7203226  56.9370317  49.6220732  62.4027586  55.7908154
  74.8851347  53.1685495  48.6546183  74.6641397  52.5747490  47.9371309
  74.5839214  52.7152872  49.4420576  59.7000933  71.4357996  55.8405590
  60.4787970  71.9524479  55.6333876  59.4703102  71.0076857  55.0158453
  64.2400789  63.6519194  44.3926144  64.6424818  62.9329967  43.9053202
  63.3312464  63.3781910  44.5164299   9.5977316  38.5647511  47.3944569
   9.7899542  37.6270580  47.3984385  10.4141627  38.9754009  47.1097898
  74.6027899  84.4097328  32.6820517  74.7159529  85.1408672  33.2893920
  75.1955366  83.7329292  33.0088806  36.4990187  60.8160353  21.8100953
  37.0770478  61.5691710  21.6880131  35.8221173  60.9228134  21.1417890
  89.6294212  80.4420280  12.3597109  89.0558720  81.0918045  12.7659905
  90.4042339  80.9382057  12.0956993  53.2090473  83.3240223  14.7228050
  53.7988472  83.3709908  13.9703655  52.7600145  84.1693401  14.7282898
  70.7971811  67.3382187  51.1128807  70.7845163  68.2105970  51.5066147
  69.8840857  67.1658468  50.8831549  70.2436543  76.3431597  25.1863742
  70.9474182  75.8354378  25.5903101  69.4966984  76.2264109  25.7734489
   7.6931061  14.9290663  25.6963682   7.3835577  15.5991083  26.3058448
   7.0399727  14.2317873  25.7550550  16.9592203   1.8264109  41.3564682
  17.8346647   2.2080714  41.4209270  16.4673532   2.4451453  40.8165884
  49.8109674  82.9051971  66.6653013  50.0254536  82.3673248  65.9031153
  49.6151733  83.7687016  66.3016319  87.4722862  80.8048534  29.8122573
  87.8845978  81.5666294  29.4049001  86.8049335  81.1743164  30.3905010
  14.3175326  85.3542900  49.2452431  14.8538504  86.1208057  49.4478655
  13.9491949  85.0900650  50.0882959  17.9866991  46.1100149  33.9006400
  17.2585307  46.4653635  34.4102812  18.3499346  46.8674088  33.4416842
  53.2567835  76.7168808   0.3789951  53.7419224  77.4828148   0.0720555
  53.8913155  76.2242222   0.8994620  54.1541529  54.2738104  45.6458521
  54.4638586  53.3978128  45.4157495  54.9146748  54.7008181  46.0401917
  55.8146429  55.2841473  47.9489470  56.3510036  56.0114765  48.2644558
  55.0696993  55.2577972  48.5494471  38.1726003  83.1762409  35.7012200
  38.6986637  83.9742470  35.6493831  37.2713208  83.4883499  35.7819629
  57.5965050   2.3938757  38.7270045  58.5020855   2.1620756  38.5210323
  57.6701144   3.0994994  39.3695927  78.4635639  84.5647526  55.7667732
  78.8615942  84.8558044  54.9463558  78.1879950  85.3729916  56.1992598
  47.8760529  82.4702740  30.7979989  47.7474022  82.8366566  31.6728950
  48.7267733  82.0339203  30.8437848  82.3892307  75.0154972  44.7214365
  82.9252338  75.3912926  45.4198027  81.5040302  74.9925423  45.0849152
  66.3982105  43.7283421  60.5475998  66.5059566  44.5123959  60.0091934
  66.1121941  43.0529213  59.9325943  51.7228696   9.6539125  76.1345698
  51.1688802  10.0526533  75.4635007  51.3629719   9.9722204  76.9624489
  37.2417355  64.7414207  53.9986324  36.4437079  64.3379307  54.3400764
  37.8112125  64.0023613  53.7848139  83.6715412  50.3384590  34.6529412
  83.2818508  50.1155233  33.8075614  83.1716728  51.0970211  34.9545169
  66.0107470  75.7691288  67.5330019  65.2528477  76.2418604  67.1889782
  66.6600180  75.8143044  66.8311167   7.3584474  14.0601736  47.1689796
   8.1363262  13.7710387  47.6459837   6.8103851  14.4762904  47.8343439
   0.1836218   2.1888930  40.5700016  -0.7225786   2.3328406  40.2974081
   0.6726040   2.1214968  39.7498846   5.4327852  60.4016733   0.9190888
   6.0616571  60.9160519   0.4129596   4.5917404  60.5637407   0.4917620
  50.2726460  67.3042727  13.6100769  49.6261024  66.9830275  12.9815745
  51.1166239  67.0515537  13.2358181  61.2789345  72.8599548  23.3315873
  61.0063696  72.0241785  22.9528832  62.0066166  72.6343727  23.9110875
  44.1484976  72.5331926   3.8321853  43.8393831  73.0261898   3.0721599
  43.3935118  72.0100641   4.1015637  59.0715218  73.3057213  34.4953489
  59.0329790  74.1266727  34.9860501  59.7861719  73.4329605  33.8713956
  51.3760185  69.5868397  57.9892540  52.2749043  69.2586517  57.9663754
  51.0511541  69.3353510  58.8538074  53.3164358  69.7035456  46.8480587
  54.0697813  70.1393890  46.4496279  53.1218433  68.9749622  46.2585449
  24.6239781  73.0623865  23.0091023  23.8388109  73.3397818  22.5370836
  25.1467156  73.8597536  23.0938601  92.0483640  18.2332617  52.2264481
  92.3282674  18.6725718  53.0295038  92.1609119  17.3009402  52.4117613
  79.0084696  70.2570677  30.4830027  78.3914232  70.2553701  31.2147713
  78.9473009  71.1407280  30.1201820  13.3526863   3.9993197  17.4818897
  12.4860586   3.9151293  17.8795099  13.5110153   4.9427992  17.4501538
  79.5357847  62.6003885  32.6151228  79.7735405  61.9398212  33.2657814
  80.3591537  62.8091478  32.1738505  74.3773460  66.6228771  50.6031513
  74.4381666  66.5463066  49.6509552  75.1282406  66.1284304  50.9316444
  21.5752805   1.5683276   1.0964253  21.8434061   1.2714964   1.9660389
  22.2003759   2.2588259   0.8757509  68.2337189  80.5862808  59.1551590
  67.5237131  79.9714994  59.3400002  67.8011084  81.3358593  58.7462282
  57.8250170  41.7904282  18.5784709  57.5102329  40.9930706  18.1526077
  57.9553461  41.5382671  19.4926155   2.5628151  46.9943053  47.9687262
   2.5547899  46.0829836  48.2614183   2.4805416  47.5052267  48.7739706
  81.5399984   3.3989722   0.3377156  82.3877671   3.4987170   0.7708117
  81.6617063   3.8008982  -0.5224429  52.7263260  59.0789652  11.2471056
  52.9296589  60.0107431  11.1653745  51.9737577  59.0489578  11.8378425
  43.2829905  82.2330761  18.7487471  43.0848074  81.9477654  19.6406877
  44.0113878  82.8458595  18.8495672   7.5955115  73.1690216  18.4942842
   8.4500609  73.5971975  18.5456538   7.7271662  72.3201609  18.9165747
  89.8882771  70.5434465  62.5516367  90.0640202  70.7810068  61.6411877
  89.0155506  70.8954048  62.7268267  80.4920006  82.5531101  69.2060280
  81.2855625  82.0584011  69.4104147  80.7881260  83.2492733  68.6196041
  81.0550404  82.8947067  46.2799883  81.4339161  82.8174019  47.1556091
  81.3622856  82.1156406  45.8164310  75.8373359  12.6463419  42.5290918
  75.3694156  13.0545813  41.8006563  75.2520231  11.9514471  42.8303576
   6.3853658   2.8287131  14.4358647   5.7346548   2.1623999  14.6568716
   6.0198702   3.6437994  14.7797680  23.0989374   8.9848715  19.2919993
  23.7827028   9.5435530  19.6615458  23.1267465   9.1623694  18.3518124
  70.6130695  61.2340164  52.2137260  70.9019852  60.4174423  51.8063307
  70.2133226  61.7298412  51.4991713  41.4683580  84.3541241  27.8402209
  40.8360195  85.0463486  28.0331087  41.1629391  83.9733791  27.0168257
  65.0351810  74.0611029  44.6912813  64.2658710  73.9482927  44.1330051
  65.5512524  73.2671976  44.5512104  22.0588888  10.8940131  42.1011925
  21.1263765  10.7025153  42.0013046  22.5013365  10.1449305  41.7020178
  57.3140812  66.4964199  18.2264471  57.9682255  67.1940708  18.1862962
  56.4929438  66.9488430  18.4195316   4.5946706   9.2643744  55.3005552
   4.0714897  10.0131041  55.5867529   4.0057672   8.5144812  55.3847599
  19.7713007  32.5003821  38.7604547  18.8497556  32.2417933  38.7711859
  19.9413027  32.7433592  37.8503489  10.9183894  78.1990194  51.5359068
  11.6121588  78.8563204  51.5894413  11.1014471  77.5981760  52.2582006
   8.4825767   4.3977934  18.6132121   8.7287821   5.1947218  18.1436265
   7.5255645   4.4127566  18.6250603  17.6292337  -0.0148100  10.0634742
  17.5132765   0.8364207  10.4855871  17.0601524  -0.6060213  10.5562651
   0.0884880  22.8150564  40.3675318   0.3853286  22.6586920  41.2640047
   0.6582035  22.2672182  39.8275971  90.3193429  24.5858866  46.4323664
  89.4897321  24.2285353  46.7490339  90.5799678  23.9957529  45.7252264
  55.6239125  39.7517070  73.5960950  54.7276303  39.6168766  73.9038785
  56.1650082  39.2535076  74.2086641  91.0562134  79.6032667  42.7568913
  91.6409588  80.3327751  42.5516605  90.2145386  80.0173187  42.9476309
   2.6148520  67.3308182  42.4450254   2.3534403  68.2456684  42.3404026
   2.2167788  67.0611238  43.2726955   5.9947647  45.8117873  54.2839622
   6.5405143  46.5217406  54.6221304   5.9107746  45.2036291  55.0183439
  69.9199486  76.2715912  42.1125889  70.7195568  76.1674738  42.6283550
  70.2006578  76.7425251  41.3279533  24.0344156  31.9772536  39.9877763
  24.4239725  31.1831957  39.6217728  24.2551531  32.6641852  39.3587804
  15.5695213  24.7173888  20.1128197  15.7774700  25.1487070  19.2839932
  16.0712303  23.9024931  20.0912356  63.3040953  83.1258392  65.7724142
  62.9160833  82.3855591  66.2389565  64.0519381  82.7505684  65.3075171
  69.7803545  71.2034369  55.5213261  69.4059277  71.7825937  54.8575354
  69.0291262  70.9178019  56.0412312  23.0905451   8.8410956  74.0311050
  23.5323919   9.3649107  73.3628035  22.1755518   9.1187102  73.9867973
  69.0628815  68.1846952  55.3373528  68.9967442  67.2318125  55.3995323
  69.3930197  68.4582233  56.1931705  32.8130579  64.2982626  61.8841791
  33.7518167  64.2209148  61.7139482  32.7450871  64.9907875  62.5414610
   2.6965679  24.7346884  27.8431678   2.1287788  25.4795653  28.0406618
   3.5643543  25.1202875  27.7228093   1.1454023  14.2948157  32.3905706
   0.9154190  14.8290259  31.6303372   2.0979274  14.3652827  32.4534965
  70.8556175  76.0896730  35.8807230  70.3471184  75.4547119  35.3762603
  70.3105354  76.8763876  35.8944106   6.1786474   2.4682432  45.9648705
   6.0308994   3.4138590  45.9795856   7.1245302   2.3718649  46.0755444
  20.5196680  47.5177676  37.7167916  20.1157488  46.8591315  37.1517539
  20.5292906  47.1150404  38.5850954  77.3440886  87.9984283   2.0275892
  78.2000923  88.4042549   2.1646963  76.7165184  88.7034035   2.1869695
  81.6863492  14.9376017  30.9060645  81.3189605  14.2621714  30.3359294
  81.8476537  15.6803805  30.3242707  29.3500420  54.2718181  75.7648097
  30.1163003  54.7033557  76.1427834  28.6965558  54.2884883  76.4640296
  87.5103048  16.5610129  30.5488324  87.3906139  15.9722239  31.2939739
  87.0547679  17.3637968  30.8023190  47.7174807  61.7547178  26.3627148
  47.6917267  60.8871460  25.9591222  47.3204041  62.3335171  25.7119036
  51.2967253  87.9285049  67.2043514  52.0724154  87.4617767  67.5153160
  51.2040901  88.6668777  67.8063917  67.7123563   9.9419305   4.4687923
  66.8619649  10.3345010   4.6661265  68.3156793  10.6840703   4.4305976
  27.5194086  15.9922510  16.7187071  28.2654966  15.7267195  17.2563756
  26.7573274  15.6308657  17.1713185  11.9366897  18.9757353  35.2484179
  12.7290167  18.4388167  35.2352309  12.2405733  19.8447329  35.5105591
  80.8867073  70.9150124  56.9956017  81.3578033  70.9692287  56.1641121
  80.9594345  69.9958324  57.2525930  92.8587583   0.4287726  32.8500152
  93.4182075  -0.1946634  32.3867989  91.9766286   0.0665671  32.7670503
  15.5784235  87.7299023  50.1295233  16.1851035  87.2720051  50.7113361
  16.1390601  88.2859135  49.5884562  61.7966938  80.2949524  64.3728399
  61.3685036  81.1493015  64.4274235  62.0074081  80.1914978  63.4448719
  69.6787074  10.3647333  66.7960978  69.1194371   9.7039992  66.3875723
  69.6952275  10.1248652  67.7226067  82.8839591   2.7653128  23.0007601
  82.2932485   2.0262629  22.8554988  82.5187019   3.2180601  23.7609196
   0.2251924   1.9084650  23.8696122   0.5817283   1.0339075  23.7138462
  -0.5752884   1.7548853  24.3714905  78.5966301  87.7610016  37.6018143
  78.5511827  87.5076008  38.5237432  77.7838516  87.4278641  37.2215033
  50.1391315  78.3614779  45.0797939  49.5638323  78.7689257  44.4323015
  50.5565023  77.6400566  44.6090651   1.0246478  64.9578285  39.8521733
   0.3050909  65.5890131  39.8427749   0.9834395  64.5605850  40.7220745
  26.5571785  68.6001539  46.7356634  25.6647086  68.2782412  46.8625450
  26.8070126  68.9558411  47.5884867  50.0370881  35.3034696  75.9127506
  50.1150700  35.4720459  76.8517569  50.5575368  34.5134124  75.7672136
   3.5620607   7.3968893  12.8194714   2.7169002   6.9751364  12.9746139
   3.4552015   8.2824045  13.1668520  70.7136679  86.7993546  34.7373414
  71.3001490  87.3974514  34.2741489  71.0241508  85.9261513  34.4978952
  22.3200811   7.2242647  59.7393656  23.0599512   7.7884299  59.9641848
  22.1358885   7.4251086  58.8217783  59.4493484  62.6150560  14.0157330
  58.5198355  62.6640844  14.2389619  59.4755745  62.7495241  13.0683875
  78.0339146  71.8751955  51.9156313  77.6952505  72.7697945  51.8805599
  78.8905478  71.9265890  51.4916420  91.4343166  32.8185987  42.4439144
  90.5812168  33.1339693  42.1455717  91.2318420  32.0541573  42.9832363
  12.3148740   5.9696204  12.8855968  13.1009687   6.2440401  12.4133921
  12.1098579   5.1058012  12.5278127  37.0028329  86.0032177  47.9080868
  37.0750594  86.4676666  48.7419367  36.0702753  86.0372162  47.6949835
  32.8191961  20.8529574  52.3797035  33.3391775  20.9160334  51.5785360
  33.4610857  20.6826407  53.0690527  73.5422516  76.8250704  17.7471077
  74.2713690  76.6929197  17.1411729  73.8941193  77.4051094  18.4223676
  63.3927774  74.9345350  18.8996899  64.2892265  74.8387814  19.2213070
  62.9658890  75.4984951  19.5446312  80.0245762  69.8926973  40.5064106
  80.8799839  70.2748203  40.3102064  79.4189739  70.3481150  39.9215436
  65.0594330  81.0660839  11.2916636  64.4142962  80.6395817  10.7276428
  65.8534050  81.1075401  10.7586336  86.2467289  73.0626774  69.1332626
  86.8628979  73.5451794  69.6844101  85.7239437  73.7418938  68.7071371
  29.2915262  31.6606814  30.7396913  28.7150301  30.9646708  31.0550547
  29.6778406  31.3070685  29.9384761  23.5913131  30.9172830  71.2514113
  23.7655923  31.4492330  72.0278690  23.1589314  31.5163288  70.6427906
  13.5552801  19.8279005  30.2390766  13.2637848  20.1643378  29.3916869
  13.9052499  18.9585787  30.0440884  12.0542345  72.7711105  37.0157290
  12.2680293  73.6742878  36.7816520  11.3721953  72.8515339  37.6825047
   6.9468317  66.7645216  27.1276379   7.4684630  66.2419271  27.7367663
   7.1140299  66.3715839  26.2709713  10.9591354   3.2619387  22.9500222
  10.3331770   3.0052859  22.2728634  10.5733503   4.0414244  23.3497643
  88.0998707  61.6179276  35.0813627  88.1388855  61.7998934  36.0202980
  88.9022923  61.1291027  34.8985863  51.6428328  66.4992142  55.5753565
  52.5220776  66.3644934  55.2217817  51.2657499  67.1853256  55.0246334
  69.6254444  83.5195065  13.7311232  68.9700985  84.0642262  14.1670537
  69.5911932  82.6842690  14.1974092  66.1851338  21.5125758  41.9010782
  66.2257293  21.6920000  42.8404331  65.6340936  22.2108179  41.5474606
  54.7411442  68.7706804  11.1516464  55.5590582  68.8364649  10.6587732
  54.4406557  69.6752977  11.2388837  21.9183840   5.6382567   9.8593342
  22.6041044   5.4928023  10.5111408  21.3046182   4.9158293   9.9920994
  61.1109734  82.9016399  52.9291058  61.1891890  83.5559559  53.6233521
  61.3615751  83.3676434  52.1314383  87.0257524  26.3014990  58.6508703
  87.7575115  26.1038786  58.0663157  86.9833520  25.5511481  59.2436647
  85.5138779  52.0672464  46.4991045  86.1812878  51.6587496  45.9478092
  84.6960735  51.9420576  46.0176802  88.6847305  87.6727295  43.4446526
  89.0113544  88.2267570  44.1535950  88.2190418  86.9644642  43.8893175
  75.6534290  70.7722807  52.3056555  75.9358120  69.9639130  52.7334833
  76.4637041  71.2589502  52.1545267  82.0092678  66.6152143  48.3371210
  82.9096603  66.9397545  48.3228111  82.0867729  65.7066154  48.6281061
  82.9319668  83.4269905  44.2661905  82.5197315  83.8675880  45.0092697
  82.3746204  83.6450672  43.5191631  12.6540531  10.9506899  46.0229254
  12.9591860  11.0540015  46.9242859  12.3857034  11.8306452  45.7585621
  58.9846706  67.9469061  16.5423667  58.7697077  68.7529421  17.0117640
  59.9256849  67.8349209  16.6771889  20.8368502  54.2672825  24.0778160
  21.3657484  53.8241339  23.4144020  21.4630328  54.8030376  24.5647383
  14.8185648   1.4780718  68.0911016  14.2474569   1.7785555  68.7980461
  14.8788131   2.2264677  67.4973726  31.3811994  71.4473248  23.9546084
  30.4871249  71.2215424  23.6979318  31.8211317  71.6571760  23.1308031
   8.1482280   3.6781699  24.5902586   8.0791630   3.2772166  23.7238312
   9.0584768   3.5341078  24.8489690  93.9810276  75.0207472  44.8995686
  93.0406094  75.1499844  45.0226259  94.3644810  75.2249241  45.7525063
  65.3397894  58.2706976  17.3104501  65.3436184  58.6389732  18.1939602
  65.4027367  57.3250723  17.4448562  81.8207553  17.9603869  59.5499229
  82.4033407  17.7194601  60.2701902  80.9534028  18.0142790  59.9512053
   4.6967421  73.5205698   9.8330259   4.9561892  74.1659880   9.1754866
   4.2032633  72.8635502   9.3420708  59.6101665  83.0830097  30.8454704
  60.3470087  83.0766582  30.2345228  59.1425610  82.2674751  30.6652522
   4.4292606  10.5556113   4.9025819   4.1496528  10.4362589   5.8102196
   5.1195444   9.9044806   4.7770172  92.1249771  87.9443264  52.3811007
  92.3364353  88.8628960  52.5476980  92.1137619  87.5399876  53.2486296
  49.4270563  36.6203094  27.3199821  50.1839733  36.9915819  27.7732682
  49.7931910  35.9274411  26.7703319  69.7463131  54.9748993  25.1783395
  69.2061901  55.7077074  25.4741287  69.7712517  54.3784189  25.9265518
  69.8138073   7.6026446  15.9167612  70.3562001   7.8458411  16.6670239
  69.0315965   7.2097212  16.3040447  77.0638800   3.4322229  67.1419035
  77.2433424   4.2032495  66.6038088  76.8511868   3.7868563  68.0051712
  64.3133354  86.9087696  30.8815098  64.7948170  86.7462635  30.0703359
  64.5953846  87.7810574  31.1568046   1.8089927  26.9839579  14.1148877
   1.2597908  27.6993567  13.7942362   1.2475361  26.2102991  14.0654230
  17.8054057  81.8130302  20.7724667  17.6410494  82.7347088  20.5731344
  17.8008852  81.3789749  19.9193513  91.9832137  31.5918642  21.3231182
  91.2162641  31.9469076  21.7725277  92.5187257  32.3590189  21.1208081
  77.2839642  81.9998741   6.5198255  77.0952940  81.0614681   6.5146756
  76.4519978  82.4101543   6.7558861   8.3685220   6.1153990  50.2073622
   7.5090088   6.4826876  50.0010538   8.9874948   6.8050867  49.9677181
  50.4180826   0.4034621  45.8604002  50.5448450   0.7231814  44.9671221
  51.2647642   0.0286585  46.1030483  55.9028101  35.2246261  59.7759819
  56.7510891  34.9666262  59.4153023  55.6751871  36.0253620  59.3034935
  78.5609102  88.0483437  47.3811960  77.8764725  88.1019402  48.0482054
  79.2326880  87.4893856  47.7717257  86.7382816   3.6526972  43.1572962
  86.0791305   2.9812628  42.9814434  86.3243774   4.4717509  42.8851414
  56.3286400  75.3670120  11.5958560  55.4438162  75.7098389  11.7215073
  56.9012880  76.0443544  11.9557416  41.7426729  88.9413929   1.6226357
  42.4519682  88.4381199   1.2228234  41.1816359  88.2819462   2.0308137
  84.4220165   5.5658823  17.2997451  83.9195731   5.3878695  18.0947900
  84.4360259   6.5207201  17.2340250  70.7346252  16.5283781   2.3565653
  71.6690925  16.5693384   2.1532774  70.4367569  17.4361616   2.2979978
  91.1322788  11.7242342  17.9081452  90.7728771  10.8377940  17.8722632
  90.6395725  12.2094160  17.2462821  27.4902391  71.7906475  52.9178476
  27.3575640  71.3564110  53.7605000  27.8334188  72.6548243  53.1451368
  23.6270059  44.1238505  38.4584856  23.8464082  44.5682246  37.6395655
  24.4741453  43.9177710  38.8535833  40.3076172  79.8811054  11.4857078
  39.3729949  79.8795891  11.6923690  40.7327127  79.6024275  12.2967970
  70.4766512  89.1419792   9.9266541  70.5898142  88.1974697   9.8202688
  69.9934530  89.2343330  10.7477641  37.0619678  77.7630806  57.4734688
  36.1661410  77.4342012  57.3989058  37.0175815  78.4245396  58.1639290
  82.9418996   1.7912680  47.6814508  82.1580365   2.2810274  47.4326038
  83.0381635   1.9539934  48.6197901  91.8223241  24.2029578  32.7910089
  90.9527162  24.5063883  32.5303555  91.8794349  23.3127886  32.4437690
  59.5681855  17.8100500  75.0273359  60.2766225  17.1737871  74.9298404
  59.0140435  17.6710567  74.2593209  74.0937996  62.2655392  34.6824932
  73.3192825  61.7048407  34.7268724  74.3003702  62.3152065  33.7491703
  57.5431919  67.4104548  51.2456083  56.6075420  67.2823429  51.0894775
  57.9505396  67.2657728  50.3915787  79.6654180   4.0163904  17.9406202
  79.7549394   3.6690241  18.8280666  78.8038686   4.4333941  17.9324114
   5.7903589   8.3344847  49.5543289   6.5646948   8.4917647  49.0140533
   5.2642263   7.7179438  49.0451241  93.8170624  67.5671721  39.3725681
  93.9100075  68.1970310  40.0873232  92.8896618  67.3303509  39.3810987
   4.4238768  63.9714146  70.9444714   5.1621352  63.5311365  71.3656235
   4.0673075  63.3182955  70.3423738  57.1937132  87.1437359  57.7760220
  57.8866625  87.5522041  58.2948685  56.4691210  87.0303917  58.3911276
   4.7250570  26.8055826   8.7651539   4.0181698  26.1706358   8.8808501
   5.1821579  26.8109995   9.6061432  61.4912537  12.4959379  47.3869085
  61.5009406  11.5457159  47.2719240  62.0412496  12.8286368  46.6776514
  61.0895824  55.6112337   8.1322116  61.7466831  55.7484627   8.8145739
  60.3690243  55.1673222   8.5793889  13.7256217  69.1491652  36.6635418
  14.6733892  69.1201448  36.7944074  13.3672726  69.2944670  37.5391603
  46.1950064  87.4500370  56.4271736  46.3676500  86.6783714  55.8877754
  46.8651009  87.4197388  57.1100283  19.1329877  22.9366013  18.4605106
  18.7184255  23.4247205  19.1719230  19.0424363  22.0184371  18.7154658
  24.6518911  54.9360567  19.9150169  24.9105848  54.2424113  20.5217910
  24.8327841  55.7481104  20.3883743  49.6482542  12.5395399  31.3982177
  50.4146519  12.3947245  31.9531012  50.0115624  12.7837855  30.5469942
  54.6489051  21.8887240  50.1134014  54.4723299  21.9533259  49.1748524
  55.5285218  21.5149790  50.1664639  12.4935878  27.4037653  33.6638260
  11.8137134  27.0430285  33.0947304  12.2367157  28.3164793  33.7950015
  54.6289539  53.7175608  57.4799490  54.5566750  54.4832706  58.0497646
  55.1356840  53.0860567  57.9904890  85.9242299  17.1842963  61.9768715
  84.9923280  16.9892317  62.0755768  86.3689283  16.4438826  62.3895025
  30.1583971  21.9067389  52.5100040  31.0750688  21.7844969  52.2629976
  29.9931635  21.2256628  53.1619787  12.4191774  11.0120207  53.0682611
  12.2691215  11.5184504  53.8665342  11.6382898  10.4653555  52.9810905
  15.7965339   3.0382162  17.6429248  14.9027313   3.3784300  17.6027775
  15.9421695   2.6453883  16.7822814  43.5977650  80.2082062  16.8013275
  43.7389898  80.6484127  15.9631729  43.5760021  80.9174919  17.4437177
  16.8275989   6.6965872   2.9175061  15.9684433   6.9924361   2.6165679
  16.9471325   5.8437449   2.4996613  85.6784585   9.7875029  30.3498912
  85.3676132   9.2401224  29.6287918  86.1013654  10.5313593  29.9208689
  21.9938207  81.9349670  23.0555892  21.4495969  82.2664356  22.3413205
  22.0346189  80.9902477  22.9070616  90.5236435  52.9120159  54.5934391
  89.7547340  53.1553268  55.1090002  90.2441406  52.1447754  54.0939856
  93.3458522   8.9792639  37.5127006  93.4066537   9.6044833  36.7904544
  93.0743650   8.1602484  37.0982885  70.0525331  25.2039599  65.6975269
  69.1394329  25.2629304  65.9785891  70.4193211  24.4926786  66.2226677
   3.6451353   0.5823904  38.1735229   3.5543598  -0.2153867  38.6946321
   2.8071989   0.6680971  37.7188182  10.0031580  17.4213988  47.0492458
  10.7109083  16.9222361  47.4568701  10.4187978  17.8673846  46.3112974
  77.3546937  20.8216196  41.6248274  78.1398586  21.3612086  41.5321493
  77.4646667  20.3814799  42.4676895   1.0699857   0.5195433  36.1478591
   0.3706897   0.2897936  36.7597699   1.0584224  -0.1818746  35.4966259
   5.3037463  67.2743464  34.8383403   5.7935534  68.0690432  34.6267271
   5.9714613  66.5915632  34.9031186  14.1794215  70.3267431  32.0735288
  13.9367972  70.6244564  32.9503036  14.4163332  71.1275196  31.6056991
  67.5728464  62.2628689  31.9852638  67.2088337  62.5152254  31.1367130
  66.9019413  62.5171423  32.6188731  73.5136509  73.2608175  50.5618048
  72.7728367  73.8595390  50.4671574  73.1852579  72.4208736  50.2410507
  49.3734503  72.5517607  45.8937168  50.1204157  72.2255516  46.3955784
  49.4157791  72.0756292  45.0644159  41.6536903  69.4956779  31.1148286
  41.2474298  69.5747900  31.9779181  42.5814962  69.6729660  31.2696743
  75.2015877  85.5754852  42.9366827  75.7898664  85.6869030  43.6835003
  75.5676842  86.1412811  42.2569132  22.1726987  82.5614318  68.6078636
  22.5816294  82.5366268  69.4729607  22.7975413  82.1171913  68.0347530
  29.1857446   2.8985316   1.5924725  29.8769106   2.2411448   1.5126896
  29.6536840   3.7302405   1.6667922  76.7956161  53.4438419  56.9905949
  76.4337063  53.4045124  57.8758669  77.6472998  53.8671589  57.0986080
  64.3762299  20.8717069  65.8228533  64.0911862  20.3794965  66.5927295
  65.2714154  21.1409959  66.0286753  89.7578049  38.1792235  62.5935698
  90.5518436  37.6845407  62.7961016  89.8795414  39.0192342  63.0360556
  76.2932062  69.8235989   3.0403185  77.1916962  69.5129490   2.9287782
  75.7492352  69.0997410   2.7299076  72.6841927  67.5651979  57.0221806
  71.8335962  67.9443359  57.2434759  72.8534746  66.9327307  57.7204370
  57.4689865  71.5135384  51.3662338  56.6593409  71.9307947  51.6605186
  57.2827530  70.5754280  51.4049196  63.1540823  71.2204027  15.9751725
  62.6451015  71.8516254  16.4838278  64.0332651  71.2630463  16.3512731
  91.8844560   2.1972948  39.2705131  91.1712602   2.5142103  39.8247170
  91.7370418   1.2536627  39.2067337  53.3430481  59.7554350  42.6567030
  52.4430847  59.7280502  42.9815817  53.2609415  60.0447178  41.7479658
  57.6120186  56.3860703  50.1266575  58.5629225  56.2832499  50.1646614
  57.4743080  57.1215487  49.5297146  75.6209612  76.3579893  13.5325491
  75.2902460  75.7169199  14.1617513  75.6173944  77.1870327  14.0109861
  86.6781095  40.7589060  34.6896434  86.1320117  40.8586127  33.9098549
  86.8690685  41.6556746  34.9645734  87.5779060  28.8301569  32.6892924
  88.5189155  28.6565405  32.6650548  87.2435239  28.2435995  33.3677936
  12.0679198  87.0193386  31.5963745  12.9488955  87.3136806  31.8276000
  12.1103583  86.8532085  30.6546569  59.7286272  70.6491613  35.2614713
  60.5301189  70.6442118  34.7381973  59.3468952  71.5132046  35.1067305
  71.9430640  10.5245310  73.6425447  71.1391524  11.0400015  73.5772705
  72.3142246  10.7660872  74.4911480  52.7514076  75.4017544   9.1803467
  53.1943846  74.5582533   9.2726290  51.8714619  75.2491140   9.5247757
  24.9752712  71.6570044  47.1248531  24.6096539  71.4771223  46.2587166
  24.7775292  70.8722401  47.6360035  72.2429419  67.7647448  62.0019197
  71.3544750  67.9928112  62.2754955  72.7837992  67.9438353  62.7710962
  92.5966358  70.9216499  57.4366903  92.3106289  70.2348900  58.0390072
  91.8130589  71.1388969  56.9316769  47.8788420  42.4507770  68.6927847
  48.0474993  41.5299282  68.8923375  47.6934811  42.8499946  69.5427845
  43.1578875  68.9124727  34.0388870  43.0206013  68.0087471  33.7548804
  43.5928774  69.3331480  33.2972336  50.1197243  75.9868670  17.6378357
  50.2675152  76.6897440  18.2705700  50.5197144  75.2153635  18.0391097
  48.0494261  88.0805111  65.1047897  47.1872330  87.7070618  65.2875090
  48.5101748  88.0407143  65.9428596  82.9333738   6.0431868  45.2775526
  82.7386144   6.6870028  44.5965195  82.1845773   6.0894114  45.8720207
  80.2829789  74.8511058  38.4633803  79.7041677  74.2396694  38.9187431
  80.8643888  75.1845974  39.1467381   1.8726240  12.6418531  19.4149351
   1.0759498  13.1224966  19.6397102   2.2231874  13.1024504  18.6525786
  84.3502675  88.5129337  11.6919827  84.0474235  89.3849552  11.9451571
  83.5562574  87.9785503  11.6772652  19.1559693  80.3359485  35.2535343
  19.8624083  80.5445266  34.6422482  18.4889313  79.9124598  34.7132111
   5.1418325  70.1240772  42.3973227   4.9832865  69.6932262  43.2372379
   5.6348249  69.4811267  41.8876123  12.9766604  73.9624494  63.1799221
  12.3875424  73.2137841  63.0867958  13.1610915  74.0068430  64.1181374
  23.9386559   8.0260289  37.1648264  23.4924865   7.1821374  37.2356200
  23.8158941   8.2860124  36.2518263  25.4444599  30.6018066  13.6404169
  25.0471425  31.4640760  13.5185015  26.3681459  30.7857108  13.8113379
  62.8025838  70.8947557  44.6933699  62.9645066  71.7718416  44.3459034
  63.6199282  70.6556028  45.1303911   5.2321359  87.9569807  51.6261673
   4.8261997  87.0918310  51.6806126   5.3504345  88.2238379  52.5377750
  90.1072525  39.0000319  40.9150457  90.9465509  38.9553261  40.4569960
  90.0985654  38.2240248  41.4753771   9.6913716  71.8403357  28.4998488
   9.6755263  70.9846038  28.9284539   8.8630244  71.8843538  28.0222106
  71.6573708  84.9912533  16.6587746  70.8485167  85.3843057  16.9866419
  72.1719550  85.7327774  16.3400638  26.4815736   0.3194922  10.2688801
  25.8669114   0.8760199  10.7471049  27.3338175   0.5134922  10.6591058
  71.0622482  80.6339323  36.0001802  71.0881387  79.7349256  35.6725383
  71.8639694  80.7243180  36.5152574  10.1389825   2.1055670  25.7139850
  10.5955911   1.9505951  24.8871088  10.7444739   1.7898791  26.3847709
  49.4868612   9.9250352  15.0741398  49.2244768  10.8397496  15.1775050
  50.1491356   9.7878265  15.7514882  16.7519498  21.0460663  46.9508553
  16.3069749  21.8295979  46.6278887  17.4074221  20.8498025  46.2814760
  16.3678405  74.0812093  25.5990911  16.0331628  74.3160695  26.4645767
  16.5370986  74.9208564  25.1718020  75.4104565  86.7176492  40.4558134
  75.2232181  86.0175261  39.8305130  74.7093319  87.3547870  40.3190184
  36.6029716  13.7430048  42.3448849  37.2434115  14.2121589  41.8101311
  36.6772985  12.8313398  42.0627928  67.4454382  65.2454868   5.1464732
  68.3407477  64.9303952   5.2704414  67.4086407  66.0635343   5.6421264
   3.4046957  69.2447656  26.1228609   2.5236055  69.4718105  26.4201188
   3.7986514  68.7895244  26.8670297  60.9122713  66.0863084  27.3375177
  60.0969990  66.4680713  27.0122170  61.1275716  65.4038614  26.7017937
   9.2136285  85.9479868  24.2348099   9.8808810  86.2958550  23.6432076
   8.6570021  86.7000607  24.4367576  23.7762713   3.6158565  32.3272443
  24.5852590   3.8404384  31.8675351  23.6462593   2.6856506  32.1427298
   8.5862517   5.9996438  42.9881811   8.2421559   5.2374417  42.5224781
   7.8442502   6.6018468  43.0431080  89.5494782  86.4798309  41.0566139
  90.4414498  86.8158065  41.1445856  89.0718828  86.8743384  41.7863417
  86.0335504  86.8119223  35.7996702  85.5380164  87.5961210  35.5636406
  85.9001790  86.2139425  35.0642347  39.6309829  22.7891302  32.7364206
  39.6856618  23.5386562  33.3292556  38.9714313  22.2189045  33.1314731
  81.2481259  73.0590373  34.2665267  80.9975039  72.4809521  33.5459447
  82.1844493  72.9003578  34.3863273  78.2178624  20.0611976  50.6423704
  77.7626164  20.0214008  51.4834420  78.9392264  19.4382623  50.7307665
  51.7170286  21.0891414  22.8820491  50.7711506  21.2133741  22.8038621
  51.8157244  20.1873350  23.1873941  48.2894087   7.3246580  42.2380829
  48.1398916   6.6162574  42.8642178  47.9126787   7.0036471  41.4187813
  62.1476460  15.7340240  53.6826849  62.3625469  16.2201941  52.8866386
  61.2632751  15.4016292  53.5289335  85.0791584  49.9030179  48.2544708
  85.7487427  50.4843825  48.6148977  85.5630003  49.3037671  47.6861191
  72.5338497  30.1337862  41.5606880  72.1726718  30.8598375  42.0692444
  71.8595876  29.9383903  40.9099770  87.5967799  50.8886307  45.1858854
  87.1959983  50.2383035  44.6090984  88.4129297  50.4810828  45.4757690
  14.6450850  56.1260432  26.0151458  13.8544032  55.7629675  25.6161094
  14.5096394  57.0734209  25.9960651  38.3103113  86.6672275  50.4888217
  38.0523186  87.0965096  51.3045351  39.2627554  86.7583892  50.4610292
  16.4958286  14.3609536  36.1123919  17.3634601  14.1259980  36.4413977
  16.0230625  13.5297978  36.0687518  85.5417906  86.9033416  52.5636625
  85.6914603  86.4795655  51.7185354  86.0472022  87.7149200  52.5174904
  23.8546324  21.4129353  15.4972219  23.8066125  20.5506396  15.0844586
  22.9530835  21.7343640  15.4860461  49.7955132  31.3994455  19.1850686
  50.6604862  31.8067503  19.1386080  49.5998287  31.3589263  20.1211762
  34.4082396  31.6780904  76.6983124  33.7836467  32.3335877  76.3877671
  33.8778655  31.0628918  77.2047370  54.3704462  16.4771402  21.4927793
  54.2694998  15.9457958  20.7030225  55.1829100  16.9633007  21.3521314
  16.0985514  77.9737157  74.1006994  17.0351264  78.1369060  73.9892054
  15.9818789  77.8846747  75.0465775  36.3628340  26.7464185   3.0197746
  37.1356893  26.8757653   2.4700490  35.6726003  27.2463799   2.5840637
  43.8633251  16.2938285  45.0482512  44.6654654  16.1940420  44.5355654
  43.1604338  16.2784934  44.3986845  41.7068338   0.5820181  29.4238615
  40.9519768   0.9757131  28.9863372  42.4646807   0.9331713  28.9563227
  39.5302534   6.0343337  27.9148126  40.0629139   5.3478914  27.5131893
  38.9889002   6.3670778  27.1989560  71.4109972  53.9066121   7.7024730
  71.5182308  54.6998396   8.2273753  72.2914937  53.7103543   7.3824103
  84.6024739  70.0876075  10.1417732  85.3836833  70.5861396   9.9021709
  83.9316260  70.7528585  10.2955091  40.6307459  21.6126394  28.9641500
  39.7067451  21.7659092  28.7667489  41.0007000  21.2891960  28.1427169
  30.0214219  23.6063862  69.5915651  30.5107594  24.2945123  70.0424147
  30.2885342  22.7973866  70.0279140  69.0689268  29.6175957   1.9182098
  69.1930952  29.7562528   0.9792806  69.0538945  30.4992628   2.2905952
   5.9025642  78.1196827  55.9491730   6.6259953  77.8599602  55.3787136
   6.0530230  79.0497065  56.1184359  78.4329207  87.1809152  53.9128439
  78.4943326  88.0698779  54.2624251  79.3357213  86.9442085  53.7003581
   4.2665431  53.1027979  55.3314018   4.6775600  53.6015290  56.0374880
   4.8525449  53.2190055  54.5835161  49.9242210   3.8751853  25.2030230
  49.1451693   4.3593213  25.4767466  50.3036737   3.5505408  26.0196328
  45.4531439  32.9394129  68.8737140  45.5616720  32.7994672  67.9330389
  44.8210366  32.2732106  69.1436170   8.0715507  74.3333081  70.1242564
   7.8398078  73.7595466  70.8545463   8.9079231  74.7217086  70.3808830
   4.5784423  83.5420275  35.0911736   4.8412034  84.4614550  35.0482678
   5.0212738  83.1314617  34.3484974  14.8001239  88.2395818   3.5804364
  14.4542453  88.8246106   4.2544833  14.0701958  87.6565825   3.3717588
  43.9119959  15.0118327  18.4762836  44.0417528  15.9469795  18.6340642
  42.9617596  14.8969567  18.4855711  32.1651030  27.0048618  29.4213343
  32.4834919  26.8912864  30.3168559  31.5493393  26.2833810  29.2927504
  68.9095592  28.6000371  18.5515189  68.9238071  29.5234084  18.8033402
  69.7070503  28.2349110  18.9348328  61.2737163  52.4950329  61.3197200
  61.5220912  53.3237842  60.9101920  61.4809449  51.8312493  60.6619362
  85.4280626  64.5937484  20.3586197  84.6082245  64.3839687  20.8059359
  85.7059680  65.4242676  20.7449341  41.6978312  20.4130197  34.0981746
  41.4156246  20.4159307  33.1835246  41.2113667  21.1321473  34.5012116
  79.1629203  50.3889331  66.4862410  78.5655292  50.2725914  67.2250394
  79.2667802  49.5100621  66.1215071  24.5049092  73.6175531  36.2746143
  24.0295216  72.8276521  36.5320873  24.4980523  74.1673213  37.0581555
  80.1652514  77.4821967  51.1477518  79.5201265  78.1826216  51.2449694
  80.9196674  77.9064697  50.7389927  94.1529881  74.4718033  21.5489769
  94.8171984  74.8644382  20.9825015  93.3723079  75.0079316  21.4099193
   7.2875005  22.0578599  20.0533485   7.7746570  21.5000439  19.4469249
   6.5596229  21.5112805  20.3494477  85.4072486  79.8865682  39.3931127
  86.1780177  79.8209184  39.9568820  85.1729428  80.8143938  39.4148350
  31.3686702  80.2973425  27.9699850  31.8845031  80.1016998  27.1877623
  30.5152508  80.5691630  27.6323056   3.3556673  52.5634116  28.4892201
   3.8700887  52.1201318  29.1638327   3.3636328  51.9595927  27.7465415
  28.0516717  88.6111213  61.0411167  27.6445386  88.4339670  61.8891096
  27.8726289  87.8276747  60.5211306   1.8236276  60.6063074  31.8513489
   2.6449916  60.1622075  31.6407084   1.1487934  60.0746387  31.4292598
  48.7848234  14.1498196  27.0249557  49.5444727  14.2116785  26.4458704
  48.0416965  14.0314007  26.4333725  62.3215294   2.6868889  12.0011580
  62.9841948   2.0551300  12.2804201  61.6257763   2.1514180  11.6198027
  82.0012103  82.1970987  33.2240438  81.0771846  82.1114778  33.4587288
  82.1339332  83.1385499  33.1132030  64.7503217  49.5326761  67.1084533
  64.2479809  49.3313453  66.3189284  64.9050720  50.4760310  67.0598130
  80.4181554   7.3812193  34.1963172  80.0445439   7.6442319  33.3552051
  80.3572144   6.4259619  34.1972518  92.9434072  69.2774016  41.6497326
  92.4824845  70.0771338  41.9031286  93.8162433  69.3730277  42.0308399
  82.1274995  73.1240302  63.5804081  82.9821669  73.4767407  63.8281441
  82.2568559  72.7818626  62.6958656   5.0119209  17.2676754  29.4179296
   4.3463573  17.7055573  29.9485111   4.6733260  16.3811588  29.2927313
  26.6085148  12.9693747  15.5669832  27.4903989  13.1577551  15.2460027
  26.5351820  13.4749413  16.3764620  36.5420458  60.6408468  10.6994422
  37.1292159  60.6476775  11.4553626  36.2799096  59.7247878  10.6080516
  38.7834287  16.1244452  18.9700079  38.6462379  15.2847493  18.5314631
  38.8582444  15.9007537  19.8976910  38.6739850  13.3955228  17.6509130
  38.6751938  12.6899409  18.2977390  37.9329252  13.1950581  17.0791829
  19.1793200  77.9470628  44.7113228  18.5703608  77.4406260  45.2488375
  19.4266030  77.3515636  44.0038872  56.4604454  87.5232200  10.8502567
  56.0456191  88.3670281  11.0295296  56.1863999  87.3061114   9.9591923
   5.0432128  13.2633483   3.2982537   5.5208397  13.8234782   3.9101028
   5.3362745  12.3763096   3.5068387  33.4228778   3.6432010  10.6279433
  34.1293240   3.0152407  10.7790494  32.7722454   3.4378907  11.2993276
  47.4803352   5.0873727  15.5730379  47.8463793   5.6145597  14.8628843
  47.5979996   4.1822761  15.2846158  17.1040118  28.5626364  26.1506033
  17.7453101  28.2416439  25.5166221  17.4548113  29.4046497  26.4407539
  55.1864672  33.7676883   4.7832847  54.6877289  33.2498193   5.4151922
  55.7951641  34.2770457   5.3183299  55.8212233  24.2311907  28.7630153
  56.4282560  23.5605741  28.4499359  55.1914263  23.7517047  29.3012333
  16.5994117  87.7436732  39.7761917  16.5537068  86.9696596  40.3374815
  15.8897111  87.6241414  39.1451097  28.6732888  21.1196518  13.8239968
  28.8110018  20.2199364  14.1202700  27.7241397  21.1974382  13.7275839
  45.5587101  32.4180198   3.0115816  45.7229280  31.7869759   2.3108333
  46.4053679  32.5184941   3.4466779  71.3462162  21.7617917   2.9113004
  71.1411524  21.5008307   2.0134804  70.7762194  21.2179089   3.4549257
  79.2432197  73.7197045  60.3101115  78.3783706  73.6913374  60.7193355
  79.7151025  74.3974093  60.7941286  66.0267496  44.4205189  15.8807099
  66.5847731  44.6414757  15.1350439  65.8674288  43.4809875  15.7905364
  92.8767692  86.0494596  17.5226700  92.2504627  86.7389238  17.7431464
  93.7253987  86.4920512  17.5094759  82.2535801  30.2264023  12.0907605
  82.8590107  30.2389073  11.3494611  81.7041588  30.9999585  11.9643557
  74.2932685  34.6376279  62.8047196  74.3148072  35.1257536  61.9816152
  74.5322927  35.2815685  63.4713833  54.7113474  37.1231374  64.9503128
  55.0435646  37.0694569  65.8464054  54.1314467  36.3664886  64.8641328
  37.9702353  27.4866509  13.1416953  37.2291446  28.0599427  13.3375287
  38.2548857  27.7533102  12.2675681  91.9862175  17.7163696  36.4333630
  91.6670704  16.8424082  36.6582441  91.9303322  17.7534044  35.4785132
  24.1080189   4.5113689   6.5876871  23.5648537   3.8014156   6.2453872
  23.5097861   5.0349432   7.1208084  60.9367275  23.2025814  52.9360294
  61.0312462  22.3277664  53.3128548  60.7489157  23.7672925  53.6857367
  33.7561846  41.7703962   9.8257655  34.0608931  42.4583006  10.4175222
  33.2396698  42.2333527   9.1661328  13.2256600  77.0055395  22.5156021
  12.6140591  77.7073377  22.7384400  13.4732482  77.1827763  21.6081238
  12.7706620  87.2515663  28.8929987  12.9414984  88.0980934  28.4801555
  12.7728316  86.6266851  28.1679106  29.6690965  16.2179339  14.1351664
  29.6569991  15.2633548  14.2049110  28.8550043  16.4352393  13.6810040
  27.1409488   2.7793714  27.9228663  27.4362588   3.0600670  28.7890267
  26.9780970   3.5951418  27.4493361  62.8363323  35.3804398  13.5843515
  63.5912561  34.8198748  13.7635028  62.9132271  36.0950232  14.2165601
  56.0579157   5.4513639  32.3013973  55.7659101   4.5890820  32.5970912
  55.5507946   5.6163955  31.5065241  61.5316923  45.2851457  71.5041111
  60.7492765  44.7963823  71.2488369  61.8709596  44.8137238  72.2649599
  44.3279600  25.1077771   2.2421098  44.2410326  26.0243082   1.9801031
  44.4795370  24.6376324   1.4222193  57.0055731  69.3609193  74.0444217
  56.3542898  69.2854908  73.3470164  57.3245080  68.4674719  74.1719462
  52.2173115  80.1426476  67.2150707  51.7098519  80.0471121  68.0210400
  52.4636552  79.2481404  66.9796896  86.1799942  77.9207307  33.9342809
  85.7506906  78.0975074  34.7713470  86.3684498  78.7873012  33.5740399
  86.9559916  31.5249205  12.7874088  86.0325410  31.4222932  12.5573242
  87.3209681  32.0580816  12.0811772  45.6443739  15.2918577  43.0480051
  46.3526392  14.8149252  42.6154232  44.8940754  15.1893508  42.4625397
  61.4440346  18.4270477  17.3303318  61.4041901  18.9843786  18.1075227
  62.3573494  18.1441355  17.2850478  14.7024867  73.7778753  16.1079800
  14.5353123  72.8995174  15.7662618  15.4389378  74.1007358  15.5887151
  12.6045012  21.0046124  39.4188547  12.7205622  20.0576878  39.3407774
  13.4155500  21.3127947  39.8231506  39.7287846  67.2932863  36.3523221
  40.4111147  67.8215265  36.7665958  39.2555213  66.8968916  37.0838451
  37.3843575  46.7421722   8.5741377  37.4578023  45.8616734   8.2059622
  36.5415812  46.7424822   9.0279686  51.2101030  15.8960164   4.9549100
  51.2345076  16.8042684   5.2560997  50.2820635  15.6623006   4.9737060
  22.1114918  57.5291818  30.9329104  21.7962023  56.6284889  30.8582306
  23.0648848  57.4478573  30.9585834  69.7965653  67.3709968  76.7493757
  69.0176185  67.8591421  76.4825714  70.4547556  67.5913695  76.0902433
  31.6156721   5.9356993  18.4741628  31.0447145   5.8592439  19.2386198
  32.4853158   6.0974121  18.8399541  37.5796103   0.3056057   2.3811756
  37.8098512   0.8679605   1.6415960  36.9090629  -0.2831195   2.0347637
  47.2543526  10.1736557   1.7261717  46.8681860  10.9365392   2.1564269
  47.3228073   9.5169395   2.4191859  36.8045735  25.2301407  61.6884613
  37.0896697  24.3190980  61.7588425  37.5261831  25.6731153  61.2420464
  31.3128686  37.0580649  33.4807444  31.8617916  36.6535950  34.1525483
  31.7459369  37.8891873  33.2860184  34.3777299  33.8413191  51.6394997
  34.4137239  34.7698259  51.4097023  35.2393174  33.5012650  51.3981152
  38.2934427  34.3312812  21.1900330  37.5766349  34.5661139  21.7793298
  37.9167366  34.4054818  20.3132081  28.9250064  11.5251791   8.2733482
  29.3901300  12.2298014   8.7243468  28.3842897  11.1220121   8.9525503
  34.8223922  86.8477683  54.3775368  34.1205069  87.0087564  55.0081539
  34.4184014  87.0051616  53.5241604  70.7091904   8.0453432  36.5269971
  69.9764299   8.1635988  35.9225917  71.3711071   7.5825369  36.0132766
  53.8890645  84.6884331  18.7509799  53.9245984  84.6636382  17.7947605
  54.6895406  84.2451376  19.0319812  41.8540096  36.1501694  31.1724520
  41.5388536  36.0104823  30.2794838  42.3776913  36.9496465  31.1193061
  45.2369738  40.0997353  28.6611915  45.0254869  39.1776013  28.8067007
  45.3798580  40.1666117  27.7170801  84.4443925  27.6844469  65.7006542
  85.2563222  28.0510441  66.0508065  84.5706065  26.7366663  65.7455365
  33.4446836  18.4340489  39.9962783  33.3393407  18.5428178  40.9414244
  34.3906999  18.4703362  39.8549771  73.7377571  53.2338613  44.4990349
  73.4337889  52.5086325  43.9532518  73.9533674  52.8277939  45.3385878
  55.0979717  20.9474114  61.0586182  55.6721790  20.7867745  60.3098099
  54.3485148  21.4148739  60.6897990   6.2792680  79.2021656   7.2295874
   6.5365407  78.8940471   8.0985558   7.0386550  79.0196210   6.6761994
  34.3427300  15.2256787  41.6872454  35.2039361  14.8163819  41.7711210
  34.4380593  15.8366764  40.9566116  30.4681802  27.4091578  35.3879714
  30.1617527  28.3155751  35.3607225  30.9767079  27.3039699  34.5838785
  78.4678196  66.9256252  13.6620080  79.0889489  67.6518148  13.6065102
  77.6509796  67.3308414  13.9532185  25.9326601  50.7909012   6.6467583
  26.6656661  50.8077574   6.0314131  26.3420987  50.8623457   7.5090158
  56.4487028   1.8752985  31.3248467  55.5703926   2.2541372  31.3606954
  56.3184023   1.0033026  30.9521866  29.9228668  33.4671688   9.1299289
  29.1124082  33.0834961   9.4648612  30.5846167  32.7901316   9.2711443
  52.9600477  11.3878584  32.3534298  52.7906942  10.5010068  32.6713037
  52.7318811  11.3569248  31.4243364  53.3660610  87.3785642  56.0261719
  53.5282357  88.3189204  56.1013882  52.4876888  87.2574046  56.3867490
  88.4680854  88.5012139  13.7757826  87.8935586  88.1485283  14.4553161
  89.3522726  88.3721972  14.1189969  71.7517376  34.5876122  26.2067556
  71.9499922  34.2230201  27.0693088  70.7989216  34.5300269  26.1356235
  58.0831099   4.3470326  36.3060951  57.8718710   3.7986422  37.0616579
  58.2315254   3.7257332  35.5932188  12.8426927  60.3090337  68.3868442
  12.8825849  60.5818489  67.4702136  13.6706298  60.6087855  68.7622051
  53.4113932  24.9762368  12.9677474  54.1196871  24.3615842  12.7760398
  53.6285639  25.3305387  13.8300359  88.2047521  74.1109270  11.8728733
  88.1287109  74.8031980  12.5295389  87.7477037  74.4567627  11.1062324
  80.5450058  17.5540960   3.8687259  80.3204441  17.5894928   2.9389119
  81.3971043  17.9863977   3.9259630  22.0822215  45.2711964  25.2628517
  22.0350790  45.5339718  26.1820698  21.6069412  44.4411325  25.2263546
  26.3318202  82.5415593  64.8856926  25.7655808  83.1653958  64.4313478
  27.0972773  83.0557841  65.1423693  82.4956830  33.0418781  68.5681836
  82.4513944  33.1316462  67.6162325  82.1850188  33.8831571  68.9028017
  28.9708972  36.7194462  49.7241640  29.0233779  36.9476223  48.7960386
  28.0903101  36.3603806  49.8331118  92.2207158  47.1840954  21.5049767
  92.7823791  46.4715052  21.8099022  92.0818513  46.9989300  20.5761814
  83.2602083  84.4453779  21.8941498  82.8612720  84.8001337  22.6886511
  82.8900110  84.9710143  21.1850023   7.2955009  76.4424759  14.5065188
   7.6144215  75.7743734  13.8997555   6.4534590  76.1056298  14.8126733
  34.2629382  68.9443344  19.1562760  35.1850363  68.9299971  18.8998365
  34.2449042  68.5111540  20.0096583  66.6677523   2.6237923   5.7043713
  65.7694483   2.8644988   5.4777879  66.5724897   1.9233409   6.3497585
  75.8843310  55.7354048  74.2903675  75.8605655  56.3723508  73.5762475
  75.1272901  55.9557262  74.8331155  39.2713393  78.3458474  71.2210218
  39.7784920  77.5741318  70.9690617  38.7055578  78.0396894  71.9298176
  85.1144944  65.9776777  25.6766462  86.0513316  65.7815880  25.6658173
  84.8939382  66.0417932  26.6058803  26.6582632   1.0931011  23.7132549
  26.8648982   1.9566394  23.3557129  25.7089472   1.0154833  23.6183667
  41.5235043  50.3846598   4.2684701  41.6861343  50.9531260   5.0212163
  42.3906660  50.2285576   3.8944441  22.2643134  83.4303480  60.1233006
  22.3079964  83.8540369  59.2660904  21.4318654  82.9579234  60.1148319
  68.3340788  24.1671395  41.8673325  67.9781342  23.7099314  41.1054277
  68.5274458  23.4712553  42.4954939   4.4187233  78.2585019   5.2440131
   3.9055678  78.0871421   6.0336572   4.9612471  79.0139794   5.4701871
   7.5788838  14.4302964   6.7495716   6.9009644  13.8713229   7.1293163
   8.3388686  14.3047822   7.3178148  12.8015226  83.0368236  71.2353067
  12.9861015  82.8811458  72.1615515  13.5824245  83.4825876  70.9070985
  37.8858829  26.3390970  38.9979696  37.9076195  25.4612637  38.6169577
  37.2117472  26.2894130  39.6756911  52.6518917  18.5450947   7.1836066
  52.0168114  18.6512148   6.4753383  53.4963942  18.4715509   6.7390430
  52.5051498  13.2942319  20.6108761  53.1459141  13.1975508  21.3153672
  51.6794729  13.4728825  21.0609555  25.4358622  71.1580330  10.8599448
  25.4568478  71.4939052  11.7560375  26.3533351  71.1454290  10.5873382
  22.7255082  15.5669141  20.5970740  22.6661897  14.8396277  19.9775851
  21.8774796  16.0061538  20.5326867  63.6657222  65.9437946  76.3157437
  64.1759904  66.7166260  76.5577997  64.0176733  65.2428988  76.8644760
  60.3789139  62.2598362  20.7826400  61.1128998  62.3276567  20.1719832
  60.7216072  62.6026106  21.6080475  52.2122526  30.0303960  28.7596583
  52.8264952  29.6158791  28.1537604  52.7692318  30.4573703  29.4105792
  65.8896668  57.6379064  66.4278607  65.7541211  58.5821357  66.5071682
  66.2713559  57.5229898  65.5576090  33.0763435  10.3547287  41.4697409
  32.4899983  10.9205031  41.9720650  33.3350301  10.8861184  40.7167864
  12.6451537  69.8082143  22.7998781  12.1078440  69.2161316  23.3261538
  13.5421321  69.6359140  23.0861902  35.5133578  82.2026098  24.0490532
  34.7068736  82.6028377  23.7240362  35.6805941  81.4776814  23.4467721
  28.3052012  76.0022384  21.3721585  27.5015971  75.5385166  21.1367607
  28.9509246  75.7024223  20.7323265  40.7052851  26.2124586  23.8644886
  39.8198986  26.0417056  23.5432982  41.0767269  26.8243980  23.2290411
  36.7508245  63.6142826  30.7117677  35.9536028  63.9359808  30.2908421
  36.5144134  62.7473736  31.0416365  47.2500753  37.9838228   0.5008623
  46.4665890  38.5295391   0.5685238  47.7656031  38.3902287  -0.1957672
  64.3429995  49.9153280  27.2757840  64.3919849  50.8264637  27.5650263
  63.4438992  49.6504259  27.4698973  45.6127024  73.8325357  10.1473117
  45.2351046  73.4737921  10.9504008  45.9872770  74.6723461  10.4131067
  91.8228491  13.8668132  22.2146320  91.1920770  14.5845008  22.1573329
  91.6310396  13.3180737  21.4541554  92.9026121  30.0153875  10.1167810
  92.3740663  30.1178479  10.9082186  93.6719639  29.5239282  10.4045260
  35.8619782  85.0255266  21.6479826  36.6242692  84.5599204  21.3039589
  36.0194775  85.0793013  22.5906038  24.0631795  49.0729427  34.9879551
  24.4616103  48.5326052  35.6702423  23.1957293  49.2893648  35.3298926
  51.3341331  30.6071734  24.4429994  50.7129288  29.8917961  24.3067288
  52.1706486  30.1706052  24.6038771  78.5649379  81.3679865  44.3044941
  78.3392175  82.2257260  44.6644418  78.1104262  81.3343242  43.4627597
  33.7535334  27.5754142  17.3254919  34.1611528  28.4198380  17.1330786
  33.2231188  27.3837256  16.5520906  31.3683936  80.7641321  17.8495514
  31.4780852  81.6701233  17.5607967  30.7561108  80.3843677  17.2193754
  72.7242454  56.1780754  71.4967374  72.1746047  56.1601177  70.7132809
  72.8873809  55.2561787  71.6960446  61.7068572  83.3922511   8.8579166
  61.6632954  83.0838203   9.7630155  61.3681315  82.6623082   8.3395725
  48.1267405  58.3234119  19.9460793  47.5488520  57.7195406  20.4125762
  47.9830217  58.1256676  19.0206206   7.5906044  19.5021760  28.5939097
   7.3391116  19.5730901  29.5147538   8.5405946  19.6194291  28.5953641
  44.4657516   5.1835263  41.5719938  44.3462944   5.9937996  42.0673943
  45.3655100   5.2308077  41.2488365   0.6318852   0.2287246   8.8642484
   1.2509282   0.8025225   9.3156612   0.9844330  -0.6519232   8.9923155
  18.1470454  29.8249030  23.4172320  18.6810660  29.0584064  23.2085729
  17.2443163  29.5164418  23.3387256  31.0813260  32.2902966  23.6229730
  31.5085053  32.3143601  24.4792271  31.0425544  31.3600683  23.4007096
  46.8039989  10.1494634  61.2825966  46.5096378  11.0300827  61.5151739
  46.7565536   9.6568674  62.1019411  47.9128170  53.2642698  22.4950027
  47.2285032  52.7958727  22.0169401  48.4342194  52.5739145  22.9046130
  34.2711446  81.4608341  36.0139275  34.3443724  81.1229312  35.1213503
  33.5288808  80.9871006  36.3892245  24.0640259   5.4777521  12.0052993
  24.5499730   6.1936170  12.4147224  23.5373878   5.1093107  12.7146196
   8.7410971  68.6031192  39.3194699   8.0974480  67.8947180  39.3084717
   8.9267537  68.7724036  38.3958340   7.1934149  87.8213587   7.3383445
   7.9798433  88.0632727   7.8274626   6.5937039  88.5555597   7.4707383
  33.6459184   8.6935568  54.7855330  34.2243361   9.1466582  54.1720486
  34.2391658   8.2222235  55.3704548  90.7010542  88.5554337  15.3476334
  90.8363186  88.6911942  16.2854517  91.3700877  89.0965618  14.9283397
  91.2591934   8.0405158   4.9381056  91.1432648   8.9901370   4.9062929
  91.8121910   7.8922987   5.7052112  93.0316241  51.0905799  72.1516339
  92.1974261  50.6507817  72.3157151  93.4192212  50.6050143  71.4234672
  29.3772885  84.8383886   8.3419055  30.2650067  85.1897654   8.2732028
  28.8158795  85.6125161   8.3840925  82.0351111  73.9541203   1.2010755
  82.5462388  74.5015567   1.7971398  82.6884090  73.4303743   0.7372618
  51.7898321  10.4150200  42.8422308  51.5560293   9.7716469  43.5112906
  50.9524536  10.7850826  42.5627995  21.2340832   7.8253889  43.4319925
  20.7024550   7.0447230  43.5874414  21.4755058   7.7705443  42.5073671
  33.0076599  15.9957874  22.4456215  33.6106277  15.3158581  22.7462173
  33.5064769  16.8091512  22.5221348  86.1756309  62.7550379  73.5221888
  86.4765056  63.6018136  73.8518484  86.4881738  62.1217075  74.1682870
   5.3212401  70.4251653  19.6695983   6.1718294  70.8640593  19.6795690
   4.7022077  71.1083573  19.4121480  27.2427413  84.3952906  20.8426619
  27.2926852  83.5335028  21.2562537  26.5045926  84.3278718  20.2370024
  34.3875599  51.4992237  36.4085507  34.1700435  52.4076128  36.6176987
  35.2523637  51.5477276  36.0011292   6.1555475  66.6969732  56.3185136
   6.8966573  66.9037035  56.8879430   5.4462188  66.4722684  56.9206659
  11.1575270  16.7005789  26.9907451  10.4349756  17.1577954  26.5605068
  11.8147123  16.5910041  26.3034797  46.7717123  20.5621004  10.2341378
  46.1856222  20.5419755   9.4776171  47.5145531  20.0163031   9.9762094
  29.5425344  47.9119253  12.6756465  29.0040278  47.4948978  12.0030904
  28.9251280  48.4360170  13.1859100  15.6117344  12.3025787   9.8427457
  14.7132564  12.0630002  10.0698400  16.0081112  11.4857185   9.5396692
  27.5647926  14.2351866  74.3439865  27.5769138  13.2795930  74.2898941
  28.4802938  14.4928372  74.2357922  36.5276028  79.8704079  73.5539917
  36.5919085  78.9199284  73.6471824  37.4194445  80.1862028  73.6993335
  77.2543796  85.5463842  68.6127190  78.0668815  86.0052255  68.3993171
  76.8339761  85.3972772  67.7658067  15.4457709  79.0084332  47.9474640
  16.1909196  79.4475210  47.5373602  15.8339879  78.4757954  48.6415958
  41.9538066  10.5372104  64.6506194  42.5136372  11.2553939  64.3556063
  42.3956629  10.1922760  65.4265170  52.0857000  18.0621719  36.5347028
  52.8329706  17.7684391  36.0136104  52.3263073  18.9424789  36.8234921
  80.3489113  25.9110284  13.0815971  79.4345474  25.8476377  13.3575690
  80.6502819  26.7454219  13.4410334  53.8107967  34.0374708  10.7953346
  53.1987095  33.7163472  11.4574981  53.3826399  34.8109746  10.4284477
  27.0763302  28.5186601   3.4015554  27.0217252  28.6300397   2.4524269
  26.1714983  28.5956049   3.7041909  61.1972507  59.4183877  66.5070717
  61.7517217  59.6004740  65.7483642  61.0143312  58.4805337  66.4504842
  38.7707850  85.6219551  10.9372735  39.3282553  86.3000855  10.5557001
  38.7772938  84.9152654  10.2916896  46.8498898  35.0926924  23.8888383
  46.5409279  34.6297002  23.1101108  47.6891184  35.4704237  23.6256981
  28.4670019  26.5593219  27.1625090  27.6340270  26.4464164  26.7046499
  28.6806202  27.4851155  27.0463061  71.0656881  19.2267668  45.2589035
  71.5096855  19.2159379  44.4109726  71.0717535  18.3130693  45.5441236
   0.7780668  79.6317303  43.6426210   1.2761375  79.7333050  42.8315496
   0.5834076  78.6956567  43.6885166  38.9320445   1.8255116  32.2122383
  38.5147548   1.5063789  33.0123973  38.4566569   1.3906154  31.5043497
  65.9630251  27.1033525  50.0231314  65.6066704  26.3451982  49.5600510
  65.2807236  27.3435330  50.6500387  46.9942665   8.9303309  44.3700886
  47.2724915   9.3537146  43.5579491  47.0141411   7.9942358  44.1711855
  15.8482978  88.6113935  36.3897443  16.5477654  87.9587369  36.4216089
  16.2770077  89.4337062  36.6268921  41.6753194  11.6604480  57.4661104
  41.8112609  11.2672863  58.3281891  42.3655316  12.3194847  57.3918907
  37.3052001   7.6538289   2.2117856  37.4729991   8.5400587   2.5322104
  38.0639029   7.4490815   1.6652684  37.8426456   5.4310256   3.9581928
  37.4651217   6.0588104   3.3420813  37.1262860   4.8270541   4.1538399
  67.2745562   4.1913897  54.5182323  66.7001963   4.7226173  53.9667463
  66.7649794   4.0340474  55.3130960  29.9318501  57.2265285  43.3425570
  30.7425400  57.4850410  43.7809467  29.3948170  56.8455929  44.0373373
  91.1680065  88.9640753  36.6719413  91.6407262  88.1325580  36.6352439
  90.4195319  88.7891028  37.2423792  27.5609064   8.1735784  20.8406305
  28.4203386   8.5635442  20.6808305  27.2892404   7.8348374  19.9875855
  11.6940081   9.9184126  49.3496656  12.5699127  10.2227247  49.1121435
  11.1151397  10.3307366  48.7084723  28.8502812  13.1479526   1.0127097
  28.3995581  13.6518967   0.3351242  28.2909822  12.3843241   1.1551589
  49.5974207  14.3909979  22.0406270  49.9979639  14.1320896  22.8705454
  49.8556852  15.3054190  21.9250059   4.7519109  86.2090304   7.3037487
   5.4855129  86.8238889   7.3007053   4.6191069  85.9900504   6.3814461
  43.6876439  73.0001730  25.3521252  43.6551427  72.5924307  24.4867229
  43.0865060  72.4795812  25.8849001  63.1480598  23.2480645  44.8874807
  63.7770271  22.5860214  45.1744127  62.8186083  23.6332822  45.6994534
   7.2261450  83.0327237  44.1864395   7.2344562  83.8416785  44.6980572
   6.2977096  82.8509122  44.0408897  45.1299474  74.7660071   5.0634181
  44.9709889  75.5171245   4.4917646  44.9035689  74.0054625   4.5281059
  19.6485817  12.0917511   2.5758979  19.6963406  12.7023542   3.3115032
  19.7778463  11.2297142   2.9713920  45.7888031  17.8848112   1.1488045
  46.3583660  17.2216058   0.7589461  46.3896608  18.5545909   1.4752962
   1.5971467  43.0276626  53.3920765   1.5075132  42.0751995  53.4238100
   0.7474133  43.3580488  53.6836767  24.1651011   2.5146949  35.3911352
  24.9855614   3.0056873  35.4358864  24.0806627   2.1101639  36.2545347
  19.1789436  30.2397609  19.4044316  19.8189282  30.2103615  20.1156187
  18.5544920  29.5456266  19.6153069  59.5709705  32.5060844  19.0660369
  59.4564104  31.7144656  19.5918179  59.1691732  32.2942281  18.2234776
  55.1706171   1.2580758  41.1895227  54.9768400   0.9472305  40.3051853
  55.9144497   0.7263236  41.4726925  43.7669989  74.7960681  29.9048376
  44.4054028  74.1905683  29.5279503  43.3315989  74.2890817  30.5901265
  50.2334881  36.5360141  18.7882280  49.8273993  37.1243691  18.1517065
  50.3455114  35.7116032  18.3149111  66.8953225  76.9845480  11.1150074
  67.4078271  76.2632304  11.4800715  66.0278794  76.6093308  10.9634125
  24.8032546  14.2759418  27.2338319  23.8620114  14.4490504  27.2519541
  24.9568081  13.8761044  26.3778043  93.5917889   6.8159875  59.8001449
  93.9928852   7.2795114  60.5353312  93.2245861   7.5091610  59.2516009
  89.9860890  75.5873302  74.2242555  90.6301339  76.2738159  74.3979744
  89.1528638  76.0530689  74.1531606  47.9084969  31.1709237  13.4925246
  47.2142792  30.8968735  14.0918505  48.6843443  30.6969666  13.7919545
  33.9543700  40.6484985  46.7308855  34.7861147  40.2937841  47.0449066
  33.4614944  40.8445072  47.5276804  71.0557898  63.1782106  74.4178961
  71.2372263  62.4529961  75.0157058  70.3683479  63.6817578  74.8538969
  73.9601551  85.9792083  59.5397091  74.8119532  86.3898916  59.3913507
  74.0706109  85.0801265  59.2303801  59.7857475  29.8904490   0.6153383
  58.9164400  29.7146916   0.9753988  59.7701931  29.4905066  -0.2541642
  39.3905354  73.7191582  18.4874785  39.6838880  72.8797102  18.8417375
  39.4244671  74.3186951  19.2328870  49.0156555  29.4428921  47.3266268
  48.3861065  28.7439799  47.5038862  48.4854889  30.1605797  46.9800997
  44.6244383  14.0041590  10.5254519  44.4857836  14.6070254  11.2559032
  43.9612913  13.3246028  10.6465697  19.9456930   5.6211847  31.9762683
  19.4604361   5.5679381  32.7996278  19.8236024   6.5245527  31.6842866
  48.8675117  10.4721582  23.1315184  49.3007040  10.8900177  22.3872280
  48.3763409   9.7465050  22.7462745  40.7616234  40.4846096  18.6856353
  40.3617668  39.6461344  18.9165092  40.0300026  41.0246420  18.3867645
  70.9743960  60.9667459  71.2237976  70.0348504  60.7923189  71.2791209
  71.0631187  61.8846110  71.4804719  32.0794818  77.0040888  40.6594658
  32.0109174  77.9196304  40.9302330  31.3026616  76.8549126  40.1204586
  72.9488109  22.0749435  42.1931211  73.2658171  22.5610694  42.9543154
  73.3275615  22.5320825  41.4422528  27.7989337  24.0612945  55.7620851
  27.5684497  23.9455471  54.8402850  27.2849890  24.8178920  56.0442988
  11.0830590  12.4686966  62.2322659  10.6363579  13.2788190  61.9865231
  11.1610553  11.9801435  61.4128367  48.2924080  41.1565018  19.2342091
  49.0965033  40.7467604  19.5532274  48.5697317  41.6690397  18.4748507
  74.1422081  30.1046205  20.1134443  73.6815929  30.9179091  20.3199053
  73.4450769  29.4691825  19.9507987  60.8490896  21.9764900   6.9587141
  60.9925699  22.8716063   7.2659767  59.9127817  21.9373846   6.7637134
  92.6555903  38.7318459  70.6755487  92.3068126  38.7972877  69.7865598
  93.3449395  38.0705729  70.6143056  36.2446856  62.3380470   6.5023458
  36.8278980  63.0656624   6.7183757  35.7414484  62.1886778   7.3027682
  21.1922595   2.6081571  69.2317764  21.9254157   2.4549350  69.8277925
  20.4774806   2.8950605  69.8001198  44.2830801  44.1331053  14.5258999
  44.3344688  43.3001614  14.9947262  43.5870123  44.6161222  14.9713385
  41.2358665  46.5144491  27.3972654  42.1556664  46.2745047  27.2849226
  41.1674261  47.3879862  27.0119381  34.6787977  29.9760032  16.5654886
  34.0331864  30.6116390  16.2566435  34.9921370  30.3366041  17.3949564
  57.4410868  29.2373443   1.6436531  57.4979925  28.3897138   1.2026133
  56.5366840  29.2859483   1.9533707  49.7800827  19.8409355   0.7121556
  50.0907612  19.1859722   0.0870690  48.8289070  19.7338843   0.7183398
  69.5291575  82.0000771  68.8856040  69.7598370  81.1095956  68.6209093
  69.2616399  81.9161847  69.8008243  23.2709932  18.3152378  14.5395374
  23.5625219  17.8486979  15.3228521  23.8574362  18.0105162  13.8471067
  29.2307162  73.5257292  32.0069218  28.4054637  73.7951803  32.4101400
  29.4938779  72.7469730  32.4973512  79.7160196  29.9776220  30.0615907
  78.9417982  29.9861336  29.4987941  80.3666496  29.4799495  29.5663738
  52.3848963  47.9620361  23.2035875  52.6180696  48.8891411  23.1551909
  52.2450161  47.7023935  22.2929549  46.9304228  14.0968370  31.0910726
  47.8351021  13.8236988  31.2433577  46.4157867  13.2988000  31.2115455
  64.3479729  24.0726209  14.2194319  64.2277575  23.7879896  15.1253939
  65.1691914  24.5642734  14.2298079  79.0390666  57.4343708  72.5992556
  78.5078700  57.7801922  71.8819914  79.8942788  57.8489581  72.4854149
  41.5678263  20.0701499  13.1090093  40.9893417  20.1653004  12.3523474
  41.0380840  19.6084023  13.7589300  67.9512978  15.6807244  10.6792378
  68.8368750  15.4240906  10.9363806  67.9416990  15.5865562   9.7267294
  52.2662449  62.0801544  13.5247970  52.0063782  62.7430058  14.1645908
  52.9511929  61.5773678  13.9655709  52.8268337  26.5874100  20.7543516
  52.3717070  27.4064612  20.9499192  52.1271467  25.9407997  20.6617999
  62.2453451  11.1877155  30.5715799  61.8348980  10.3242552  30.5246329
  61.9657946  11.5401769  31.4164805  65.7454109  23.9546871   4.5854121
  65.9672499  23.3729196   5.3124380  65.2295017  23.4096003   3.9913157
  76.3340092  18.8392591  27.8944898  76.7743492  18.4214687  27.1543670
  76.7705011  18.4798288  28.6668348  39.8348689   3.3808282  14.2370403
  40.3469133   3.3854938  15.0457549  39.9793410   2.5099051  13.8671041
  33.8623309  36.9262767  35.7536530  33.4249973  37.7769589  35.7898307
  34.1361594  36.7591953  36.6555047  45.1654530  36.2091660  10.4781580
  45.9262228  36.6854000  10.1455045  45.5303621  35.4094386  10.8569825
  52.8536463  34.5241594  22.5970316  53.0347919  34.4624519  23.5349083
  53.4727335  35.1799059  22.2761583  45.7748413  31.1315298   9.2238259
  45.3353977  30.5131531   9.8075449  46.7001581  30.8916259   9.2735261
  23.6920691  21.7339301  28.5630608  22.9619455  22.3107123  28.3384013
  23.6598063  21.0393691  27.9052043  51.8714046  33.6680460  44.3926859
  51.4663744  33.1052542  43.7328005  51.5777493  33.3063364  45.2288437
  69.2974806  51.0913086  23.9205194  68.9650154  50.7433844  23.0930853
  68.5185289  51.4096451  24.3767238  78.2433558  32.1758533   4.7530219
  79.0222549  31.8169403   5.1781398  77.5174522  31.9051027   5.3151488
  87.8152561  76.8673515  18.4460115  88.0009460  76.7609882  17.5130379
  87.5100517  77.7708817  18.5279906  43.9628744  45.9483814  21.5784383
  43.3622360  46.4116192  22.1622872  43.7226391  46.2473392  20.7014298
  50.0135946  65.2315569   7.9702467  49.8674536  66.1739683   7.8881949
  50.9656763  65.1343632   7.9522300  66.2686110  24.1818619  19.0126920
  66.1266518  24.8700547  18.3627152  65.5211592  24.2550445  19.6061492
  53.6787176  32.2790837  25.9278584  54.5292091  32.5531030  25.5846262
  53.7358379  31.3247776  25.9754729  46.6846275  82.3005962  20.4741383
  45.9915113  82.8501701  20.1083660  46.3322687  81.4115715  20.4328680
  47.6343441   1.2982255  41.1447859  48.0447388   0.4926383  40.8304024
  46.6953087   1.1144003  41.1192465  38.7221432  14.0803802  29.7080612
  38.8530564  14.3110943  30.6277704  39.5696998  13.7380362  29.4240189
  76.2210305  52.7329067  67.1252511  75.9829124  52.0941123  66.4533321
  75.4185994  52.8579971  67.6318960   8.1882487  55.7916546  13.1782353
   8.3059321  54.8441696  13.2464826   7.9573164  56.0688019  14.0648520
  90.9420620  83.5764944  30.7195354  91.0013329  84.4558614  31.0929418
  91.8374025  83.2399446  30.7560158  50.5073261  25.0309896  18.4519768
  51.0141134  25.6623292  17.9412794  50.4662704  24.2520428  17.8971934
  78.0286217  49.0026093   4.8027292  77.8795862  49.9479914   4.7863379
  77.6887894  48.7212563   5.6521922  51.3803768  26.6777086  13.5945320
  52.0851135  26.4461303  12.9895949  51.6303825  26.2667584  14.4220877
  35.4986143  22.3734736  36.5748072  35.1114583  22.3245788  37.4488521
  35.0262237  23.0852962  36.1430836  53.4879637  10.9810781  29.3948340
  53.4331417  11.3248003  28.5031605  54.1872120  10.3284812  29.3573928
  67.9047346   6.1899263  17.0974362  67.8448534   6.0420090  18.0412400
  67.0088768   6.0765606  16.7799187  58.8583183  38.7688971  69.4023991
  59.3110037  39.4998097  68.9815998  58.9128256  38.0554366  68.7666035
  22.9428315  55.3756285  43.0936527  23.7564778  54.9394464  42.8407621
  22.4375772  54.6981716  43.5430956  65.1695251  21.6132140  35.2122927
  65.0714684  21.5815830  36.1639333  65.7941389  22.3222160  35.0593066
  78.1037331  36.5154028  27.9886889  77.9034805  37.3373938  28.4364152
  77.6599646  36.5886164  27.1437383  37.4489069  34.6026778  18.6190164
  36.6568780  34.0950131  18.7956476  37.1987176  35.1990938  17.9133785
  49.6824741  20.3319073  17.5617003  49.1667318  19.9714983  18.2830536
  50.3541851  19.6709442  17.3938942  62.5394249  27.7827549  13.1609631
  63.2772827  28.3692980  13.3275878  62.7702045  27.3323894  12.3484695
  75.3706010  66.3600710  73.9334736  74.7697289  65.6149748  73.9374004
  75.7234700  66.3878873  74.8228241  75.0229454  69.1871929  22.7596021
  74.2314005  69.1007757  22.2283578  75.6802607  68.6681271  22.2962070
   0.7743638  75.0070956  59.0827839   1.2724536  74.2412999  58.7969641
   0.1676839  75.1805213  58.3629946  89.8517799   6.3325119  18.0728209
  89.0236378   6.3106942  17.5933087  90.3082561   5.5370474  17.7987742
  58.6497784  57.3819637   7.3711729  58.7119961  56.4561796   7.1360457
  58.0581951  57.3987770   8.1234860  32.2622108   2.9999468  48.0515671
  31.9903922   3.5141250  47.2913218  32.1501446   2.0896785  47.7775478
  67.5159359  55.6388283   5.1020294  67.2439146  55.0593376   4.3903935
  68.3919048  55.9317541   4.8508233  72.6701530  83.6026743  67.5444476
  73.1496890  82.8741196  67.1501355  73.2199176  83.8832381  68.2760732
  36.1638212   3.7655625  31.5402341  36.7145038   3.4877747  32.2722292
  36.7526865   3.7697273  30.7856107  33.1920743  19.6276331   7.8592819
  33.9330363  20.0692582   7.4443430  32.8141880  19.0891922   7.1639299
  49.9100876  16.8117034  18.9867485  50.4251480  16.3769543  18.3070886
  49.2055321  17.2501504  18.5096788  46.9305038  67.9672098  38.3647251
  47.7505875  68.4209776  38.5591125  47.1991825  67.0825386  38.1169319
  54.8344946   0.2943102   6.5039170  55.2504730   1.0995021   6.1959237
  54.6137094   0.4732699   7.4179518  50.2830315  19.5988977  32.6944208
  49.9077320  19.8596251  33.5354924  49.5251703  19.4639814  32.1254921
  42.1850582  80.4786542  50.4405372  42.9768558  80.1007369  50.8232467
  42.1796735  80.1599839  49.5379559  81.4099296  71.6479114  47.1591346
  81.5284570  70.7025150  47.0674340  80.4625114  71.7761591  47.1124570
   3.9953539  10.4689273  68.5566292   3.1455609  10.1656780  68.2370655
   4.3838236   9.6988687  68.9717601  91.8216698  20.9794664  60.9266186
  91.1687138  21.1163545  61.6130161  91.3626640  21.1911321  60.1137590
  63.3217382   0.6384982  20.7675481  63.1415081   0.8432795  19.8500443
  64.1307878   1.1108486  20.9639192  44.7747898  16.1058009  12.7098274
  44.3813181  16.6844976  12.0567429  45.7075596  16.3196158  12.6883543
  56.0970020  44.3732500   3.7675390  56.4697886  45.2335310   3.5747159
  55.3104162  44.5622873   4.2791879  62.2953558  53.4471512  10.4828441
  61.5405321  53.9485931  10.7911205  63.0206060  54.0716362  10.4991615
  41.3566256  55.4999733  13.1641448  40.6646967  55.6312466  13.8123965
  42.1297073  55.2740860  13.6813986  12.8080556  85.5699173  22.9637861
  13.5769507  85.0059840  22.8800631  12.2429368  85.1134080  23.5870600
  47.8863764  33.1296611  42.3708105  47.7061796  32.7864695  41.4956093
  47.0650482  33.5404730  42.6407766  48.3340836  53.4860802   4.3611464
  48.8810682  53.3042192   5.1253241  47.4795341  53.7142229   4.7271016
  46.2975025   2.2809090  18.3000016  46.9594574   2.9219392  18.0409145
  45.4756927   2.7716821  18.2994556  41.5433645  20.1991463  21.2111020
  40.9091711  20.6417894  21.7751026  42.0230150  19.6172476  21.8006468
  38.3659482  35.0199485  36.7487645  37.8404927  34.8502421  35.9668875
  37.9636645  35.7931089  37.1445203  54.7023614  49.9127838  53.3317677
  54.4364865  49.5494840  54.1764895  53.8789232  50.1280663  52.8937761
  58.4183359  29.6755457  19.9465644  58.9058113  29.1398954  19.3207228
  59.0265465  29.8073173  20.6738520  42.9808521   2.9409471  11.4214706
  42.0320606   3.0513510  11.4833772  43.1183529   2.5225908  10.5715859
  25.0974631  52.6758575  21.5995479  25.7844567  52.3397446  21.0239601
  24.9537039  51.9750547  22.2355032  27.9689431  25.4870176  35.4595637
  28.4473515  26.2687898  35.7355833  28.4553671  24.7593141  35.8469558
  66.7424424  37.4811325  65.4898934  67.5577696  37.0383605  65.7253234
  66.1192806  37.2097942  66.1638920  46.8518209   9.1247255   4.3552804
  46.2819004   8.7573010   5.0308675  47.0774841   9.9963111   4.6803162
  75.8116627  25.4112244  28.1699586  75.8311129  25.7648134  27.2806740
  74.8949242  25.4823232  28.4359789  50.1600790   5.5490100   7.3371994
  50.0702000   6.4321911   6.9792277  50.1821232   4.9798578   6.5679061
  89.7791369  47.7598652  69.1773455  88.9837773  47.9927129  69.6563135
  90.3365644  47.3364255  69.8301910  73.0756140  25.3044772  28.8342237
  72.4334002  25.9704947  28.5888410  72.7048779  24.4834995  28.5105205
  27.3551011  55.4446030  39.6937871  26.9401860  56.1871672  39.2548394
  28.2047486  55.7798338  39.9800587  67.7903461  23.0665445  22.6001596
  66.9164133  23.2224607  22.9581618  68.2165766  23.9231825  22.6271820
  64.7909737  16.9709718  53.5079861  65.6904173  17.2555435  53.6700010
  64.8453283  16.0161412  53.4682751  51.9170141  28.6089754  63.7413692
  52.8495169  28.5822010  63.5270119  51.8367767  29.3241310  64.3725157
  85.3125095  62.3816681  26.3888216  85.3014088  62.8111982  27.2441649
  86.2145233  62.0787716  26.2846041  60.2244425  38.6969924  17.9636765
  59.6089268  39.0882778  17.3437834  59.7243071  38.0018711  18.3913493
  55.8610058  25.4474854  43.3261156  56.0509014  26.3219094  43.6660480
  56.6953945  24.9818993  43.3832216  74.8770380  28.7454319  40.7789230
  74.6450090  27.9144907  41.1935663  74.1801929  29.3468928  41.0413837
  33.4048557  75.3205061   5.0236779  33.3671808  75.4039574   5.9764886
  34.0489817  75.9740639   4.7512913  47.3699617  25.7584643  18.4311092
  46.4154291  25.7591939  18.5024905  47.5945616  24.8495221  18.2320821
  48.0556917  22.8609419   2.9594377  48.4057951  23.7490296   2.8889939
  48.2067251  22.4748182   2.0966923  54.7043610  16.8907511  57.8034592
  54.4657660  17.1953464  58.6789703  53.8727570  16.8417704  57.3320103
   1.2131580  28.4318709  65.1048279   1.5264182  27.8463888  64.4153976
   0.3520516  28.7196755  64.8016834  66.5808876  87.8440431  66.3809995
  67.1521814  87.1411422  66.0715107  65.8662994  87.3919252  66.8295328
  89.0893269  30.8947134  19.5518053  89.8361588  31.4928627  19.5255566
  88.8070965  30.8238053  18.6399138  57.6620531   9.9451476   4.2005584
  58.4317112   9.8925990   4.7672147  56.9909668  10.3560495   4.7455716
  38.5544205   6.6764647  25.3298402  38.5099530   6.6252810  24.3750453
  37.8456402   7.2728783  25.5709934  61.2826157  25.9948730  49.5698357
  61.2514877  25.0420928  49.6562719  60.6409740  26.3140273  50.2043962
  83.0302794  84.9162057  74.3453555  83.9238580  85.2591089  74.3583409
  83.0868753  84.0824655  74.8121614  68.7002516  27.3330736   3.5107148
  68.7749863  28.1666398   3.0461562  68.0318213  27.4897003   4.1777238
  78.3793433  50.8174512  63.1013731  79.2945607  50.7090500  62.8427975
  78.3947356  51.5250036  63.7458603  74.3546343  33.6120367  18.9717674
  73.8632917  34.4299030  19.0486193  74.5709467  33.5490918  18.0414557
  45.8400679   5.2359921  28.0966902  46.7797947   5.3972048  28.0120850
  45.7798529   4.3430454  28.4361792  47.7280092   1.2565656  10.1257396
  46.9003344   1.0642394  10.5664182  48.1122828   1.9681549  10.6377983
  32.8867602  20.6021070   4.4683930  32.4003386  21.1349797   3.8393670
  32.7054548  21.0073900   5.3163946  24.0963507  25.9717798   9.1787535
  23.8456321  26.8894148   9.0723658  24.2751360  25.6676269   8.2889450
  67.5460291  47.8817320  10.3813851  66.9321346  47.7571344   9.6576166
  67.0001650  47.8479671  11.1669564  49.1207409  19.3490660  10.0380588
  49.6551609  19.1754568  10.8129692  49.2522621  20.2803421   9.8601389
  65.4346140  85.8575776  69.8739825  64.6282204  86.3480571  70.0333242
  66.1068686  86.5304044  69.7662405  71.1516190  45.5878496  20.8037663
  71.0466480  45.6098938  21.7549372  72.0990372  45.5873871  20.6673026
  56.4788151  51.1693859  13.5132611  56.9635725  51.1484766  12.6881540
  55.8918047  51.9205475  13.4272063  49.0318108  20.3035426   6.5696770
  49.6245909  19.5635295   6.4384258  49.5561361  20.9493685   7.0431995
  57.6430893  15.5921113  20.8035421  58.3242416  15.9247744  21.3880086
  57.8834438  15.9279561  19.9400187  23.3740756   6.7990789  68.4964059
  22.4828574   7.1432266  68.5557763  23.8069340   7.3642454  67.8565250
  65.7628536  31.9273806  15.5090475  66.0784006  32.0758653  14.6176350
  65.7675648  32.7953911  15.9124899  52.1964312   8.6616212   4.1988933
  52.9935026   9.1650194   4.0330657  52.2281885   8.4642744   5.1349902
  34.3606853  29.8643613  33.8673091  33.4644866  30.0135207  33.5659575
  34.2701602  29.2429328  34.5897102  74.9245691  32.7204609  33.9297795
  74.7679234  32.2384524  34.7417903  75.5615187  33.3934522  34.1698027
  61.6645861  25.1972461  22.9305172  61.8639660  26.1033916  23.1658530
  62.2491217  24.6733546  23.4783220  46.3057709  32.4652386  22.3425961
  45.6158543  32.4686980  21.6790915  47.0801401  32.1431303  21.8812561
  51.1260271  62.3416853  31.2509537  50.1722765  62.2986031  31.1820960
  51.3127565  62.0857334  32.1542001  85.8623409  32.4411535  25.1089668
  85.0001049  32.8567624  25.1162410  85.7092667  31.5787196  24.7229505
  31.0555455  87.7294350  27.9799390  30.6252906  87.1936797  28.6463308
  30.5982920  87.5136232  27.1671772  83.3587742  17.1176803  29.6264672
  83.3756161  17.2151780  28.6743951  83.2903481  18.0131114  29.9577570
  29.6823928  87.4761099  25.8028889  29.0169093  87.9765443  25.3307366
  29.7862860  86.6736615  25.2915049  25.6337619  24.2272210  16.8060982
  25.1003718  24.6319294  17.4901569  25.6183481  24.8576236  16.0859680
  63.5973263  64.4933796   1.3909763  64.5261335  64.5740938   1.6078523
  63.3766985  65.3240395   0.9695964   4.2372840  83.4294608  50.5425374
   4.2645782  82.4737314  50.4970471   3.8645690  83.6177018  51.4038627
  92.3391234  64.3675655  11.7429686  93.1782399  63.9071435  11.7317343
  92.3349487  64.8375505  12.5768328  38.5305858  25.6817055  26.6077709
  39.3370247  25.6078887  26.0974407  38.7839222  26.1790323  27.3854065
  63.2197475  30.4994106  25.9095383  62.6533937  31.2306929  26.1559248
  63.4567881  30.0892496  26.7412901  19.2104336  75.0097197  26.6465998
  18.5181090  74.5282072  27.0994401  20.0011775  74.8257822  27.1536708
  72.1049023  13.8176715   4.4118288  73.0569649  13.7429500   4.3468574
  71.8459320  14.2795742   3.6144495  33.7001824  48.2539845  27.0907760
  34.4534850  48.7940216  26.8517613  33.8366556  47.4312019  26.6210628
  29.9803495  45.2285671  15.8435905  30.0449133  45.2432871  16.7984962
  30.4307175  46.0244465  15.5607879   9.4311231  64.0786293  65.3989522
   8.7744039  63.4565452  65.0859622   8.9815944  64.5791343  66.0798685
  69.5998764  30.9557319  20.0399756  69.7090149  30.4095221  20.8184195
  70.3726339  30.7697296  19.5066082  49.1198778  55.1129293  18.0918455
  48.8903046  55.4800367  18.9455199  49.0381670  54.1663647  18.2083678
  43.6276102  69.4509983   4.6043411  43.6634445  68.5483265   4.9207771
  43.8133478  69.9834824   5.3777713   5.5977151  75.8239633  38.8960338
   6.2462041  76.0933596  39.5465088   5.2121445  76.6442317  38.5882592
  85.9629090  57.7120450  58.2961027  85.4750808  58.0537179  57.5467626
  86.4931853  58.4512165  58.5938720  80.2742386  30.1417041  24.9693465
  79.8278952  30.5934978  24.2531848  80.8766556  29.5387840  24.5336676
  42.3931071  85.8396041   9.7843426  42.4447533  86.0401887   8.8498217
  42.8915116  86.5388435  10.2072954  67.1921158  41.7936373  22.6350093
  66.6529322  41.8241692  21.8447042  67.2783566  40.8605289  22.8302145
  76.7812713  68.4126261  53.7843911  75.9900458  68.1069282  54.2279426
  77.4502070  68.4244493  54.4689457  65.8143711  16.6099441   2.0142420
  64.9420309  16.2164080   1.9945247  66.1495733  16.4940155   1.1251809
  38.9017987  10.8745515  19.2218304  38.5563898  10.0996566  19.6650720
  39.5138335  10.5266345  18.5732961  45.6189156  40.4861498  18.5083652
  45.7464886  39.5452976  18.6298180  46.5054274  40.8428383  18.4526432
  25.0712058  85.1181492  16.1419833  24.9925801  86.0413420  15.9016383
  24.9479291  84.6450710  15.3190422  20.6831837  62.6862764  41.1607409
  20.7685590  61.7366838  41.2457228  20.7189798  62.8465319  40.2177334
  38.8192892  21.8869328  59.8240948  38.9518285  21.3760471  60.6226301
  39.3389726  21.4332795  59.1604996  73.5050678  23.5419631  21.7579961
  73.3819389  24.4382238  22.0707059  74.2427731  23.2091713  22.2691441
   9.5660394  27.6756096  30.6219697  10.3083515  27.2090697  31.0060835
   9.0402013  27.9491591  31.3735652  45.1282167  50.4058695  32.3156953
  44.8147202  50.5710173  31.4264965  44.9578333  49.4751883  32.4607396
  79.9474573   0.5799680  14.2089629  79.7332335   1.4099376  13.7829447
  80.7574940   0.7580954  14.6868145  58.9877796  27.7880287   5.7039845
  58.7455654  27.1125984   6.3375127  58.8932657  28.6110759   6.1834562
  32.2164369  17.9502416   5.8692455  31.9422269  17.1229577   5.4734641
  32.6234460  18.4357393   5.1517034  72.5971794  37.1561503  25.9944201
  72.2025633  36.3087511  26.2003875  72.6108122  37.1878433  25.0378418
   7.3383114  15.2791509  54.9538080   8.2396003  15.3185615  55.2737467
   7.4228021  15.2695427  54.0003936  33.6770988  38.9345813   4.2397243
  33.4810305  39.6049500   4.8942417  33.9986992  38.1901383   4.7482619
  55.6432867  36.6408038   3.0867743  55.3568220  36.2094855   3.8918430
  56.5461779  36.3468909   2.9658109  58.9317179   5.9774333  32.3673296
  58.0127001   6.1621964  32.5609756  58.9874935   5.0218892  32.3598146
  35.3389883  25.1042080  12.7399182  35.3332520  26.0506988  12.5972617
  36.2666917  24.8684931  12.7458012  50.7482716   8.0370578  73.1395866
  50.3876874   8.8404522  72.7643989  50.6848618   7.3936090  72.4337648
  19.2503688   4.4982538  76.1151373  20.1802012   4.4679269  76.3403490
  19.2143342   5.0252733  75.3168969  58.5012865  37.9105473  13.4747517
  57.7502346  37.6800323  14.0215743  59.1459274  37.2255611  13.6521339
  63.5452366   6.8110573  38.4881592  63.1359196   7.5954890  38.8533401
  64.4671202   6.8849409  38.7349558   3.1024382  42.2711611  60.2642775
   2.3432642  42.0196486  59.7383213   2.7532703  42.3893547  61.1476469
  81.3208103  23.8782954  31.0062909  81.5569401  23.0551696  30.5785799
  80.3762913  23.8127136  31.1470675  84.6558698  53.3479872  65.9238557
  84.3397220  53.5625091  66.8015019  85.2107509  52.5783971  66.0506241
  11.5027583  25.8527875  19.8985791  12.0670772  25.5434370  20.6071544
  10.6430483  25.4820943  20.0978732  74.2464352  40.1767254  21.0280418
  74.2245770  40.7765102  21.7737079  73.3779287  40.2538443  20.6330943
  77.5412849  10.0726992  43.3460522  76.7679218   9.5575339  43.5757160
  77.6013616  10.7346255  44.0348721  45.5161715  78.7197161   8.6397773
  45.6040478  79.3663073   9.3400824  44.6641684  78.3122158   8.7955576
  74.3327093  56.2134552  12.0238221  75.1907396  56.3180828  12.4350047
  73.7770414  55.8564186  12.7166355  91.4818573  69.5715666   7.5637150
  90.9129238  69.0777016   8.1541806  92.3250580  69.1210079   7.6110393
  56.6536188  60.1397848  10.5356205  56.9191074  61.0507822  10.6614423
  55.8037376  60.0756264  10.9712994  62.7918005  52.4811554   4.2107615
  62.4214697  52.3187304   3.3431742  63.2312870  53.3275509   4.1289610
  70.1836109  25.8169961  19.7286093  70.5609131  25.2094460  19.0924048
  69.2730141  25.5356860  19.8175728  32.3725891  40.5513048  29.9572372
  32.7687311  41.4052343  29.7837090  33.0857015  39.9258757  29.8286295
  83.4368992  57.9879951  23.7481833  83.2881737  57.1056128  23.4083200
  84.3828869  58.1156874  23.6772728  72.0085096  67.2546625   8.7535578
  71.1191082  67.2522640   9.1073883  72.1198845  66.3805771   8.3796543
  80.4090595  61.4790297  15.3815663  79.5963526  61.1719513  15.7833695
  81.0899544  60.9272909  15.7665241  60.9188986  44.0619516  20.9514737
  61.7504263  44.5312548  21.0189390  61.1673880  43.1382465  20.9161258
  58.4855175  68.0162096   3.0660596  57.9605722  67.3924065   2.5645301
  59.2845631  68.1257725   2.5505495  17.6061529  84.8337844  73.0026449
  18.3067888  84.9311450  73.6475153  18.0540079  84.5617250  72.2016190
  78.2206964  65.4952097   9.9592638  78.4383965  66.4227343  10.0516427
  77.4426937  65.4861689   9.4017148  37.0951649  13.6445150  58.1948618
  37.5494286  13.7935409  57.3656039  37.4134633  14.3397865  58.7706344
  73.0546808  15.0453389  24.8780131  72.2991514  15.0617206  24.2905283
  72.7718353  15.5419850  25.6458497  50.1402760  38.4120893  14.0444303
  49.7880077  38.9268875  13.3183992  50.0129271  38.9659142  14.8146856
  43.3156013  48.3386612  15.7581437  42.3944569  48.5970402  15.7892036
  43.3007574  47.4370146  15.4371476  74.8838997  27.8816676   6.0407251
  74.8819065  27.2751951   5.3001720  75.6199741  27.5963068   6.5820163
  77.2560883  16.7695403  25.9601617  77.9022169  16.3689268  26.5417624
  76.5386057  16.1367941  25.9272122  82.6117261  58.3392826  51.6387503
  82.8246100  57.8860334  52.4545209  82.2236951  59.1680601  51.9194524
  88.0390453  47.6088619  34.6683764  87.3388481  47.4823809  35.3086543
  88.8423252  47.6096487  35.1889253   9.2836581  35.4000807  36.6951299
   9.9092970  35.6983900  37.3552942   9.1060839  36.1770678  36.1650443
  70.2280235  50.9021425  16.3025403  70.1906538  49.9488258  16.3801074
  70.2425623  51.2156391  17.2068298  90.3794575  41.0625505  37.8312755
  89.9207783  40.7805681  37.0398617  91.2157154  40.5977631  37.8018975
  78.1574376  67.6040295  76.9147555  78.0395682  68.5532192  76.9518942
  77.2886355  67.2629145  76.7024966  86.2200069  42.7256250  15.8477449
  85.4720306  42.6623774  15.2538133  86.0386658  43.5005236  16.3796079
  30.1019669  64.3181896  18.7795877  30.7927561  64.9746418  18.8696444
  29.9111867  64.2983580  17.8418028  33.4857648  73.3121374  66.9111828
  33.7847417  74.1839913  67.1694772  34.2910951  72.8227332  66.7433719
  10.6768084  80.9681511  16.4067054  10.6692374  80.9318066  17.3631847
  11.2360251  80.2371788  16.1436641  61.2568092  32.4904990  32.4363351
  61.2477970  32.6383924  33.3819985  61.1219311  33.3588314  32.0568132
  12.6277934  49.3372250   7.8784710  13.4531889  49.8213434   7.9025948
  11.9872675  49.9366474   8.2614088  26.0969207   2.8540430  71.0112814
  26.7315814   2.7919302  70.2974359  26.6256091   2.7987060  71.8073062
  33.7961817  37.2573972  47.7299023  34.0878439  36.6044235  47.0936728
  34.2651463  38.0554557  47.4861717  19.8017130  15.8779073  39.9595380
  20.5644236  16.4562786  39.9585319  20.1481066  15.0242698  39.6996403
  55.8610964  26.9124913  29.3920255  55.9839821  25.9717989  29.2646337
  56.7198229  27.2932887  29.2081332  83.0969810  53.2210302  12.5173843
  83.7053299  53.4900761  11.8290806  83.6278057  53.2060671  13.3137739
  31.0636851  15.7990226  65.3383188  30.1805636  15.4884967  65.1385610
  30.9759900  16.2447366  66.1808602  35.6890130  76.0780096  10.4837584
  35.0445199  76.0845232  11.1914456  35.7852077  75.1533127  10.2559149
  26.1219454  56.7150688  46.0553885  25.6554031  56.6880989  45.2200174
  25.8977771  57.5680208  46.4274883  63.0667448  64.2352343  28.8211632
  63.0624247  64.1506910  29.7746134  62.1658516  64.0447617  28.5597372
  44.1847754  34.9400496  30.1906776  44.0652561  34.2296195  30.8209443
  43.4202099  35.5022430  30.3156376  77.1996212  42.3930740  18.5048652
  76.7762327  42.2343588  17.6611924  77.0601988  43.3253479  18.6711919
  28.1273454  75.4468826  69.5710282  27.3064702  75.7142618  69.9844448
  27.8965658  75.2989605  68.6539171  93.8486862  48.0983782  24.1094255
  93.2211781  47.7741766  24.7554612  93.4316444  47.9292727  23.2646108
  68.7952502  84.2609337  73.9202045  69.6365316  83.8228706  73.7914534
  68.4785660  83.9291719  74.7603689  68.2977915  41.1053038   5.3754681
  68.7939453  41.1067104   6.1940384  67.6288986  41.7786455   5.4996669
  71.0195637  32.2980332   1.0858603  70.5443954  31.6376066   0.5815950
  70.5446243  33.1126165   0.9212016  12.2628416  11.7090517  25.7127333
  13.0961527  11.7203528  25.2418828  12.4356760  12.1980387  26.5172553
  92.6845534  74.2135051  72.3137350  92.5899776  74.4206050  73.2434641
  92.3152669  74.9715546  71.8607221  19.7526419  39.9926162  35.1486254
  20.4463530  39.4242883  35.4832935  19.6003199  39.6840978  34.2554021
  40.0424337  34.1707754  40.5183935  40.6505537  34.7061586  40.0087023
  39.5150852  33.7161970  39.8615146  83.5677910  70.3848076   7.0273191
  83.2656384  69.5417213   7.3651713  83.1287861  71.0342121   7.5766677
  44.3585443  75.7621765  22.8909397  43.8161707  75.7675648  22.1022511
  45.0628138  75.1448441  22.6930904  87.4181080  58.5630083  27.9837251
  87.0284939  58.6367512  28.8549280  86.6691589  58.5235882  27.3889637
  80.6770802  49.0362978  18.4360766  81.3012886  49.5597887  18.9386117
  79.9132681  48.9601517  19.0079415  61.3088608  64.9919128   8.3412343
  61.7936373  64.1863537   8.1615162  61.2308979  65.4198217   7.4885643
  49.7533321  77.2803688   4.2564073  49.6404648  77.9085159   4.9697965
  50.2458191  77.7601814   3.5904747  53.1380558  70.7283783  27.2075558
  53.4394026  69.9356937  27.6514816  53.1551933  71.4038229  27.8855753
  65.1233912  29.4147015  17.0332253  65.0481367  30.3213406  16.7356074
  65.7912016  29.4421911  17.7184296  19.9007314  57.8077212  64.6913461
  18.9534372  57.9450300  64.6960430  20.2482503  58.5170964  65.2319447
  59.1509914  33.3144164   2.2348233  58.3451128  32.8662825   2.4916711
  58.9863443  34.2361212   2.4337816  37.6527047  32.7881932   3.5683906
  37.6925182  32.1311378   2.8734639  37.5194693  33.6164880   3.1075090
  68.7761116  45.0648546  16.9228196  68.8825703  45.2484703  17.8561926
  67.8532410  44.8288107  16.8288863  12.1613115  81.2535456  69.4734578
  11.8991273  81.6916660  68.6638038  12.4877351  81.9586638  70.0324659
  52.3879048  14.9986658  76.3310276  52.0626542  14.1855106  75.9447390
  51.6006562  15.5184278  76.4932694  35.9296894  55.1786947  26.6785669
  36.3329053  55.3452110  25.8265567  35.5081654  54.3248272  26.5812778
   3.2539473  73.6163855   5.9050161   3.8180266  72.9109669   5.5880958
   2.4507056  73.1750345   6.1811244  73.1802130  35.4193974   6.5579069
  73.0441999  35.8666849   5.7226425  72.7240753  34.5836854   6.4591366
  54.2811203  73.4410286  25.8212900  53.7024927  73.5127592  26.5804195
  53.7643242  73.7852955  25.0928426  86.4337921  38.6980653  26.1661124
  86.6022205  39.2190385  26.9512558  87.1990585  38.8473964  25.6108642
  91.3689645  50.8673242  75.9574724  92.2403987  51.1018500  75.6383592
  91.4201339  50.9895423  76.9054577  36.5290496  16.5346822  69.3277101
  36.2330910  17.2387418  68.7506984  37.4104878  16.7970857  69.5931200
   7.4473772  74.1854572  21.7123461   8.0864249  73.4736109  21.6787910
   6.6122637  73.7677288  21.5018153  74.2131567  52.6218700   7.4634254
  73.8887072  51.7268181   7.3642176  74.1652012  52.7911091   8.4043241
  51.8597460  56.5033054  32.0424533  52.3518419  55.7744455  32.4203825
  51.6836977  56.2318802  31.1415839  68.2230949  69.8831606  44.9803209
  68.4874439  69.0057802  44.7036409  68.7049198  70.0331354  45.7937002
  38.5459325   4.2510614  60.8008377  38.7887618   4.1171703  61.7169909
  38.1657216   5.1292572  60.7797162  50.4681778  64.5497608  20.5461335
  50.4024935  65.5015373  20.4684424  49.8269081  64.2135239  19.9200737
   1.9327746  49.7670984  37.5622559   2.4612818  50.2920198  38.1634021
   1.8879996  48.9040709  37.9738498  62.6678801  19.1192079  10.1470113
  63.5733700  19.4294178  10.1564574  62.5307178  18.7539065  11.0210681
  85.2400589  72.0590115  22.1260977  84.7416306  71.8320990  22.9111552
  86.1558533  71.9972849  22.3976541  89.9866529  51.9665575  50.6978559
  89.5873724  52.7200413  50.2630377  89.7547381  52.0718575  51.6205502
   9.3237315  45.0132322  11.9688344  10.2342520  45.1925468  12.2034228
   8.8300524  45.1954079  12.7684140  91.2774754  66.7447662   3.3645871
  90.7465076  66.4083815   4.0864986  91.2286377  67.6964760   3.4545600
   1.4124213  17.3925352  11.4350688   0.6492529  17.0479214  10.9713447
   2.1176730  16.7809761  11.2232804  31.3667488  41.3804293  36.5648270
  31.6742444  41.1869717  35.6792474  32.0157003  41.9902658  36.9158196
  53.6847639  66.3854694  10.3457534  53.9769363  67.2163057  10.7206881
  53.1964302  66.6352606   9.5612991  17.5945040   1.2667045  68.0929200
  17.6108214   2.1993169  68.3078615  16.6768786   1.0136852  68.1937806
  38.1394243   1.8538074   5.4640263  38.0989742   1.5351616   6.3657254
  38.3042359   2.7928734   5.5490172   3.5489855  72.2182322  18.8911963
   2.9529295  72.8820229  18.5443103   2.9774580  71.5913725  19.3346334
  66.5199327  36.2301159  29.2074609  66.6827536  35.4150915  29.6822810
  65.7546806  36.0419893  28.6641169  26.8175500  72.7840307  72.1392040
  26.6622156  73.6991838  72.3728664  27.7704233  72.7079871  72.0893304
  30.6467005  31.2839136  70.3642933  31.3316390  31.8198976  70.7640497
  30.1878688  31.8822822  69.7746633  16.8494285   5.6637770  17.4742389
  16.4179958   4.8131186  17.5547278  17.3574270   5.7519537  18.2807124
  50.2121449  12.9576993  28.8120413  49.7363186  13.3613610  28.0861759
  50.9781551  13.5178578  28.9372540  69.2198753  77.0494890  20.4615188
  69.2118073  77.9735470  20.2119374  70.0359440  76.9403791  20.9497380
  19.7585058  49.5152283   3.2804471  20.1765060  49.9933815   2.5642937
  19.8349321  50.0991488   4.0350509  55.0264359  58.0162621  18.1202471
  54.3055153  57.7523708  18.6919713  55.4358339  58.7522364  18.5751832
  38.1544876  19.0181172  26.0147214  37.3817325  18.6071086  26.4022136
  38.8915586  18.6483467  26.5007567  74.6134996  67.2356653  12.8353429
  74.7243595  66.3846922  12.4113333  73.7059212  67.4782705  12.6518488
  51.5284681  41.6488314  16.7209160  51.7110491  42.5884151  16.7294300
  51.4814806  41.4223766  15.7920778  76.2546094  88.1715873  74.2959456
  76.7323192  87.8510955  73.5308911  75.3612025  87.8511289  74.1720028
  54.0058184  17.4259663  24.1334343  53.1256723  17.0517576  24.1726875
  54.3810320  17.0715594  23.3273053   7.1971986  17.2182617  68.8018153
   6.8102166  17.3713550  69.6638135   6.5467569  16.6914997  68.3374004
  84.6945381  21.1288428  35.8763027  84.7105312  21.9126034  35.3270340
  85.3818130  20.5690837  35.5149746  58.3462429  62.0003176  49.4029474
  58.3300591  62.6201344  50.1321888  59.2769051  61.8533993  49.2340851
  50.5275631  18.2157886  40.2194071  50.3183937  19.0227687  39.7490215
  49.6756268  17.8327537  40.4285049  78.2263422  44.2262506  22.0472336
  77.6096630  43.7169075  21.5213943  77.6779747  44.8527908  22.5194383
  45.2862883  33.2104349   7.4734318  44.4491673  33.3822107   7.9046565
  45.5391312  32.3394680   7.7795643  14.3317649   1.6503343  72.1533899
  13.9489218   0.7966528  72.3555903  15.2707574   1.4801321  72.0788462
  85.4479694  46.9205618   8.2449037  86.1772537  46.6239166   8.7893081
  85.4483223  47.8728056   8.3421761  45.2473256   2.0475778  65.9776453
  45.8607194   2.7824029  65.9739653  44.5373627   2.3253212  65.3988115
  37.6119494  82.5360870  43.8146353  38.2080126  83.0970573  44.3108749
  37.7423334  81.6625118  44.1835546  12.1549886  51.9209680  49.3793170
  12.0566028  51.0695437  49.8054950  12.9835885  51.8567744  48.9044110
  51.5122414  22.9936790  34.6151519  51.3246775  22.0625019  34.7333074
  51.4618731  23.1299806  33.6690450  70.2479601  32.3389411  30.0433612
  71.1255217  32.2828031  29.6652579  70.2157927  33.2066393  30.4462218
  71.2758541  56.7095470   6.0154146  71.2032700  55.8928585   5.5214703
  71.2510252  56.4376068   6.9328368  78.6755514  25.4418421  32.0490575
  78.8120127  26.3371539  32.3589420  78.1857920  25.5429196  31.2328768
  46.1414719  57.3868752  10.4576790  45.4818916  56.8525982  10.9000933
  45.9238005  57.3151350   9.5283222  31.3351059  60.9248304  16.6762781
  30.4710889  60.8211994  17.0749831  31.2650514  60.4771900  15.8331037
  66.4185286  26.9444633  12.1238470  65.4627085  26.9866991  12.1529865
  66.6192484  26.0110974  12.1929312  87.5658894  29.1856694  29.7324276
  87.7278137  30.1267385  29.7987437  87.4576950  28.8968134  30.6385660
  87.5090599  50.1856613  58.6852741  88.4205914  50.4571772  58.7930346
  87.4385262  49.3768501  59.1923094  51.5466452  30.1008701  14.5176637
  52.0474672  30.5567265  15.1941288  50.7048893  29.9091935  14.9311161
  82.7130699  81.7722321  26.1255813  83.4557056  82.1045017  25.6212687
  82.1426773  81.3663197  25.4728055  69.2186737  67.6277208   4.2370012
  69.7637415  68.2544518   3.7612438  69.8292446  66.9486141   4.5237944
  45.3664684   7.5069720  11.2447238  44.4889927   7.6933390  10.9107494
  45.4645872   6.5600538  11.1449766  76.5509653  23.5769033  35.8794856
  77.2938919  23.3805299  35.3087568  76.9384575  23.6866045  36.7478442
  25.6892869  74.5855468  19.9357259  26.1315676  73.7771052  19.6768045
  25.9567162  75.2264231  19.2769432  91.4269447  45.9502983  50.7558632
  90.8457851  45.7037449  50.0363541  92.0268250  45.2095890  50.8437824
  63.1105328  43.0880260   6.4567327  63.9729118  43.1759405   6.8626875
  62.9413319  43.9452076   6.0657847  55.8503243  22.2244129  75.2979289
  56.4695069  22.5756797  75.9378209  55.3275773  21.5929470  75.7921156
  23.2420727  10.6760559  54.3497555  22.3212144  10.6105957  54.0968339
  23.6570403  11.1430082  53.6245076  93.4374619   6.1161238  36.4787865
  93.2536697   5.2961898  36.9372201  94.0396976   5.8684790  35.7772064
  76.3217878  51.0096264  17.7709353  77.2620726  50.9743881  17.5952744
  75.9139824  50.7462549  16.9459748  41.4319658  64.0384054  21.4039159
  42.3559618  64.0179682  21.6529965  41.2534046  63.1579256  21.0736179
  55.4310513  23.8385081  17.7886689  56.3389111  23.9277816  18.0785918
  55.3089619  24.5507240  17.1609151  57.2452021  67.0363951  14.5242679
  56.8729639  67.8044701  14.0909863  57.9380560  67.3887873  15.0828433
  83.0804157  34.8146582   8.4679961  82.4982548  35.5347610   8.2255650
  83.8570213  34.9405718   7.9227775  39.6584082  45.0683260  13.0016756
  39.2492914  44.5784283  13.7150180  40.4905891  44.6203566  12.8499150
  87.5230980  74.5965528  22.6904082  87.7906132  74.4489050  21.7832875
  88.1600189  75.2260399  23.0285120  70.3310442  78.5957384  12.3942423
  70.8184910  78.5533476  11.5715456  71.0011721  78.5221100  13.0737567
  48.7037945  53.3654308  14.4949806  48.3830595  52.8768682  13.7369144
  48.1181860  54.1198826  14.5589471  59.5966387  77.5718832  38.5101676
  59.4367170  76.6928720  38.8536811  60.3872204  77.4809885  37.9782414
  81.4578533  24.1323781  37.1514344  82.2178650  24.4916964  36.6937208
  80.7184601  24.6478820  36.8292737  60.1173592  36.9336247  23.9133477
  60.0202847  37.6439309  24.5476007  59.4966745  36.2657738  24.2048168
  83.3588028  30.3201604  36.4936018  82.9798985  29.4454908  36.5808940
  84.2991829  30.1659060  36.4034367  54.5191813  22.6799130  13.6487448
  54.1012764  22.5425935  14.4988787  54.4074488  21.8474460  13.1896746
  60.6915951  35.3507781  26.7727852  59.9360132  35.7255030  26.3201118
  61.4486790  35.6819320  26.2896824  89.4430351  46.3518620  43.6837101
  89.7534370  45.5277443  44.0588236  88.5616112  46.4605904  44.0407753
  19.0041154  61.4312461  65.1335673  18.7119192  62.3404959  65.1977198
  18.4231370  61.0383573  64.4821612  50.4429531  43.4409904  26.2356377
  49.8525572  43.9279842  25.6607461  51.0284185  42.9751730  25.6385779
  20.4563628  53.0577087  38.4217834  20.6353198  53.8678265  38.8991833
  20.8945284  52.3769569  38.9324880   0.8252726  68.9147902  31.8135715
   1.2414275  68.5842752  32.6096916   1.5121947  68.8711357  31.1484003
  86.2714005  51.3228798  14.0230405  87.0512486  51.5602541  14.5247674
  86.3455200  51.8266869  13.2125366  62.1016499   4.1292009  38.2115070
  62.9545972   3.8936767  37.8464834  62.1639439   5.0697002  38.3782999
  35.5713344  25.8998680   9.5562267  35.0826597  25.1198769   9.8189831
  36.4820910  25.6085491   9.5127577  72.7426052  37.1317911  23.2708049
  73.2277679  36.3571477  22.9865909  73.2337999  37.8686690  22.9075289
  91.5698338  54.6354294  22.7045918  90.8542442  55.2516174  22.8610206
  91.2295532  54.0370417  22.0394802  90.3018188  57.5572824  15.4553509
  89.9349976  57.3636580  14.5926869  89.5526123  57.5134993  16.0495031
  68.4930423  16.5073782  64.4332838  68.7579873  16.8228918  63.5692883
  69.2583373  16.6577345  64.9882174  72.2936916  64.9783325   7.1993089
  71.8246412  65.2356815   6.4055866  73.1256485  64.6266317   6.8824726
  69.6029520  48.2867098  38.6862278  68.8425684  47.9104757  39.1295123
  70.2790165  47.6127625  38.7567163  48.9663267  79.9870920  13.2269561
  48.6557388  80.2784824  14.0841949  49.5634985  80.6783199  12.9409134
  40.1176548  36.8043113  21.8125272  39.3972349  36.1759710  21.7633867
  40.9076214  36.2696862  21.7327857  84.4722366  55.1212788  71.8340731
  84.6553707  55.6493855  72.6111174  84.1856575  54.2763662  72.1808100
  84.1383171  60.3106022  34.4181943  84.3615818  61.2228870  34.6029115
  84.9265385  59.9483109  34.0136123  76.3967609  74.0853691  38.1881905
  76.7527866  74.5498419  37.4307323  76.1150646  73.2395077  37.8397727
  27.3774811  23.0273256  49.2298500  27.0958564  23.5672531  48.4913389
  26.6228339  22.4702987  49.4208161  60.2879906  86.1371040  67.3380995
  59.7060299  86.2693119  68.0864811  60.6660414  87.0008755  67.1731472
  68.5385466  69.3746138  25.8767462  68.3264399  68.8173389  25.1279545
  68.1691790  70.2285957  25.6519890   5.8637534  53.0943775  17.8144276
   6.1159335  53.8158131  18.3907688   5.0875483  53.4148836  17.3550725
  58.6034393  61.9091272  18.7299764  59.1974831  61.8783426  19.4799089
  58.7583876  61.0853958  18.2677126  28.5179625  67.3742104  33.9177203
  27.9828940  67.3745728  33.1240368  27.9756079  67.8140593  34.5724106
  78.4841681  25.9011507  16.4293575  79.2873430  26.3859749  16.2393939
  78.6792231  25.4202962  17.2336972  61.3073874  61.6240549  72.2727013
  62.1884012  61.7281914  71.9132471  61.0675192  62.4995899  72.5762320
  72.7572536  40.0350142  45.4980087  72.6225042  40.0828362  44.5515490
  73.5638475  40.5274057  45.6502819  82.1043587  43.4430790  40.1556110
  81.8467808  43.9293480  39.3723965  81.6036415  43.8475084  40.8640957
  68.4258509  70.3571987  15.1071596  68.0438519  69.8054743  15.7897365
  68.4786272  69.7871351  14.3400407   9.6134516  16.0531339  68.9909635
   9.5186946  15.2389011  68.4967236   8.7335297  16.4297256  69.0031199
  56.7671585  63.9775324  14.1296422  57.1547985  64.8521423  14.1616523
  56.0912752  63.9901638  14.8073244  31.3747419   0.4505163  30.5741000
  31.2346948  -0.4297441  30.9230256  32.0982755   0.8016211  31.0931993
   5.6041683  22.9164225  26.6662550   5.7127632  22.5083929  25.8072114
   4.7928299  23.4188563  26.5919304  62.2552299  81.0692501   7.0170510
  61.6689301  80.7476807   6.3321596  63.0934429  81.1988544   6.5733910
  85.9500217  58.8508272  43.1707430  86.7635250  59.3515062  43.2321930
  85.7150078  58.8885689  42.2436094  90.4023838  52.2182465   3.1824210
  89.5427990  52.2103786   3.6034748  90.9244537  51.5986872   3.6921489
  62.0178604  64.4627666  38.8796878  62.3014545  65.3767490  38.9006090
  62.4254274  64.0678263  39.6504951  52.5956151  40.8535251  68.4839545
  52.3805901  40.6183395  69.3865542  51.8097874  40.6310043  67.9847674
  64.2018700  60.3642559  14.3076646  63.4595776  60.8970070  14.5929933
  63.8257456  59.5004606  14.1384947   4.1870416   8.5329920  10.3937781
   3.4062542   8.0535704  10.1167285   4.2637171   8.3456808  11.3293350
  88.8836765  83.9557362  10.5338311  89.4200802  83.6409569  11.2614393
  88.9520550  84.9093246  10.5808723  60.8503628  60.0903893   1.2630633
  61.3839769  60.1497746   0.4706235  60.0188732  59.7217178   0.9648351
  47.6222324  75.1327801   6.3366902  46.9248772  74.8445702   5.7477355
  47.3775864  76.0260344   6.5785104  68.6360502  61.8197441  11.9231737
  68.0210209  62.4218750  12.3419881  68.1390524  61.0094166  11.8109465
  25.8908952  22.5507838   5.0054622  25.9941019  23.4992224   5.0832659
  26.6993726  22.1911341   5.3705102  76.0661364  34.5888448  24.6039605
  75.4677534  34.6238804  23.8576746  76.3517666  33.6759377  24.6392822
  69.6235466  43.0287027  13.6466789  69.9817848  42.2224903  13.2753134
  70.3926611  43.5302210  13.9171875  77.9926920  28.3879447   4.9797913
  77.7988625  28.7766790   5.8327556  78.2630777  27.4919963   5.1807779
  62.8891039  59.5829821  17.3650765  63.7705564  59.2109871  17.3350883
  62.6937532  59.8096943  16.4558613  13.7119831   6.6984564   2.2085249
  13.4034885   7.2094828   1.4602551  13.5872329   7.2765547   2.9611629
  32.5215826  70.4589891  37.0264840  31.8712054  71.0322666  36.6207790
  33.1211291  71.0560179  37.4740767  58.2331085  52.2712564  21.5923142
  57.5385046  52.4085474  22.2364473  59.0239477  52.1439314  22.1163321
  82.2025394  34.2138863   4.5039919  82.8534508  34.9115300   4.5804510
  82.1934795  33.9958572   3.5719979  82.1004388   7.5645885  72.4673216
  81.6154381   8.3004198  72.0937465  82.6252362   7.9540119  73.1667326
  45.4897833  80.4296112  44.9217749  45.8616447  80.9229851  44.1906548
  45.5943012  79.5122099  44.6694231  33.0252862  65.5298996   8.7080491
  33.2304645  64.8126221   9.3077576  33.6098814  66.2394857   8.9744449
  60.5944824  82.6141739  28.3119249  61.1791325  83.2292175  27.8690434
  59.8101902  82.5921345  27.7636218  72.5976038  63.6634970  26.7189789
  72.7472925  64.5566797  27.0288944  72.4370384  63.7594509  25.7802320
  62.6170540  67.9753637  28.8504338  62.0555067  67.2925043  28.4835553
  63.3356857  68.0570030  28.2234311  69.5598030  69.3632555  40.6825924
  70.0298119  69.4492626  41.5120077  69.9332476  68.5814953  40.2756262
  39.5392129   6.8885049  72.8654800  39.1065881   6.7270717  72.0270244
  39.3616292   6.1023721  73.3819000  53.0872393  82.5668144  58.7506819
  52.5948429  82.4211788  57.9428625  52.6694012  81.9927788  59.3926525
  51.0775423  82.6335335  56.7035007  50.9684658  81.7411804  57.0322037
  50.2499914  83.0678082  56.9103718  61.7333746  51.2275839   8.6691225
  61.6810608  51.9321060   9.3149865  62.6715374  51.0728407   8.5589451
  80.4071522  56.8437529  16.8984878  80.2315617  56.3400793  17.6932919
  79.5495176  56.9473791  16.4862347  87.5530815  72.5950718   6.5428460
  87.7795601  72.3786402   5.6383598  86.7995453  73.1805086   6.4675456
  82.9013729  51.4840317  15.4474163  82.9787540  50.9530640  14.6547520
  82.0243931  51.8642139  15.3963697  77.3522711  67.9831076  35.0137043
  77.6487923  67.9014301  35.9201431  76.4170599  68.1746149  35.0839710
  68.4819984  68.1643915  13.2435119  67.8494883  68.0214834  12.5394261
  69.1004801  67.4385262  13.1608498  64.6864128  30.2298069  53.0213356
  64.1255283  30.2754927  52.2470236  65.4924774  29.8185778  52.7092743
  88.1715012  58.6426067   9.6654886  88.0142879  59.3350983   9.0236384
  88.9014053  58.9664650  10.1932979  65.3650045  77.5684023  25.1729655
  65.2138519  78.5102463  25.2524304  66.2290049  77.4978924  24.7670603
  35.3452791   4.6285445  25.3575397  34.9405969   3.8169581  25.0512958
  35.4784025   5.1446539  24.5624685  40.5473948  40.1144838  32.3329020
  40.5290174  39.3355560  32.8889227  39.6317720  40.3867483  32.2717261
  16.3158811   8.1084925  16.7078364  16.4143766   7.1830469  16.9316161
  16.9379867   8.2498843  15.9942389  62.5872850  37.0229387  25.9087920
  62.2612476  37.9225111  25.8822608  63.1531143  36.9504929  25.1401424
  90.8232117  52.6435137   6.3252509  89.9834156  52.6354980   6.7844921
  90.9146404  53.5422897   6.0089147  61.4425942  15.8289632  75.2441667
  61.8704411  15.2727518  74.5931603  60.6248662  15.3746662  75.4470606
  10.8362017  40.8309793  35.9866762  10.5824576  40.2479315  35.2712011
  10.2284155  41.5676546  35.9223390  72.2048521  59.8540926  26.2007046
  71.8421412  59.1454363  25.6692147  72.6484632  59.4090176  26.9227505
  36.8156955  37.2630176  45.9331934  37.3846099  37.9160461  45.5256073
  36.4371058  36.7823276  45.1970951  71.7485380  75.5194187  11.7401254
  71.4700222  75.7950020  12.6134610  72.3998070  76.1707926  11.4797640
  72.2068214  59.1069221  39.9139905  72.7625513  58.4927273  39.4342399
  71.4436436  58.5892630  40.1705456  77.0917892  60.6584072  59.6905756
  76.3828468  60.4909611  59.0696144  77.2443342  59.8133612  60.1134968
  42.0970675  30.4426918  74.4912804  41.8535849  29.6246442  74.9245777
  41.7718169  31.1285934  75.0743620  41.6836929  59.0633774   2.6958653
  42.1762848  58.6545372   1.9842216  42.2232914  58.9206982   3.4734949
  87.3019695  60.0149202  15.0115418  86.6161060  60.5951738  15.3418934
  88.1035709  60.3292608  15.4296875   1.3566936  11.5486533  12.0697129
   1.7334236  11.2591082  12.9006600   1.0630764  10.7421690  11.6459155
  65.2938366  39.3761134  23.4350538  65.6513023  39.8575401  24.1811633
  65.9931660  39.3932080  22.7816963  88.0193138  87.7480221  33.0656505
  88.1309605  86.8101597  32.9101396  88.0567360  88.1414795  32.1938586
  90.1437664  22.8288794  26.9805193  90.6355858  22.4004984  26.2799215
  89.9742222  23.7108588  26.6494536  30.1114267  79.8788503  70.6642739
  29.7400945  79.1889861  71.2142120  30.9602254  79.5336512  70.3874920
  56.8287134  61.9225073  52.4711895  56.7200279  62.8676748  52.3659182
  57.7645445  61.8058062  52.6349878  40.6250299   4.1896921  24.7519159
  39.9086584   4.1101557  24.1220546  41.2486471   4.7820288  24.3318319
  54.9878883  80.9101200  26.7514372  54.0948725  80.5685711  26.7973208
  55.5448532  80.1424980  26.8809986  69.8161650  64.5860481   9.0048099
  69.0881824  64.0185118   8.7514865  70.5210400  64.3560839   8.3994162
  84.0395260  75.9547091  10.9100044  83.2783890  75.6252384  10.4321373
  83.7500858  75.9973001  11.8214023  53.7893867  72.5602198   1.0653997
  53.1767607  73.2594490   1.2934373  54.4774151  72.6189756   1.7282712
  79.1109800  35.9427691  18.1204510  79.2078304  35.2698088  17.4466741
  79.7166252  36.6352630  17.8561151  90.0958920  44.8500872   8.1536293
  89.5504284  45.4457617   7.6399434  89.8564720  43.9772654   7.8420395
  76.3572311  79.8297024  23.3791518  76.7649269  79.1951084  22.7898240
  75.4191399  79.6523142  23.3102179  80.9025764  60.0787067  19.0246165
  80.9524727  59.3956280  19.6933031  80.0021458  60.3993082  19.0764582
  54.2043161  75.7125378  30.0207448  54.3309164  76.6322231  29.7875333
  54.4261980  75.6685638  30.9508348  74.1622162  30.3545713   7.2182637
  74.5804453  29.5725894   6.8579566  73.5888386  30.0227451   7.9091752
  86.6264153  53.1542635  30.9378362  86.7588997  53.3375216  30.0077295
  86.9371605  53.9421463  31.3838267  92.4269104  41.6693306  19.6172857
  91.8679333  42.0083952  18.9181376  91.8185997  41.4368963  20.3188300
  19.1390810  76.2791109  42.5276184  18.8293276  75.4091787  42.2756147
  19.7745047  76.5124464  41.8508387  47.9374504  73.8500166  48.0198288
  48.7100410  73.6813736  48.5591745  48.1271648  73.4169006  47.1875715
  74.9914598  60.3733873  36.8742514  74.7636843  61.0378647  36.2240100
  75.2253723  59.6025658  36.3571930  86.8900776  57.6435232  20.5427766
  87.4108887  58.1597948  21.1579633  86.3699627  58.2910872  20.0669932
  87.4133304  10.8335978  62.6941681  87.3213104  11.0077673  63.6308813
  88.3485273  10.9418112  62.5211668  50.1547766  35.1994967  21.6443563
  50.0643635  35.5265331  20.7493114  51.0645485  34.9075484  21.7019248
  66.4145041  63.8584757  24.0377474  67.2476482  64.3132830  23.9142442
  66.4821768  63.4668970  24.9085641  27.5328935   2.8272158  73.3559465
  28.4111990   3.2077414  73.3575630  26.9786466   3.5023505  73.7474012
  93.4485820   4.9593169  18.2617688  93.5740569   4.5603949  19.1227865
  92.6489261   4.5552641  17.9248333  10.8409704   6.7020422  32.2487664
  10.8380617   7.5684267  31.8418288  10.0761474   6.7051894  32.8243256
  60.8357239  44.8758173  12.5548303  60.6209946  44.0559578  12.9997551
  61.1412048  44.6055079  11.6888928  77.0762730  63.3573580   5.3876293
  77.5053787  63.4778309   6.2347329  77.7287912  63.6389351   4.7464055
  11.5733920  60.5295944  37.9439163  10.8490382  61.1450815  37.8311348
  12.3380099  61.0848999  38.0963182  50.6075859  71.4507818  26.5757823
  50.2586746  71.9160461  27.3360586  51.5409374  71.3513708  26.7634130
  49.6667573  38.0618534  46.0339515  50.1225373  38.7081394  45.4946868
  49.9009988  38.2921180  46.9330303  20.9532019  13.5229692  72.8921063
  20.4217812  12.8892908  73.3740599  21.5668484  13.8647279  73.5423924
  78.3637810  64.6474409  39.4979167  78.8008928  64.0305853  40.0849867
  78.4159374  64.2353344  38.6355495  75.0565386  68.4019136  19.1533351
  75.5322933  67.6510048  19.5083296  74.1684008  68.3072472  19.4975507
  46.6134278  28.4252021   5.8580859  46.6154067  29.3639704   5.6711658
  47.3934094  28.0911347   5.4150756  30.7708372   9.2604929  17.1182311
  30.5498518   9.9460703  17.7486122  31.3993562   8.7048537  17.5791657
  12.0764838  71.3944960  62.5690699  12.5195418  71.0401726  61.7980957
  11.1463747  71.2423277  62.4018621  40.7520580  63.2712936  38.3337450
  39.9143720  63.0645132  37.9193115  41.3628101  63.3697367  37.6033163
  14.8936571  15.1092058  19.0027404  13.9596237  14.8998839  19.0039730
  15.0924791  15.3118903  18.0886173   1.3636408  44.3525982  45.7833815
   2.1609221  43.8984728  46.0560417   1.6284953  44.8629665  45.0181293
  42.2265956  44.9124965  73.6020986  41.9509169  45.4714832  72.8756223
  41.4082190  44.6223316  74.0049593  52.2490740  83.4471226  33.8970065
  51.7708158  83.7837601  34.6547484  52.8706408  82.8194237  34.2656231
  71.8242693  56.5818882   8.7756503  72.7405643  56.6687489   9.0385097
  71.4761114  57.4722719   8.8228834   8.3702005  23.9815241  40.0858927
   9.2043842  24.4238478  39.9286771   8.3829702  23.2289511  39.4945359
  70.2922630  30.5040932   8.7157851  70.1392794  30.5364728   7.7714437
  71.1656761  30.1225209   8.8039845  87.5764942  51.0170746  41.3984251
  87.3482513  50.5465889  42.2001648  86.7776775  50.9940481  40.8715487
  28.2493411  65.4522371  71.3332939  27.6458655  66.1746264  71.1594725
  28.9357386  65.5494595  70.6732655  78.9352512  15.5597997  28.2667685
  79.8186684  15.4823244  27.9064870  78.7777042  16.5027630  28.3140230
  30.8064362  40.9878788  62.4340407  31.6448352  41.4167652  62.6054160
  30.1815507  41.7081508  62.3506896  61.2714386  19.9814916  59.2117929
  61.5178967  20.8353877  59.5672512  62.1045208  19.5622802  58.9962435
  68.2907295  56.9314051  17.9113293  68.1766319  57.0287895  16.9659567
  69.2331648  57.0256138  18.0497992  10.6707964  86.0525131  19.1289151
  10.1973734  85.2299786  19.2535567  11.5307436  85.7869053  18.8030636
  49.6512794  40.0601101   6.1817735  49.5543575  40.4517937   7.0497715
  49.8864460  40.7932568   5.6130737  50.0997649  87.1370316  22.9916096
  50.7762633  86.4598465  22.9918671  49.5287142  86.9053841  23.7240481
  42.8984070  76.4310837  38.0510283  42.9372072  75.6967306  37.4382877
  42.1187353  76.9206810  37.7890420  89.7019577  62.6709652  64.0242958
  89.6574306  61.9395494  64.6401548  88.9899826  62.5070333  63.4058619
  46.9141286  87.1863893  75.2635944  46.8478292  86.9829896  76.1965813
  46.3943284  87.9827169  75.1545311  81.1220932  27.1519470   3.7884355
  80.1974392  27.0559502   4.0165558  81.3239384  26.3710475   3.2729924
  89.2263587  74.9486235  63.1381134  89.0201314  74.0161279  63.0736820
  89.6036466  75.1698735  62.2866825  46.6511011  57.0421743  29.0101433
  46.3718081  57.6539898  28.3290339  45.8353090  56.7368269  29.4069767
  76.0883617  55.8544874  24.1675520  76.5598154  55.6128502  24.9647808
  75.2022219  56.0591555  24.4660497  71.4640665  59.3627882  -0.0596112
  71.0967016  58.6948681   0.5193166  70.8755922  60.1117706   0.0350677
  46.5869284  50.1899672  40.8310270  46.3164663  49.2976332  40.6146288
  45.9301043  50.4940701  41.4573908  41.7286504   7.2704893  29.6744990
  41.8828691   8.0909067  29.2061400  40.9343828   6.9134909  29.2771053
  70.1794434  53.2141924  50.0688028  69.4375944  53.5942602  49.5982218
  70.9346771  53.7256193  49.7784662  66.0467577  54.8214722  33.3730888
  66.5447140  55.6344223  33.4589624  66.1823082  54.3685198  34.2053699
  86.9908428  68.0920935  73.7993050  86.8077755  68.7712526  73.1501055
  87.8481483  68.3257818  74.1551733  91.8435574  69.9562120  15.7452655
  92.4522018  69.3124914  16.1077774  91.0350132  69.4653082  15.5986571
  47.8530979  65.5023766  38.1526661  48.0157518  64.6757269  37.6983309
  47.7726650  65.2572680  39.0744495  34.8849456  14.9969193   0.1785739
  34.8284356  14.7894236   1.1113055  35.0059239  15.9460494   0.1512511
  12.0447792   4.5399386  41.2540865  12.8045381   4.2364794  40.7571840
  11.4470543   3.7923151  41.2581301   9.2482532   2.8176314  38.8676763
   9.6726621   2.3993307  38.1185889   8.7596143   3.5483462  38.4888411
   2.9587043  17.8253561  31.6063023   2.9854835  18.3605582  32.3994422
   2.8444160  18.4561354  30.8954644  34.6172309  83.2397747  16.7087054
  34.3020105  83.9632893  17.2503662  35.4605412  83.0018616  17.0940030
  82.2422600  66.8783569  11.3140857  81.8277645  67.4414730  11.9677854
  82.9546452  66.4473963  11.7863226  90.0683406  12.5486666  23.7780070
  90.6473354  13.2155997  23.4089708  89.2996553  13.0361277  24.0741968
  41.8171501  72.7841711  38.2416391  41.5354204  73.6796761  38.4285426
  42.7423859  72.8673983  38.0108953  80.8809140   1.0018545  22.9905820
  80.6806615   0.0668436  23.0339766  80.1819709   1.4200789  23.4933686
  41.3283583  10.7572708  77.0645218  41.9917485  11.1604557  76.5045342
  41.4650294   9.8158798  76.9580378  56.0289001  43.1362820  65.6057453
  56.6805553  42.4674034  65.8159351  56.0379791  43.7250280  66.3604164
  36.4875139  11.4472491   8.3569622  37.3939813  11.6097742   8.0959386
  36.3210977  12.0828062   9.0530962  13.1195460  38.4927416  50.0031376
  13.6938677  39.2349458  49.8146439  12.5638304  38.7961745  50.7210064
  38.8515390  13.9935118  66.2598419  39.7072900  14.3042284  66.5554571
  39.0355695  13.1588847  65.8288383  39.9888778  50.8456707  30.4009771
  39.4072676  51.5070248  30.0260472  40.4463577  51.3017702  31.1073160
  79.9638748  88.2915306  29.1151500  80.5701256  87.9436588  28.4611821
  80.5280495  88.6043358  29.8223257  46.8685576   8.9449844  63.6658458
  47.7183434   9.1708145  64.0441219  46.2410113   9.4833097  64.1481559
   8.9134131  52.8314304  20.6357050   8.4008131  53.6337662  20.5371022
   9.6576701  53.0880976  21.1801720  31.3613043  54.6166420  33.5705233
  30.7722578  55.3509998  33.3974004  31.2846861  54.4650698  34.5125365
   6.9709979  71.4802265  29.7575903   7.1004591  70.6332111  30.1842451
   6.6497622  72.0527029  30.4542327  35.6852910  44.9048290  76.1629998
  35.4917618  44.0001926  75.9171964  35.2074048  45.0380668  76.9816016
  17.9293149  59.4686619  75.4213690  18.6197275  59.8624030  75.9547761
  17.8981966  60.0097767  74.6324086  76.9516659  63.0663013  19.5169652
  77.5848055  63.0598068  20.2348256  77.4507570  63.3736038  18.7601924
  72.8054333  67.3126936   0.3231265  71.8758154  67.1786213   0.1385584
  73.2577324  66.7427397  -0.2988150  18.3862890  26.6042239   7.0735621
  18.6676801  26.8336302   7.9592407  18.0521024  27.4236113   6.7086536
  20.9018813  78.2323074  21.4881992  21.2243281  78.4611988  20.6164956
  20.5251990  77.3587132  21.3824797  79.5169830  63.3353186  20.8266449
  80.0611877  63.9354897  20.3168726  79.1064596  63.8894129  21.4904809
  82.7995491  57.1189642  15.9283578  81.9001865  57.0770741  16.2533593
  82.7161312  57.4528122  15.0351501  58.9438152  50.3547239  15.5086076
  58.8932848  49.4092274  15.3682184  58.2487440  50.7160234  14.9585414
  68.7495947  70.9279871  60.8982897  69.5747805  71.0473061  60.4281187
  68.9357185  70.2408791  61.5381908  72.4834633  58.7391758  51.1695051
  72.8644228  58.8968468  52.0333576  73.0303240  59.2471647  50.5702305
  73.0706167  79.3574524   5.0631166  73.1437874  79.6541548   4.1560072
  73.4263706  78.4688663   5.0539106  60.5150223  48.4079885   9.1492337
  61.0474348  47.6466465   8.9187413  61.1519623  49.0910196   9.3590128
  66.2115380  16.5794239  69.5728568  65.6773469  15.8412752  69.2795853
  67.0995995  16.3589916  69.2918066  44.1268921  42.5483418   7.5504380
  43.9342594  43.1272840   8.2879674  43.2694197  42.3383856   7.1804404
  18.8114462  33.3031297  31.8567514  18.5740099  33.6276960  32.7253795
  18.0130206  32.8889394  31.5293360   2.5007449  62.0782995   7.9213142
   2.5928698  62.0480394   8.8735902   2.0101557  61.2859440   7.7028459
  48.8037443  75.4955626  34.9550557  49.0842152  75.9561682  34.1642284
  48.2972908  76.1446190  35.4433775  55.3095818  56.6276407  51.7075539
  56.1644650  56.4476442  51.3163900  54.7552967  55.9040785  51.4152193
  73.5346222  70.3140783  10.7043576  74.1861629  70.1609087  10.0200605
  73.9347076  70.9718847  11.2730861  71.4232731  62.6891232  54.4315577
  71.0586834  62.1162796  53.7569046  71.6487169  63.4943962  53.9657927
  76.9870469  29.3607816  75.5117953  76.6032407  30.2338562  75.5934027
  76.3177392  28.7714490  75.8595677   7.4650965  74.0057898  12.6269174
   6.5131865  73.9222002  12.5710046   7.7850924  73.6624527  11.7926788
  77.6848507  59.3041563  42.8124714  77.0775080  58.9938164  42.1408653
  77.1524525  59.3690586  43.6052990  67.7781725  72.6576185  36.5620446
  68.2451105  71.8690920  36.8385077  67.9766417  73.3035803  37.2399640
  85.1633453  71.8047714  53.7688541  85.8409977  71.2287188  53.4150314
  85.5800343  72.2339487  54.5161200  65.3215170  46.3156319  17.4287307
  64.5773983  46.7581224  17.0204127  65.5265951  45.5939102  16.8343472
  93.2882786  60.7408381  11.2647474  94.1570473  60.3390026  11.2673104
  92.8855610  60.4459000  12.0814848  54.2377996  80.4949951   3.0790383
  54.8371410  81.2410259   3.1004786  54.8104286  79.7283792   3.0539957
  74.2294407  71.5547419  28.7177730  73.7693405  72.3906612  28.6417222
  75.0488853  71.7719460  29.1622543  75.4065037  72.5938225  47.9301977
  75.3283024  73.1486750  48.7062454  74.7023296  72.8888750  47.3528671
  80.2716160  39.0921116  24.5115757  80.9808731  38.4801197  24.3149996
  80.1807404  39.0555573  25.4637527  75.3010130   9.2868340  12.3878169
  75.7465696  10.1330948  12.4272406  74.6959829   9.3688142  11.6506267
  84.7975445  50.5671549  40.3404236  84.8022938  49.6333838  40.1299906
  84.2736626  50.6300354  41.1390638  63.7112549   9.4340807  19.0175498
  63.3125523   8.9202887  18.3152080  62.9688767   9.7678191  19.5212579
  32.5808188   3.4754619  69.4920145  31.6497132   3.4587631  69.7133629
  32.6181742   3.1587658  68.5894958  74.8756218  21.5991640  27.4143958
  75.2579355  21.8833208  26.5841389  75.1564693  20.6889224  27.5083160
  48.7260148  45.8603916  72.9034461  48.5990521  45.5018005  72.0250840
  49.1447064  46.7087230  72.7576001  44.2672157  47.7349949  25.7699418
  45.1525259  47.9706430  26.0472965  43.8475609  48.5721302  25.5716205
  81.8289375  62.6821423  18.1552672  82.7767754  62.6910830  18.2885492
  81.5646172  61.7887402  18.3748055  68.0961180  74.2268372  26.5402365
  67.8020525  73.4135675  26.1299253  67.3003960  74.7512770  26.6297817
  74.6479273  86.2671661  15.9198654  74.0797853  85.7179070  15.3797185
  74.6882105  87.1018887  15.4531288  86.0444450  73.4054232  26.7277741
  85.7510471  72.5164652  26.9275212  85.7178974  73.9346123  27.4554825
  23.1087122  68.1154203  24.5909619  23.4154330  67.5799704  23.8592196
  22.1639071  68.1875896  24.4554353   5.9334002  67.5722837   6.7693859
   5.2027331  67.8174257   6.2017006   6.3191996  68.4064484   7.0368880
  74.6631289  70.4497480  49.7703981  74.7296429  71.2678337  49.2779112
  74.8184061  70.7044220  50.6799364   9.4034872  75.1629639   6.0773623
   8.8121233  74.4117498   6.1243206   9.6517096  75.2150536   5.1543742
  92.0736504  71.8984604  41.8729019  91.1285591  71.8392754  41.7331457
  92.4482536  71.8690538  40.9925413  79.0733862  61.0114622  46.3014841
  79.3305635  60.0962114  46.1901140  78.4686375  61.1799479  45.5789042
   5.0060238  18.0587775  35.9878588   4.4664921  17.4253661  36.4610600
   5.6539167  18.3486372  36.6300797   6.8813811  73.4573317  31.6004944
   6.5981207  73.8313389  32.4348259   7.7745924  73.7810612  31.4838433
  82.7657318  56.6269541  20.5627203  83.2885075  56.3480711  19.8109448
  83.1297874  56.1394739  21.3016772  89.5438194  69.5890617  31.4348722
  90.4812717  69.6047449  31.2420869  89.1324139  69.9586582  30.6536078
  64.7312832  87.2648907  39.5151520  63.9962626  87.6523209  39.0398908
  64.6814299  87.6511669  40.3895283  11.6724883  72.9569054  14.8865712
  12.3709593  72.3371553  15.0969994  11.0273467  72.8363228  15.5833375
  26.0372652  -0.0108617  57.9563856  25.7979883  -0.6074232  58.6656761
  26.0349954   0.8562762  58.3617163  53.4382343  71.3272619   5.1652175
  52.5271893  71.2610197   5.4512912  53.5249996  72.2263050   4.8483083
  93.6384201  63.5062408  50.4086065  93.2869148  64.2721653  50.8625174
  94.0528774  63.8627577  49.6228886  72.3027277  67.8956699  11.6125238
  72.2269440  68.8218641  11.8419909  72.4263048  67.8934145  10.6633377
   6.1538948  31.7587382  36.7449069   6.6744484  32.3809820  37.2529078
   5.3023018  32.1842390  36.6450477  13.7538112  11.5966421  48.5103416
  14.0528549  12.4570948  48.2163858  13.9048208  11.6006190  49.4555473
  53.9954468  25.0676546  65.4227607  53.2475564  24.6805772  65.8778088
  53.9279839  24.7371826  64.5269553  58.3047295  70.2466965  42.0351171
  57.4338436  69.9582338  41.7620277  58.8951015  69.5671177  41.7097473
  79.5831060  56.1602163   8.0750984  79.6285343  55.9743071   7.1372259
  80.4900074  56.3301849   8.3297867  20.3994366  31.2777099  75.5836633
  20.9025141  30.5191431  75.2874917  20.9076497  31.6321096  76.3132906
  68.8648462  62.6464653  55.5982828  69.7161198  62.9269123  55.2622604
  68.3479309  62.4591970  54.8147249  88.1684399  85.7229137  48.5131359
  88.8321304  85.1359844  48.1508446  88.4264469  86.5930462  48.2089329
  56.6879953   0.7217985  51.5783501  56.5118707   1.6585356  51.6662693
  57.4976267   0.5831534  52.0697880  78.4088135  63.5723543  11.8043721
  78.1188059  62.7623272  11.3848650  78.4598494  64.2071819  11.0897970
  80.0402451  58.2505751  40.4897308  80.0889969  58.4233904  39.5495248
  79.6047354  59.0217972  40.8527470  90.0790265  33.2019526  27.4484229
  89.7669175  33.7616926  28.1594157  89.4181779  32.5130469  27.3782253
   8.9858447  53.3576393  17.2574568   9.1108046  53.4395742  18.2029200
   9.8713885  53.2656765  16.9058990  92.2884941  71.8551970  34.4014382
  91.8661118  72.6961565  34.5764065  93.2156754  72.0696640  34.2985773
  38.4349070  42.7061224  27.3787761  38.6447154  41.8554354  26.9933629
  38.9416609  43.3339500  26.8637371   3.1633438   1.8585497  28.0829453
   3.4023966   1.8673617  27.1561193   3.6730064   1.1387450  28.4549141
  83.8015747  84.9516678  27.6536727  84.2412663  84.2146111  27.2298098
  83.6095428  84.6396160  28.5379720   7.4139033  65.3750515   3.4407613
   8.0233107  65.7441854   2.8015494   7.8560362  65.4823732   4.2829201
  15.5794344  85.5112267  35.4281402  14.8374472  85.4176903  36.0255790
  15.6139384  84.6787643  34.9569154  72.8168631  71.9176912  66.5234470
  72.1788979  71.5981674  65.8853769  72.8641844  72.8602362  66.3634443
  61.1817312  73.9966583  53.7091017  61.0899591  74.0034294  52.7563381
  60.8409548  74.8463583  53.9885902  28.6585058   6.4647204  37.9208159
  28.3690466   5.6884867  38.4003115  27.8993047   6.7191893  37.3963332
  52.6408720  54.9084854  11.4043725  52.1242189  54.1433191  11.1517489
  52.6786041  54.8671484  12.3599350  68.3345079  61.8118048   5.1796901
  67.4601269  61.9481087   5.5445337  68.5809517  60.9336185   5.4700148
  77.9266837   9.8094755  21.7235160  77.9427722   9.3481833  22.5620770
  78.5717204  10.5096728  21.8229222  57.9230687  44.4420299  75.0546233
  57.0352360  44.5901451  75.3802715  57.8851697  44.6950016  74.1322337
  71.7410278  72.4747038  33.7324834  71.1446667  72.6646328  34.4567180
  71.3746738  72.9531670  32.9887843  11.1192904  70.1803255  48.3342600
  11.4321719  70.5189848  49.1730976  10.4324828  69.5563030  48.5690594
  55.0620076   4.1493187  59.6915357  54.3897816   3.8683233  60.3123371
  54.7093865   4.9497566  59.3027071  10.1871596  87.8927135  47.5319099
   9.7981844  88.7338448  47.2922611  11.1299811  88.0298901  47.4397135
  28.0331526  38.3060622  11.7766559  27.6356898  39.0581656  12.2155154
  28.0107222  38.5319805  10.8467686   0.9142313  65.4770136  17.4308658
   1.2049685  65.9721184  16.6649842   1.7080222  65.3525972  17.9511094
  30.9785220  21.5940628  61.4753453  30.5501315  21.5853509  60.6194024
  31.8204686  22.0211753  61.3174610  80.5918519  23.8789746   4.1954120
  81.1841123  23.8191840   4.9450095  81.0939710  24.3500277   3.5304149
  68.3472824  78.4048271   9.2168725  67.8456640  77.9105854   9.8652083
  68.2592726  79.3176842   9.4910574  67.4186799  29.0308199  69.6452562
  67.9676148  29.1832933  70.4144434  68.0399510  28.8538513  68.9389018
  10.2956496  77.5340605  36.1565590  10.2910147  78.4900570  36.2043118
   9.7313891  77.2554827  36.8778348  71.6966677  53.2135344  37.8118348
  71.7387152  53.1176472  36.8603802  71.0570240  52.5582504  38.0905652
  80.9833431  59.1123343  49.4162178  81.5618896  58.8420916  50.1292944
  81.2832737  58.6077595  48.6601305  90.8870316  60.8764362  59.1318130
  90.7224369  60.1946497  58.4804201  91.7192364  61.2668324  58.8648748
  48.7586018  23.1637678  70.8683090  48.7033364  23.6400804  71.6967426
  49.5188233  23.5408554  70.4254792  72.6360893  77.3360491  46.3050270
  72.3807096  78.2533550  46.4028120  71.8254709  76.8458223  46.4421654
  15.9620632   1.7338950   0.3883260  16.6935981   1.5404803   0.9745632
  15.5879320   2.5452429   0.7318079  31.7798055  19.8804003  58.1256247
  32.2634901  19.8223025  57.3016691  32.1365846  19.1732889  58.6631584
  25.2094456  14.9276456  70.2391432  26.0321185  15.4027566  70.1220588
  24.8844620  14.7886095  69.3495999   0.3982557  18.0024153  37.4963140
  -0.2594029  18.6044699  37.1481109  -0.1105582  17.3008353  37.9026699
  25.8368884  87.1784782  25.0553393  26.4180575  86.4854717  24.7419596
  26.2885199  87.9910946  24.8274803   4.7703276  62.0742226  67.1651793
   4.4023714  62.3291492  66.3190985   5.2557383  62.8456879  67.4574900
  25.2452100   4.1750151  47.6618528  25.0088991   5.0942141  47.5375032
  24.4683279   3.7793261  48.0569601  58.7212480   0.3799826   7.6323479
  59.1179098   0.5568415   8.4853476  59.4430078   0.4676253   7.0097673
  70.9976053  74.9321508  19.4548082  71.5224838  74.1833115  19.7376072
  70.4504108  75.1407146  20.2119827  75.8780050  63.5236120  15.7958758
  76.7273664  63.4054756  15.3706002  75.9052563  64.4158030  16.1415446
   5.6096908  25.5923614  67.3292868   5.6095168  25.8580312  68.2488791
   5.2691123  26.3538847  66.8599097   3.2838736  78.9784098   9.8086274
   3.3252917  78.0665779  10.0968671   3.9052973  79.4368505  10.3742242
  21.4729414  84.0595913  25.6906486  21.7949114  83.6189175  24.9042797
  22.2274695  84.0807819  26.2792587  25.1959715  56.7529392  22.8190494
  24.3457041  56.6930103  22.3835135  25.1369963  57.5462532  23.3514071
  48.3854958  26.7530784  73.8022245  47.5455949  27.1568975  73.5837616
  48.9230820  26.8806181  73.0205832  80.5061340  80.5455208  75.7269764
  80.4993916  80.3954124  74.7816467  80.8573246  81.4303970  75.8264828
   0.3352271  55.4821777  42.3997545  -0.0337019  55.0873947  43.1898594
   1.2469778  55.6650591  42.6266956  71.7463207  55.3141212  28.5968018
  71.0163498  55.8533764  28.9010715  72.2602081  55.8988762  28.0398321
  35.3195391  84.3806267   5.8520299  35.4130850  84.0795040   6.7558050
  36.2115012  84.3766785   5.5047202  76.6326666  72.2485590  16.8397033
  75.9575224  71.6423941  16.5347862  76.2415934  72.6802826  17.5992477
  60.3024578  61.1605835  46.2340832  60.5457258  61.0209656  47.1492672
  59.4811678  61.6503811  46.2766075  20.5993472  71.4756918  64.7194242
  20.4870520  71.8558121  65.5907011  19.7085677  71.2891626  64.4228601
  43.9582631  20.4875431  58.9257078  43.2741830  20.7230482  59.5524470
  44.7159096  20.2698431  59.4686763   8.6621485  63.7728119  22.8320289
   7.9601965  63.3936596  22.3031211   9.0085612  63.0353498  23.3344030
  32.2424899  33.7703967  42.5954151  31.7661868  33.8222265  41.7667484
  31.5730105  33.9082861  43.2655001  91.3457394  51.4464188  13.9350486
  91.6931248  50.6402349  13.5534441  92.0988274  51.8519020  14.3647695
  45.8433151  65.2436256  47.0975924  46.7729521  65.1102448  46.9126320
  45.4093742  65.1055145  46.2556601  85.7134724  51.8003273  36.2252951
  85.0329018  51.1413956  36.0879469  85.3615475  52.3689842  36.9101405
  13.5660277  53.1802130  36.5586376  14.1891394  53.7941885  36.9472218
  12.8728781  53.7358570  36.2022161  27.3640037   3.6265570  22.6812792
  26.4350891   3.6254501  22.4503064  27.7937388   4.0592983  21.9435167
  20.1045415  58.4359759  29.4019198  19.3769738  58.9466208  29.7570586
  20.7150552  58.3478302  30.1338577  78.7659894  73.3145136  24.5593023
  78.5523378  74.1237491  24.0948439  79.6708762  73.1269401  24.3098474
   5.9095690  88.5566360  19.7478783   6.0161683  88.0551766  20.5562139
   6.1402723  89.4534602  19.9901879  63.0154800  16.6828191   5.2082896
  63.8744831  16.9267893   4.8635778  63.0771399  16.8538487   6.1480653
  83.8249588  10.0348437   1.9635884  84.0207863  10.1788247   1.0377637
  83.7782001   9.0830052   2.0533015  75.7407008  68.6231989  28.8016725
  76.5076982  69.0197235  28.3884978  75.0232946  69.2245883  28.6019468
  36.5211725  26.6539359  19.4558775  35.7055044  26.1614442  19.5473671
  37.0026851  26.1941981  18.7681150  77.5536378  58.7483862  74.7543756
  77.9365523  58.5311285  73.9044295  76.6623719  59.0315595  74.5502002
  60.7560396  11.3328242  11.1955488  61.5157986  11.8940306  11.0404909
  60.0025082  11.9089854  11.0672331  59.5020516  65.8822873  70.6679170
  58.7649282  66.3537219  71.0560272  59.1049083  65.1164535  70.2531765
  67.5218821  15.0077736   8.0368894  68.3274651  15.4253507   7.7320927
  67.6265621  14.0856600   7.8024125  83.9116955   3.3426973  57.4979734
  83.5073090   3.6681077  58.3022213  83.3234596   2.6499575  57.1974325
  73.9532757   3.0325639   8.4950483  73.1214619   3.3378339   8.1329322
  74.6145439   3.3604360   7.8855735   6.4609156  54.9761820  22.8595495
   5.5512343  54.7968245  22.6217413   6.9166193  55.0543642  22.0214272
  78.4452565  60.7928208  66.3048629  79.2338832  61.1836448  66.6810982
  78.7686952  60.0660196  65.7725291  54.0069958  77.6624817   8.8819700
  53.8239476  76.7596024   9.1418409  54.7029492  77.5873893   8.2290924
  53.0272253  65.6981042  69.6705810  53.8127335  66.0740665  69.2732618
  53.3542784  64.9862364  70.2205895  10.6899381  24.4684100  15.7853782
  10.7815337  24.8274827  14.9028206  11.5861344  24.4186974  16.1179328
  23.7444875  75.5219001  26.5847421  23.5276839  75.1617914  25.7247686
  24.6076199  75.1599485  26.7852998  44.9904156   1.2558271  36.6189957
  44.6053600   0.7572546  37.3396802  45.7334566   0.7255419  36.3310289
  29.9058005  86.9574061  43.6836576  29.2338940  87.3486777  43.1253672
  30.4371020  86.4312123  43.0861044  34.3235636  36.9725418   5.8700472
  33.9806271  36.9798183   6.7636764  35.2734208  36.9249511   5.9783971
  60.5955458  27.3001194  20.1382947  61.0559082  27.4856329  19.3198311
  61.1324406  27.7138400  20.8141685  45.2918911   2.7301618   8.3429182
  46.1355925   3.1787726   8.2867652  45.3575087   2.0163107   7.7086133
  16.3515851  83.6377978   9.9323899  16.2755725  82.9383171   9.2834055
  15.4480311  83.8338894  10.1801300   5.4572433  65.6713107  74.1473452
   4.8946279  65.1433137  74.7138358   6.0562986  65.0398591  73.7490599
   3.7819093  52.8827354  59.7424154   4.7325700  52.9835227  59.7905163
   3.6456340  52.2134593  59.0717952  59.6252871   4.8119169  21.9823813
  59.0817404   4.6427789  21.2128472  60.5171204   4.8647064  21.6387677
  66.9411898  68.7840509  10.8087516  66.9840479  69.7270823  10.6503797
  66.6886330  68.4106112   9.9643642  24.0037513  14.7274578   3.3812281
  24.7512436  15.3161848   3.2768786  23.4936333  15.1120675   4.0940291
  40.8080578   4.7220919  40.9977865  41.3451052   4.6923259  41.7895699
  41.1403608   5.4764384  40.5112028  63.1445503  19.9160564  14.7376037
  63.9634466  20.1610994  14.3067908  62.6534271  20.7351232  14.8021042
  84.4693089  55.8583260  67.7353573  84.8040867  56.7141008  67.4673843
  83.5655594  55.8452892  67.4202299  21.7485806  77.4579936  12.4498439
  22.6537272  77.4303883  12.1397197  21.2206504  77.3824221  11.6549790
   9.7519171  13.7009645  40.6202269   8.8538611  13.5335922  40.3343725
   9.8897827  14.6316791  40.4441738  46.6771933  82.2580832   0.6659508
  46.9034287  82.6592851  -0.1731481  46.2089774  81.4572418   0.4300261
  58.7087758  61.0870257  71.4743714  58.6677201  61.1893633  70.5235438
  59.6082910  61.3222078  71.7019604  49.1660261  29.9708438  15.7832098
  48.2749557  30.2990627  15.9036314  49.1146803  29.0453339  16.0220098
  26.2823674  71.5462786  25.2456045  26.2557885  72.3234671  25.8037281
  25.7814357  71.7925698  24.4680190  42.9269409   5.9764028  34.0321422
  42.5671959   6.7346936  33.5719109  43.5111761   5.5647677  33.3953881
  20.9490821  77.9201800  16.4148605  20.3484341  78.3840650  15.8315372
  20.4125020  77.2373050  16.8173480   8.0331442  70.8601814   1.3967140
   7.9575798  70.0801533   0.8470990   7.8063890  71.5858442   0.8151406
  81.8204117  20.1415801   6.8871963  81.4961815  20.2922130   5.9992671
  82.3004723  19.3154490   6.8299484   2.4103471  67.6423639  15.8234644
   3.0380508  67.7717966  16.5344274   2.4700543  68.4431499  15.3024971
  46.0732985  30.9158659   0.9817063  47.0266533  30.9945369   0.9477470
  45.8532858  30.3488374   0.2425820  35.6471467   7.8419751  11.5235877
  35.7351518   8.3794308  10.7364237  34.8222589   7.3719412  11.4016867
  68.9372976  61.9477978  49.9528496  68.1204446  62.3643199  49.6780912
  68.7714060  61.0098150  49.8585073  71.7898973  65.1241854  63.9700786
  71.4842208  65.7311943  64.6441190  71.0115893  64.9375203  63.4450833
  52.5640583   6.3779032  24.9531865  53.2922602   5.9173054  24.5362902
  52.4804592   7.1923441  24.4572735  12.3885339  87.5644353  53.0849020
  12.6392215  87.7368310  52.1773426  12.0657438  86.6633371  53.0771820
  22.2275969  84.0766543  16.6920173  22.1831414  83.1779456  16.3655543
  23.1143948  84.3659240  16.4771879  58.3304310  22.9167128   6.4805394
  57.4351788  22.9200029   6.1417913  58.2265043  22.9235578   7.4320561
  52.7299929  23.0480027  17.8591132  53.6508465  22.9608226  18.1054068
  52.2791719  23.2393265  18.6815405  59.9997377  30.3801465  21.9608665
  59.8537111  31.3250303  22.0067310  59.8144722  30.0659275  22.8458381
  62.7643474  55.9487465  68.3225612  63.6200436  55.6503263  68.6307148
  62.1351536  55.4701164  68.8622467  30.6268620   0.6205089  40.2085018
  31.2928391  -0.0658817  40.2481556  30.9504628   1.2301862  39.5453238
  58.1522846  55.9961176  24.0434337  57.6834774  55.4566383  24.6801567
  59.0765572  55.8735704  24.2600656  40.6569147  22.2774291  39.2888689
  40.7917690  23.1959963  39.0558910  41.2874746  21.7987967  38.7507796
  59.7178888   7.8400630  58.6469889  59.0563059   8.2099533  58.0624199
  59.2232752   7.2777760  59.2431641  72.8585434  33.5623789  32.0750880
  73.6242437  33.1661916  32.4909925  73.1711245  33.8418603  31.2146139
  54.8564005  37.0711255  11.7951334  54.3641329  37.8828239  11.6724479
  55.1239967  36.8174529  10.9118009   3.4108251  70.5210498  68.2669751
   2.7156490  71.1389712  68.0408559   3.9207357  70.9703544  68.9410285
  44.9465322   0.8003093  41.0898352  44.3986177   1.4181255  40.6057692
  44.4172430   0.5542167  41.8484688   1.3907712  69.0092400  74.0320266
   1.5108865  69.0998843  74.9773238   1.5905994  68.0905655  73.8521976
  33.6699891  38.9094877  10.5854082  33.5727477  39.7399330  10.1194298
  33.2237935  39.0497828  11.4205480  66.8531950  83.6801913  46.6157715
  66.7967780  84.6305707  46.5166537  67.2913774  83.5527256  47.4571888
  71.2912257  35.1055554  76.4042391  70.3976734  35.3287360  76.1434969
  71.3181479  34.1492537  76.3726999   8.5758584  57.0329693  65.7905201
   8.7636989  57.8312948  65.2969376   7.7977174  56.6682473  65.3689663
  24.7994542  31.2498140   0.9540957  25.3955388  31.9732022   1.1480619
  25.3158474  30.4618979   1.1236792  61.3411744  29.7848585  64.8830788
  61.2491711  29.2964462  65.7011370  62.2257479  30.1487675  64.9195783
  54.5670700  23.8308430  22.7926755  53.7062407  23.7890768  23.2091641
  54.5973253  24.6995568  22.3918605  40.9541032  62.2038740  19.0430641
  40.4137274  61.4185065  19.1292059  40.4273173  62.7998394  18.5105658
  68.1325340  29.5585084  12.4384630  67.7374744  30.0050926  11.6896498
  67.9237509  28.6341548  12.3035073  48.9500999  13.4150839  18.7256932
  47.9955101  13.4661794  18.7744820  49.2417526  14.3251538  18.7799323
  36.7324349  51.5731114  39.0465355  36.4424416  50.8638877  39.6202397
  37.5632569  51.2643140  38.6851382  92.3359616  52.9178485  25.2854173
  92.5585301  53.1220827  24.3771331  92.6623042  52.0277658  25.4176537
  18.5227483  24.5620826  66.7203514  18.8486856  24.4088248  67.6072053
  18.7832349  23.7816098  66.2312321  56.3344765  54.4512701  13.5089278
  56.3499117  55.0716305  12.7801275  56.3306952  55.0017548  14.2919922
  72.0365429  18.4879935   7.6821667  72.4298334  18.5079157   8.5546100
  71.4005423  19.2033100   7.6897568  65.1395972  59.7017554  71.0501812
  64.4870790  60.3438106  70.7705103  65.2175363  59.1010526  70.3090243
  30.7190558  70.6008846   4.9739969  30.4307219  70.2234858   4.1429335
  30.6061551  71.5446001   4.8604736  72.9022312  12.7787650  10.0413775
  73.8124084  12.5038636  10.1520014  72.8711605  13.6598659  10.4141080
  50.0104960  61.4403525  51.5079896  50.8794172  61.1262909  51.7581384
  50.0330825  61.4710322  50.5515496  85.6736565  18.5125077  27.7463126
  86.1642933  19.3327308  27.6939034  86.3264561  17.8320134  27.5819468
  71.4751561  32.2376767  73.0772389  72.3339112  32.1715394  73.4948463
  71.1778863  33.1246629  73.2800178  19.9911830  84.3185306  38.7785482
  20.1243254  83.7547553  38.0165362  19.0500685  84.4931242  38.7858033
  30.8681965  36.9055104  29.7500467  30.7809162  36.8070602  28.8019323
  30.3592110  36.1811113  30.1139283  20.3194898  49.4345701  64.6575372
  19.9263662  50.0452533  64.0340356  21.0805982  49.9013725  65.0025610
  88.8058376  18.8301790   9.7375125  89.0162086  19.5758116  10.2996588
  89.3151188  18.1054652  10.1003599  26.6224337  10.8924639  32.1323895
  27.2011805  11.5429318  32.5301027  26.5147877  10.2228093  32.8078198
  90.2794345  71.3284543  56.2342779  90.5112346  71.9464567  55.5410425
  90.0557788  70.5214003  55.7707350  43.7406441  82.1974349  14.2967701
  42.9260823  82.7000707  14.2877698  44.3069836  82.6700413  14.9067962
  32.3643923  22.5499487  15.8996284  31.5960622  23.1204748  15.9196293
  32.6829410  22.6086760  14.9989021  68.2404287  51.9762984  18.9622514
  68.3862455  51.1341104  19.3931691  68.0927094  51.7527595  18.0433194
   2.0074854  12.5463200  22.6446128   1.8474017  13.4849048  22.5463176
   2.9548655  12.4531579  22.5444818  17.7820216   8.5989362   8.0896282
  17.3843108   9.3884850   7.7226555  18.6753188   8.5987097   7.7457488
  36.5054410  53.7162528  71.0467080  36.4323228  52.8533456  70.6389390
  35.6300825  54.0947732  70.9649031  75.1667070  36.1252189   8.4698367
  75.1545048  35.1681828   8.4825283  74.5289660  36.3639808   7.7971470
  34.5732209  78.4160250  14.7114348  34.8946854  79.3158537  14.7680128
  34.2228791  78.2316047  15.5829167  72.8023179  59.5248523  72.8922261
  72.1967156  59.9508396  72.2855858  73.3291181  58.9479557  72.3391427
  44.2229983  12.2998962  64.3866400  44.9148890  12.0240793  63.7854342
  44.1003749  13.2306490  64.1998498  84.4762135  12.1604168   3.7162322
  84.4761372  12.5579357   2.8454792  84.1561413  11.2697697   3.5729504
  66.8795395  21.0055232  15.4118311  67.6216936  21.5062594  15.0731528
  66.2664843  20.9600449  14.6781218  63.4710741  41.8009615  22.6862764
  64.4241571  41.8886566  22.6733184  63.1754398  42.4879599  23.2836604
  93.4149440  62.0520952  66.9576363  92.6053317  62.5263587  67.1469347
  93.8406404  62.5685325  66.2733046  47.1468973  10.9232509  25.4204631
  47.8366995  10.8802330  24.7582293  46.8652439  11.8380511  25.4138517
  38.6545396  39.2304134   5.5743301  37.9506111  39.6538591   5.0829983
  38.7724280  39.7821736   6.3475674  91.6876793  17.9913771  39.9549079
  91.1280632  18.5652399  40.4781055  92.5756264  18.3099806  40.1170206
  47.8206444  23.1201792  18.1029332  48.6683941  22.9304314  17.7009988
  47.2016001  23.1089878  17.3729396  29.3200111  32.4934435   6.5406173
  28.5248256  31.9957685   6.7309636  29.7631955  32.5691891   7.3856515
  77.0503283  26.9737053   7.5738168  76.4906597  27.0120096   8.3494037
  77.9244661  27.1900845   7.8983170  10.7197517  51.4146301  73.3366795
  10.5751413  50.9429893  72.5163896  11.2467473  50.8168718  73.8669552
  41.5180728  78.8967806   0.6240562  41.9903466  78.6380523   1.4154154
  40.8365676  78.2321542   0.5237701  12.0904869  71.4113620  75.2471351
  12.1466297  72.1574405  74.6501009  12.0921939  70.6450012  74.6736203
   0.9350869  85.7846114  19.9711478   0.8214828  86.3741165  19.2256224
   1.8828985  85.7358554  20.0956821  48.9624023   9.7888744  18.1746268
  49.7999287   9.9097240  17.7272201  48.7258530  10.6644166  18.4807360
  35.3855371  87.5999260  21.6230941  35.1392555  87.7325153  22.5385165
  35.4156733  86.6489410  21.5184927  11.0876077  42.9525878  63.2473544
  10.6134408  43.7268244  62.9441122  10.4507440  42.2409654  63.1823091
  40.9528631  27.9315177  60.9872798  41.7026990  28.5236898  60.9297721
  41.2282461  27.2558287  61.6068284  58.2188559  36.0241342  25.7663131
  57.6807356  35.6834602  25.0517511  57.5987768  36.4758158  26.3387799
  90.5536652  11.3415182  49.0771675  90.8576488  10.7785916  48.3651733
  90.8945465  12.2089243  48.8589048  29.6970534  34.3673635  11.9439149
  29.7951341  34.4519234  10.9955156  30.5795002  34.1726971  12.2595513
   2.3020002  15.0024423  69.5043312   2.0174643  15.3686676  70.3416787
   2.5138780  15.7666454  68.9683000  88.1472619  18.6388067  71.1021720
  88.0488809  19.1739515  71.8896834  88.0856402  19.2630509  70.3791551
  50.5468750   4.6222019  17.8586733  50.6959772   3.7547308  18.2348299
  49.6323061   4.8177087  18.0625761  11.1118501  67.4583438  71.7984603
  10.5079263  66.9838956  71.2271385  11.7484802  67.8506830  71.2009661
  44.5903680  83.4211516   2.4364498  45.4731175  83.4668213   2.0691645
  44.5333573  82.5436276   2.8145149  78.8707781  52.5105381  24.5308542
  78.8078451  51.5683174  24.3743563  79.0185118  52.5874281  25.4734540
  82.9406198  77.0684484  68.3113275  82.3077329  77.4286488  67.6900868
  83.6528047  77.7078369  68.3255474  88.8867934  74.2322949  48.5349433
  88.7223323  73.2934645  48.4467165  88.4034093  74.4873193  49.3207781
  68.2472134  26.3262081  17.1730864  68.4005785  27.1587157  17.6198995
  67.7415609  26.5614963  16.3951480  55.9472176   8.5746297  58.8010744
  55.1816174   8.1648311  58.3984045  55.6837174   9.4832429  58.9467387
  41.4886710  16.5500888  72.6152481  41.1774680  17.3732338  72.9918341
  40.9231660  15.8811817  73.0012490  23.7550780   9.6943006  71.1832116
  22.8833768   9.3328008  71.3434879  23.6004922  10.6217584  71.0039000
  44.3262434  28.2800364  21.7133260  44.5911741  28.5465169  22.5936866
  43.3718061  28.2223988  21.7575788  60.6391342  39.4403103  65.3002672
  60.7143815  38.9172790  66.0983948  60.2476843  38.8457826  64.6603171
  24.8036760  61.1018041  28.7683694  24.5590394  60.2286723  29.0750043
  25.7172292  61.2023464  29.0358369  57.9185677   7.5289917  38.7004471
  58.5324669   8.2610226  38.6413574  57.5386763   7.6050460  39.5757341
  90.2505016   7.0495975  44.8282385  90.5584621   6.6614670  44.0092468
  89.4285870   6.5956163  45.0142574  76.3154157  65.2876499  70.3799246
  75.9316476  65.9904841  70.9043072  76.8187030  64.7683695  71.0070477
  71.9074154  51.5903854  23.1433082  71.0787582  51.4957905  23.6129999
  72.2491074  52.4377584  23.4286880  51.0134792   8.8800877  57.4141455
  50.3912115   8.9784914  58.1347895  51.5749168   9.6529269  57.4752760
  15.5207583  77.8153044  31.2579799  15.3045794  76.9607931  31.6312242
  14.7834727  78.0187255  30.6824279  80.2967072  10.3041744  23.9159322
  81.0174465  10.1264715  24.5202446  79.6914482   9.5736998  24.0436172
  50.6362009  56.5324545  20.5791473  50.8290005  56.7459154  21.4921069
  49.7388792  56.8379736  20.4460955  41.9493198  42.0222616  21.0346818
  41.4844990  41.2031746  20.8635783  41.6851854  42.6013899  20.3197861
  54.9375470  71.5043715  75.6903836  53.9898618  71.5861896  75.7973037
  55.1360138  70.6156400  75.9853387  11.3224039  56.4625025  15.9567273
  12.1580134  56.9038534  15.8044207  11.2779055  55.7920456  15.2750111
  48.6165571   0.9613722  16.4680159  49.4538498   1.1508062  16.0445952
  48.0894184   0.5500484  15.7830560  73.5997804  74.1921309  70.9633581
  74.3327268  74.5322302  70.4501770  73.7025149  73.2411698  70.9265963
  75.2741130  44.9051798  70.1387737  75.1256784  45.1343651  71.0562007
  76.1171611  44.4518565  70.1385270  32.7636096  57.9270691  44.0503120
  33.3922002  58.2915467  44.6734238  32.9683158  56.9924277  44.0225792
  36.6820428  74.7528440   7.2243834  37.0905444  74.1658860   6.5881151
  35.8330151  74.3515736   7.4097770  55.5315298  58.0050603  55.0166456
  55.1903146  58.1882373  54.1412870  56.4756578  57.9102031  54.8906819
  44.9745400  73.4266546  74.7952771  44.2481001  72.9677275  74.3734942
  45.2683456  74.0615657  74.1419790  77.8334840  86.9076637  62.0701448
  77.0227654  87.4127343  62.1323637  77.5954755  86.1347869  61.5580432
   0.8070129  55.6720808  73.6652915   1.7396348  55.5232218  73.8211383
   0.7232564  55.6893221  72.7119191  34.3268180  18.6764991  11.4921880
  33.7863708  17.8918135  11.4004564  34.5019221  18.7382913  12.4312055
  86.7375215  60.7221738  67.4621217  86.3453229  59.9768487  67.9169874
  86.7448934  61.4234617  68.1135617  60.3963089  23.0751204  11.9904840
  59.4800472  22.8802681  12.1872795  60.6472111  22.4171114  11.3421738
  14.0642178  43.7722778  12.1200395  15.0026476  43.8313389  11.9408941
  13.7488294  43.0931473  11.5237617  61.9939859  38.0427668  70.8755831
  62.0727690  38.7342081  70.2183668  61.6309627  37.2975746  70.3969024
  68.2832003  12.3104978   8.7581140  68.2551098  11.5620279   8.1620973
  68.7258768  11.9782937   9.5390815  49.6116447  33.5084844   1.5544279
  48.6738586  33.6506820   1.4257328  49.9760199  34.3881536   1.6526456
  47.4890804  55.7045746  20.6755638  47.6097918  55.0968361  21.4051652
  46.5591812  55.6369734  20.4588795  40.9741497  25.9016299   0.5358429
  41.4739037  25.1051688   0.7150792  40.2037573  25.5980277   0.0556885
  51.3416383  11.7175779  66.9721417  52.2183415  11.3333902  66.9766597
  51.4581200  12.5753221  66.5635566  25.6886721   7.8654170  22.6934600
  25.9733629   7.9340291  21.7821550  26.3872862   7.3747176  23.1263375
  48.2230806  38.4028602   4.3026814  48.1833744  37.4666905   4.4982299
  48.5793829  38.7987685   5.0980055  66.2092829  43.8024092   1.6197182
  65.7289839  44.5529556   1.2701063  66.9871998  44.1841745   2.0263278
  78.8370259  58.1032506  68.3062188  78.4615548  58.5851029  69.0431528
  79.7732289  58.0594781  68.5007392  44.6368742  27.5810289   1.1411552
  43.8261986  27.8831482   0.7315696  44.8909330  28.2956243   1.7251399
  10.3379069  45.7366085  50.2000189  10.3462325  45.6826115  49.2443800
   9.4219885  45.9034204  50.4225206  44.8646641  23.0223942  13.2720745
  45.5094767  22.3838973  13.5766637  45.1888657  23.3001757  12.4153578
  46.6322660   6.5304083   0.5811512  47.2101688   5.7711458   0.5051171
  46.7852879   7.0291966  -0.2213615  12.2749704  39.4009718  59.3009881
  11.5542358  39.7874317  59.7984032  12.1710914  39.7522476  58.4166531
  26.9430733  22.3648977  21.1383486  26.0025692  22.5400352  21.1701155
  27.2789454  22.9781055  20.4845905  63.5589743  10.1247406  24.7848797
  64.4990683  10.2244127  24.9349618  63.4242344  10.4407668  23.8914561
  26.5996024   2.8838262  51.8378298  27.4588057   2.6194200  51.5090625
  25.9763190   2.4508199  51.2545077  81.8852234  24.8911595  11.1937070
  82.5486469  25.5733156  11.0899830  81.3792229  25.1635790  11.9592059
  67.7057695   8.6501855  41.5621567  67.6828671   8.8359928  42.5008726
  68.4117746   9.2021930  41.2258911  89.9745083  35.2649331  37.5757718
  89.8253345  36.1420751  37.9287601  90.8104324  35.3314757  37.1142006
  68.6702776  43.7516356   3.2437608  68.7710476  42.8443623   3.5317430
  69.4068098  44.2133331   3.6444974   5.1342505  32.8933716  41.5499020
   5.3980833  31.9947267  41.7475510   5.9572697  33.3799028  41.5034437
  80.7492638  73.4113503  18.8885915  80.7648754  72.4610901  18.7746012
  81.1895275  73.5594463  19.7255290  19.2618906  21.6163111  10.7010674
  18.9287925  20.8541775  11.1748064  20.1601934  21.3805008  10.4693854
  14.5752901  81.0674837  67.5598268  13.6528438  81.1502507  67.3180185
  14.7106307  81.7440918  68.2232390  37.5815150   6.5686283  57.6080326
  36.9937226   7.2914323  57.3882810  37.3314807   6.3185367  58.4975080
  91.7932113  47.0759949  70.8437584  92.3041995  47.1066341  71.6525750
  92.2333320  46.4167109  70.3072236  59.6007522  60.8237508  41.6494481
  60.0835569  60.2520850  41.0525147  58.7963350  60.3426638  41.8436138
  23.6855027  -0.0727168  67.7510158  23.8247296   0.5421600  67.0307533
  23.8795182   0.4341230  68.5394983  34.8165894  12.1211338  29.5636272
  34.4854307  11.2706578  29.8521733  35.6612062  11.9243717  29.1584873
  35.8246991  48.7903080  75.1559055  35.2385518  49.5305500  75.3130772
  36.6798112  49.1909561  74.9993473  67.4806023  50.9566545  14.5158565
  68.3220911  50.8177710  14.0813076  67.6110125  50.6217480  15.4030204
  94.2694791  45.8865033  76.5838778  93.7759049  46.6912161  76.4255922
  93.9419539  45.5660218  77.4242664  14.2756221  85.6020358  15.7967567
  15.1569316  85.3634861  15.5093205  14.2033097  85.2345404  16.6776371
  38.0296874  37.9635930  17.5553310  38.5283208  37.7270412  16.7732561
  38.5959744  37.7131414  18.2852793  75.6324895  67.1992877  56.6684381
  75.8757003  67.6018193  57.5021343  74.9647840  67.7820829  56.3068406
  12.5344416  84.9463746   3.4554070  12.1706149  85.7907683   3.7216049
  12.0016190  84.2994922   3.9178744   3.8254589  40.6299862  70.2858178
   4.0809482  41.5343863  70.1041059   3.4928316  40.3025496  69.4501297
  89.2218685  26.2844849  18.8962519  89.2956352  26.8825769  19.6399426
  90.0833321  25.8718228  18.8344002  65.5312681  12.9669321  32.9269290
  66.3314056  13.2348490  33.3788514  65.2859688  13.7289643  32.4021721
  37.4742746  36.5012598   3.1102920  37.0977950  35.6803989   2.7929839
  37.1411705  36.5880704   4.0034533  79.1878462  39.4514513  29.0999365
  78.7747049  40.2972841  29.2734623  78.8510513  38.8751531  29.7859979
  18.9392872  76.0651735  75.5025644  18.1628259  75.8013633  75.9962679
  19.6754988  75.7863072  76.0470441   9.0802043  54.7091773  62.7294104
   8.1295055  54.7636047  62.8265826   9.3591255  55.6144551  62.5919120
  48.6947680  30.2311921   4.6118569  48.6678123  29.5680094   3.9221504
  49.1595364  29.8075223   5.3334713  58.1625319  23.2794070  25.5306005
  57.2806740  22.9728436  25.7417560  58.0237865  24.0180969  24.9378824
   3.6797231  82.0053867  71.2064384   4.0462917  81.6979888  72.0355122
   3.1494850  82.7653983  71.4461468  20.9855315   9.4649419  63.2545583
  21.7441937   9.4635686  63.8382236  20.4914853  10.2453527  63.5057752
  42.8739309  17.4839067  59.6190166  43.3099794  16.9451082  58.9588690
  43.4684086  17.4714613  60.3691339  36.7724442  24.6365833  24.8757267
  37.2913194  24.7392774  25.6735086  35.8796716  24.4892931  25.1879692
  62.3504922  13.3994493  55.9211008  62.1206471  14.1427574  55.3635160
  63.1236073  13.6920843  56.4036862  56.8271788  70.1004604  70.5986421
  56.7039331  71.0167268  70.3506504  55.9408505  69.7408179  70.6348113
  46.5960312  35.6867838   7.5906593  46.0334492  34.9125791   7.5722045
  46.0060596  36.4062595   7.8154230  32.3545337  23.5912633  19.2346883
  32.8235292  24.3902564  19.4752812  31.8079782  23.8487101  18.4922397
  21.6834760  40.5322266  19.7483420  20.8964372  40.6677628  20.2760100
  21.6922712  39.5921230  19.5684540  41.6652152  82.5035071  24.0467310
  41.7656752  82.1008944  24.9093103  41.0277840  83.2045793  24.1824102
  67.5301822  76.9180206  65.4029147  67.5388058  76.3298109  64.6478192
  67.1656664  77.7360919  65.0651030  50.8872938  48.6818695  26.8054104
  50.8804178  49.3544912  26.1244082  50.3564024  47.9712963  26.4455914
  87.6408132  78.8235501  67.8747658  87.9889663  79.7137717  67.9250316
  87.2999414  78.7496594  66.9833748  54.7485447  36.6115952   8.8034159
  55.1797152  37.3713565   8.4121543  54.0177965  36.4215708   8.2150894
  21.2082791  21.0484290  44.4310522  21.5612602  20.5325580  43.7061310
  21.0956836  21.9267058  44.0674829  11.4361665   4.4290027  67.1743802
  12.2104880   4.0463266  66.7618112  11.1093184   5.0590906  66.5321998
  86.8581963  22.3648763   8.4739429  86.7292690  23.2846236   8.7056279
  86.0407829  21.9368696   8.7286580  60.9921217  65.5998421  21.5441656
  60.6952000  65.4068136  22.4334383  60.2099752  65.4949284  21.0024309
   5.7709381   2.7904615  57.2384934   4.8863217   2.8227481  57.6027016
   5.8961746   1.8733940  56.9944994  37.3910472  78.0640572  24.8427868
  37.1829459  77.4313277  24.1553426  37.6356360  77.5270778  25.5964851
  76.6208410   1.8832850  15.3634799  77.5214291   2.1750344  15.2218676
  76.0821867   2.6195371  15.0736284  92.1545966  18.7053874  63.4622876
  91.8614181  19.5837477  63.2198851  92.0318063  18.6651328  64.4107239
  86.7883666  36.5652242  66.3613645  86.1570342  37.2741172  66.2383823
  87.6427873  36.9932184  66.3064079  81.6358121  56.3209966  74.2249907
  81.5366490  55.4366616  73.8723601  81.8728669  56.8557790  73.4673334
  44.6785975  32.4407625  24.6451735  44.9595499  32.3691058  23.7329435
  45.1598740  33.1949520  24.9854755  66.4318800  57.3504496   6.8001693
  66.7700768  56.6238976   6.2767422  65.4870129  57.3360300   6.6476834
  84.4728358  76.7031101  58.0199866  83.8838847  77.2508648  58.5389559
  83.9089520  76.0174945  57.6619415  24.8508883  12.7729893  30.2039027
  25.5793071  13.1075704  30.7270622  24.1633153  13.4317029  30.3017473
  44.6274614   1.3859275  25.5590773  45.4742765   1.7647111  25.3231525
  44.0126610   1.7632246  24.9298716  21.3319868  35.8144423  75.1069994
  21.9017499  35.5098900  75.8132873  21.0980981  35.0192800  74.6282023
  54.5452070  16.8055415  29.2845511  53.7297916  16.9984877  28.8218403
  54.3094730  16.1199641  29.9095678  23.6071396  28.6354327  28.7268806
  22.6782918  28.6460042  28.4958863  23.6674666  28.0090237  29.4481325
  12.2892326  87.7395204  72.1048815  11.8734306  86.9056895  72.3241119
  11.8998521  88.3683828  72.7124567  17.0250678  31.9484711  19.5415699
  16.3695109  31.4335084  19.0711558  17.8501534  31.4909101  19.3800032
  88.9187177  83.6437109  41.6941778  89.1457494  83.2548693  40.8494965
  89.2759402  84.5308116  41.6532413  61.3538408  42.6784563   1.7704551
  61.8647718  42.7026415   0.9613833  60.8430624  41.8714094   1.7071354
  61.3713789  45.7710743   7.6843268  61.5635347  46.5768051   7.2046351
  60.9845304  45.1892710   7.0300466  57.7840328  44.2773104  17.2439730
  57.7803612  43.5503435  17.8666580  58.6160994  44.1901159  16.7789006
  40.8221483  17.2940707   2.2140603  40.9100437  16.5122914   2.7593359
  41.7007494  17.6734984   2.1959770  90.5746269  24.4368529  22.7386427
  91.1677170  25.0324798  23.1965899  89.7086906  24.6440387  23.0900049
  75.9723981  58.5095254  56.0678617  75.3794606  58.2879689  55.3498308
  76.7921813  58.0677179  55.8465139  82.7544101  72.8748992  60.8052937
  83.5617383  73.2633045  60.4682485  82.2333129  72.6897958  60.0239984
  59.6270752  19.8661828  15.8562744  60.2301502  19.2832041  16.3174367
  60.1805496  20.5781841  15.5354178  55.1428318  22.0273662   8.6459011
  55.3836155  21.4017463   7.9626340  54.4698238  21.5772128   9.1564423
  59.0454668  86.3948444  49.4036667  59.8566335  86.2544301  48.9152686
  58.6676210  85.5203393  49.4969479   8.4579509  70.9643439  52.3791854
   7.7902215  71.5015677  51.9528596   8.1056016  70.0748995  52.3480026
   8.7374030  11.3814628   6.3606763   8.7094889  10.5270135   6.7912203
   7.9659567  11.8416131   6.6913652  76.1295779  64.8786190  52.3705642
  76.6441186  64.7265867  53.1632583  75.3217681  65.2855447  52.6837460
  23.9356321  69.0548995  47.8183762  22.9937643  68.8958290  47.7567450
  24.1336339  68.9627007  48.7503235  70.1632023  22.4209046  30.7524109
  70.1759052  22.6273084  31.6870070  70.1866913  23.2737494  30.3184366
  53.5951325  71.6445273  23.1079507  54.4281575  71.9212609  22.7262211
  53.8040444  70.8385462  23.5801554  58.5598755  59.0945673  17.3276794
  57.7620792  58.8168621  16.8775296  59.1362524  58.3314800  17.2862351
  29.0579200  21.8480778  40.0229263  29.5259166  21.1409831  40.4670286
  29.2554855  21.7203259  39.0950918  26.6622728  73.2550910  56.2092249
  27.2305387  74.0043524  56.3878624  25.9167379  73.6269215  55.7378952
  11.1766523  46.1348194  76.6077308  11.5644592  46.8759430  77.0731070
  10.3995031  45.9106925  77.1196314  46.3724038  69.7473210  18.7512505
  46.2965581  68.8487643  18.4301949  46.0761067  69.7026533  19.6603417
  32.4187514  78.9436459  25.5079508  32.2459599  78.0383736  25.7665181
  33.3493706  79.0717494  25.6917000  88.1107426  37.7845311   9.1252685
  87.4136734  37.2095037   9.4409662  88.8856697  37.2238255   9.0888369
  17.6362225  83.7602144  46.6852140  18.5569855  83.6933130  46.9381142
  17.6587531  84.0520072  45.7738543   1.7766520  79.3741912  12.4035358
   1.8956539  79.2461437  11.4624333   1.8324396  78.4933716  12.7740431
  32.8521818  54.8292878  76.3042137  32.4640268  55.2527657  77.0698734
  33.7943834  54.8483399  76.4719001  33.1383920  14.4697618   8.8806033
  33.3990836  14.5797420   9.7950304  32.8514886  15.3409708   8.6068994
  69.2386675  25.9044695   8.0226654  68.8609934  25.2289987   7.4593401
  68.7083721  26.6828275   7.8518647  78.4476741  38.6570177  51.8392555
  78.9475997  38.3173993  52.5815241  78.7878831  38.1793764  51.0827152
  91.0287129  84.1014394  13.8940477  91.1030160  84.4606104  14.7781897
  91.0609804  84.8673820  13.3208787  62.2675228  28.1418061  24.4863224
  61.4751244  28.6278462  24.7145867  62.6308727  27.8671098  25.3281951
  62.0473051  10.9163880  20.6931996  61.4190722  11.5672696  20.3803039
  61.6777945  10.6046498  21.5193439  78.0348586  82.3612541  35.5225849
  78.4517156  82.7317059  34.7446227  78.1530069  83.0287242  36.1984229
  20.1440167  32.5335240  35.7222772  20.9120655  32.1486115  36.1443853
  20.4859972  32.9361510  34.9240446  24.4528764  82.0774606  61.1944382
  24.1879075  82.1823886  62.1082298  23.8557332  82.6435736  60.7053916
  79.0818644   4.7736040  21.6009259  78.8805103   4.5064154  22.4977541
  79.7346735   4.1400594  21.3031077   4.2102951  62.2552469  64.6035258
   4.2866462  61.3399246  64.3341069   3.4120410  62.5650600  64.1756956
   7.4825662  65.9530404  54.1505114   6.8214124  65.4686168  53.6561028
   6.9980854  66.3472489  54.8758475  81.8841441  79.9981144  38.0456225
  81.1797364  80.0560907  38.6911313  82.6633676  80.2977660  38.5138671
  48.9487171   2.8243184  39.4157934  48.2290697   2.4934573  39.9532557
  49.6238041   3.0739209  40.0468111  81.8746471  11.0109532  20.5890417
  81.6655350  11.7150724  19.9752653  81.1710548  11.0415006  21.2373161
  72.8774007  86.6342643  66.5585284  73.0966981  85.9693292  67.2112147
  73.7108882  86.8370059  66.1337654  65.9481812  46.7001295   6.0095245
  65.2090359  46.3812351   5.4916400  65.6800938  46.5645075   6.9183511
  51.7646551  16.5495670  21.5755510  51.6146374  16.9974518  20.7430077
  52.7093554  16.3971305  21.5986896  67.9788780  37.5495100   7.4401730
  67.5792837  38.2542086   7.9500353  67.4167395  37.4624133   6.6703379
  90.0168736  87.8647903  60.8928756  89.5773824  87.6970914  61.7265145
  89.4935639  87.3907426  60.2466123  43.0279732  34.4161868   2.9581088
  43.8338137  33.9072561   3.0466539  43.1508636  34.9214220   2.1544495
  40.6897116   6.9546902   4.4232208  40.5215979   7.2798657   5.3076583
  39.9119258   6.4412385   4.2049381  46.1404514  37.6030970  13.9570153
  46.6651106  37.4143100  13.1789911  45.8884382  36.7420554  14.2906749
  64.5401621  51.2053299  24.0962005  63.7376595  50.7163811  24.2782712
  64.3472052  52.0978308  24.3833280  35.7889837  64.5461586  46.2514917
  35.5285448  64.7218183  47.1556751  35.7081121  65.3917888  45.8103578
  66.5298367  51.8865919   5.7196605  66.3381672  52.5648880   5.0720394
  66.1783552  52.2325516   6.5400302  76.4707422  18.8685703  39.7447371
  75.5570316  18.9784586  39.4815159  76.7395496  19.7367728  40.0450659
  30.7635638  26.1100301  60.0000564  29.9080273  25.7526311  59.7622458
  31.0912225  25.5171547  60.6763462  10.8394092  64.6823004  76.0444162
  10.7880777  64.4978169  75.1065661  11.1188262  65.5964807  76.0937500
  80.1538563  43.1860447  29.2477059  80.2744770  43.9409399  28.6716771
  79.3447781  42.7771425  28.9404130  20.1479888  29.8828125   7.2845000
  19.7266197  29.2383838   7.8531730  20.4020882  30.5927420   7.8741324
  36.9098353  36.6410518   6.1058795  37.1282482  35.9409881   6.7210549
  37.7045584  37.1721888   6.0554719  44.4525668  16.4768753  33.6638324
  43.6361405  16.0029420  33.5054938  44.1884228  17.3947868  33.7262742
  49.4917917  10.2941561  33.3753133  49.3663120  10.7726824  32.5558639
  49.5466995   9.3759590  33.1104898  40.3958317   9.9470481  46.9084517
  40.1047370   9.7285423  46.0231535  40.2357861   9.1516504  47.4163548
   0.9065352  61.3215733  36.5914154   0.0313006  61.7015839  36.6674709
   0.7916747  60.4041386  36.8391156  66.4722919  40.5397415  25.7030010
  66.5635681  41.3165855  26.2547326  66.6142988  39.8044920  26.2992191
  76.9571924  15.8172786   4.9243346  77.0000887  16.6955066   4.5460391
  77.8173971  15.4372942   4.7457689  93.0108356  45.3735542  12.0920467
  93.0261326  45.0278568  11.1995828  92.8157330  46.3045216  11.9849741
  74.4038010  10.4065382  29.4963145  74.5995903   9.6983093  28.8828731
  73.4493303  10.4038930  29.5684648  93.3181413  43.3215468  73.3710886
  92.9145368  42.4728641  73.5529549  94.0886529  43.3468391  73.9384533
  37.9677531  12.5100240  71.8700842  38.3381936  11.9485054  72.5510440
  38.2956835  12.1404419  71.0502653  79.0736564  49.2462617  48.7382714
  79.6617826  49.8747739  49.1569774  78.2189258  49.4180468  49.1334359
  93.2094669  29.9104643   5.3769994  93.1835079  29.5361948   4.4963855
  94.0977955  29.7333646   5.6864226   1.0760778  82.7707318  56.6754715
   0.6623834  82.8163865  55.8134953   1.1281866  83.6817053  56.9646828
  77.3767757  45.0004387  19.3012869  78.0665493  45.2378941  19.9210119
  76.9474030  45.8298063  19.0914738  87.9626656  34.2861629  17.4603295
  87.3106098  34.9657917  17.2895646  88.3766270  34.5522809  18.2813334
  61.9680878  84.0001789  17.5389922  61.9344041  84.0721437  16.5850961
  62.0135876  84.9056533  17.8460383  61.2369211  68.8419321  72.2631387
  61.7993839  68.9506009  73.0299882  60.5706842  69.5228675  72.3563440
  72.7529144   4.6011385  36.0581040  72.7326488   3.6825448  35.7897639
  72.2191763   4.6305355  36.8521404  78.6375093  53.5754919  11.5093100
  77.9685736  54.0206385  10.9891236  78.2959175  53.5918760  12.4033332
  68.9574194  48.4813690  17.8139496  68.0786800  48.5619211  17.4430680
  68.8814688  47.7786446  18.4594274   5.4411517  32.3607302  19.7036326
   5.0366316  32.6402688  18.8823807   6.2090884  32.9245448  19.7964489
  66.3154507  16.5319324  30.1049471  66.0078573  16.5098774  31.0111094
  67.1853018  16.9280291  30.1568508  76.7062569  58.2050657  22.7916670
  77.1621466  58.6129093  23.5279155  76.3465071  57.3945379  23.1520247
  84.0681839  13.5825658  24.1299367  83.4818077  13.4492087  24.8746586
  84.0993690  12.7309000  23.6941338  77.8063679  47.4024105   9.5023823
  77.3479414  48.2420588   9.4697535  78.7303495  47.6371717   9.5882976
  61.2698174  11.8967605   1.0850962  60.7381678  11.2903368   0.5695085
  62.1339846  11.8662143   0.6745943   5.6579727  87.1767572  43.3765070
   6.5235036  86.8601993  43.6351101   5.2750915  86.4512256  42.8833143
  79.6806574  34.3475175   6.3690001  80.3776169  34.1659999   5.7385051
  78.8865662  34.4065714   5.8378100  51.9258690  50.6321812  13.5480475
  52.7971220  50.2644062  13.6960185  51.3255119  49.9144793  13.7497962
   3.3218091  70.0419334  71.6084121   2.5867456  69.7483233  72.1466575
   2.9647296  70.7608441  71.0869799  23.2906145  63.1390587  67.9007433
  23.9410776  62.7417210  68.4797470  23.7250131  63.1861535  67.0490901
  78.1919336  57.7554274   4.2021075  78.9565706  57.7802706   4.7773886
  78.2688951  56.9222164   3.7372780  26.2343931  22.5140429  13.9441466
  25.4415083  21.9804096  13.8912284  26.0404253  23.1649876  14.6185946
  91.7732906  38.8354707  17.6378703  91.4492226  39.2701697  16.8490434
  92.2101784  39.5295167  18.1314874  92.6800156  39.3852663  26.3292885
  92.3747730  40.2924538  26.3208818  91.8878174  38.8647628  26.1961555
  33.9180991  40.9512291  57.8245239  33.0703589  40.5320797  57.6766126
  33.7630078  41.5557727  58.5502700  68.6136007  21.2702918  34.6064234
  67.7648020  21.6342592  34.8580146  69.0445185  21.9773149  34.1261530
   5.7264921   6.4657459  76.3585160   6.4496276   6.8989238  76.8120160
   4.9587414   6.9969043  76.5698503  65.7870245   9.6029162  22.8429508
  66.1012125   9.9468195  23.6791611  66.4097738   8.9112723  22.6192474
  22.6320407  11.9347772  67.6998602  21.8204924  12.0644722  68.1905727
  22.3691794  11.9967470  66.7815499  11.7217265  52.1382523   1.1371309
  12.3490725  51.9230127   0.4469592  10.8721171  52.1408176   0.6962357
  83.1605053  47.6127386  25.3196383  82.9181767  48.0941248  24.5285797
  82.3251629  47.3420477  25.7006311  71.2905550  30.0824761  18.1159186
  71.5393305  30.6094790  17.3565698  71.9799471  29.4220638  18.1853533
  26.4464331  45.5763245  14.2762530  26.7221427  45.7923937  15.1670563
  25.8521342  46.2854147  14.0308332  23.6386293  64.8586968  75.8024174
  23.8535016  64.2241910  76.4861298  23.4024614  65.6541804  76.2795558
  13.0163043  50.2165255  67.8413097  13.6995357  50.5489996  68.4234504
  13.1988901  50.6295249  66.9973169  87.9463196  10.9744537   9.6181250
  88.3270168  11.1617053   8.7600815  87.6807404  10.0562537   9.5670998
  64.7113522  63.7546447  47.7492897  64.6113141  63.4104040  46.8617551
  64.1073473  64.4962028  47.7880613  13.6480818  12.3657155  13.4374249
  14.1945849  11.5807962  13.3990765  13.8237105  12.7378571  14.3016577
  68.4668541  35.0360632   7.3645359  68.3882761  35.9813428   7.2360748
  67.6264524  34.6838403   7.0714468   8.3935541  62.2772673  71.9489900
   8.1632799  61.9830790  71.0677074   8.6826747  61.4832571  72.3986430
  14.5498413  75.9264401  62.2396545  14.1546052  76.3940695  62.9754154
  14.0939325  75.0850681  62.2179071  53.8958693  61.5302324   1.1810976
  53.8599586  60.9338093   1.9289108  53.1077003  62.0669127   1.2647067
  25.9524962  83.4672600   9.7900635  25.2510354  84.0438536  10.0929284
  25.9789654  83.5996115   8.8424271  15.6118975  37.4993610  19.3460691
  16.2452231  36.9382143  19.7935498  14.9545393  37.6978087  20.0129557
  62.4929902  10.7762966  68.1859557  63.3482835  10.4486379  68.4640543
  61.8930146  10.0486049  68.3494369  92.2615703  62.3673609  72.1731062
  92.0612367  62.3902252  71.2373845  91.6222365  61.7567709  72.5400750
  17.0651147  -0.1443282  64.6771244  16.6338870   0.4399261  64.0534894
  17.9150531   0.2646312  64.8401718  36.8120906  14.0892610  67.9567866
  36.9255015  14.8397598  68.5399817  37.4202821  14.2521343  67.2358076
  62.8756332  19.1020536   4.2037401  62.8702402  18.1760836   4.4461897
  63.2888603  19.1212249   3.3405456  69.0283391  13.1029329  71.3076763
  69.2942330  13.9955053  71.5287016  69.0493390  13.0767068  70.3510664
  74.2345235  10.8448324  67.8670530  75.0419327  11.3103017  67.6487426
  74.4606683  10.3202400  68.6350982  17.2994242  52.3267508  13.1217825
  17.9058752  53.0537653  12.9807472  16.4311610  52.7274704  13.0794740
   6.5318213  42.3162031  11.8425238   6.4614497  43.2209206  12.1470976
   7.1568976  41.9094181  12.4425566  11.6879362  85.0544933  55.4575889
  12.1816677  85.7280305  55.9253542  10.7998460  85.4065755  55.3978984
  59.0465641  25.3305745  23.6402035  58.4275150  25.5951309  22.9597449
  59.9022293  25.3666139  23.2126904  62.5764942  52.4023008  17.0498455
  61.8772364  51.7488956  17.0681095  62.8684902  52.4661016  17.9591846
  93.6589082  63.5985103  74.1092817  93.8878854  64.5018438  73.8906689
  93.3335336  63.2285825  73.2886012  74.6332455  18.2026708  35.1582479
  73.7882471  18.2232225  35.6074500  74.6782780  19.0387225  34.6943283
  76.1440134  29.7009468  47.1979904  75.2070570  29.5455933  47.0787716
  76.5627098  29.1734338  46.5178013  80.6661987  58.5995626   5.2537519
  81.2212372  59.2927551   4.8964834  81.2764645  58.0050755   5.6900895
  52.2374105  42.0862770  24.6033144  52.7377939  42.2895575  23.8130474
  52.6082420  41.2610674  24.9159575  64.8780918  20.3749204  17.0245993
  64.2774630  20.0395656  16.3590050  65.6462860  20.6622243  16.5310740
  88.3205414  15.2186871  13.4107816  89.2708302  15.2269900  13.5253394
  87.9773617  15.5743158  14.2305279  49.9883270  43.2348824  21.7087913
  50.6835699  43.8570881  21.9226193  50.3419971  42.7206421  20.9830475
  84.9828275  69.4504026  56.4135162  85.4895099  70.0746229  56.9329922
  85.6360753  68.8456133  56.0617654  62.4581337  70.7665300   6.2134457
  63.2697678  71.2732124   6.2409461  61.9950819  71.0975647   5.4438806
   7.8719657  56.5643171  72.2500203   8.2914108  56.1759618  71.4822457
   6.9434827  56.6048470  72.0208792  37.3140001  19.4065619  17.0428693
  37.3257780  19.7056842  17.9520547  38.2332563  19.4145954  16.7761588
  75.3323746  41.8152761  16.0626006  74.3850708  41.9051218  15.9588075
  75.6849051  42.6611662  15.7861626  82.6324368  56.2060165   8.5587949
  82.5739956  56.5943718   7.6858699  82.9792404  55.3268433   8.4070760
  78.5338545  26.6241479  24.8378134  78.2306051  27.2955155  24.2266369
  79.3163061  27.0017958  25.2395368  46.9604588  49.1582680  13.0812979
  46.9719934  49.2172766  14.0366077  46.2729025  48.5206795  12.8889966
  47.3501107   8.7973699  56.0789554  46.8805024   8.0017051  55.8287279
  47.2619578   9.3757782  55.3213899  74.9133110  64.1022539   6.8762636
  74.8561335  63.1734800   7.1006352  75.5370140  64.1354704   6.1509186
  87.3738670  40.4898691  10.0755727  88.2470322  40.7501984  10.3688991
  87.5319576  39.7793531   9.4539607  17.9889482  64.9109009  69.2406241
  18.4479993  64.1257885  68.9421318  17.1792024  64.5812801  69.6303628
  87.1835419   9.4546518  53.7710230  87.4039170  10.2085933  54.3180529
  87.9252812   9.3682441  53.1721942  59.9739695  47.3936319  19.5597672
  60.3050947  47.1061468  18.7089217  59.0899420  47.0297766  19.6081209
  41.0372829  70.2651358  16.0531688  40.6750965  69.4557238  15.6927490
  41.7457438  70.4984808  15.4532850  91.4306068  59.2408562   8.4015977
  91.8046284  60.0034046   8.8430291  90.7889175  59.6071959   7.7931070
  69.2933512  46.9839716  12.8572488  70.1540136  46.9707251  13.2759559
  69.1523314  47.9027128  12.6286435   1.5785799  28.6752629   7.3341858
   2.1787272  28.9895535   8.0104089   1.9031916  29.0686941   6.5242046
  82.7059364  39.9527764  17.3225415  83.6064243  40.1749897  17.5591564
  82.5966454  40.3046560  16.4391017  79.0033007  35.7982588   8.6637247
  78.1855059  35.4564762   9.0251499  79.1158390  35.3268790   7.8382742
  90.9301567  52.3690987  28.9416552  90.5918598  51.8712711  28.1973720
  91.6241360  51.8177223  29.3030453  82.9538441  35.6467962  42.4134922
  83.2892323  35.1947165  43.1876802  82.0580864  35.3235698  42.3166752
  70.0626087  28.5877895  24.5256281  70.9020042  28.1720948  24.3285489
  70.1427174  28.8689423  25.4370904  79.4268878  85.3793767  43.0271475
  79.3637975  85.2062896  43.9664523  79.4919713  86.3322023  42.9630224
  69.5030308  81.0760593  25.1751804  68.6662817  81.0835457  25.6399679
  69.5019674  81.8871784  24.6669340  13.5634814  65.6597996  17.4577951
  14.0693579  65.4501200  16.6727149  12.8663931  66.2371731  17.1464336
  33.9269632  65.1521662  72.0647387  34.4509119  64.6984223  72.7249162
  33.6926549  65.9844259  72.4754388   3.5648547  35.3936815  23.8480568
   2.9643546  35.0880766  24.5279408   4.1399489  34.6465278  23.6829543
  66.7754078  13.2697105  16.3448536  67.5787592  13.7151229  16.6140592
  66.8510532  13.1934309  15.3937018  89.7173405   5.7645071  30.9224200
  89.7400379   5.5544317  31.8560076  89.2208004   6.5813351  30.8727241
  75.3213644  13.1114209  13.7989056  74.6614790  12.4999726  14.1258776
  75.8391285  12.5966001  13.1799471   2.1292887  29.8960590   0.1222710
   2.5047312  29.4119763  -0.6132120   2.8841124  30.2883363   0.5611151
  63.4966612  43.6884546  24.7885275  63.7102079  44.4754934  24.2873287
  62.9550695  44.0046263  25.5116796  89.2350388  11.1833620  33.7795925
  88.3880043  11.6233337  33.7075448  89.3732071  10.7873785  32.9191637
  77.2513962  31.8482471  13.0532455  76.4140320  31.8212628  12.5902939
  77.0444155  31.5532708  13.9400268  69.6453841  79.3149045  48.4266655
  70.4091127  79.1090873  48.9657275  69.8885663  80.1160577  47.9627172
  20.2876943  87.3105481  70.5038045  19.9647134  86.4500144  70.2366136
  21.2362283  87.2572616  70.3868656  71.2855339  27.7295709   2.6253134
  71.3191509  26.7760706   2.5482291  70.3656006  27.9229903   2.8057238
  68.8663054  46.1431265  19.5800292  68.2340908  45.5805635  20.0273085
  69.6308279  46.1493874  20.1559615  64.1530561  34.1767883  21.6630483
  64.1472435  33.9588928  22.5950980  63.2285595  34.2696571  21.4330173
  62.4881363  32.8640604  19.2002130  62.6892567  31.9695020  18.9253545
  61.6887999  32.7808714  19.7201836  28.7424207  46.7232513   7.6646584
  28.9751935  45.8834553   8.0606335  28.3237529  47.2137356   8.3720279
  77.6066968   3.6163625  54.0556518  76.6701028   3.7650928  53.9256541
  77.6788232   2.6770124  54.2249028  91.0003090  78.0917263  14.2522037
  91.2972736  77.9103422  15.1439118  90.1393509  78.4948778  14.3638289
   8.6757098  14.3170810  13.0239844   9.1678343  15.1233840  13.1786311
   8.0923472  14.2439246  13.7793458   3.5121053  72.1072939  51.0778181
   3.4553712  73.0449036  51.2619321   4.2627376  72.0236662  50.4897777
  55.7398984   7.7423963  70.4012440  55.7748410   8.0668792  69.5013998
  55.7648274   8.5320100  70.9417270  77.3515224  26.7868924  29.8296666
  77.8411961  27.2204232  29.1307402  76.8785906  26.0811806  29.3886042
  57.5087735   0.7181224  43.9854090  57.1229169   1.5939388  43.9685003
  57.8762624   0.6013403  43.1093113   4.2853651  68.5528135   9.2184603
   3.4143553  68.9486074   9.1881388   4.7589980  68.9603281   8.4933156
  73.8647127  54.7368193   5.6394863  74.3725920  54.3239117   6.3379121
  73.3849573  54.0149450   5.2333307  76.7539880  65.0118059  32.6057243
  76.6709992  64.4352049  31.8461990  77.0500085  65.8461732  32.2418070
  31.3730424  88.3986142  37.2606842  30.8665269  87.6509526  36.9433801
  30.9155935  89.1634181  36.9113414  75.9161170  79.4867423  66.5744774
  75.1093371  79.0729573  66.2676875  76.3517459  79.7837547  65.7755761
  85.7289791  35.0954628  27.4909830  85.9865856  34.6639466  28.3056426
  85.1470757  35.8030438  27.7683663  90.6489658  66.3493299  17.0310807
  90.7584476  65.5192900  16.5670991  90.9588623  66.1701727  17.9188299
   9.7358411  74.7622421  74.2500443   9.5591014  73.9325550  73.8066323
   9.9574274  75.3689149  73.5435886  26.3459468  64.8634434  36.8693089
  27.1940541  64.8356581  36.4263916  26.5216398  64.5190525  37.7449536
  79.2561197  45.3102589  13.7722790  80.1459026  45.1936579  13.4392357
  79.1698265  46.2550592  13.8993239  91.9005282  63.6953250  75.9051491
  92.7259667  63.7750569  75.4271090  91.4141114  63.0200806  75.4322062
  75.3440237  23.9441562  16.8300998  76.1084223  23.4007025  16.6388321
  74.8464775  23.4396863  17.4736774  67.4184704  39.2279506  21.6144800
  67.8605461  38.4144235  21.3716245  67.1751308  39.6269059  20.7791066
   5.3821478  36.9541049  24.8940468   4.7963057  36.2579942  24.5966458
   5.8499251  37.2269797  24.1047692  84.9661811  86.6973499  76.6799981
  84.9773105  86.9128326  75.7474347  84.3657001  87.3350337  77.0660201
  50.1868531  16.5079126  77.0038985  50.5840394  17.1660432  77.5742835
  50.4614350  16.7583475  76.1217893  50.4615307  50.9318161  17.3196447
  51.2409687  50.8149672  17.8628373  50.6276703  51.7390633  16.8328369
   0.6555980  78.1199911  55.5629866   1.5587896  78.4254554  55.4783384
   0.3227704  78.5689071  56.3401167  48.3644530   7.9200468  70.4313545
  49.1405293   7.5027475  70.8052592  48.7094590   8.5127697  69.7636108
  30.3140542   3.7926445  73.3378549  30.2354142   4.7309217  73.5101278
  31.0719773   3.5171518  73.8534979   3.4037631  84.4111994  67.1569316
   3.8571638  83.5909918  67.3516582   3.0774015  84.7116760  68.0051253
  59.9736592   2.5058803  68.9055364  59.3037411   2.8145132  69.5156096
  59.7258469   1.6010866  68.7153522  50.2317139  19.2323932  72.8016759
  50.5909249  19.1169986  73.6813812  50.6809708  18.5742960  72.2712935
  28.9637470  10.4781938  35.3353286  28.8942337  10.5043447  36.2896419
  29.2361164   9.5817018  35.1394987  45.6424901  30.0249824  71.1347900
  46.1036345  30.8623514  71.1836467  45.2536771  29.9146900  72.0024837
  78.0791569  59.1478634  29.4668150  78.7226772  59.3557453  30.1442385
  78.5294199  59.3352127  28.6431670  75.3831959  34.6608114  16.4283252
  76.1505747  34.4524026  15.8954763  75.7395649  35.1029563  17.1988702
  35.4064748   5.3168640  73.1155513  36.2106749   5.2619896  73.6317704
  35.6401107   4.9397144  72.2673736   3.2936090  54.7822073  73.3180491
   4.1701168  54.8459604  73.6973951   3.4453147  54.5468810  72.4027137
  34.9557254  17.1300468  63.9591066  34.4659421  17.8826866  63.6276237
  35.7799241  17.1475467  63.4726684   9.8593245  48.8757515   1.8623434
  10.2006922  48.3679199   2.5984183   9.5829497  49.7054625   2.2514857
  87.6348336  68.3140686  46.1441700  86.7763980  68.7294296  46.2266580
  88.1375535  68.9111403  45.5900876  71.9212675  72.4705982  20.2710319
  71.6811848  71.5471840  20.1942301  72.4081659  72.5238800  21.0934186
  70.5352211  33.9248490  22.9968214  71.1491156  33.2603168  23.3094931
  70.6612968  34.6654248  23.5900187  51.6216898  14.2157662  36.9699883
  51.2358570  14.9962354  37.3677731  51.6863680  14.4285083  36.0389733
  18.5505289  30.0192264  72.9476459  18.0995267  29.3203071  73.4212993
  19.1539472  30.3930584  73.5897992  64.0152264  70.7655478  30.6275535
  63.1161261  70.7408714  30.9550285  64.5410872  70.4110813  31.3445306
   9.3168173  24.1981411  19.9761987   8.4317885  24.2231870  19.6124220
   9.5229540  23.2656288  20.0407100  68.7736750  53.6672974   6.8847769
  69.6355820  53.8654041   7.2509766  68.8861275  53.7680197   5.9395564
  24.4220254  20.1312456  60.7049553  23.7368151  20.0800952  61.3713662
  25.0846860  20.7070503  61.0864822  83.0108929  62.0777845   8.6787218
  82.6187420  62.0783663   9.5519084  83.7439919  61.4659882   8.7458032
  92.6659298   6.9617677  46.2155485  91.9133377   6.5916026  45.7542276
  93.0405998   7.5894606  45.5976105  14.8372946  24.2628622  39.1621780
  14.6953593  23.6391926  39.8743010  15.6053172  23.9275312  38.6996436
  65.3066683  24.0562391  23.5145903  65.1642275  23.3512497  22.8829789
  64.4891882  24.1023993  24.0104008  48.8341188  76.8879700  27.5448394
  49.3054295  76.0735512  27.7203941  48.1438303  76.6376352  26.9307852
  82.3141193  33.5220909  11.9325161  81.4611244  33.6682558  11.5235376
  82.1235275  33.4602737  12.8685105  17.9565996  79.1538790  70.1339833
  18.3217042  78.2702497  70.1800810  17.7863687  79.3905571  71.0457049
  53.7593349  54.4437960  76.3075054  53.7800677  53.9341137  75.4975511
  52.8277548  54.5470622  76.5017325  74.4167741  60.3029540  59.2608885
  74.7340663  59.7316948  59.9603323  73.8235839  60.9124771  59.7000222
  63.1879187  69.6559286   8.7945908  62.8064156  70.1012945   8.0380619
  62.5241423  69.0180826   9.0568650  27.3720847  31.5356159  34.2775869
  27.7911578  32.3315001  33.9502025  26.9212828  31.8129897  35.0751257
  87.1616586  75.2930477  60.6157617  88.1186994  75.2873448  60.6321303
  86.9385989  75.7748535  59.8193089   1.4855967  38.0700445   0.9684560
   1.9176302  37.8858876   1.8025257   1.0260115  37.2586441   0.7524884
  79.3497753  20.2278566  20.5965781  78.5538912  20.0372815  21.0930443
  79.3799496  21.1834455  20.5499768   7.2603696  64.5215133  61.0081081
   6.4252370  64.5279625  60.5404083   7.2993177  65.3745893  61.4405171
  66.4199781  18.4861624  46.3512945  65.9640646  19.3161690  46.4907932
  66.2443972  17.9801679  47.1446228  38.0631536  80.7147077  70.4657547
  38.4801572  79.8573735  70.5513166  38.0661100  81.0721710  71.3536976
  23.4407040   0.6191549  57.1204941  24.3618581   0.4358110  56.9358365
  23.0841872  -0.2187481  57.4155323   0.5272398  84.4057655  15.2377963
  -0.0259866  84.9799824  15.7673717   1.3981066  84.4868755  15.6266916
  68.3031464  35.3336763  57.6384544  67.7010059  34.8369169  58.1924295
  68.4111452  36.1697912  58.0917597   1.2317763  19.1643655  22.6186275
   1.2542925  19.1450369  21.6618872   1.4967070  20.0555015  22.8464866
  93.1790161  74.5840549  12.7054930  92.5745869  75.3054190  12.5307763
  92.6194668  73.8088894  12.7529693   3.8744364  38.3129263  26.6749239
   2.9912768  37.9626751  26.7914939   4.2031203  37.8770304  25.8886719
  80.4619789  43.8619566   2.1069928  80.3045940  43.2991123   1.3489234
  81.2207603  43.4722233   2.5412562  79.9872875  45.6803942  20.1869249
  79.8332977  44.9311495  19.6114719  80.6245041  45.3637028  20.8271480
  92.0856571  34.0285039  45.5699825  91.6718578  33.1665325  45.6148243
  93.0198574  33.8517618  45.6806946  27.4944700   4.0148073  39.2453599
  26.7244447   3.4863955  39.0354228  27.3293222   4.3373495  40.1313210
  34.3763471  64.1655254  40.0759172  34.4730568  65.0779295  40.3486776
  33.6802745  63.8208151  40.6352806  83.1245613  16.5555274  12.1900964
  83.5800266  16.0804462  12.8851354  82.3089981  16.8496799  12.5957537
  73.8463068  26.2382245  22.6284647  74.5423937  25.7171512  23.0286884
  74.2999220  26.8049407  22.0045280  66.6886902  60.1723051  15.4425073
  66.0247469  60.5506134  14.8660541  66.1891556  59.6674633  16.0842514
   4.3761359  55.4198790  12.2294664   4.7328959  55.3044558  11.3487661
   4.8514853  56.1713362  12.5838530  11.3899180  22.8456840  61.2518863
  10.9264895  23.1443748  60.4694240  12.0566222  22.2441444  60.9203891
   8.5367976  36.7775989  33.3615756   8.9680014  37.0051479  32.5378537
   7.9004679  36.1042905  33.1207967  84.6850395  61.3568163  16.0859716
  84.0569496  60.6508303  16.2386739  84.8118114  61.7550421  16.9471216
  11.7730564  67.6931289  61.5017955  12.0968240  68.1990603  60.7565157
  10.8493465  67.9341677  61.5717594  46.9234034   0.3958807  62.6322631
  47.3386761   0.7438287  61.8431417  46.4598700   1.1439762  63.0087141
  60.0818825  48.2209778  24.8000431  59.3364239  47.6969528  25.0931740
  60.4759932  47.7045774  24.0970230  63.4997746  55.0187740  72.2274808
  62.6822182  54.7638378  72.6550765  63.2606122  55.7665405  71.6798667
  16.3164244  46.4987946   1.8974273  17.1942339  46.8765354   1.8426995
  15.9377490  46.6462755   1.0307722  10.2604876  40.9907532  28.0336785
  10.5071936  41.6633654  27.3988867  10.4168520  40.1632071  27.5787616
  68.5831544  85.1399445  17.2559297  67.6860043  85.1999780  17.5841630
  68.5043141  85.2919006  16.3141632  70.1543236  62.6961184  33.3481455
  70.2255249  62.7086163  34.3026114  69.2786789  63.0386209  33.1687856
  74.8714542  68.9081335  36.1155343  74.5999432  69.4456196  35.3714800
  74.0596628  68.5148811  36.4358115  22.6718626  53.1492090  13.7004054
  23.2009325  52.3525000  13.7401772  21.7689429  52.8412867  13.7788427
  39.0131007  74.5854139   8.8823462  39.6551714  74.9380302   8.2661915
  38.2360087  74.4183254   8.3490288   6.8114672  67.1668386  62.3150015
   6.5553675  66.6249752  63.0613470   6.0563002  67.1377039  61.7275429
   7.6105032  50.4308176  19.6347487   7.9364787  49.6462679  20.0757146
   8.2078753  51.1261225  19.9103200  75.0362921  86.7827320  18.7012041
  75.0970316  86.4763927  17.7963841  74.4173813  87.5120831  18.6661041
   3.2868491  85.9619045  42.0596743   3.5177050  86.1907673  41.1593676
   3.2110701  85.0077343  42.0523262  83.5968481   5.0088176  28.5924355
  83.2691156   5.8891687  28.7762992  82.8806745   4.4280967  28.8495032
  61.5882969  56.4374590   2.5875038  60.9797239  57.1507597   2.3949589
  62.4515629  56.7978096   2.3846382  78.2894611  67.6837635   6.1720830
  78.1574345  68.4060192   6.7862028  77.4447060  67.2344112   6.1456275
  91.8243790  30.9400964   7.6642126  92.0934963  30.4136968   6.9114095
  92.2075558  30.4926085   8.4186417  28.1036231  10.1005897  64.2245714
  27.8778121  11.0274419  64.1458873  28.7312838  10.0674400  64.9464945
  46.1679071  84.6548703  63.7272744  46.1429018  85.4725173  64.2243258
  45.3715700  84.6727994  63.1964759  26.6456805  32.7847743  44.2878866
  27.1143351  33.4649777  44.7715330  26.6504012  32.0278692  44.8738098
   1.9402132  53.3426142  15.9673965   1.5981493  53.4652042  16.8529427
   2.0489035  52.3954821  15.8816028  37.7489230  16.2519607  64.9834089
  38.1182954  15.4700002  65.3936939  36.8015382  16.1329946  65.0507955
  64.8182675  29.5269880  69.5662348  64.9958321  30.3949365  69.2037879
  65.6555745  29.0669069  69.5072208  13.2829485  75.8064413   6.6450220
  12.8605471  75.1970673   7.2503847  13.2261382  75.3750658   5.7924265
  80.9674737  13.9270982  57.0658354  81.7763039  14.0542802  56.5700046
  81.2594887  13.6387596  57.9306023  79.1209984  54.6153259   5.3890055
  79.4678926  53.9479923   5.9810913  78.2646990  54.8378706   5.7543147
  25.0924393   6.2406168  63.0175762  25.2617070   6.6805801  62.1844999
  25.2590319   6.9106969  63.6805026  56.5673447  58.0357170  15.7908082
  55.9743738  58.1550455  16.5326846  56.7458248  57.0954275  15.7756793
   2.8988657  55.8113337  43.0900288   3.4070120  56.3587618  42.4914074
   3.5484801  55.2449131  43.5064507  92.9410346  74.3891576  63.0247847
  92.8902991  73.4682730  62.7685992  93.1134589  74.3667582  63.9660601
  47.1248624  16.6938505  49.7235696  47.8344628  16.4950475  50.3344528
  47.1515223  17.6458034  49.6271102  14.5817480  20.6476021  11.3847959
  15.0418101  20.6242847  12.2238588  14.8947916  21.4473462  10.9621370
  82.0634079  56.9032001   3.0198163  81.9400978  56.2408066   2.3399189
  81.6657734  57.6950264   2.6576862  35.2387899  84.0646485  61.5248255
  35.9596723  83.5457257  61.1680536  35.6216997  84.9267772  61.6871433
   9.8347769  79.7480631   5.3924108   9.7002039  78.8556623   5.7113689
   9.3464003  79.7846699   4.5699900  63.3120155  60.3778505   5.3118533
  63.9909124  60.3948927   4.6372855  63.7898970  60.2364969   6.1290926
   4.1096660  29.3285951  61.3927917   4.3794104  30.1402530  61.8225364
   4.8033020  28.7037334  61.6040961  84.9296474  18.6734879  16.4413357
  85.2203560  18.7242556  17.3519087  85.1046276  17.7682376  16.1841667
  24.8242375  21.5064964  65.2396373  24.8167989  21.6162977  66.1904899
  25.2349469  20.6531963  65.1002733  25.9155188  41.2990093  46.0139513
  25.3999720  41.4620352  45.2241039  25.4944525  40.5429506  46.4229965
  26.4603819  74.9368205   4.7556480  26.4987291  75.8217993   5.1183780
  25.5335630  74.7976938   4.5610221  59.2587754  46.6127262  68.4473709
  59.3151566  45.6574211  68.4685693  59.2594430  46.8320713  67.5156431
   5.4665194  51.8792677  34.8611474   6.1110411  52.5659418  34.6899438
   5.6056509  51.6434908  35.7783604  89.5977306  23.9654803  11.1952329
  88.9176083  24.6325517  11.2883663  90.3242779  24.4218159  10.7708275
  15.8558000  17.4034792  20.4316092  16.1581672  16.9520193  21.2196398
  15.3061546  16.7606932  19.9833345   8.9958961   3.3990821  68.1224231
   9.0665729   2.8556690  68.9072422   9.8947436   3.6717281  67.9381387
  74.1796869  78.2639673  75.3322449  73.7541479  78.4034971  74.4862672
  74.7880643  77.5412420  75.1780224  48.7664843  70.5339479  17.7593160
  47.8657961  70.3149176  17.9981101  49.0579319  71.1322451  18.4473050
  34.3008658  19.3007001  70.3068487  33.8186261  19.9818143  70.7756392
  35.2218911  19.5035228  70.4705755  71.7822123  77.2562790   2.8242391
  72.5361443  77.0459318   3.3752126  71.5157747  76.4157152   2.4518181
   8.9225493  49.8874617  15.2037370   8.2951746  50.3409767  15.7667208
   9.4656859  49.3822718  15.8087325  39.4997514  11.8280512   4.3074670
  38.6268533  11.4476115   4.2097074  39.7795118  12.0188433   3.4121662
  62.2031876   4.9988994  43.8053696  63.0873677   5.2846775  44.0351312
  62.2646519   4.7474060  42.8838460  16.6032420  84.0205765  20.1343513
  16.6587363  84.9213600  20.4533386  15.8386145  84.0170860  19.5585310
  37.7615210  26.8693885  70.5014674  37.8443429  27.3427829  69.6736578
  36.9784781  27.2376594  70.9106771   4.4102615  80.8263520  50.0209300
   4.4141715  81.0433701  49.0886657   5.2699178  80.4364589  50.1796905
  55.2433348  42.2199726  13.8446331  55.4016399  42.0638227  14.7756469
  55.4127169  41.3750696  13.4278762  70.5982637  30.2396727  39.7993779
  70.5277443  29.8807836  38.9148140  69.6962023  30.2701759  40.1180983
  22.4347490  66.0196212  61.6798679  22.0951551  66.7788342  62.1536915
  22.5600427  66.3327673  60.7840590  38.0797952  74.0800479  68.7085460
  38.8626474  74.0296176  68.1600551  37.6575750  74.8988250  68.4486185
   6.2708483  50.2289820   0.9200405   5.7410727  50.9409475   0.5613363
   6.6246519  50.5816174   1.7365603  59.6548650  15.9722528  70.7134352
  59.1654679  16.4595995  71.3761757  60.5662915  16.2305078  70.8506350
  64.6802473  50.1428890   4.8678410  64.2169189  50.9537840   4.6580586
  65.5398464  50.4308176   5.1751101  85.7093334  53.6931229   8.5756910
  84.8045444  53.4634209   8.3639634  85.7092762  54.6492290   8.6214560
  35.5312109  67.3464251  46.3901854  35.4974723  67.3942852  47.3455906
  36.4638996  67.3957682  46.1806917  48.4533167  50.2354717   0.1820127
  48.9826632  50.9064054   0.6131467  49.0885592  49.6926403  -0.2849277
  58.1943607  13.8201416  23.6852241  58.8564873  13.8510966  22.9946709
  58.6975527  13.8153076  24.4994783  43.4613272   2.9844436  75.8811252
  44.2256877   3.1684694  76.4271292  43.1114098   3.8475618  75.6601859
  32.5420103  63.6771393  42.2813511  33.2793055  63.9498663  42.8274727
  31.9933043  64.4583988  42.2121859  75.3703022  63.2198238  22.6293278
  75.9977770  62.5796461  22.2936463  74.6467590  62.6917934  22.9668212
  79.9685144  75.2573013  13.0752349  80.3059578  74.8459435  13.8709414
  80.0959492  76.1951876  13.2179272  45.6567764  60.2086163  10.4635644
  45.8693600  59.3475676  10.8236027  45.6529284  60.0774622   9.5153999
  84.1834450  52.7972746  38.5403156  84.0393066  53.6956596  38.8375688
  84.7368050  52.4070168  39.2168713  84.7076988  71.1369658  27.7988696
  85.2104664  71.0120058  28.6037612  83.9025307  70.6388474  27.9396367
  73.6787128  49.4558764  19.3582273  72.9942894  49.3445587  20.0180793
  74.2111540  50.1809359  19.6853721  74.5341679  22.7711734  44.3962209
  74.9348160  22.5888023  45.2461950  75.2657029  23.0357132  43.8384430
  44.1623319  37.0599657  16.5821671  44.7533716  36.4089686  16.9604599
  43.9891542  37.6710421  17.2982848  88.1501961  82.3325253  55.8969545
  88.1415749  82.4791336  56.8428230  88.7209892  81.5734959  55.7774210
  10.4223585  41.6311502  54.1302013  10.4109275  40.8935022  54.7401047
   9.5445114  42.0075321  54.1930676  27.3069930  30.7606339  61.6520309
  26.4194536  30.9536004  61.9541359  27.2567296  29.8652411  61.3174009
  12.8621093   9.7557265  72.5600433  12.5198069  10.4337221  71.9774818
  13.6401203  10.1495558  72.9547930   7.5804090  42.6917839  39.9903631
   6.8516308  43.2980728  40.1227570   7.1671939  41.8828821  39.6884322
  81.0869994  68.1038904  34.2324209  80.7582976  68.8139343  34.7838020
  81.9597401  67.9166079  34.5780802  77.0509460  59.1981649  63.6573887
  77.6578512  58.7294292  64.2302608  76.3369944  59.4685507  64.2347908
  21.0147595  61.5811634  50.0563908  21.4869714  61.7007017  50.8803797
  20.1066446  61.7983580  50.2670717  56.5084219  14.2290017  14.9455627
  56.4242739  14.9238202  14.2925914  57.4524957  14.1257045  15.0650867
   2.3564819  19.1956621  55.6050205   2.9609922  19.5233828  56.2709045
   1.5227822  19.0988356  56.0652399  17.9741183  82.5720778  24.1486533
  17.7098051  81.7110672  24.4727405  18.7988606  82.4124518  23.6897929
  73.9248565   0.3268057  63.1424809  74.8161701   0.1946837  62.8194666
  73.9794019   1.1173731  63.6793804  53.4231284  25.8010203  72.6742315
  53.2062724  25.4971510  73.5556364  53.5284522  24.9984461  72.1633434
  17.8920949  81.5188885  66.4620161  18.1306171  81.2956047  67.3617268
  18.7156332  81.7893887  66.0560036  22.2895596   2.2774512  62.9871893
  21.9168744   2.7939326  63.7017441  22.4440137   2.9125315  62.2878695
   2.5336462  54.1246271  63.2525396   3.3166373  53.5814524  63.3426237
   1.8317288  53.5983896  63.6354494   6.2549746  74.0485096  66.2182570
   6.6297621  73.3282948  66.7252636   6.8539965  74.7808313  66.3635445
   4.1586244  73.7978983  60.8839798   4.8574173  74.3106079  61.2902403
   4.2258725  73.9987564  59.9505091  69.0738601  37.2745368   4.5275004
  69.5227295  38.1197879   4.5104869  68.1467748  37.4973246   4.6118243
   9.9600202  51.7354536  67.9738522  10.0305581  51.3312292  68.8386393
   9.0286702  51.9343853  67.8776979  55.6329727  46.4440104  24.0419849
  55.5090362  46.2777087  23.1075175  54.7573990  46.3571879  24.4188960
  92.1555287  26.1176392  12.8643783  91.7420680  26.8077037  13.3831294
  92.3939330  25.4470679  13.5044749  27.6762009  44.3649673  60.1125908
  27.5133085  43.6344814  60.7093239  28.3124495  44.9126196  60.5724812
  53.0850318  88.1118432   7.3513396  52.2859696  87.6542082   7.0899947
  52.8387502  88.5910025   8.1425365  15.0419855  53.2054138  57.2958946
  14.6169555  53.0337620  58.1362009  15.0221372  54.1583300  57.2076797
  12.4215961  57.7944803  19.9236453  13.2071805  57.7117348  20.4642391
  11.7097235  57.9138470  20.5523109  74.5009425   3.2538229  71.5883446
  75.0627616   2.6354224  72.0554304  73.6195853   2.8912169  71.6775513
   2.0504670  55.7826138  45.7725286   2.0880102  55.8168030  44.8166752
   1.6962481  56.6340971  46.0289192  67.9379911  22.3255727  19.8343452
  67.9714346  22.3072287  20.7907851  67.3435220  23.0472276  19.6292766
  11.7359853  58.1668711  51.4068842  11.2799394  57.8367186  52.1809959
  11.8736446  57.3923779  50.8615065  36.5411377  80.8116722  37.3419046
  36.2168598  81.5022945  37.9199290  35.8663893  80.7266521  36.6683173
   4.8196501  56.4283705  51.6440344   4.9293008  55.5422926  51.2989616
   4.8591039  56.9926929  50.8718872   3.5661700  66.7174053  49.8404646
   3.8472220  67.3197126  50.5292797   4.3505108  66.2102699  49.6310425
  50.0946084   9.5493895  68.6029768  50.5453459  10.3202254  68.2581758
  49.7630313   9.0985113  67.8264475  63.3526475   1.6125438   8.9268287
  64.2682722   1.7251870   9.1821273  62.9723606   2.4873158   9.0067371
  43.7967089  82.3249760   6.7646869  43.0550984  82.1671405   6.1804469
  43.5502723  81.8981233   7.5852283   4.2976373  39.1101313  62.0078659
   3.7084436  39.8492742  61.8570423   3.7251702  38.4055471  62.3113012
   9.1550517  66.5314150  57.6136923   9.3766153  65.8895350  58.2883263
   9.0346658  66.0117102  56.8189287   1.5513732  72.1781445  70.8579922
   0.6684525  72.3692703  70.5415201   1.4778149  72.2177267  71.8115425
  16.1141193  35.6896734  37.2726417  16.1936641  35.7945251  38.2207489
  16.4604712  34.8144794  37.0985603  42.6379585  82.3110867  61.6590500
  43.0758905  82.9947376  62.1660709  42.1743441  81.7878246  62.3128796
  64.9181538  29.1373154  14.1235431  64.9789465  29.0833804  15.0772842
  65.5328146  29.8306081  13.8831885  81.1021127  80.7883930  24.3193960
  81.6593184  80.5750656  23.5709023  80.2096989  80.6598568  23.9979815
  32.9232645  57.4855804  56.5226841  33.4448051  56.7234659  56.7744875
  33.4387350  58.2364511  56.8171597  47.0551768  10.2848917  71.4293146
  46.1035541  10.2337748  71.5189314  47.3293200   9.3822295  71.2672329
  21.5374804  46.7519999  70.0861979  21.8611455  46.9052982  69.1985178
  21.7756009  45.8442211  70.2745199  28.8887742   1.3903147  63.6895084
  28.9736748   2.3294455  63.5250330  28.1840402   1.3227278  64.3337250
  83.2812779  -0.0587362  62.7147627  82.9995768  -0.0072187  63.6281204
  82.5885241   0.3845984  62.2250891  75.3155996  82.5139332  67.4491596
  75.4512908  81.8187237  66.8053389  75.5670263  83.3163261  66.9917965
   9.7011513  50.3863859  33.6396050   9.4533283  50.1916265  34.5434213
   9.4419110  51.2988615  33.5114837   4.4899121  82.4291801  37.6227808
   4.2656463  83.2005882  38.1432295   4.4347388  82.7282715  36.7151833
  84.0401866  51.3451385  52.9138374  84.3700167  52.1778774  52.5762177
  84.7849669  50.7476234  52.8467083  18.4629071  61.5627766  28.9024067
  19.2081726  62.1634436  28.8997674  18.5844564  61.0337496  29.6908164
  37.6238298  82.4696445  57.8715277  37.1284914  82.5913048  57.0615435
  37.4753523  81.5540314  58.1078482  86.6986087  13.4825617  70.2235603
  87.4634412  14.0505129  70.3167820  86.4663842  13.2443053  71.1210775
  67.3490536  33.2511231  23.8060363  67.2706914  32.3216101  23.5913356
  67.3669261  33.6924168  22.9568179  77.0733291   4.9921700  17.9378970
  76.2761671   4.4775292  18.0640205  77.0946902   5.5880687  18.6866840
  72.0556701  52.5241515  14.6080192  71.4049548  51.8349311  14.4747146
  72.1309078  52.9508445  13.7544902  39.6217868  13.9895731  35.8102417
  38.7176338  13.8855273  35.5137348  40.0575635  13.1819731  35.5379868
  40.4812434  14.1926581  44.5780849  40.5413619  13.7205797  45.4085970
  40.7176176  13.5432535  43.9157915  68.4369552  10.1843163   7.1587642
  68.3651769   9.4225785   7.7339442  68.1094379   9.8776862   6.3132270
  88.5647043  85.6538391  75.3027344  87.7822580  85.2025032  75.6194448
  89.2943125  85.1438522  75.6546068  45.6018305  37.6301813  63.3812094
  45.6590700  36.8650174  62.8089523  46.3987255  37.5937724  63.9102316
  88.6693460  46.9355628   0.4231866  88.1607849  47.3610160   1.1135371
  88.1533844  47.0698783  -0.3717820  66.7152927  38.9734980  16.4848407
  66.5205485  38.6230037  15.6156715  66.9916565  38.2115027  16.9939693
  15.7123995  56.1170912  61.0962200  15.3396666  55.2470112  60.9538794
  15.0762951  56.5613842  61.6567612  71.3670792  78.2600498  66.1534977
  71.7832174  79.0578365  65.8270073  70.9227266  77.8919125  65.3897858
  24.8206639  53.9918709  59.3126440  25.5613661  54.5919466  59.3992424
  24.1863775  54.4698477  58.7783718  75.6399386   2.3281103  49.8273182
  74.7377818   2.3881155  49.5130825  75.8515065   3.2149512  50.1188326
  30.1115727  59.5519018  57.9083204  30.0466275  59.1094017  57.0620346
  30.4862356  60.4083824  57.7026415   4.9470705  76.1421824  53.5082817
   5.8650661  75.9640217  53.7126732   4.9255428  77.0754814  53.2968140
  92.9910380  13.9538285  11.6158088  93.0114609  13.0821034  12.0106586
  93.3669192  13.8308045  10.7441409  91.8633116  53.5230398  35.4986882
  91.0313879  53.9336252  35.2629876  92.1135998  53.9439392  36.3211465
  26.0325946  85.9294224  54.3387127  25.1251497  85.9770393  54.6395493
  26.4957561  86.5759277  54.8713827  91.1149414  69.0466261  59.0003300
  91.3587781  68.1299543  59.1287374  90.2823179  69.0093136  58.5296106
  13.2972717  86.5148830  36.3290763  14.0950096  86.9908142  36.0981274
  12.8727126  87.0644665  36.9878197  78.9709956  51.2522837   8.9934905
  78.3845908  51.7388293   8.4141524  79.0555674  51.8066642   9.7692092
  28.3383584  62.2319221  68.7983561  28.9863610  62.9141235  68.6224985
  28.7866831  61.4142942  68.5822058   6.5542177   4.2923838  59.5941401
   6.8429211   3.4743315  59.1895914   5.9325722   4.0195471  60.2689362
  82.8974682   4.6557042   5.0247272  83.4250123   3.8805625   5.2172931
  83.5330802   5.3146788   4.7454723  55.8569485   4.4596669  17.1166213
  56.6023124   4.0677115  16.6616042  56.0838741   4.3989083  18.0445464
  11.0084724  67.7879429  76.1918736  11.0210836  68.2341671  75.3451443
  11.0514951  68.4948540  76.8358135  56.0679341   5.3148028   0.1155789
  56.6765684   5.8502957   0.6245454  55.4574019   5.9446809  -0.2674834
  80.9233119  61.2495852  22.0906329  80.7766261  60.3190041  21.9211364
  80.4043355  61.6992188  21.4237571  33.4227324  65.7650232  65.2742577
  33.8506699  64.9799728  64.9324989  32.8152537  66.0270596  64.5824909
  16.2246573  66.9420004  54.0678120  15.4212368  67.4265099  54.2575407
  16.4512026  67.1949387  53.1728601  48.8305062   0.5030295   4.0432532
  48.8742417   1.4589307   4.0672572  47.9361362   0.2972838   4.3152793
  49.6474293  56.0454669   2.1420987  50.3976002  55.4709711   1.9890197
  49.8984030  56.5695813   2.9027207  52.5497750  35.3539854  64.7126293
  51.7551282  35.5271632  64.2078733  52.2473934  34.8557097  65.4719162
  19.7691011  47.6853514  52.0189333  20.3432965  48.4403133  51.8902111
  19.3301117  47.8575850  52.8519154   8.6088794  76.3305426  59.7040176
   9.5234293  76.2428617  59.9726105   8.6149609  77.0398378  59.0612984
  72.5306037  25.0837523  74.2422724  72.3947814  24.1433913  74.3585157
  73.4567121  25.1656443  74.0145826  16.3444006  83.2732677  63.5943890
  16.4646578  83.9783573  64.2304850  15.4656518  82.9378319  63.7719154
  12.6069677  85.7165813  68.1955481  12.1780396  85.6059742  67.3470068
  13.2645476  85.0215912  68.2239246  90.8211940  46.0059071  60.0319099
  91.6148158  46.1639166  60.5432129  90.1830547  45.6900454  60.6716299
  61.1830571  23.5738093  58.1068468  61.9822815  23.2305342  57.7073050
  60.4854229  23.0138880  57.7662134  43.9765739  82.0621967  58.7842655
  43.6511803  82.0822048  59.6842384  43.2106400  82.2672272  58.2480383
   7.6014036  49.6990061  50.7514524   7.4249846  48.7837553  50.9692287
   8.0406672  50.0492287  51.5264511  39.0412927  69.7529554  64.6238947
  38.5930848  69.3001890  65.3382826  38.7482643  70.6614256  64.6949053
  78.7235286  72.2607660  75.3830671  79.6626832  72.4344540  75.4467344
  78.4917762  72.5207376  74.4914770   1.9228929  61.2647104  48.7058496
   1.9239725  61.9563723  48.0441618   2.0124374  61.7291927  49.5379972
  32.3493028  78.1890440  49.1702271  31.5531397  77.9560280  48.6926699
  32.2386599  77.7860689  50.0313854  22.6196194  62.9695606  52.0367861
  23.0794239  63.3077526  52.8051853  23.3169460  62.6776218  51.4496374
  45.3987980  75.0773954  50.3739643  45.0984526  75.7734203  49.7895193
  44.6180725  74.5481968  50.5372190  71.3081688  52.8266856  11.7752059
  70.6857890  53.5226008  11.9863494  70.7685846  52.1255061  11.4099296
  35.2944863  27.0893961  49.6820593  35.4261264  26.4703471  48.9639473
  34.6625784  26.6580778  50.2572918  53.1019223  65.3226611   0.7162698
  52.4966187  65.2990672   1.4574082  53.7780953  64.6827456   0.9388049
   3.2877886  78.6650467  55.7809353   4.0174717  78.3014870  55.2793169
   3.2912418  78.1712246  56.6009092  54.6411461  45.3918502   0.8472331
  54.9771959  44.5026347   0.9595044  55.4196286  45.9478900   0.8790429
  49.9693680  86.2698364  43.8478470  50.8872843  86.5382957  43.8877058
  49.5580196  86.7120647  44.5904446  81.8785359  67.9440212  67.1000147
  81.1712362  68.1964350  67.6935196  82.6746609  68.2573652  67.5292397
   1.4325301  76.8241832   0.8368476   0.6454269  76.5868899   0.3465493
   1.1055366  77.3083922   1.5950330  43.6196175   1.9145018  27.9214978
  44.5160154   2.0581633  28.2249212  43.7203482   1.5029246  27.0631933
  60.6800488   7.2417551  62.9853487  59.8416975   7.7036959  62.9820299
  60.7563666   6.8903357  63.8724279  46.2580231  20.1253325  60.7172298
  45.5501071  20.0603205  61.3582134  46.9737712  20.5469424  61.1928129
  58.5287526   6.5396887  49.6626091  59.2905906   6.9451910  49.2486095
  58.8989619   5.9416205  50.3118420  89.7878152  29.0578362   5.6910594
  89.1467911  29.3533227   6.3375934  90.3726679  28.4794947   6.1806472
  37.3754818  18.4125897   7.4641212  37.4290878  19.2590901   7.0204909
  37.2993571  18.6330935   8.3924564  87.0055809  64.7757578  63.7176800
  86.3946428  64.1002321  64.0120554  87.8716834  64.3938732  63.8600302
  17.3901479  42.2768542  11.9345744  17.0359437  41.9758937  12.7713473
  17.1345870  41.5992209  11.3086875  86.9775775   6.3096720  51.1150837
  86.6748622   7.1664053  50.8140755  86.9987491   6.3847357  52.0691013
   2.5473943  64.5961571  36.1351991   2.6179838  64.7764492  35.1977849
   2.9570404  63.7381124  36.2455869  65.2698054  71.9723177  61.8957138
  65.0932850  71.1945963  61.3663578  64.4410052  72.1534920  62.3390007
  37.7708459  70.7116604  40.2936459  37.5077963  71.5246582  39.8622847
  38.6222196  70.5015373  39.9099207  93.4527742  87.6782227  44.2761517
  92.9267550  87.2668362  44.9619341  94.3510481  87.4105453  44.4702816
  89.7446066  73.1977412  27.8784545  89.0474159  73.8416907  28.0028899
  90.5470711  73.6660525  28.1085952  21.8305469  84.9503899  57.8674459
  22.2620058  85.8032608  57.8154802  20.9683275  85.1403046  58.2372284
  38.1769750   0.6087786  45.3400564  37.7723512   0.6822020  46.2044191
  37.9443422  -0.2700990  45.0405788  31.6679319  10.3593737  75.9877586
  32.5989343  10.4828841  76.1727190  31.5954912   9.4415766  75.7257557
  86.6546490  57.7698660  54.3065166  87.1771862  58.4545469  54.7241259
  87.1024521  56.9548702  54.5334244  70.3949267  21.1582562  11.4112552
  70.8268845  20.3249070  11.5988048  70.7465893  21.7627379  12.0648368
  24.3568325  78.4362555  60.4476500  23.4607840  78.7673950  60.3870153
  24.8996925  79.2227745  60.5017233  14.4306806  16.4505392  74.3222237
  14.6630481  15.5220324  74.3114614  14.4150654  16.7042452  73.3993912
  77.7378181   1.0579878  63.3754873  77.8950790   0.5658919  64.1813040
  77.2362808   0.4586035  62.8228283   5.7315099  59.2331219  67.1709013
   4.9877411  58.8798809  66.6827822   5.6777000  60.1794815  67.0377159
  34.9988365   2.5251585   8.1243253  35.2832088   3.3863074   8.4305710
  34.0970391   2.6602465   7.8332192  64.1656593  15.1371485  42.5290537
  64.9329403  14.6297652  42.2643232  64.3843702  16.0400492  42.2984838
  21.3899112  87.8794861  45.8334064  22.1601558  87.5627995  46.3052845
  21.6691494  88.7107277  45.4496193   6.1006085  54.5622107  29.2191680
   5.2042763  54.6451613  28.8936980   6.6135375  54.3180415  28.4487708
  77.5348228  75.8164450   8.0428584  76.6919607  75.4999682   8.3679183
  78.1318385  75.0786635   8.1673129   3.6835544  51.6845271  12.3939784
   3.9069693  52.1977851  13.1704314   2.9236881  51.1666247  12.6597007
  55.9849205  66.2910128  62.7313662  55.2041664  66.7705107  63.0083752
  55.9633507  65.4822493  63.2429075  22.3716521  67.8669357  74.3956614
  23.2605004  67.5183630  74.4640875  22.4735570  68.6910391  73.9195299
  57.2585321  34.3705603  12.8941424  57.2798211  34.4880673  11.9444259
  58.0921099  34.7292802  13.1986125  14.6960837  47.7846667   5.4343207
  15.5379969  47.6456973   5.8680232  14.8736102  48.4569690   4.7765048
  28.6059910   1.3184267  61.1146784  28.6201054   1.3891894  62.0691586
  28.1688625   0.4844099  60.9427738   4.1163772  79.2566586  38.8427019
   3.7247714  78.3860159  38.7730241   3.5402524  79.8204279  38.3264899
  70.7344485  50.7706210   1.2140782  70.0676507  50.5935046   1.8775876
  71.3571382  50.0489470   1.3016875  39.1150752  11.3083273  74.5377493
  39.9332622  11.7468745  74.3043566  38.8466838  11.7227084  75.3578043
   4.5453207  20.0884482  16.6048892   5.0983922  20.1031300  17.3859962
   4.7948210  20.8750865  16.1199363  27.1314073  73.6046219  59.4482040
  26.6810918  73.0984640  58.7720013  27.4393153  72.9484320  60.0733757
  91.5669519  49.9458167  21.0520728  91.7143089  49.0220973  21.2552245
  90.6379491  49.9963233  20.8270534  61.7697134  23.7367770   3.3698733
  60.9028356  23.4066388   3.1337340  62.3727376  23.0482766   3.0895885
  72.9267873  34.0858912  57.4514437  71.9982233  33.9758706  57.6561260
  73.3825960  33.5958433  58.1357861  46.9270569  20.3344771   1.5788825
  46.8721789  20.6284425   2.4881728  46.4706093  21.0120770   1.0801395
  20.4624414  55.9141445  45.9622765  19.5936906  55.6177616  45.6908703
  21.0588384  55.2425337  45.6313992  80.2785582  50.1662871  15.7692798
  81.1431545  49.8684832  15.4864009  80.3193265  50.1462886  16.7253955
  86.5057546  24.3433615  14.4773753  86.5853507  25.1855180  14.9253352
  85.6120307  24.3379065  14.1346439  86.4674956  23.1516454  11.8111499
  86.8264300  23.7714240  12.4461825  87.2243291  22.8700063  11.2972243
  93.7457851  32.7383429  51.9611454  94.2517761  32.0298106  52.3588800
  92.8947309  32.6990801  52.3974895  73.5215503  10.0061795   0.4273065
  73.6054665   9.5850274   1.2827714  73.7556643  10.9205529   0.5864986
   7.5591660  69.7339916  45.4796600   7.0793509  70.5444431  45.3088474
   8.4746766  69.9578953  45.3125095  87.2473570  71.0998869  57.2344351
  87.4475582  71.3646412  58.1322432  88.0953570  70.8603048  56.8606377
  16.1784244  61.1401367  30.6325769  15.7139266  61.9355106  30.3720975
  16.2293482  60.6191826  29.8311758  43.4946966  67.4439383  43.1046391
  42.9017353  67.2897053  42.3692179  43.0956459  68.1685925  43.5861588
  61.9140390   6.3947684  29.8530626  61.0348943   6.1615378  29.5548248
  61.7888573   6.7010981  30.7512403  77.1954638  77.0327899  25.3265555
  76.9383425  76.5673968  26.1225017  77.6577181  77.8093859  25.6419261
  75.2375606   6.1992556  67.6100445  74.2864564   6.3070494  67.6137543
  75.4105094   5.5741984  68.3140564  26.4896417  85.1246166  62.5252533
  26.7613363  85.9330463  62.9598379  25.5685997  85.2676678  62.3074245
  21.2533975  82.7094364  56.5572929  20.6816936  82.4514961  57.2803831
  21.5172005  83.6050415  56.7682886  80.9376198  46.4408347   3.5414298
  81.6083390  45.9756037   4.0413650  80.7165021  45.8453604   2.8253682
  89.4655019  66.7458197   6.5272410  89.7380740  66.7781779   7.4442371
  89.9382574  65.9973857   6.1631187  77.1625954  46.1946151  11.9989665
  77.9894001  45.7670447  12.2221645  77.3163086  46.5770861  11.1350711
  92.1056138  13.7396631  73.2165460  92.5240003  14.6001348  73.2444189
  92.4598776  13.2763872  73.9755599  31.1501551  65.7214785  39.2968869
  30.3487086  66.0150576  39.7301602  31.5879488  66.5297413  39.0298939
  63.7228499  19.1697261   1.7080386  64.1444926  19.8102519   1.1351712
  63.9240787  18.3229777   1.3095935  13.1475484  57.7246284  36.0133505
  14.0756369  57.9053736  36.1624002  12.8767717  58.3782578  35.3686190
   6.3505942  75.5889368  57.4994087   7.2508603  75.8206606  57.7275753
   6.0544765  76.3042641  56.9365120  64.1887677  32.3941895  11.1715396
  64.3596919  32.3954198  12.1133597  64.3956282  31.5024754  10.8917411
  87.5103620  21.4562136  71.6619539  87.1417955  21.9259650  72.4101019
  87.1750310  21.9235712  70.8968687  24.1869116  75.6681442  49.9484301
  23.5730147  76.3882780  50.0925446  23.6987042  75.0401545  49.4159651
  53.1464365   5.2692705  74.3102312  52.5221566   5.8205706  74.7820187
  54.0051368   5.5964094  74.5782852  44.9114895  72.4257755  40.6735516
  44.8589087  72.5436592  39.7250938  44.4737053  71.5901423  40.8356810
  31.6481805  80.8421421  35.3940344  32.0448947  80.3571320  34.6704197
  31.0859394  80.2026367  35.8312440  71.7813876   2.1475893  74.7079039
  71.3116267   2.4252421  73.9214802  71.1982468   1.5124041  75.1235008
  28.6240435  53.3927202  59.0296459  27.9532099  52.8249598  58.6503553
  28.1509542  54.1844797  59.2856407  31.4400887  66.8213272  48.7213945
  30.7073283  67.3703909  48.4424210  32.0025325  67.4100876  49.2246342
  53.2998943  75.0175858  64.1726780  52.6314068  75.0173473  64.8577690
  53.4287643  75.9428549  63.9641047   1.4181520  83.5029697  72.3164988
   0.7081697  83.8522720  71.7778444   0.9995018  82.8373241  72.8622770
  37.3553696  70.2950349   3.3828910  37.5140211  71.2381163   3.4236320
  38.1712732  69.9013296   3.6919768  83.3945825  37.8178120  65.0507545
  83.9501001  37.0384240  65.0372553  82.8454258  37.7340531  64.2712402
  84.2523732  24.7732210  45.2658558  84.5534660  25.3792334  45.9428501
  84.9563970  24.1290665  45.1907110  64.3735137  35.5780792  49.5135593
  64.4858613  34.8726130  50.1506853  65.2151575  36.0339904  49.5101261
  78.8321950  34.3229294  68.4505558  79.2672410  33.6373234  68.9574242
  78.9003577  35.1052284  68.9979076  90.6779565  36.5028214  49.8252487
  89.8662608  36.8549943  50.1904297  90.4989224  36.4094019  48.8895941
   9.5233893  59.6188259  16.9307327   9.2618430  60.0368452  17.7511501
   9.6197677  58.6929703  17.1537554  21.9294167  71.7840672  23.6585140
  21.9517517  71.5270805  22.7367258  21.5459013  72.6610613  23.6534333
  85.8803799  17.7936935  43.9117956  86.3985123  17.4309075  43.1933546
  85.0988497  18.1485391  43.4880877  92.7594822   3.0053049  30.9182239
  92.5948494   3.3843428  31.7816257  93.5747283   2.5148684  31.0234475
  90.3440790  19.4660783  68.0699015  90.2420702  20.4175639  68.0922985
  90.4067155  19.2101824  68.9901304   7.4476230  40.4516888  36.3020420
   8.0767757  40.9229803  35.7558894   6.6179073  40.9070110  36.1589217
  71.1027201  55.7968858  69.2411737  70.4786189  56.4309982  68.8881413
  71.7408736  55.6723240  68.5386960   0.6600074  74.4574451  54.5904541
   0.5957351  73.5067654  54.6816111   1.5865818  74.6497583  54.7343588
  14.2561007  45.0513077  51.9477081  15.1663291  45.3402805  51.8828344
  13.9387488  45.0548124  51.0446548   8.2281655  30.8572578  45.9861946
   8.3405805  31.0997176  45.0670576   7.3116535  31.0574627  46.1763430
   3.5828525  33.1281495  46.4942265   3.5800746  33.1732941  45.5380964
   3.7937957  34.0184641  46.7754316  44.1002161  10.7289931  26.2112506
  43.4801072  11.4509055  26.3139327  44.9549753  11.1198708  26.3924678
  69.4251337  41.9472599  24.5721912  68.5681095  41.9371271  24.9983835
  69.9419703  42.5659466  25.0882721  59.4140019  70.4432201  53.4969664
  59.2529382  69.5149708  53.3277178  59.8452987  70.7600641  52.7033472
  82.0282461  51.0185242  39.0122652  82.8592338  51.3794184  38.7033176
  82.2083726  50.7361269  39.9089479  92.8581205  58.9633417  38.3145380
  93.1946105  58.8273382  39.2002630  93.6221720  58.8533306  37.7485394
  80.8805801  23.4694815  63.0081367  81.0855736  22.5452209  63.1493807
  80.0246706  23.4622169  62.5796556  23.5578847  77.9244900  68.7557316
  23.1893349  77.0492125  68.6361694  23.7256145  78.2372284  67.8667498
   7.6520848  58.3298397  74.6257734   8.0686218  57.9404497  75.3946066
   7.6413596  57.6261330  73.9769888  70.6715335  39.0037918  76.8309927
  70.4926624  39.5008087  76.0327387  71.6150274  39.0954518  76.9638491
  81.7927863  35.1661205  63.5844803  81.6327478  34.6502018  62.7942610
  81.7517318  36.0756755  63.2890844  77.8525605  57.6429796  51.8133163
  78.3558538  56.8288040  51.8063879  78.1169118  58.0947971  51.0119343
  68.1459673  83.6851195  66.7520444  67.8369673  83.1734565  67.4996750
  67.4374683  84.3042997  66.5763215  23.4678745  53.1105328  52.4236584
  23.3422422  53.9997196  52.7550173  22.6540661  52.6563549  52.6419926
  88.6783804  16.3082123  58.1982994  88.1883939  15.5107892  57.9976463
  89.1560777  16.5049517  57.3924875  12.9750943  59.4029808  31.9582295
  13.2723582  59.4331932  31.0488605  13.0444658  60.3076839  32.2630763
  76.6578879  29.0045500  65.2910233  76.0964992  29.5414639  65.8503056
  76.0628953  28.3676958  64.8952579   7.0517725  64.4882727  40.3520918
   6.1766934  64.1121626  40.4470015   7.2958529  64.7536898  41.2387753
  85.0958129  22.6709366  32.0768809  84.7395744  21.8043160  31.8811893
  84.9612107  22.7781916  33.0184793   0.4864762  42.8661871  20.7063198
  -0.3361838  42.4354506  20.4740953   0.9522928  42.9569435  19.8750496
   7.8430831  33.8706470  19.7353983   8.6504519  33.7200999  19.2437458
   8.0967742  34.4745374  20.4333878   7.6584858  14.3087494  74.5734692
   7.0587176  13.5835135  74.3987083   8.1833303  14.3828869  73.7764263
   0.1376057  42.4193716  44.1668510   0.8717141  42.3937702  43.5531235
   0.4296229  43.0051851  44.8652601  17.0845878  71.0716105  71.7209959
  16.8549454  71.9964695  71.8111420  16.2912464  70.6601572  71.3781452
   8.9913291  55.7775354  69.8279285   9.5293331  55.5446148  69.0712690
   8.1497896  56.0368919  69.4527245   2.8335488  28.4696412  57.0503044
   3.1346044  28.9820457  56.2999439   3.6169302  28.3472300  57.5865507
  70.0529063  31.7116496  11.0459693  70.2684564  31.2387797  10.2421268
  70.2970231  31.1108824  11.7500384  19.9030483  37.8766751  73.6285019
  20.4202175  37.1580029  73.9921999  18.9964306  37.6455641  73.8306522
   2.3623088  26.0138869  39.2014289   3.2071158  26.2020469  39.6102428
   2.2453570  26.7145371  38.5598326  83.6915638  34.1573739  33.4628582
  83.3074262  34.3871379  34.3089533  83.6194207  33.2039475  33.4180498
  18.8654411  23.8672400  69.5782185  18.9872897  23.2425141  70.2931309
  18.2239878  24.4933581  69.9139929  14.9312973  46.8930292  32.1171069
  14.3432581  47.1215105  32.8369951  15.5163932  47.6463890  32.0374703
  20.0032043  70.0690889  51.1628819  20.1040602  69.3561316  51.7935610
  19.3450379  70.6435776  51.5540552   2.7417347  16.2607202  71.8046032
   2.7858421  15.5853567  72.4814857   2.4286148  17.0400056  72.2638435
  63.6521895  58.9522997  76.6535601  63.3117254  58.8176385  75.7691495
  64.5396860  59.2852572  76.5204359  26.3949347  46.0701466  47.7660227
  27.1098971  46.6772175  47.5749063  26.7453814  45.2085829  47.5399113
  24.1177988  67.2200441  44.1673994  24.8810148  67.7972078  44.1425323
  23.9391255  67.0195103  43.2486534   9.8772609  29.8109579   2.8320321
  10.7124722  30.2720571   2.9097608  10.0410247  29.1264868   2.1832547
  85.9268071  38.5468960  39.5180678  85.4171129  37.8223372  39.8806429
  85.4435124  38.8116312  38.7353969  65.5170861   7.5723168   0.2322705
  65.3904331   8.1965014   0.9468253  65.2755572   8.0585095  -0.5560891
  10.2479684  71.8958998  45.5313301  10.3063452  72.7229738  45.0530243
   9.6866298  72.0921040  46.2814188  13.4559762  53.8669777  51.3908434
  13.0234933  54.1109133  50.5725002  12.8449798  53.2638597  51.8141174
  61.2777236  78.9516702   2.2562106  62.1883658  78.8081088   1.9986137
  60.9928301  79.6950570   1.7247518  76.3592364  29.3395758  33.2160711
  76.2734296  29.6352434  34.1224098  76.4603068  30.1455879  32.7097487
  59.1702261  65.1086664  62.1255398  58.2533469  65.2128315  61.8711424
  59.3934884  65.9322357  62.5592661  89.0474894  55.8307266  46.6433382
  88.3298864  55.3552818  46.2247372  88.6449554  56.2517118  47.4029255
   7.4176675  20.0490141  46.0558271   7.3993623  19.5570624  45.2349281
   6.7265373  20.7039952  45.9580040  22.6414132  49.3144894  70.4857159
  21.8390703  49.8311329  70.4111719  22.3483539  48.4057999  70.4176903
   1.7795935  46.5555954  62.3688459   2.3036402  45.9482718  62.8911209
   1.6011162  46.0809326  61.5570116  27.8467679  58.1036043  24.1581511
  26.9260979  58.0103922  24.4029164  28.0891871  58.9769459  24.4659400
  40.8430788  66.6143814   6.5400394  40.8586392  66.7901984   7.4808200
  40.6178454  65.6864396   6.4734920  80.6883599  85.1933765  36.5424395
  81.2358131  85.5638218  35.8501244  81.2279203  85.2508163  37.3309875
  19.6769583  63.0718708  24.5474601  19.7782421  62.6092958  23.7155938
  20.5709791  63.1794310  24.8721004  20.2079201  20.0598860  60.2053213
  20.8725715  20.2215052  59.5357370  20.5991244  19.3988454  60.7764769
  23.8894606  39.2061281  71.1034584  23.3014297  39.9450850  71.2596464
  23.3351040  38.4327602  71.2074852  77.8246178  31.3106060  65.7303381
  77.7085139  30.4514647  65.3245926  78.7026610  31.5841460  65.4649162
  82.3994448  44.0458345  24.4023037  81.7579414  43.7446690  23.7588692
  82.4756970  44.9864817  24.2423129  56.2499702  11.5873572  23.7702926
  56.3721013  10.8593175  23.1609710  57.1147222  11.9925067  23.8357909
  15.4922891  70.8711433  67.6944494  14.6334422  71.0121202  67.2960329
  15.9460306  70.2883816  67.0855665  67.7482118  73.4918451  42.1813583
  68.4837236  73.1561470  41.6689539  68.0586376  74.3292665  42.5257349
   4.6916395  60.0554037  38.5102868   5.5895281  60.2492619  38.7794495
   4.7716910  59.7622967  37.6025915  14.1891587  31.6448808  57.7707815
  14.5331824  32.1886635  57.0621347  14.3123293  30.7463670  57.4646139
   5.6303829  69.2291021  38.1187677   6.0217291  68.7292957  38.8351965
   4.8461023  68.7341213  37.8818536   3.7093011  39.9580622  16.9456887
   3.9497405  40.1935768  17.8417647   3.0379313  40.5954981  16.7024457
  22.8492785  16.0230970  25.8609056  22.0268297  16.4778566  25.6792331
  22.6126790  15.0956702  25.8724284  71.5744700  18.5747850  40.4911423
  72.3217120  18.6509204  41.0844898  70.8115067  18.5508561  41.0686731
   9.3977457  73.6713409  59.0073919   8.8071537  73.0689859  58.5550690
   8.8315719  74.3833017  59.3053722  62.5857296  39.8896050  69.1045380
  61.9750585  40.4636717  68.6421919  63.3234610  39.7903514  68.5027599
  14.3297637  31.8787289  60.5399227  14.2182791  30.9493637  60.7401276
  13.9906788  31.9743681  59.6499205  58.3748463  11.1289069   1.8857892
  58.2087964  10.4542920   2.5442346  58.1439787  11.9498584   2.3204930
  26.4569902  35.6591320  72.3841810  26.7515612  35.9866190  73.2340097
  26.2191033  34.7466397  72.5484991  13.9429414  76.7977905  38.9026165
  14.8709393  76.8235588  39.1358280  13.5189044  76.3812780  39.6529102
  32.1785019  85.4479495   3.2658656  32.0084484  85.6042424   2.3369535
  31.4151403  85.8125153   3.7137588  14.9217832  42.1498394   9.4007963
  15.0340796  42.7843428   8.6929625  15.6947720  41.5881681   9.3438351
  13.1760216  39.4179440  71.7089987  13.7412357  39.1127634  72.4186659
  13.4916830  38.9525509  70.9344053  47.5785052  15.4661092  74.7375881
  48.2321345  15.7975730  74.1218497  47.4251972  16.1945638  75.3393204
  89.8389756  54.8380232  40.5509853  90.0288655  53.9587688  40.8782148
  88.9686741  54.7650099  40.1592207  -0.1520591  27.3722792  61.6039991
   0.6136706  27.6011896  61.0772228   0.1733254  26.7272139  62.2318888
   5.6856573  48.2145977  35.6361985   5.0962842  47.4606371  35.6566691
   5.2177024  48.8975191  36.1166811   6.4341325  65.2411318  21.1073208
   6.1668032  66.1573124  21.1806202   6.9625485  65.2088833  20.3098464
  16.2674499  81.2262440  60.4957438  16.8817139  81.1520290  61.2260866
  15.4707861  80.7974529  60.8083057  83.3512809  77.9710054  44.3490410
  83.1599631  77.6672745  45.2363825  84.2516651  77.6887512  44.1881895
   4.2508921  67.0088959  60.9613991   3.7147522  67.7909184  61.0926342
   4.2572534  66.5767622  61.8154764  10.1132441  71.3878441  60.9491730
  10.0958359  72.1301937  60.3451443  10.7085431  70.7599115  60.5398417
   2.1316153  82.4130630  33.3315563   1.7959684  81.5325069  33.1636596
   2.3670000  82.4067974  34.2593431  87.5985496   0.4236704  70.5773401
  86.7502086   0.6753069  70.2123308  87.4319284  -0.4093450  71.0184240
  76.6517383  29.9358603   0.8175738  76.3428301  29.7084519   1.6945537
  75.8627910  29.9257800   0.2756389  21.4686227  63.0151606  15.2033174
  22.3996568  63.1776524  15.3549910  21.3025475  62.1686411  15.6181085
  87.8744071   4.3012053  56.6800070  87.4623339   3.8701445  55.9312677
  88.7737673   4.4656473  56.3965607   6.0545832  84.1078854  40.9886503
   5.8303273  84.7593021  40.3241301   6.9054443  83.7672234  40.7125711
  27.9361010  71.6619778  44.3906212  28.7086749  72.1301889  44.7070646
  27.7650738  71.0010624  45.0615740  11.7487168  13.2137084  30.1063633
  11.3016033  14.0503299  29.9783468  11.0419559  12.5830507  30.2441692
  13.6580074  44.1456890  25.6401443  13.3267677  44.1913843  26.5370417
  14.5847392  44.3732119  25.7151937  75.2794494  78.0484486  50.7657766
  74.6011605  77.5586271  50.3007746  76.0996534  77.7624655  50.3636456
  87.6485272  68.2129335  36.9444847  87.0173683  67.8493738  36.3234401
  88.1145229  67.4500418  37.2866488   2.8958231  57.7097702  26.8327332
   2.7528667  57.1728563  27.6121664   3.4045216  58.4572983  27.1468329
  70.2199662  19.5306679  35.7793792  70.1999694  19.9635646  36.6328700
  69.5448959  19.9772593  35.2684386  12.3574507  65.9849167  38.2560658
  12.7626586  66.5554714  37.6029921  12.8530526  66.1493731  39.0582919
  48.3893576  88.5862675   2.2435315  47.4589780  88.3871308   2.1387895
  48.6950377  88.7759390   1.3565047  14.6969199  67.1985006  39.2703056
  15.6249201  67.4094009  39.1674995  14.2809093  68.0378342  39.4669819
  86.9343175  35.7055616  62.6081133  87.0574864  34.7942233  62.3425484
  87.2714653  35.7418561  63.5032368  52.2895339  21.0359007  37.3238564
  53.0172709  20.7913977  37.8955626  52.5465611  21.8820578  36.9575453
  23.0986476  63.2077312  70.9505653  22.7172899  63.7291622  71.6568995
  22.4546766  62.5186968  70.7869625  -0.1936519  32.7828288  54.8702145
   0.7502615  32.8561759  54.7292185  -0.3294310  31.8662596  55.1104212
  43.1105471  27.9223204  57.9381371  43.0608654  28.7612462  57.4799156
  42.3208380  27.4542236  57.6670790  89.1995653  67.5008488  33.7414551
  89.2148580  68.4483957  33.8762093  89.9693423  67.3233461  33.2009315
  37.2402787  71.6818857  68.6122417  38.0746555  71.2128210  68.6073446
  37.4850464  72.6054287  68.6704302  15.7880247  81.6776371  71.2275982
  16.5592456  81.2939358  71.6449976  15.0472045  81.3122082  71.7112017
  26.0832024  43.1681919  39.0134954  26.8612719  43.6361504  39.3165731
  26.3685703  42.2584248  38.9291525  51.6894630   3.0168730  74.2072248
  52.1324781   3.8648802  74.2363930  51.5303973   2.8616434  73.2761812
  59.6917847  72.3783937   7.5297912  59.1298512  72.3343506   8.3034309
  59.6281460  71.5075269   7.1376498  93.1724626  22.7752063   7.0142730
  92.7724988  21.9056794   7.0279868  92.9290849  23.1373784   6.1623176
   2.4070941  73.2207108  23.2184911   2.4135207  72.3806334  22.7597308
   2.9797694  73.7829113  22.6967597  79.7671014  33.7711474  -0.0372092
  79.3246860  33.2596871   0.6402190  80.6994695  33.6554000   0.1458867
  64.7856954  10.5682093  40.5461407  64.4768670  11.1198050  41.2648821
  65.5349544  10.0970846  40.9106684  10.6023622  55.2342463  30.8080935
  11.0830498  54.5159149  30.3967905  10.9649873  56.0248566  30.4085064
  86.6694351  48.9975357  43.2847214  86.5388360  48.0679703  43.0974150
  85.8080276  49.3092680  43.5622692   1.2880319  33.1884408  43.4412813
   2.2109038  33.4417510  43.4606123   1.2790389  32.2907877  43.7734985
  24.1022301  69.9730015  41.9184351  24.7496653  69.5417356  42.4761677
  24.4275475  69.8413038  41.0278988  86.5246805  70.3555536  72.2251368
  85.5975344  70.1286125  72.2967529  86.7711498  70.0801992  71.3421488
  78.2004363   4.9230954   4.7611316  77.5246543   4.2818257   4.5413001
  78.5836751   5.1656911   3.9182075  80.6251027  71.0057402  32.7101564
  80.1298513  70.8264685  31.9108963  80.0180878  70.7964706  33.4200668
   9.6865082  48.6077213  58.0827379   9.0877861  48.0803633  58.6115646
  10.5387425  48.1863165  58.1938505  92.7095111  76.1068630  27.5819468
  91.9946622  76.6564798  27.9031038  92.6967676  75.3391647  28.1535339
  69.7241843  18.1201979  11.6606982  69.5811492  18.1890342  12.6046451
  70.6712014  18.0154320  11.5689643  42.1178395  32.1537730  15.0291904
  42.1274644  31.4204404  14.4140800  41.3387472  32.6561639  14.7907622
  26.2664223  68.3298349  54.4034767  26.1875868  67.7549219  55.1647186
  26.6010094  69.1532469  54.7588301  62.5588812  48.3601952  57.8828382
  62.2127428  47.4715233  57.9645729  62.8863444  48.4080219  56.9846630
  18.7170863  35.5700994  55.2761745  18.5383439  35.4396272  56.2074471
  18.4277868  34.7577667  54.8606586  37.1526995  45.4920679  51.6681099
  37.3748520  45.8713442  52.5184250  37.9062179  44.9453741  51.4454794
  20.4223323  84.7221756  33.2451797  19.7507131  84.5994759  32.5742817
  20.9412622  85.4629993  32.9319215  73.8252452  18.1801611  48.1720114
  74.2719177  17.8326231  47.4000454  74.4964031  18.6868483  48.6292315
  88.7181574  25.2941033   5.5052837  89.2077738  24.9008796   6.2277015
  89.2170579  25.0603196   4.7225459  32.6002216  58.5727215  41.3574696
  32.3524213  58.3944941  42.2646952  33.3018923  57.9481220  41.1737156
  38.7450099  35.4265785  42.6459837  39.2531586  36.2280416  42.7711821
  39.2624950  34.9087620  42.0292950   2.7951106  51.7810726  43.7446785
   3.3236861  51.6591501  42.9560232   2.9599398  52.6871014  44.0057802
   3.5103446  24.4751382  45.4906797   3.3070740  24.5887566  44.5622396
   2.7400210  24.0371919  45.8526707  22.9657316  36.5327263  56.8975878
  22.6782346  36.4036012  55.9937620  23.0684114  37.4805450  56.9831753
  28.2041311  29.8796058  74.8254061  27.5479293  30.2002525  75.4441261
  28.1758928  30.5046391  74.1009998  31.5602511   2.2285563  28.2704020
  31.4047927   1.4793974  28.8455701  32.3773931   2.6107508  28.5904694
  60.3333439  67.3556089  31.4368892  60.4399099  67.2236919  32.3789477
  60.8442154  68.1422186  31.2458873   3.1458282  68.5024166  23.2587075
   2.7939853  68.8802528  24.0647340   2.4025640  68.4899187  22.6556873
   5.5939263  48.0063725  24.8109174   4.6437702  47.8936434  24.7839499
   5.9217590  47.1878099  25.1833582  68.7708058  27.2951698  37.1568871
  68.2971372  27.2147799  36.3289928  68.3332004  28.0130482  37.6144719
  75.4133940   5.1004636  35.5783916  74.4573450   5.0568604  35.5957866
  75.6153059   6.0132217  35.7841468  76.6272881  22.4111938  58.4773016
  75.9934678  23.0049968  58.8796711  76.2754132  21.5367198  58.6437654
  68.3546032  34.6879768  50.3672600  69.0430321  35.3149605  50.1454735
  67.8169026  34.6332622  49.5772457  11.8158853  55.3859758  35.1857638
  12.2345173  56.1560678  35.5703950  10.9812629  55.7107401  34.8478842
  84.6393255   1.4209944  44.2333651  84.8593143   1.1439806  43.3439255
  84.2759660   2.3001868  44.1274261  66.0445728  65.2618647  42.4177265
  66.1390485  64.5379210  43.0367661  65.5141177  65.9079885  42.8839588
  49.3180323  82.1947384  38.5755348  49.5781279  82.9099178  39.1561413
  50.0878763  82.0381451  38.0286837  23.4630704  45.9579134  46.9887066
  24.3962049  45.8154011  47.1473932  23.0631137  45.9149456  47.8572845
  43.5054207  56.9855404  22.8866696  44.0545511  56.7015934  22.1558714
  43.8905430  57.8157282  23.1672001  18.4869695  62.2783136  47.8278017
  19.2936933  62.5097895  47.3675346  18.4976566  62.8198814  48.6169958
  92.9742089  58.9675331  33.3562779  93.3298611  58.1649065  33.7377620
  92.9142173  58.7812471  32.4192977  38.3284463  73.9127827  25.0192642
  37.3837890  74.0624046  25.0576663  38.5878982  73.7844229  25.9316468
  81.1281921  62.2615862  29.8078489  81.4462509  62.1027756  28.9191151
  80.7237496  63.1281471  29.7662210  16.7060649  84.1479015  70.0579023
  16.5666950  83.2295418  70.2890539  17.6442862  84.2100525  69.8787117
  56.5200785   5.4885012  28.3694720  56.0029748   5.2195078  29.1287351
  56.4216927   6.4400965  28.3376431  22.2811007  53.7416029  49.9029589
  22.6620173  53.4440422  50.7291508  21.5995049  54.3613434  50.1629257
  33.9957452  72.5652027  38.6384845  33.1340432  72.3526144  38.9969635
  34.1792917  73.4468222  38.9629769  30.4884267  72.1098709  36.2578893
  30.4866409  72.8431749  36.8731093  29.5671940  71.9872665  36.0286999
  19.9469018  79.0599871  67.3118067  19.7720897  79.9302483  67.6700211
  20.0419021  78.4988403  68.0814266  77.7518918  37.3883700  57.7213812
  77.0611372  37.2062492  57.0842648  77.5603869  36.8049026  58.4556341
  20.1071382  68.1641436  42.6927853  19.1628742  68.0680752  42.8167534
  20.4944587  67.5560284  43.3223963  29.7511148  31.9386601  61.8772173
  29.6175933  32.8861237  61.8504381  28.8739800  31.5766287  62.0029163
   7.8718978  73.9268541  44.1670561   8.5768807  74.5402813  44.3742657
   7.1211243  74.4846773  43.9635754  92.2225097  60.1180124  55.4478168
  92.4215977  60.1231813  54.5115662  91.2960910  59.8817682  55.4943848
   7.3280942  71.7758942  48.0095816   8.0403239  72.3906994  47.8335810
   6.7423934  71.8663263  47.2579098  66.7853017  20.6438026  60.4602246
  66.4372160  20.5703983  61.3488643  67.7344682  20.6838092  60.5773334
  25.1583481  41.6889048  43.3145046  25.9951234  42.1380520  43.4341049
  25.3016067  41.1111832  42.5648689  88.4169575  47.7354860  53.8510227
  87.6968869  47.1845675  53.5440683  88.4625675  47.5675821  54.7922754
   6.7169923  80.9988022  47.8269100   6.4365035  81.3416290  46.9783640
   7.2528076  81.6975403  48.2022810   5.1130790  49.4074869  33.0592990
   5.4132384  48.7933731  33.7293744   5.0205147  50.2403402  33.5219169
  36.3339386  23.5289389  65.0499630  36.0339955  23.5705668  65.9580040
  37.2348359  23.2110506  65.1096439  83.7121751  55.0688934  35.1188684
  83.0070557  55.6021547  34.7518945  84.1729905  55.6588173  35.7154131
  45.4678631  61.8491602  33.6120915  44.7879791  62.5201273  33.6736608
  45.6843090  61.8122864  32.6804113  26.4944339  50.6431866  53.6750031
  26.2720656  50.0503683  54.3928814  27.1456838  50.1645708  53.1621361
  85.5425419  75.2491617  41.3610935  86.2961300  75.0313473  40.8125544
  85.0644215  75.9097815  40.8598852  20.3066587  59.9179602  45.8244276
  19.3721068  60.0236034  46.0024357  20.3513718  59.1921377  45.2020025
  55.7228023   3.8680503   2.2519429  55.5852545   4.4902989   1.5377172
  56.2536508   3.1721589   1.8644317  37.0598245  66.8124342  59.1207647
  36.1307859  67.0054865  59.2466545  37.2143888  66.9754553  58.1902981
  85.0159236  27.1496558  36.7272544  84.8604359  27.2230911  37.6688814
  85.9620627  27.2586775  36.6315103  19.6177137  48.7010098  67.1248674
  19.8483443  49.0564299  66.2665462  19.4349587  49.4718790  67.6620770
  38.4566283  38.2708621  65.3738976  37.7760959  38.7734079  65.8217335
  38.1955361  37.3573494  65.4903316   4.9550223  82.3053837  45.5692720
   4.6256077  82.7311993  44.7778130   4.2131901  82.3172188  46.1740637
  31.2954497  82.8101444  55.5536175  32.0032191  82.1682739  55.6110764
  30.9437490  82.8590775  56.4425182  57.1364167  13.4600550  50.0686121
  57.2054008  12.6158148  50.5143881  56.2629512  13.4535414  49.6771431
  14.7400892  59.6645927  50.6152725  14.4206548  58.7882662  50.8303261
  14.0681648  60.2548456  50.9563780  28.7611127  54.1531181  70.4528236
  28.7375331  54.4373894  71.3665342  29.2685747  53.3416414  70.4674721
  37.3502588  86.7946911  55.6626129  36.6624856  86.4971924  55.0670481
  38.1456399  86.3701534  55.3410912  23.8259149  70.9639788  44.7474670
  23.9651155  70.7673502  43.8210821  22.9716611  70.5814123  44.9477816
  55.5582526  82.4865022   5.6331142  55.2057555  81.6167894   5.8217223
  55.9335783  82.4077907   4.7560962  60.4689264  58.5606003  57.3317003
  61.1399412  58.3660793  57.9860115  59.7607851  57.9462337  57.5248909
   9.3488055  70.1369810  69.2524815   8.7139368  69.6580744  69.7852325
   9.1389549  69.8915052  68.3514071   4.0698379  59.2969179  18.0801809
   4.9540147  59.6015787  17.8761160   3.5040951  60.0354862  17.8550553
  81.9247717   7.7347609  11.8142684  81.1152214   7.2929999  11.5579494
  81.8100494   7.9235551  12.7456267  42.5526571  74.7511721  66.0366821
  43.2457209  75.1884651  66.5313196  42.9945993  74.4018126  65.2628183
   9.4114286  66.0614204  35.0781584   8.4585375  66.0355330  35.1651096
   9.6703804  66.8700552  35.5200601  33.5496378  65.7195997  50.9226465
  34.2341471  66.2024021  51.3858747  33.3699942  64.9634075  51.4813328
  78.3034231  54.0478611  38.5301638  79.1159024  53.6676788  38.1961393
  78.4905734  54.2443657  39.4480920  11.3869766  25.5174929  28.4155917
  10.7382992  25.7729441  27.7597022  11.1461666  26.0150153  29.1970706
  88.3017566  88.4914970  48.2628250  88.4298350  88.3697319  49.2035675
  88.8990142  89.2022800  48.0298090  46.7545524  17.0868594  63.3564138
  46.9949618  17.9835612  63.5895348  47.4547747  16.7952448  62.7725601
  94.3333348  74.5633602  41.9149160  93.4418815  74.4190454  41.5975571
  94.2679175  74.4668055  42.8649855  19.1772951  66.5341535   4.2926200
  18.4963430  67.1659222   4.5237239  19.3919386  66.1005106   5.1185210
  83.3484819  82.6434994  61.8438530  83.6632492  83.5318851  61.6767406
  83.4729864  82.5182819  62.7846241  26.3227844  55.2095747  56.3824940
  26.8377829  54.6160030  55.8359814  25.4329872  54.8587942  56.3444996
  72.9875125  17.6862216  60.9553051  73.5470309  17.6849818  60.1786661
  73.5508933  17.3597276  61.6568995  30.6702065  51.8345594  57.6862764
  30.2909303  51.4756632  56.8840456  29.9161029  52.0176649  58.2466602
  39.0021706  66.9649076  20.9158993  39.1101766  67.7783203  21.4087725
  38.6090398  66.3562584  21.5413785   9.5878035  56.2154484  47.2489452
  10.3100598  55.8110094  46.7683125   9.9966526  56.9271374  47.7414608
  85.6438633  84.7450447  72.0386505  85.1410999  85.2636242  71.4105272
  85.7820787  83.9055920  71.5999699   2.1023068  75.6727982  36.2163615
   1.2031615  75.9817410  36.1053467   2.0136990  74.8382425  36.6766882
  44.1895151  76.0246944  76.4309597  44.5593882  75.2323294  76.0416222
  44.8039961  76.2591410  77.1264315  81.9115688  58.8138914  34.5944142
  81.4504828  59.6186733  34.8309803  82.8367557  59.0198040  34.7280669
  79.0780987  34.4600320  25.3536439  78.6223545  33.8728333  25.9567404
  78.8835468  35.3380775  25.6813884   6.3632721  46.7986059  31.4871788
   5.5905879  46.7111111  32.0453310   7.0760185  46.9976091  32.0943213
  55.7189002  55.0316000  18.2202959  55.1686730  54.4267321  18.7179089
  55.7502713  55.8235884  18.7569559  34.6369672  55.8844185  43.4247732
  35.3901958  55.6115770  43.9486361  33.9562106  55.2444172  43.6326218
  84.5780428  57.4410105  30.3477645  84.2654564  58.2084846  29.8687029
  84.8711510  56.8362236  29.6661830  60.8034672  25.4431248  72.4952650
  60.8965673  26.1739779  71.8841887  59.8802127  25.1975179  72.4360323
  22.9479313  77.4317741  38.2952023  22.8514194  76.9677973  39.1268516
  22.5050068  76.8731403  37.6564693  31.8347359  76.2220621  64.3758631
  31.6093540  76.8889856  63.7272882  31.0830784  75.6294298  64.3811512
   0.6895933  48.9671755  70.6841660  -0.0303405  49.3617630  70.1919985
   0.7822099  48.0903625  70.3115320  41.1504269  35.9492755  47.2963047
  41.5197277  35.5818129  46.4933014  41.0090542  35.1913786  47.8636122
  38.0956578  56.3865328  36.5224528  37.5874925  55.6951189  36.9466496
  38.9238143  55.9667063  36.2897897  79.3201615  50.1758051  46.2516642
  79.4802596  49.7779751  47.1074295  78.7089052  50.8904219  46.4303350
  25.1275110  36.9328380  30.9753942  24.3585348  36.8203115  31.5341806
  25.6752515  37.5615120  31.4454842  29.7915030  48.2569265  23.0241561
  30.4594302  48.2761669  22.3387837  28.9664292  48.1470108  22.5515032
  18.3336115  84.8044872  31.6962671  17.7312696  84.0658188  31.6080499
  18.3363497  85.2158451  30.8319688  59.4493532  62.6897573  35.7508826
  59.2704725  62.9502583  34.8473501  58.8691425  61.9441128  35.9045100
  15.4337660   9.2571265  11.2666595  15.2113131   9.5035464  10.3688717
  16.3855997   9.3480498  11.3111329  23.0863476  56.2980843  60.7944345
  22.1507001  56.2093258  60.9758663  23.1651807  56.1304331  59.8553371
  65.1192922   9.9861237   1.7326768  64.8795702   9.4891307   2.5148280
  64.6012739  10.7889315   1.7909129  60.2545404  79.0726233  47.8957319
  59.4443464  79.2151451  47.4063444  60.8701468  78.7330580  47.2461510
  32.1673846  80.1040459  52.5846577  32.6952577  80.6556988  52.0073652
  31.3091826  80.5276394  52.6018286  10.3847101   8.0737692  72.2720242
  10.1567844   7.5485426  73.0391169  10.7974866   8.8583380  72.6329899
  20.2068400  51.6479492  58.3984470  19.8982131  52.4303150  58.8554859
  21.1411262  51.6045284  58.6020517  53.1532720  18.4532839  60.2056217
  52.9328755  18.3020884  61.1247492  53.7709502  19.1842753  60.2245474
  92.8449204  25.9273410  72.7115536  92.3252099  25.7698703  71.9233036
  93.7163648  25.5964971  72.4939299  38.6021423  54.9455881  30.9473896
  39.0588164  54.6025705  31.7155194  39.1587591  55.6597376  30.6369114
  32.6906800  39.7819328  52.0441532  33.0985045  39.2370439  52.7172089
  33.1269956  40.6299973  52.1257162  48.9038864   2.4199206  36.7525172
  48.8588646   2.6119334  37.6891780  48.3196357   3.0613238  36.3481855
  20.8343315  76.0201836  37.0000672  20.0784254  76.5733099  37.1972609
  20.8323407  75.9431219  36.0459757  32.1767902  55.5310392   9.2203873
  32.9426932  55.0066280   9.4540948  32.4769735  56.0857582   8.5003811
  15.5499852  67.4651957  71.3175821  15.2264154  68.3321428  71.0727644
  14.9230099  67.1506691  71.9688940  35.5634856  77.1968126  32.4635005
  34.7682810  77.3242188  31.9461513  36.0424232  76.5090322  32.0011020
   3.2743314   2.3186594  58.6804628   2.7684549   1.6555983  58.2107067
   3.0279282   2.2023207  59.5980597  21.3227630  69.8229551  44.6195698
  20.6443286  69.8203993  43.9443254  21.0486794  69.1448450  45.2370405
  82.8583871  23.3012971  75.8329664  81.9748091  23.2384357  76.1956884
  83.2764541  22.4752721  76.0761437  21.1282516  86.5352058  39.7328043
  21.5559125  86.4108276  40.5800724  20.7291245  85.6870079  39.5391583
  45.5911875  61.7247534  56.1111736  46.2194014  61.0131598  56.2344885
  44.7450686  61.3394117  56.3388348  74.5731786  12.0042521  33.9228129
  75.4964689  11.8000513  34.0713811  74.2695192  11.3199717  33.3263397
  22.2603583  77.5989580  50.1808834  21.7888308  78.2981634  50.6336641
  22.6372814  78.0240965  49.4105482  21.4513397  69.6200514  40.8159113
  21.0923576  68.8088274  41.1754656  22.2722602  69.7498512  41.2907505
  30.3357577  47.5614166  45.3865051  29.4804692  47.6721859  45.8017683
  30.9011745  47.2343779  46.0862064  11.6149807  50.2527285   5.3721207
  11.8585086  50.4155111   4.4608429  12.0969820  49.4610167   5.6110871
  27.0656443  63.5795450  49.7868919  27.4052024  63.8007545  50.6540680
  27.5799727  64.1165543  49.1841316  65.3874197  54.6038771  63.1917858
  65.8130493  54.9417019  62.4037886  64.5088520  54.3575048  62.9025555
  31.8476605  60.7530022  43.0514812  32.3713326  60.2052021  42.4667454
  31.9454026  61.6385412  42.7014923  65.3686077  39.0083071  13.9455970
  64.9792196  39.7574374  13.4945853  65.8368826  38.5326239  13.2595428
  82.8929200  70.6920481  54.9741602  83.5346927  70.1090908  55.3797674
  83.4139862  71.2741280  54.4210720  54.6664527  67.5532785  18.4724982
  53.8583568  68.0562869  18.5734733  54.4012788  66.6438809  18.6100181
  27.9790092  78.6717033  45.5645132  27.4603581  77.8878689  45.3833008
  27.9038215  79.1979647  44.7685051  69.9343719  30.2496529  62.1109867
  69.8570122  31.1631131  61.8356037  70.2503457  29.7907805  61.3326359
  84.4514533  41.0521603  56.1793184  84.4176843  40.4479408  55.4376936
  84.1207852  40.5423260  56.9188833  85.4604503  73.2364368  60.2647734
  85.7153388  74.1574335  60.3197622  86.2677409  72.7780104  60.0316238
  83.8075139  46.4055347  65.2938223  83.0515065  46.4187479  64.7068739
  83.4429743  46.5956211  66.1582375  42.3171383  31.0020873   2.5398858
  43.1209725  31.4268967   2.2405274  42.6028425  30.1453873   2.8571780
   8.1015033  37.3800611  67.8344536   8.7459970  37.4457788  68.5391092
   7.5449145  38.1507301  67.9462957  29.2754690   2.7885252  58.7787294
  28.5725758   3.3983046  58.5543633  28.9845149   2.3764998  59.5922470
  53.5226154  20.6595039  45.1863527  53.2664537  21.4668584  44.7404861
  53.4443283  19.9805808  44.5161533  31.2204766  44.2464876  58.7505388
  31.5554786  44.6714306  59.5401144  31.0535479  43.3425522  59.0174961
  45.2393055  65.7877874  60.7702923  45.3983212  66.5025282  60.1537752
  44.3870735  65.4354143  60.5138350   4.4862881  64.8247957  46.3936043
   5.1616204  64.5122004  45.7915735   3.6845258  64.3924475  46.0995245
  88.2838680  58.1985807  72.3317909  87.5557895  57.8076649  71.8487597
  88.7864598  57.4504948  72.6542807  26.0560465  44.8576927  27.3346901
  26.3907099  44.5777941  28.1866813  26.4410782  45.7234335  27.1987748
  24.6264386  58.1688833  58.4213209  24.4430876  57.5841331  59.1566324
  23.8059187  58.1995821  57.9293489  63.7440875  15.1998240  22.5978041
  62.9517034  15.3011900  23.1251407  63.4423402  14.7858912  21.7892003
   8.0642259  42.1855927  56.2040329   7.2091877  42.4403811  56.5507698
   8.1684113  42.7131081  55.4121304  38.2353592  43.6433935  10.8872426
  37.9567719  44.2761850  10.2252769  38.3046961  44.1548872  11.6933441
  19.9395049  45.9045076  45.1881456  20.4237008  45.2028847  44.7528124
  20.2344441  46.7046070  44.7533131  78.9298381  48.1691790  13.9265525
  79.2924549  48.4591961  14.7635889  79.0585460  48.9137316  13.3389246
   1.3479484   0.6987006  57.6871061   1.2289251   0.6368548  56.7393541
   1.5253748  -0.1998132  57.9653597  67.8365928  54.5634505  19.5849784
  67.8998149  55.2689502  18.9411433  68.0776066  53.7742373  19.0999206
  10.0089371  69.0909863  29.6018887   9.8369163  68.5466146  28.8335752
  10.9593928  69.2042875  29.6072030  58.4477701  48.1964684  58.9528465
  59.0589394  47.5403070  59.2877483  57.6797380  48.1194067  59.5189047
  66.1904600  22.3307806  44.5603037  65.6714729  22.1733004  45.3490305
  66.8104151  21.6020209  44.5320654  89.8683839  71.2361908  40.2291965
  89.9232097  72.0573139  39.7403359  89.9982797  70.5553102  39.5690799
  44.0768147  86.6424942  30.6287861  44.6145058  86.5864754  29.8388624
  44.5697355  87.2179127  31.2137318  50.8428612   2.4603087  64.7115755
  51.5293864   3.1272703  64.7201395  51.2908605   1.6522223  64.9616241
  58.1679583  85.7090473  42.4352694  57.6822519  84.9568653  42.0968246
  57.4919081  86.3065720  42.7548838  15.8662665  88.5873222  18.6096013
  15.3962052  89.3976498  18.4130311  16.5997732  88.5807228  17.9946566
  28.1522608  65.8975506  67.2876310  28.7134552  66.5421534  66.8566132
  28.7599826  65.3291273  67.7607107  84.5493855  84.5345211  68.3047247
  83.8311829  84.9142265  67.7985287  84.1468432  83.8123131  68.7870264
  80.8729366   9.9155814  61.4502096  81.1167386   8.9914137  61.3983250
  80.5415061  10.1252467  60.5770350  11.2235284  37.1074176  38.2193732
  10.5873287  37.8181672  38.1398916  11.8110609  37.3891759  38.9205527
   9.8287457  53.2557583  74.8509836  10.5994081  53.5561085  75.3327513
  10.1670408  52.5966740  74.2448521  53.2380012   3.3306605  57.4024105
  52.4900058   3.6314017  57.9184437  53.8208273   4.0888411  57.3610830
  83.1961727  65.4913378  66.0873556  84.1110229  65.7722807  66.1060715
  82.6966190  66.2910414  66.2521315  25.9870362  47.9887867  24.0196919
  26.1262989  47.1339083  24.4271493  25.7817864  48.5718679  24.7505283
  62.3387435  24.9023253  32.1475339  61.5517786  24.4007498  31.9346142
  62.0635203  25.4939276  32.8478861  59.3443775  88.1529713  63.2908344
  59.6099854  87.7227688  62.4780560  59.1471815  87.4327469  63.8896799
  28.0620313  83.1224632  39.7355652  27.8892851  82.2439384  39.3970656
  27.2002649  83.5370922  39.7765470  84.1654968  81.2169266  65.9421873
  84.3202591  80.4322720  66.4681149  83.6160469  80.9157181  65.2185726
  23.9522460   6.8348032  47.7845097  23.2973132   6.3405997  48.2775211
  23.7189111   6.6927439  46.8671227  30.5526209  68.7037516  37.3580551
  30.5238414  68.7266016  38.3145499  31.1928201  69.3749142  37.1215940
  32.1436978   7.8772360  43.2244396  32.7130695   8.4604174  42.7224970
  31.7435781   8.4430701  43.8847256  69.8388866  11.8664175  74.0056372
  69.1290549  11.8231398  73.3649349  69.6564654  12.6578909  74.5121098
  76.9240764  11.2025935  54.9801540  77.3156360  10.9901625  54.1329336
  77.5874999  10.9476000  55.6213093  64.1563034  82.4368954  18.1030107
  64.0454769  81.9967747  18.9457715  63.2880878  82.7838993  17.8980231
  85.6928689  53.0728385   2.6594861  84.7622282  52.8776023   2.5498469
  85.7491213  54.0248820   2.5777038  43.2524136  15.4815775  74.5854187
  43.4791020  16.3681608  74.8661423  42.5812796  15.6070143  73.9145422
  47.6430464  73.6729097  73.0442047  48.5774374  73.5375071  73.2017040
  47.5653362  73.7214994  72.0914030   6.6323900  57.6172400  53.4408283
   5.8895063  57.2342968  52.9742336   7.2777885  57.7969122  52.7571535
  70.5688909  13.9450747  63.7900972  70.7299188  13.0042750  63.8621759
  69.6769741  14.0099436  63.4487629  58.9419106  11.1729342  32.2841454
  59.6583846  11.7903715  32.4313593  58.6255911  10.9593779  33.1619668
  79.1226584  53.5300299  16.2791236  79.0950328  52.8966567  16.9962772
  80.0555152  53.6917254  16.1381896  36.4053679  76.9824028  22.0837712
  36.1743975  76.4018726  21.3586044  35.6893182  76.8792534  22.7105618
  79.2835096   1.1568934  43.8497639  78.6921743   1.8333060  44.1799402
  79.0789798   0.3829676  44.3745899  88.3048232  75.2124643  55.9111595
  88.2772680  75.9547329  55.3074121  88.1792774  75.6025457  56.7762041
  86.9272381  78.6459300  10.2467902  86.7709047  78.1590983   9.4376071
  87.0814067  79.5457217   9.9589904  52.0797348  81.4299393  41.8358564
  52.2341156  81.1223888  42.7290583  51.5697718  82.2327614  41.9437551
  32.7633171  15.0354964  50.7752895  31.8441571  15.3019244  50.7554579
  33.1164110  15.4516798  51.5616369  91.7895005  77.2756863  30.5540919
  91.3336932  78.0721951  30.8262110  91.2055026  76.8732786  29.9112511
  34.4003630  63.5008621  29.2064762  34.8709583  62.8325891  28.7082934
  33.9336324  64.0095425  28.5434246  29.8314500  84.0683746  45.3910685
  29.5749068  83.3194447  44.8529959  29.0363812  84.5968151  45.4606962
  33.7716842  58.6474133  62.7978516  33.5965371  58.9022017  63.7037420
  34.7059894  58.8172817  62.6776361  20.9446120  52.2111416  52.8057003
  20.5902982  52.3657560  53.6813641  20.2348161  51.7758417  52.3335457
  54.8472166  72.2293234  51.7885971  54.3055296  71.6006327  52.2656250
  54.2319107  72.9009819  51.4944839  85.0091797  49.4792220   2.2787412
  84.9704653  48.7956378   1.6098245  85.9091550  49.4462535   2.6030763
  92.2220522  54.0586039   3.5879119  91.5207225  53.5355136   3.1996616
  92.9651386  53.4579798   3.6453517  51.8851593  22.9261595  76.2927914
  51.1460987  22.9757029  75.6865168  52.2999790  23.7869078  76.2355947
  17.1170390  57.5186348  31.3033652  17.6425302  56.7202425  31.2517715
  16.8473816  57.5690413  32.2204113  12.7176253  38.9835784   3.5556396
  13.1443040  38.8775489   4.4058974  13.1330220  39.7568843   3.1739696
  88.3285077  30.0894976  70.9507751  87.8588059  30.7821870  71.4153147
  89.2319198  30.4023910  70.9041357  74.0540552  74.8794222  59.3355656
  74.7721529  75.4478836  59.0573311  74.4652939  74.0271616  59.4796705
  73.7006754  44.1657397   5.0561984  73.0347914  43.4919688   5.1935561
  73.2188505  44.9076697   4.6906741  29.6980500  76.1903667  27.7360225
  29.5481920  76.8599796  28.4034014  29.1784549  76.4793587  26.9858646
  83.0935890  50.5012461   0.0996383  83.6609084  50.8033892   0.8089288
  82.4025101  51.1615226   0.0479015  21.6113663  87.6670742  62.0523834
  22.2720504  88.2466412  62.4316359  21.0384202  87.4444771  62.7861500
  23.6522460  82.0994091  29.7481632  24.4642448  81.8161869  30.1684928
  23.2050776  81.2850189  29.5178390  25.3955150  66.5603399  28.7744069
  25.0615835  67.1948957  29.4084930  25.7175708  65.8344746  29.3088531
  13.1072509  46.3449049  55.3837252  13.0732167  46.6366386  54.4727039
  13.7138712  45.6045151  55.3756237  29.1744924  56.1821842  52.7736235
  29.1729140  57.1275520  52.9236317  29.1029286  56.0903120  51.8235350
  27.6596427  59.6044111  34.9401617  27.8057528  60.5466652  34.8562193
  28.4724593  59.2687368  35.3181601  47.0380020  70.5831718  31.0314274
  47.4790907  69.9594116  31.6081405  47.5302792  71.3971663  31.1377883
  16.1868370  86.9186497  20.7862973  15.4646146  87.2655582  21.3100147
  16.3403463  87.5864220  20.1179028  16.3377276   5.7396323  35.5400515
  15.3975740   5.7628161  35.7183933  16.6353420   4.9178225  35.9302902
   8.8281886  18.2574174   7.1325381   9.4476716  18.1867263   6.4062675
   8.0198590  17.8703019   6.7964156  32.4792977  27.8408629   5.8099139
  32.1688391  28.1342417   4.9533063  32.2294507  28.5443312   6.4090323
  19.6024835  72.7665615  17.4809492  18.7372160  72.7273035  17.8883827
  20.1037669  72.0771217  17.9163980  63.2023385   0.7192522  15.6215954
  64.1167715   0.6204993  15.8867180  63.2347945   0.7778364  14.6667421
  40.9473896  87.6826477  67.4107075  40.4104710  87.2567654  68.0789709
  41.2069130  88.5146904  67.8064203  43.3100537   1.6739470  61.5974283
  42.5859228   1.9262797  61.0245466  42.9770807   0.9220320  62.0873117
  23.2720780  84.6385765  52.7996540  23.8900876  84.7534847  52.0777893
  23.6867785  85.0777721  53.5421944  40.0810909  87.2900391  27.5114465
  40.1267433  87.0772362  26.5793180  40.0787783  88.2468510  27.5388527
  49.3230322   7.7489382  76.7144346  48.8316038   7.5521571  75.9169340
  48.7158826   7.5460917  77.4260950  21.4596200  52.8268766  19.5369351
  21.9132042  53.0508137  18.7243187  21.6038942  51.8862867  19.6403873
  93.8316324  48.9030838  11.0095000  93.9332317  48.3467150  11.7817473
  92.9472112  49.2609310  11.0867941  56.2965825  14.9637133  54.5161009
  55.3965429  14.9653536  54.1902781  56.2266114  15.2861315  55.4146433
   2.3859407  63.9244175  59.1029310   1.9839934  64.2741060  59.8981571
   1.9267240  64.3658161  58.3884239  13.3144736  61.5930414  74.2616081
  13.2428443  60.6556129  74.0818167  14.2559361  61.7658949  74.2604017
  48.7810840  74.4039106  64.0991163  48.2850399  73.7899303  63.5576391
  49.6034898  74.5302105  63.6258984  53.0409172   2.1333128  60.5495691
  53.3855465   1.9696909  59.6716785  52.1629051   1.7523009  60.5370522
  71.5848494  79.1962290  61.4518309  71.8102074  78.3153486  61.1526728
  72.3303223  79.7363043  61.1894941   8.4008366  37.4459410  75.7794189
   8.7640351  36.6143179  76.0839224   8.3269548  37.3419952  74.8307514
  38.9884338  29.7317892  34.1025424  38.4028456  29.9464613  34.8286510
  38.7261114  28.8507468  33.8357234  42.2436380  54.7012520  23.9509320
  42.8261328  54.4158745  24.6548462  42.7121353  55.4218864  23.5297108
  29.0199599  34.0670401  34.2899179  29.5489785  34.4094855  35.0104070
  29.6331610  33.5506159  33.7669277  52.8563452  75.6811905  60.7716799
  53.3449411  74.9124193  61.0657835  53.5161686  76.3707542  60.6984711
  17.6215696  74.5090437  31.2856412  16.6646159  74.4925261  31.2997079
  17.8562367  74.0886831  30.4583192  25.0127664  28.2646948  73.9483261
  25.5690578  27.7690131  73.3474350  24.9530921  27.7139384  74.7289324
  39.3265501   3.1741244  42.7792168  38.4160426   3.4019572  42.9671001
  39.6065393   3.8209254  42.1315384  39.7411299  53.6365938  45.6980753
  39.0226030  53.7244940  46.3243532  39.3267012  53.7421179  44.8417234
  43.8424301  25.2917719  31.6593242  44.6328020  25.2895641  32.1992683
  43.1874323  24.8403049  32.1916676  19.4825363  46.4373541  72.1281767
  20.0431776  45.7165718  72.4152040  19.6730971  46.5320063  71.1949205
  50.8073616  78.9967346  62.9353762  50.0389957  78.4419584  63.0697966
  51.1246920  78.7593699  62.0640612  42.9397535  65.9207726  38.1505466
  42.6977015  65.8991718  39.0763831  42.5367594  66.7220736  37.8162599
  50.4490614  56.4670897  24.9847341  50.8320093  56.3895893  25.8585644
  50.3664303  57.4100065  24.8422074  21.0839653  65.9741306  54.6417904
  21.5896320  65.4289913  55.2445793  20.3822565  66.3395548  55.1805830
  16.4687681  77.1246958  65.8305979  16.4429736  77.8294373  66.4778233
  17.3817480  76.8371582  65.8258533  82.1456470  61.2055588  27.1409822
  81.5826931  61.9720030  27.0320225  81.9129004  60.6317186  26.4110708
  78.2882121   4.3292719  63.0220032  78.6004403   3.6460215  63.6152220
  77.3371652   4.3241888  63.1302404   9.9044609  59.8507023  60.8754206
  10.6666088  59.6979284  60.3168344   9.9420273  60.7846642  61.0816669
  59.4468594  67.7831078  19.9739385  59.0193987  68.6245060  19.8140538
  60.0824070  67.9650593  20.6661868  61.1781788  81.9620323  44.5719862
  60.9594488  81.6515446  43.6933565  61.6156483  82.8010654  44.4275141
  24.8329687  61.0953140   5.7715726  25.5516028  61.6618061   6.0524392
  25.2473593  60.2494860   5.6010264   4.6603113  80.6862259  33.8980699
   4.4391564  79.8284340  33.5354161   5.4002172  80.9860039  33.3699560
  45.3473535   1.7649943  21.5378881  45.3353515   0.8889681  21.9234490
  46.2765697   1.9853884  21.4729619  33.5140585  25.4534823  57.8545332
  32.7453897  25.0986677  58.3011723  33.2271047  25.5834776  56.9506598
  37.3411873  11.2440020  36.5239596  36.9777492  12.0971114  36.2865686
  37.5791267  10.8438975  35.6875801  43.3454147  19.8489100  43.6291075
  44.0861669  19.4982630  43.1345749  42.6080671  19.2895418  43.3848572
  32.3838540   5.8855730  71.2411451  32.2697231   6.6822821  70.7230139
  32.1299544   5.1769263  70.6498909  61.7943478  76.9446516  65.0458288
  61.6323471  76.9827652  64.1032076  61.0441160  77.3930454  65.4361105
  20.8388615  64.8006392  67.4110460  21.4928865  65.4893970  67.5297689
  21.3354015  63.9849472  67.4767923   8.5558450  27.6450109  22.1950769
   8.1549615  28.2246685  22.8427839   9.3299723  27.2934890  22.6348400
   9.1602866  42.5867507  10.4684909   9.4426934  43.3276603  11.0047134
   8.2661669  42.4075362  10.7594569  23.6320901  88.3418083  33.9013743
  23.0517411  88.8158703  34.4969320  23.2040262  88.4066391  33.0476832
  92.8349628  61.9472027  25.5530119  93.5037461  62.2475195  24.9375677
  93.1575732  62.2233629  26.4108515  41.8456403   8.3395106  61.2748480
  41.3074711   8.1445223  60.5076551  41.2142781   8.5447985  61.9643879
  29.2211580  62.0814943  63.5435724  30.1708102  62.0639944  63.6622715
  28.8673949  61.9699192  64.4259739  64.9792528  67.1843290   8.6765170
  64.5130205  67.9429483   9.0277392  64.4408703  66.8916893   7.9411674
  24.6504879  65.3366756  46.3784409  24.5354152  65.8673525  45.5901718
  24.2473316  64.4959021  46.1621094  14.6799231  74.4092512  37.1530485
  14.3621910  74.8374414  37.9479885  15.5125833  74.0135574  37.4105978
  39.9118170  18.0227572  31.9142246  40.3276691  18.8770109  31.7978358
  39.0389052  18.2251650  32.2508025  38.2238507  84.3951035  70.4729271
  38.5131598  83.4893131  70.5828142  37.7828503  84.6071625  71.2955952
  44.9874640  86.3907719  59.6308517  45.4667234  85.5703354  59.5149279
  44.2751455  86.3442039  58.9931488   0.8096661  82.2921658  44.2477417
   0.8871853  81.3476658  44.1130781   1.3483086  82.6776314  43.5567188
  88.2880547  70.8049297  42.9091167  88.9585509  70.8212280  42.2261810
  87.5944414  71.3751268  42.5774479  30.9025693  62.7715492  33.6423969
  31.1506867  63.2065105  32.8266263  30.0662470  63.1708145  33.8819480
  70.5751854  33.3993623   8.2522281  70.1741183  32.7977654   8.8794883
  69.8705679  34.0018794   8.0140670  51.1235666  68.6150503  29.1288900
  50.7743740  68.1154633  29.8669338  51.6547680  67.9844284  28.6427116
  65.3437174  43.9833113   7.9394801  65.3490877  44.9245021   8.1137260
  66.1343697  43.8310382   7.4218829  41.0855785  30.6054026  43.7797356
  40.3576103  30.6577498  44.3990517  40.9378502  29.7874266  43.3050442
  37.1527600  70.5956411  46.6100693  37.0814443  71.1588860  47.3807192
  37.9352570  70.0681925  46.7704821  41.7366687  12.2950178  73.3776951
  42.5845960  12.7337366  73.3085823  41.4760271  12.1333605  72.4709654
  49.4602156  83.4528732  23.7437510  48.6491203  83.0969715  24.1066527
  50.0010395  83.6454964  24.5096707  57.8326348   2.4402148  70.4829979
  57.5107291   1.5504462  70.3383446  57.3291329   2.7581984  71.2323999
  87.1742346  54.4557810  43.1245184  86.4239808  54.8781681  42.7062559
  87.5290026  53.8758755  42.4506617  34.8225117  53.1789827  46.9100380
  34.3592072  54.0156841  46.8711519  34.1275644  52.5222111  46.9540071
  25.6638026  84.4778824  29.5581603  25.1988053  84.0086174  30.2508307
  24.9908948  85.0140476  29.1386890  19.5509365   2.8053957  49.0992403
  18.9379409   3.1265265  49.7605562  19.1270784   3.0025297  48.2639503
  17.5441706  69.3325281  49.9410343  18.0847728  69.8069286  50.5726385
  17.6675200  69.8048830  49.1176891  80.1632264   6.9894034  25.6417942
  80.8131269   7.6337439  25.9222889  80.1024583   6.3760668  26.3741660
  89.1536287   3.8654524   1.2514755  89.7913364   3.2412726   1.5978354
  89.6838191   4.5886809   0.9167206  11.4504349  64.0439034  57.1949053
  10.9486926  64.2895222  57.9721832  11.0438478  64.5363569  56.4818811
  86.7921120  27.4515769   4.9581988  87.5153858  26.8699118   5.1922305
  87.2148639  28.2072064   4.5501121  37.1779799  56.6520548  50.9864473
  36.9060206  56.1459064  51.7520046  37.7654457  56.0665894  50.5085897
  64.8133734  23.7741572  40.6431103  65.3940132  24.5334250  40.5920935
  64.0640953  24.0795714  41.1545181  87.8059967  71.8627644   1.3267678
  87.7695992  71.8187618   2.2822627  88.7380137  71.9486904   1.1262888
  86.2412228  56.9259501  47.7022791  86.3321962  56.6637039  46.7862129
  85.7708814  57.7588940  47.6673889  37.2936177  54.1027355  46.9934273
  37.1446276  54.8247147  46.3828707  36.4199257  53.8716316  47.3088455
  39.5724154  81.4548969  55.1002073  39.2250538  80.5734062  55.2363586
  40.3704977  81.3215065  54.5888376   9.1520895   0.3905684  46.5848589
   9.3776382   0.8218962  45.7606506   8.9113916   1.1071020  47.1721268
  23.5287473   6.1506373  22.0983577  22.7891657   6.3656718  22.6666999
  23.9933112   6.9799334  21.9857430  60.8817028  50.1201400  69.3641685
  60.4920496  50.1055965  68.4899883  60.3278981  50.7204876  69.8632876
  55.2298334  17.3121363  73.9878654  55.1905826  16.7611510  74.7695971
  55.4573015  18.1811339  74.3185091  63.9511051  67.7671576  55.9361839
  63.9334573  67.9562330  56.8743610  63.0295863  67.7506876  55.6778002
   8.2593536  86.7888737  38.3620381   8.2155204  87.1230507  39.2579389
   8.3760798  85.8443260  38.4641743  82.4005407  48.8180300  14.1355594
  82.1440596  48.7727687  13.2144721  82.0475525  48.0166671  14.5221313
  41.7330197   2.4919039  67.7902222  42.2180477   1.6676909  67.8308582
  41.6060963   2.7405077  68.7058163   5.2808301  82.7644965   3.8739474
   4.5749943  82.3726317   3.3596786   6.0327379  82.7724883   3.2816585
   2.0301673  71.8679580  76.7168920   2.3822877  71.0216102  76.4413323
   1.2247893  71.6508922  77.1864446  34.1608667  51.0089350  29.6428800
  34.3415999  50.1017427  29.8889947  34.7375989  51.1741972  28.8970256
  76.4113468  36.5689418  18.6752875  77.3424810  36.3502166  18.7124427
  76.3919002  37.5240084  18.6145671  31.5544741  27.5847918  63.4771013
  32.1664406  28.1619841  63.0204010  31.3807977  26.8789488  62.8543139
  68.5334519   3.1581217  41.6408205  67.6826862   3.5690600  41.4873075
  69.1599444   3.7330824  41.2013149  26.8846333  14.6941000  32.1829128
  27.6905793  14.2838675  31.8692327  26.9246227  15.5891520  31.8459916
   3.7319461  75.9569359  34.0688992   3.2539251  75.8230495  33.2504845
   3.0656165  75.8765221  34.7513723  93.2069051  65.1537991  63.1697941
  93.2722302  65.8960009  63.7707090  92.3007347  65.1737976  62.8620815
  92.6824700  51.3899374  55.6215477  92.3741778  52.2279787  55.2767706
  92.6851541  50.8054876  54.8634911  28.3166194  69.3525267  36.0588765
  29.0710902  69.1201639  36.6001821  28.2050848  70.2934551  36.1947107
  35.8200192  59.4647074  59.2919636  35.7152748  59.5921230  60.2348423
  36.7202544  59.1556263  59.1905880  53.7523845  17.2054964  53.4797430
  52.8230551  17.2872073  53.6939907  54.1395310  18.0297667  53.7745810
  41.6937828  67.2339153  53.9539337  42.0204020  67.9970407  53.4772921
  40.8024025  67.1110868  53.6274624  55.5112890  11.1232668  14.3698084
  54.9302510  11.8153197  14.0540886  56.3737038  11.3605791  14.0289927
   5.0779915  56.3964510   6.9846010   4.7807515  57.1882629   7.4328387
   5.2132958  56.6710997   6.0776877  27.2132421  64.5771456  46.9441986
  27.3522043  65.2973557  47.5591898  26.4114714  64.8122978  46.4771891
  67.3061851  14.9437147  33.7176967  67.4755028  15.8712775  33.5528088
  66.6453532  14.9402815  34.4101715  80.6409362  18.4685808  32.0142937
  79.8477891  18.9894682  31.8884706  80.3278163  17.6384455  32.3735452
  40.3982353  53.1395340  38.6969280  40.9061909  53.4544230  37.9492283
  41.0441780  53.0243397  39.3938637  92.0493259  65.8667994  22.2568178
  92.8545730  65.7825899  22.7674222  91.4161875  66.2428617  22.8683281
  51.9071341  31.6501045  60.4328060  52.3682165  32.4281764  60.7462406
  51.0750246  31.6580009  60.9058475  41.4360476  86.4695072  62.5211430
  41.2310743  86.5596581  61.5905046  41.8181849  87.3125553  62.7649927
  36.1303425  76.1126232  70.9450769  35.3984118  75.5916071  70.6148386
  36.5114760  76.5126514  70.1634407  89.7030457  56.8710232  19.9475777
  90.6057449  57.1623182  19.8190773  89.5828294  56.8754292  20.8971882
  42.6057759  35.0408179  75.8843946  41.8471292  35.4379469  75.4566431
  43.3561495  35.3509432  75.3774500  89.2178561  55.8811235  70.4725933
  88.3803703  56.2646198  70.2122498  89.0606548  54.9369335  70.4680586
  52.5195435   4.0475375  14.7158158  52.3852185   4.1681868  13.7757981
  51.9136551   3.3466154  14.9563241  23.0620289  40.0579166  39.8501253
  23.1102371  40.3430223  38.9376450  23.2517958  39.1202545  39.8184276
  89.4990303  49.6595860  46.9842386  90.0882976  50.3151798  47.3573256
  89.9851113  49.2934513  46.2453842  44.9232197  58.2738209  20.1023269
  44.9990320  57.3970556  19.7258067  44.4409132  58.7757540  19.4453073
  86.9348832  80.6851482  53.5917377  87.1936419  81.2768650  52.8852367
  87.1836032  81.1457634  54.3931150  50.4891014  82.4811935   6.3467920
  51.3105106  82.8171158   6.7054963  50.2260208  81.7914104   6.9560754
  28.5032344  73.1275129  19.6556509  29.1844583  72.5184107  19.9405348
  28.7686467  73.3882523  18.7737179  18.9658499  70.7602739  73.4675121
  18.3437800  70.6713867  72.7454615  18.8038826  71.6366768  73.8166761
  31.9662206   5.4779822  38.6788917  32.4562588   5.5080801  39.5005918
  31.5627548   6.3431650  38.6088085  56.7579249  17.7835375  63.4986925
  57.6669124  17.7830225  63.7986469  56.5708497  18.7016207  63.3028603
   4.5680028  55.7670641  61.4441872   4.0563890  55.2063751  62.0273781
   5.2097273  55.1778841  61.0475874  18.1753099  49.4792938  71.4135027
  18.6473680  48.6782742  71.6410112  17.3827779  49.1732073  70.9725523
  12.3921800  58.0009556  69.9376297  12.4024522  58.7004280  69.2842817
  12.0267737  58.4108782  70.7216454  51.1717224  74.2023659  66.3251495
  51.0203552  74.9664783  66.8814325  50.3304148  74.0486383  65.8952570
  33.6964655  59.2165804  50.2335691  33.5462666  60.0535011  49.7939777
  33.2748008  59.3153334  51.0871935  52.7227667   7.0519358  43.1505632
  51.9516018   7.5696570  43.3818769  53.4427741   7.4709708  43.6219788
  38.1179205  21.7909056  27.4852633  38.6664602  21.9341093  26.7140126
  37.6792154  20.9572226  27.3157072  27.4057198  52.7209616  39.5769358
  27.1831727  53.6519194  39.5721412  28.1529522  52.6563883  40.1716661
  41.0742426  77.9591274  52.6575899  40.2037954  78.3223104  52.8208399
  41.0564661  77.6992941  51.7365026  29.9616809   7.2288996  50.9916019
  30.8563638   7.3173720  50.6630516  30.0609878   6.8122202  51.8476105
  23.8129163  43.3369875  60.9128094  23.6287856  44.2036581  61.2750435
  24.7306490  43.1758356  61.1319733  26.1278057  54.6271515  71.5376663
  26.9263482  54.9203110  71.0987854  25.8849525  55.3578663  72.1062660
  55.1204252  67.0514536  68.1989670  54.9067450  67.9789829  68.0976582
  55.8514690  67.0401764  68.8167667  89.2140927  75.2355480  42.8055096
  88.9539941  74.4216824  43.2370186  89.4895496  75.8085823  43.5210466
   5.9064409  42.1429214  76.5025338   5.9343979  41.7910347  75.6128002
   5.0171229  42.4840316  76.5973558  64.8665503   7.1911913  55.9438515
  64.3990567   7.9830653  55.6781244  64.2807725   6.4742667  55.7007170
  76.3932477  84.6064529  66.1718969  77.1245025  84.9032650  65.6302313
  75.6617187  85.1678905  65.9152202  38.9884686  83.6992836  16.1955988
  39.3405056  82.9815865  16.7221117  38.5997343  84.2967319  16.8344772
  28.5496140  58.2552147  76.0415983  28.1876802  58.2104492  75.1565933
  28.6989570  59.1885948  76.1923647  50.0604630  81.3025093  22.2633767
  49.2416096  80.8460712  22.4566960  50.0012779  82.1202183  22.7574301
  59.6147203  74.6835470  59.0210009  59.2155266  73.9350891  58.5775042
  60.0112629  74.3115568  59.8087883  84.0088882  78.1564474  65.6008005
  83.0908563  78.2851839  65.8392859  84.0744366  77.2238827  65.3952217
  63.7491229  23.1281287  64.1204786  63.0187109  23.7398630  64.2127848
  63.5262635  22.3997790  64.7001886   0.1660681  86.9122601  76.4392233
   0.0050124  86.1264706  75.9168816   0.6494404  87.4945450  75.8531189
  24.9785209  66.3523912  59.4459581  24.4803548  67.0668030  59.8430395
  25.7671952  66.2824583  59.9838543  55.3581381  64.5657492  52.6962471
  54.4943285  64.4999456  52.2891426  55.2629280  65.2590084  53.3493614
  80.3456413   9.9803648  70.8638696  79.7372030  10.7137165  70.9545861
  81.1805617  10.3206882  71.1853026  48.1961253  29.7221667  63.9014101
  48.0515960  30.1094633  64.7647429  47.7334502  28.8848502  63.9340305
  72.2804645   1.4986044  34.9020910  71.9773153   1.0310370  34.1238141
  71.6072467   1.3286692  35.5609775  88.9938072   2.7445990  19.4115067
  88.0974010   3.0796152  19.3901265  89.3163017   2.9787165  20.2818036
  28.0966496  86.3184452  59.5921087  27.6152539  85.6474972  60.0761747
  28.9011335  85.8814049  59.3127680  52.0975545   7.2553927  53.1041241
  51.1963788   7.5266367  53.2788897  52.0108345   6.4719778  52.5610209
  35.2017879  80.1840210  71.0968065  36.0559654  80.3878021  70.7159042
  35.4046488  79.8169899  71.9572496  26.2050033  65.7603502  14.8811209
  26.4021683  65.1826763  15.6184494  27.0578599  66.0960913  14.6051741
  48.6927846   5.6705290  44.3640232  48.2050553   4.8679835  44.5491648
  49.4297519   5.6491476  44.9744797  40.9284449  85.8351803  33.4964347
  41.2115240  85.5965900  32.6137280  41.5623713  86.4932632  33.7815809
  17.1921337  80.0163460  55.3806162  17.0266426  79.6927500  54.4951057
  16.6454983  79.4669962  55.9424305  47.4038649  72.4913263  12.9348254
  47.6513720  72.1893120  13.8087571  48.0482578  73.1668282  12.7234316
  23.8431320   6.4366633   3.3003321  24.6932534   6.3785464   3.7363908
  23.8753328   5.7621771   2.6219016  53.0475405  17.3962027  50.3802013
  53.1933907  17.1033102  51.2797451  53.1324247  16.6018301  49.8529339
  59.8879674  25.7657343  59.4532251  60.2926615  26.5579325  59.0998459
  60.4309562  25.0508219  59.1211319   6.8628809  61.0042152  75.2591262
   7.8036472  61.1354026  75.3773547   6.7809030  60.0903663  74.9863682
  83.6527494   7.6983935  32.2769928  84.3593791   7.0605284  32.3771548
  84.0548232   8.5381323  32.4992776  52.0588779  82.2249985  53.7244606
  51.9093752  82.5735855  54.6033049  51.6003323  81.3848019  53.7188530
  57.4781179  79.4723940   4.9505278  58.2101917  79.9571943   4.5693862
  56.7183542  79.7404337   4.4336635  84.5718387  21.1752707  52.1817684
  85.2956441  21.5460783  51.6769552  83.7939409  21.6234976  51.8498039
  25.2422523  51.8916607  29.0213633  25.3958225  50.9755516  29.2524338
  25.8219695  52.3853874  29.6013570  72.5724986  13.6224848  74.7115993
  73.4539560  13.7352473  75.0673342  72.1871570  14.4980818  74.7443867
  73.5399965  16.6630846  43.7624788  74.0650037  16.0569674  43.2397699
  73.5795406  17.4899775  43.2819557  48.4796050   1.7288405  33.4049678
  47.7846125   1.1301810  33.6785197  48.2928911   2.5425249  33.8732362
  30.5854321  64.6478128  50.5442286  30.0766516  65.3538847  50.9427691
  31.4102364  65.0613070  50.2893686  23.7848496  88.4700966  74.6899271
  23.1763220  88.0382824  74.0903759  23.2446337  89.1001320  75.1668501
  62.4939540  12.5512987  51.9636583  63.0182555  12.8971678  51.2413597
  62.4803069  13.2577235  52.6094246  40.2549675  12.1572787  42.8155708
  41.1674544  11.8695742  42.8443098  39.9965546  12.0432001  41.9010019
  34.9660206  80.3624821   7.5309557  35.7836080  80.8282757   7.7065015
  34.7933507  79.8707819   8.3338547  88.1734623  84.6558952  65.7981205
  88.5296502  84.7108936  64.9113655  87.6463791  85.4491138  65.8941460
  28.0065584  71.4581919  76.7684841  27.5598669  71.4444494  75.9220171
  27.3088932  71.6143751  77.4049568  72.2824052  26.2110239  15.0269008
  71.8830350  26.1599928  14.1584945  73.1685642  26.5343386  14.8643672
   0.4549919  55.9650087  48.7839842   1.1852630  55.3569698  48.8989925
  -0.0979026  55.8233547  49.5524073  23.5685253  86.2415600  35.4976749
  23.5222816  86.9877911  34.8999786  23.5088468  86.6297913  36.3705730
  12.5637901  87.5710106  25.7332373  13.4291327  87.1891880  25.8802795
  12.7361059  88.3703232  25.2356100  66.2611777  40.6461856   3.1164058
  65.5855137  41.2551352   3.4145625  66.9351650  40.6852862   3.7949641
  66.5910244  56.6953278  73.3697414  66.0224819  57.3656082  72.9906416
  67.2006178  57.1834230  73.9232683  64.4338751  81.3054752  57.9403019
  63.9802647  80.4966927  58.1776476  65.2479029  81.0122490  57.5309038
  38.4233990   2.3922068  58.6631441  38.1599590   2.6364809  57.7759218
  38.5829136   3.2267577  59.1039515  65.5263356   5.4621226  69.6976900
  65.0746587   4.9502283  70.3686476  65.9953669   6.1378199  70.1872587
  13.0309641  76.0005045  73.3560801  12.8900862  76.1496782  72.4211311
  12.8672147  75.0651646  73.4767294  34.7197700  61.6901827  33.8018560
  34.6477795  61.5702581  32.8549314  34.7777104  60.8012676  34.1521406
  11.6092753  68.3901119  51.6766405  12.3361874  68.6986828  51.1357021
  10.9178090  68.1773138  51.0498857  18.4136474  27.7138042  44.3661451
  18.1426299  27.9044724  45.2641582  18.6211169  26.7793775  44.3718576
   1.7437741  47.0856437  74.1677580   2.3652288  46.6795692  73.5634966
   2.0359251  46.8062267  75.0354013  87.2342685   2.5521094  26.0694742
  86.5033677   3.1315333  26.2846065  86.9337228   2.0613009  25.3046131
  13.5254267   6.7191988  38.1179094  12.6408950   7.0844561  38.1384254
  13.4593669   5.9644133  37.5329661  19.4133067  66.5118170  51.0283613
  19.0330136  67.3452759  50.7509565  18.6647904  65.9936237  51.3240480
   6.4399183  76.9250917  71.5484190   6.5737468  76.2390280  70.8944798
   7.2273159  77.4664545  71.4921856  90.3455117  19.4933420  37.6975179
  90.5756334  20.1130682  37.0052671  91.1645225  19.0384013  37.8936791
  45.7078266  69.0219021  63.0518675  46.0850286  69.4854212  62.3041344
  45.2362013  69.6973562  63.5392761  92.9422811   5.6847674  68.2538891
  93.4696010   4.9481493  67.9447556  92.0388845   5.3738123  68.1954479
  64.6210054  54.4773489  53.6743212  64.8090771  54.7030741  52.7633286
  65.2483156  54.9912840  54.1828299  82.2949651  29.0662009  70.4568672
  82.2842363  28.4167963  69.7537422  81.6808799  29.7414976  70.1685953
  90.1621965  10.8594042  25.8170271  90.9707502  10.4652983  25.4896855
  90.0499776  11.6496855  25.2887440  66.2512541  80.0272369  28.3827925
  65.4152918  80.2556610  28.7892628  66.4761066  79.1764212  28.7593293
  63.8185647  13.0586344  66.9318962  64.6223691  12.6602751  66.5980673
  63.2732037  12.3160940  67.1916008  55.0737479   9.3786341  25.0818634
  55.5065349  10.2308565  25.0303173  55.7904795   8.7444788  25.0627160
  72.6243782  48.7047386  15.4989445  72.7599621  49.5907164  15.8349490
  72.4646997  48.1743479  16.2795973   6.6719788  87.7772045  24.9559593
   6.1448020  88.4117603  24.4705200   6.0307443  87.1954632  25.3641653
  68.1071952  20.7934862   8.1866360  68.4906677  21.2318713   8.9462364
  67.5417522  20.1175886   8.5603577  41.3087461   7.4751860  58.8082075
  41.3850102   8.0142504  58.0209160  42.0342627   6.8540675  58.7444019
  25.6066439  21.1277872  32.0686960  25.4229400  21.7728621  32.7516031
  24.7656629  20.9964472  31.6308236  75.9996319  58.3481503  35.4087615
  75.8570910  58.6011982  34.4966865  76.2275934  57.4194384  35.3668332
  40.0744739  10.2932173  52.7911615  40.8360645  10.8613497  52.9071188
  39.3399230  10.8969218  52.6806688  84.3860057  14.7947317  54.0774727
  84.1213039  15.3623205  54.8013544  83.8926366  15.1206976  53.3247662
  63.3788872  70.7819700  52.8024769  62.5784922  71.1611462  52.4394083
  63.2231569  69.8375940  52.7909660  44.4065952  56.9209337  14.2772591
  44.0081692  57.1326351  15.1214564  44.2161369  57.6795912  13.7255430
   6.0117782   4.0383154  32.9847479   5.6986536   4.4122702  33.8083649
   5.8569015   4.7247416  32.3358464  17.5761700  73.2974529  41.5330124
  18.2484722  72.6291895  41.4000845  17.2507679  73.4881544  40.6532526
  90.1085666  26.7650133  56.0197973  89.4254068  27.4308211  56.0987282
  89.7723249  26.0171324  56.5136003  15.1023245  72.0914078  24.3141675
  15.3811526  72.8336239  24.8504543  14.2578554  72.3608112  23.9528823
   7.8033358  65.6259060  47.8356218   7.8703189  66.4851236  47.4190998
   8.6506385  65.5001116  48.2628059  70.3329495  23.6811262  59.7523785
  70.2356604  23.2962900  58.8813639  71.1750296  24.1351515  59.7209311
  59.6182612   5.4584891  24.6237469  58.7308076   5.7972342  24.7417021
  59.6233133   5.1046187  23.7343764  33.0539767  50.3896090   1.0903676
  32.8743760  50.6212565   2.0015843  32.2965400  49.8696849   0.8216508
  45.9024572  71.5841579  45.6605101  46.5578508  71.9806480  45.0865030
  45.5797720  70.8284950  45.1695156  46.9041875   6.8746191  59.1824627
  46.7809716   6.1234385  59.7627926  47.1483687   6.4895541  58.3408356
  75.5882123   3.5133654  37.9617500  75.5653098   3.9536864  37.1121478
  76.0604146   2.6974112  37.7959824  10.5824149  73.1736135  25.3133082
  10.6617045  74.1037941  25.1018572   9.6879101  73.0777168  25.6402588
  27.0554233  56.7667055  11.5140045  26.7858553  55.8756208  11.7365611
  28.0056381  56.7112541  11.4127767   5.6070381  51.1526489  37.4318051
   6.4568746  51.1579037  37.8722405   4.9772301  51.3533401  38.1241179
  56.7800331  61.1973000  40.3776550  57.1971369  60.4761982  40.8491087
  57.0043898  61.9770336  40.8855057  19.0067686  14.7193056  45.9917402
  18.4172929  13.9655596  46.0164595  19.2883123  14.7733313  45.0784779
  16.7384183  46.6001034  28.4897423  16.0908771  46.2029743  29.0721607
  17.3457181  47.0493364  29.0776277  23.9493775  77.9532194  30.9889531
  23.2770562  78.1767464  30.3453279  23.9182234  78.6672544  31.6256738
  49.8427604  82.9161954  70.8755398  50.7683026  83.1574565  70.9129190
  49.4116663  83.5271454  71.4731407  73.0996989  82.2257930  33.1747437
  73.4487211  83.0773252  32.9114795  73.7813031  81.8492949  33.7314272
  88.7894960  76.5168381  15.7626557  88.5312029  76.2060499  14.8949409
  89.6005084  76.0458565  15.9541428  32.4886036  71.0218433  60.6327526
  32.5802370  71.9746211  60.6256859  33.3511427  70.7002095  60.8950714
  84.1460206  33.2128215  47.7891016  84.7705956  32.5521541  48.0885267
  84.5687701  34.0487289  47.9860067  -0.0329516  25.4486561  40.5269051
   0.7842762  25.6738710  40.0823307  -0.3356931  24.6557117  40.0843954
  90.6811579  22.6670384  44.4824791  89.9043058  22.3231673  44.9234867
  90.8317356  22.0620632  43.7561464  42.9836130  32.5109196  70.4459238
  42.9552984  33.3333659  69.9570322  43.4328890  32.7324820  71.2615776
  23.6205721  17.8228843  27.9615664  23.7353182  16.9811308  27.5205255
  23.1457114  18.3619523  27.3289967  21.9188094  17.8060353  60.6835127
  22.3493743  17.3513687  61.4074755  22.6375175  18.0979741  60.1227427
  78.8097550  18.7358081  18.2164884  79.4292738  19.2261648  18.7568402
  78.3097460  18.2110560  18.8416755  31.6757011  11.6360033  72.6680994
  32.3317027  12.2303176  73.0323601  30.9402323  11.6879177  73.2785273
   4.1716594  57.0907211  40.7457399   3.7686533  57.5943995  40.0385475
   4.9883574  56.7617512  40.3702164  26.0473537  21.8368077  61.9169569
  25.6440377  22.3761034  62.5971985  26.9843960  21.8694568  62.1096134
  92.2647290  16.4991629   3.2383886  92.5270322  16.0512030   4.0426028
  92.0700537  15.7922685   2.6230580  34.1929999  43.8543090   7.4841579
  34.9859300  44.3299289   7.7317031  33.8818759  44.3008150   6.6967090
  85.8781530  32.2693896  51.2970734  84.9899985  32.0409536  51.5713501
  85.8592757  33.2206583  51.1923504  18.9981019  29.6815038  31.8499804
  18.4720719  29.0160275  31.4065075  18.6504865  29.7066927  32.7414727
  52.6883243  68.3207196  43.9809752  52.4889277  69.0380007  43.3793259
  53.2003366  67.7042907  43.4574413  82.2396531  25.7633972  62.5294447
  81.7233469  26.5411282  62.7410889  81.6901471  25.0291896  62.8036976
   0.6054028  24.7078538  31.7233539   0.0517042  24.5588112  32.4897981
   0.0691958  25.2466679  31.1416388  82.7070271  74.4167525  67.7548933
  83.6450325  74.2697221  67.6334143  82.6455592  75.3146964  68.0807018
  85.7753237   5.9417826  32.6567745  85.8425494   5.0379753  32.3488069
  86.6561939   6.2991709  32.5446463  81.9701173  42.6640892  55.9228849
  81.5527560  43.4619045  56.2477303  82.7251520  42.5377417  56.4975071
   0.6579748  59.1220284  17.5002432  -0.2199913  58.8223314  17.2644675
   0.5088904  59.8917341  18.0493844  38.0212374  65.4425171  73.7871076
  38.6887701  65.4595903  74.4729215  38.4557571  65.0308803  73.0401276
  73.9017858  41.3209867  40.9260559  74.1752257  41.7431593  40.1116657
  74.6209409  40.7270288  41.1411333  70.1755943  25.4301262  39.9481654
  69.4809856  25.0369453  40.4765224  69.9976816  25.1298141  39.0568781
   3.7582371  87.9837088  17.9809344   4.6178767  88.3763575  18.1328547
   3.8980433  87.0451423  18.1065488  33.7368011  28.6998463  39.6812558
  33.5138988  29.3317986  38.9977479  32.9496789  28.1637836  39.7777367
  55.8441662  77.3803538   7.1593559  56.7936515  77.2616357   7.1841472
  55.6991671  78.0030543   6.4469993  62.3993812  88.2481583  28.0034232
  62.1284081  87.9749763  28.8798809  62.4892089  89.1990768  28.0660105
  90.2643760  44.0344477  13.5052383  89.3224700  43.9128590  13.6246598
  90.3495195  44.3925714  12.6216483  12.7607083  53.0690241  24.5602727
  13.0410457  52.7860403  23.6898923  12.4667370  52.2658730  24.9901152
  79.9250235  33.8003373  10.5547237  79.6086754  33.1177950   9.9628699
  79.9842705  34.5833755  10.0073934  78.2950999  20.1560426  53.4819603
  78.0989136  20.2099609  54.4172859  79.2462864  20.2502275  53.4309292
   0.5739314  34.1925621  46.4484406   1.1101390  33.6622071  45.8590031
   0.9566968  34.0497589  47.3140764  36.0922432  39.9797010  36.7412472
  36.3619328  40.0206995  37.6587534  35.6432223  40.8107090  36.5862226
  63.0603232  33.7867236  29.4017220  62.1342744  33.6200309  29.5774436
  63.4039273  32.9431295  29.1075778  85.7227155  12.5533199  67.8032207
  85.9312346  11.6431022  67.5928545  85.9851827  12.6538479  68.7182283
  21.9435024  16.0671759  52.1238279  22.7151108  15.9095848  51.5797520
  22.2503662  15.9301317  53.0200911  10.0176632   1.9342917  41.3459492
   9.7414082   1.8899924  40.4305506   9.2000192   1.9258286  41.8435621
  83.5170271  61.1506510  20.8263040  82.5928261  61.3461542  20.9807777
  83.8695898  60.9581518  21.6951394  19.1170955  13.0629170  31.2466002
  18.3602631  12.9581273  30.6700087  19.5087516  13.8943255  30.9790254
  87.3716294  85.1501816  30.0473356  87.8458749  84.5795387  29.4426107
  87.9314243  85.1957789  30.8224344   6.7372912  37.1689439  41.1522341
   6.0376400  36.5650010  41.4011812   6.8771815  37.0022607  40.2200937
  47.5772880  81.7167383  48.9756823  46.7691599  81.8830615  48.4904003
  48.1143867  81.1987382  48.3761549  28.8532114  42.7992535  36.1652279
  29.5833206  42.3298788  35.7616687  28.2220721  42.9164362  35.4551840
  83.4688928  67.8039408  58.1374645  83.3505847  67.2069550  57.3986530
  83.9163901  68.5627222  57.7629948  17.6091790  15.9428596  33.3251715
  18.3024442  15.6123090  33.8964438  16.9365120  15.2621949  33.3463192
   5.5672854  21.7719460  52.2317028   4.8370373  21.3099384  52.6434278
   5.2265966  22.6487350  52.0544815  27.2293043  42.3934031  49.5233774
  26.6012168  42.3735714  48.8013363  26.7028761  42.2192049  50.3036118
  75.6205096  60.6808805  16.2164593  75.6044592  61.6220570  16.0428035
  75.2698006  60.5948734  17.1029341  28.9208865  60.9727049   8.3494806
  28.1236339  61.4424706   8.5943127  28.6079168  60.1886606   7.8983074
  10.5584776   6.3485903  45.1798582  10.1238000   6.2181550  44.3370819
  11.3955438   6.7559421  44.9571133  57.9513581  53.1242004  74.5843655
  57.3341115  52.4549273  74.2888780  58.0061038  52.9980388  75.5316342
  32.2566462   6.2937027  49.4064713  31.9342875   6.9670773  48.8074064
  31.8947768   5.4760504  49.0648174  84.5761945  29.8471093  24.7867894
  84.6870204  29.5305657  23.8902688  84.9097540  29.1365814  25.3346205
  69.7895088  30.0124502  31.2733221  70.4973116  29.7084570  31.8415070
  70.1857223  30.7078815  30.7483244  84.9593731  27.1766615  15.8723927
  85.7760205  26.8252778  16.2271428  85.1791646  27.4367881  14.9778223
   4.4523719  31.6686916  62.6481676   3.6748683  32.0204067  63.0817747
   5.1847219  31.9798899  63.1801891  36.3683128  30.9133005  50.5443287
  35.9490275  30.6207490  51.3535547  36.5249252  31.8478036  50.6800079
  17.8217506  21.6479921  13.4974837  18.4470403  22.3295188  13.2509804
  16.9661152  22.0713592  13.4276140  77.8085270  31.8498278  39.2274499
  78.6026992  31.4387298  39.5688009  78.1271185  32.5372601  38.6424971
  25.0279140  14.0765810  55.1582003  24.9107623  13.4414244  55.8646584
  25.7846069  14.5973468  55.4273653  43.5474705  84.9238801  62.9829693
  42.8095852  85.4541063  62.6819468  43.5800325  85.0732639  63.9278793
  79.1718986  44.1891050  52.3625135  78.3254005  44.1746140  51.9159031
  79.5979740  43.3748770  52.0946980  82.3682882  44.7623634  27.5173903
  82.4716641  44.3586922  26.6556525  81.7575790  45.4848909  27.3717141
  76.3113894  43.2942486  39.7135997  75.7210519  43.9524364  40.0803757
  77.1350421  43.7618494  39.5751095   8.3705467  30.7889724  38.6601949
   7.8259552  30.7066989  39.4430637   8.3578658  31.7242312  38.4568167
  28.0760431  40.3060436  31.9136930  28.2072592  39.8692918  31.0721111
  28.1931424  41.2364149  31.7215347  32.1571912   9.9320656  32.2494054
  32.7769651  10.6588888  32.3113942  32.1263351   9.5675117  33.1339288
  26.2294364   8.9558136  44.1759682  25.8074331   9.2034221  44.9986696
  27.0634484   8.5684514  44.4416904   7.1309501  10.9879577   2.2181529
   7.6623875  11.5929806   2.7356017   7.7667713  10.4898632   1.7044750
  25.7855439  52.6207304  26.2084675  26.7282343  52.4907255  26.3117504
  25.4009414  52.2110033  26.9833446  16.4911842  27.3697472  38.0625963
  16.0372961  27.6225710  38.8665223  15.8677208  27.5666690  37.3634911
   9.9042064  41.1674404   6.6649789   9.9704766  41.0509539   7.6127505
  10.7715201  41.4737606   6.4000893  76.8378817  83.4802371  45.6272650
  76.1573087  83.0756503  46.1651897  76.3756632  84.1442007  45.1156616
  80.3390028  30.2794647  38.7595725  80.4556443  29.4324946  39.1899991
  80.0831546  30.0596714  37.8637695  89.2051895  31.3186169  56.1502361
  90.1012876  31.3633609  56.4837646  89.0427526  32.1873975  55.7827282
   2.3078664  24.7764564  52.9191875   2.4956609  24.8494244  53.8549471
   1.4738819  24.3084717  52.8780508  28.0980897  30.8612227  49.5915508
  27.9691720  30.9324288  50.5373526  28.0699706  29.9206543  49.4161320
  12.0764017  41.3928270  65.4734993  12.8261197  41.1407995  64.9343920
  11.5111327  41.8884230  64.8809719  25.6021190  41.9098330  30.5010080
  25.2071786  41.9119978  31.3729310  25.5659342  40.9943199  30.2239513
  29.0628147   3.5521337  12.7786410  28.6223578   3.6025432  11.9302976
  28.4383488   3.9334852  13.3957672  88.8470020  44.4289112   1.4978880
  88.6166706  45.3007078   1.1767118  89.3196656  44.0230846   0.7711656
  86.8593528  67.1724033  21.7847109  87.7510657  67.4837685  21.9400549
  86.6650327  67.4406576  20.8866525  31.0011911  17.9942822  53.2834244
  30.8007789  18.6754370  53.9253712  30.8295465  18.4055662  52.4363041
  29.0149878  33.8888982   2.4285539  29.1251314  34.0269151   1.4877828
  29.3021269  34.7107687   2.8264363  18.0492902  26.0435438  52.7046967
  17.5781476  25.6430483  53.4353542  17.4860573  25.8934093  51.9454479
  18.6963126  67.7461952  11.7427254  18.7271926  68.1258744  12.6208591
  19.6148392  67.6438922  11.4935780  22.2421169  34.7809505  23.3772039
  22.3192573  33.8329411  23.2696891  22.6585078  34.9610782  24.2200589
   5.1848131  31.3912892  51.8458700   4.7092730  30.8049464  51.2573957
   4.5113558  31.9704390  52.2026205  71.0082759  68.0867529  26.0878086
  71.4048996  67.6982212  25.3080893  70.1689019  68.4314775  25.7830977
  41.5202379  37.1902514  27.3130655  41.3276720  38.1195283  27.4379468
  41.0651112  36.7525554  28.0324507  83.6781885  40.3337049  26.6571546
  83.3799769  41.0611677  26.1111712  84.4164767  40.6913614  27.1503520
   8.3720422  31.0158944  66.5833187   9.2270166  31.0742164  66.1568785
   7.7456629  30.9812236  65.8603525   7.6573259  28.8540339  11.1477840
   7.4330580  29.5826912  10.5689967   7.6914752  28.0913138  10.5704403
   1.2877975  54.6025610  18.3106136   0.3472386  54.6533060  18.4809232
   1.5755314  55.5150318  18.2816529  42.1548462  43.0089092  24.4319820
  42.7886105  42.9115486  25.1426816  41.8419647  42.1195412  24.2665696
   4.2689463  42.5741673  19.4501674   4.7834605  42.5906897  20.2571583
   3.6193672  41.8860531  19.5943129  35.5492592  46.6791868  36.9417071
  36.0116959  45.9703588  37.3888540  35.9465885  47.4790573  37.2860479
  30.4253030  55.1772165  15.3736663  31.2957382  55.4561043  15.0894201
  29.8729229  55.9483337  15.2452648  18.6211431  60.7165527   5.0683898
  18.8507092  60.3711367   4.2057067  18.5486317  59.9413681   5.6252253
   2.9385084  39.0031552  42.2707558   2.3222379  39.0121913  43.0031204
   2.4036795  38.7747264  41.5104866  15.0832200  31.7611861  35.7648897
  15.2915525  31.0840011  36.4085126  14.3323541  32.2231317  36.1377668
   1.4268577  22.7669239  46.9243097   2.0747679  22.0872688  46.7385340
   0.8043313  22.3482895  47.5188160  35.5404406  79.8733476  65.7751278
  36.0086064  79.1619066  65.3382007  36.1686935  80.2199105  66.4087085
  52.5476860  78.0171233  42.0903587  52.0490764  77.3839551  42.6068068
  51.8851565  78.6051637  41.7277336   5.5773872  38.2986760  52.2494888
   5.7396364  39.1622043  52.6292610   6.1052895  38.2851028  51.4511347
  91.4416646  74.3495369  34.2976093  91.9712179  75.0771046  33.9713407
  91.0779484  74.6693897  35.1232195  43.3554888  57.5716877  16.8658042
  43.5237026  56.6866541  17.1893001  42.4035168  57.6173115  16.7769325
  77.2545876  28.4534526  45.2865648  77.3173036  28.7572360  44.3810177
  77.9797520  27.8361249  45.3828669  92.2358411  28.3563733  43.1327534
  92.5696846  28.2241964  42.2454500  91.6722657  27.5992107  43.2918835
  20.5062366  59.6053886  23.3782411  20.9711361  59.7427320  24.2036128
  20.4792953  60.4714680  22.9715347  16.2749112  61.8325996  33.1318521
  16.2765515  61.4300346  32.2634220  16.8322349  61.2622404  33.6612940
  88.9654883  67.2836542  51.3801384  88.8792523  67.1716022  52.3268366
  88.0709787  67.2091627  51.0476732  74.6122744   9.7942168  32.1109843
  74.3631913   8.8700044  32.1155763  74.6047809  10.0397015  31.1858296
   2.3460428  65.2620506  52.8842020   2.1826442  65.7364988  52.0690775
   2.9868966  65.7994270  53.3497810  23.0291605  56.3356352  39.9334526
  23.4624434  55.5939674  39.5110512  22.3462987  55.9381151  40.4737377
  27.4725986  23.0959201  45.7105637  27.6026750  23.5581017  44.8824930
  27.1666050  23.7710667  46.3161898  20.3822470  43.6948776  43.2722616
  21.0701299  43.1240320  43.6145782  20.7088566  43.9778996  42.4181795
   6.5901601  35.1299477  32.0094180   6.1776328  35.9281349  31.6793442
   6.3574755  35.1062942  32.9376054  48.1812206   6.3160235  62.7708292
  47.8264156   5.8736807  61.9996786  47.6842228   7.1320349  62.8287220
  71.8224778  59.1855860  29.5093274  72.0262017  60.0971603  29.3001294
  70.9318842  59.2133760  29.8590422  93.2853108  44.0169716  52.9936981
  92.9978396  44.9214506  52.8691626  93.3094404  43.6495161  52.1101713
  91.0678469  49.7317410  62.8839493  91.3071375  50.2821016  62.1382427
  90.5571931  50.3078794  63.4527445  34.3266368  32.5476003   5.6776148
  33.4233809  32.3550200   5.4260767  34.8380947  31.8317604   5.3004974
  21.9547963  73.8688278  40.1923800  21.2707734  73.9461756  39.5272779
  22.6293874  73.3289003  39.7805095  19.7235227  44.1162968  33.7432241
  19.1471601  43.4698391  33.3356380  19.3385231  44.9611092  33.5101986
  18.9051199  48.9928436  30.4389834  18.7715769  48.0501366  30.5374908
  19.8482084  49.0885592  30.3061104   6.3875657  28.8648248  37.7497077
   7.0349288  28.2348466  38.0663776   6.8631190  29.6942568  37.7036285
  23.3308148  50.2675581  32.0743513  23.2969356  49.9949408  32.9912806
  23.8986683  49.6221304  31.6534042  79.6201672  28.8756585   8.4711933
  79.5379009  27.9948997   8.8368803  78.9329817  29.3806434   8.9059323
   2.4367145  43.3375359  30.3455043   1.5636085  43.4254217  30.7278585
   2.4937262  42.4175072  30.0875616   6.6784680  50.0880861  30.9273839
   6.4481181  49.5142221  31.6580343   6.1274540  49.7882462  30.2043939
   6.5156782  32.8660202  34.2324400   6.4272493  32.4930573  35.1095438
   5.6643689  32.7158880  33.8213873  86.4765592  25.6761265  52.6633501
  87.3665603  25.7132053  52.3129845  86.5402301  26.0914683  53.5233879
  90.3199481  32.3253798  62.2028732  90.1950585  31.6828680  62.9013109
  89.4829371  32.7866530  62.1492910  19.5299113  35.8516192  25.1587677
  20.1045227  36.1601186  24.4581366  18.7796175  35.4703617  24.7027707
  85.0330915  45.7552719  25.5865622  84.2475166  46.2871027  25.4590464
  85.6948610  46.1687899  25.0322199  84.7341748  31.6251278  38.7685513
  84.6782853  32.5189447  38.4306192  83.9166798  31.4996982  39.2504239
  87.4272301  61.8412113  45.5221415  86.9037398  62.6424026  45.5052567
  88.2597627  62.1072578  45.9124517  62.3804935  48.2430169  76.4833393
  62.8068312  47.5382826  76.9710043  61.6740377  47.8095961  76.0044898
  93.9218459  58.3660984  28.5779667  93.5911172  59.1740990  28.9703727
  93.7872471  58.4839392  27.6376319  14.8103809  32.5441742  49.3966484
  15.2747869  33.3088636  49.7369528  14.2058074  32.9010820  48.7460041
  88.3187624   7.7826124   6.0301811  89.1538527   7.8143632   5.5634391
  88.2217928   6.8651938   6.2854689  39.1145921  79.2474651  29.9835491
  38.7335515  79.4433594  30.8395076  38.3597922  79.1113997  29.4108391
  29.0106177  27.9395437  24.5501924  28.0921912  27.7787113  24.3337226
  29.2207551  28.7615275  24.1070056  26.1659956  16.3162589  58.0400181
  25.4587412  15.8201098  58.4521580  26.7095518  15.6517959  57.6166153
  41.5652037  67.8770590  21.4590073  40.9546661  67.2255373  21.1140585
  41.1732054  68.1586361  22.2856188  30.1441574  31.9726849  36.7991590
  29.9893117  32.8894186  37.0268726  30.5933905  31.6089630  37.5621295
  91.9282941  70.3651237  49.0010357  92.1093464  70.3847408  48.0613184
  91.9976406  71.2789202  49.2774391   1.4252949  10.0454664  18.9508498
   0.8074643   9.6462888  19.5633650   1.4967252  10.9547663  19.2411995
  58.9541488  28.4831104  74.3936984  59.1287478  29.1929636  75.0116400
  59.4076519  27.7259883  74.7642891   3.3249810  40.9511185  45.9850645
   3.9463693  41.1994219  46.6694975   3.2676968  39.9977088  46.0479927
  23.2595277  36.0539961  21.0665846  22.7326870  36.8395948  21.2132239
  23.0110121  35.4628587  21.7772388  11.3157269  25.6416425  63.9793019
  10.6897542  24.9561939  63.7457291  12.1468446  25.1796827  64.0891473
  92.4760789  40.2609968  60.3244019  92.7653035  39.4955349  59.8277712
  91.5534284  40.3633213  60.0909996  12.9336810  36.1347914  21.8951583
  12.8985643  37.0856619  21.9992900  13.7556052  35.8782458  22.3133159
  10.1114166  35.4618740  29.7385621  10.8938968  35.6558275  30.2546430
   9.7204280  36.3182306  29.5653105   8.8552737  72.5879574  10.5381870
   9.3357956  72.9577780   9.7975361   9.4730288  72.6275492  11.2682843
  90.5532618  31.2938786  34.5286250  89.9987682  30.5439329  34.7439146
  89.9747693  31.8912005  34.0545106  78.4642326  63.6125630  29.1456580
  78.7630605  63.1020325  28.3931351  78.2173418  64.4606727  28.7768936
  77.3527812  80.9091949  56.8227625  77.1563839  81.5356892  57.5192976
  78.1793021  80.5064064  57.0889521   5.2597147  17.9062164  24.6408772
   4.5528239  17.3978388  25.0384808   5.6928325  18.3330762  25.3800869
  77.9168942  31.6936684  44.4710064  77.1185400  31.9492936  44.0089226
  77.6708283  30.9064722  44.9568081  44.2445564  50.3770256  17.5530028
  43.7974024  49.7443533  16.9908535  45.1755953  50.2274179  17.3886311
  21.2492061  59.0376186  34.6385932  20.4982948  59.1544390  34.0565991
  21.5069366  59.9276638  34.8786426  68.7979664  32.6773143  65.5184126
  69.3481221  33.4420180  65.6880903  69.0373935  32.0532322  66.2035656
  84.1061523  50.2891064  44.1927719  84.0178074  51.1062479  43.7021494
  83.4127047  50.3290081  44.8513794   1.2751827  57.3016930   2.9126257
   1.3974243  57.9936600   2.2626451   0.3615226  57.0353794   2.8099951
  25.9704399  33.2242417  49.0813065  25.4842281  32.6317859  49.6547413
  26.3953161  33.8402367  49.6781826  12.8819001  58.0625343  45.5017185
  12.8854978  58.2242823  44.5582914  12.8004205  57.1121502  45.5814743
  91.8762716  87.7756882  41.5864468  92.3119289  87.7618408  42.4386454
  92.3433133  88.4474182  41.0895777  17.4523973  41.1303949  35.6376028
  16.8186259  40.5383253  35.2326131  18.3031499  40.7308435  35.4564667
  18.9667356  54.1762781  59.4083309  19.4737196  54.6927834  58.7818956
  18.6532712  54.8157692  60.0478840  47.5785303  34.6646261  50.2435637
  46.8580341  35.1893592  50.5925322  47.9967785  35.2324343  49.5963478
  13.5774052  40.5020618  32.8263640  12.8065562  40.6894112  33.3620167
  13.3080959  39.7749376  32.2651219  50.1358928  28.6572075   6.8484259
  50.2259960  29.3387437   7.5144750  50.2925386  27.8391504   7.3201013
   2.8667432  41.7206335   5.5540562   2.8234118  42.3944330   4.8755693
   3.3944923  41.0230017   5.1654381  18.0366075  38.2324028  11.6555798
  18.2704794  39.1605210  11.6441202  18.8712454  37.7764034  11.7636335
  22.9765177   4.0427282  67.7778292  22.2708750   3.5924804  68.2421303
  23.0811286   4.8709396  68.2461834  79.3022658  63.6831760  63.4815788
  78.9272334  64.5498180  63.3249903  80.2169814  63.8548946  63.7052727
  40.3881170  83.9418319  60.7077865  40.3497811  84.8677209  60.4680149
  41.1771472  83.8658384  61.2443380  41.0631704  40.4156256  67.5082111
  40.8321953  39.6189117  67.9858446  40.3391409  41.0172415  67.6816177
  44.7855330  25.9852529  29.2237020  44.1715622  25.8655882  29.9482369
  45.4663086  26.5569425  29.5785904  26.0712171  66.5244389  22.6711106
  26.6656756  66.7199421  23.3954239  26.3035583  65.6351328  22.4039388
  82.0823680  12.9397878  59.3351261  82.7475261  12.3822269  58.9314870
  82.0427214  12.6450214  60.2449457  27.4456739  39.7795939   5.3839034
  27.3361301  38.9498329   5.8483702  28.1250596  39.6020770   4.7334009
  19.9272013  52.4188519  25.8392930  19.4989681  52.7525330  26.6276503
  20.1400518  53.2024527  25.3324389  60.9441366  29.3778038  60.6844425
  61.3360681  28.7876272  60.0407696  60.2723827  28.8496900  61.1158085
  31.8107390  57.3852348  20.4284167  30.8854413  57.2556257  20.6364036
  32.0572329  56.6028118  19.9351752  18.0609798  27.4928451  30.6126642
  17.9331589  26.6440439  31.0362554  17.7821016  27.3533130  29.7076821
  91.4640700  50.8753395  58.0960178  91.0954671  50.0431299  57.7997303
  92.0841976  51.1206245  57.4093533  87.8421702   1.7574543  38.2287788
  87.7449681   2.4653774  38.8656688  87.2794779   1.0578115  38.5606074
   6.2798250  60.1072359  16.7293739   6.2176079  60.9050989  16.2042308
   6.7332035  60.3802156  17.5269723  68.9415326  73.8582420  22.5184774
  69.3474521  74.7120953  22.3688412  69.5665755  73.3895159  23.0715156
  17.8980398  52.9355335   3.1747931  17.9691696  52.2496986   2.5108629
  18.7286425  53.4082031   3.1208226  17.0013806  10.0640831  62.3309354
  16.3776252  10.6949863  61.9716088  17.5600430   9.8307619  61.5895216
   3.5066226  44.5997000  48.8796949   4.1757321  44.4918871  48.2037497
   3.1291792  43.7263298  48.9845419   2.0411718  28.7929583  20.4133630
   1.9243535  29.5186377  21.0265303   2.1967366  29.2157102  19.5687842
  32.5582790  69.4570017  14.0681982  32.6612067  69.1161156  14.9566984
  33.3620763  69.1978931  13.6176395  54.3298244  19.5841408  65.1027584
  54.8210096  19.3717515  65.8963966  54.9163389  20.1518512  64.6028185
   8.0599779  61.4844942  24.7590852   7.5931495  60.8916950  24.1701126
   7.3698759  61.9050217  25.2720642   4.9711111  32.7055383  26.1599851
   4.1748372  32.6551080  25.6311774   5.5072695  31.9731593  25.8560276
  32.1464062  48.0947113  21.3587379  32.9926705  48.5325193  21.2671185
  32.3677111  47.1826744  21.5470028  16.2534380  52.4970436  29.8696232
  15.5754530  52.2847414  30.5111027  15.8138418  52.4216986  29.0226817
  14.1466844  54.0062809  42.1692514  13.3541203  53.5517883  42.4547529
  13.9104176  54.3931389  41.3261938  19.2558479  45.2684689  36.3838410
  18.4190083  45.6673574  36.1454749  19.3706310  44.5576382  35.7531428
  44.5969296  24.5913553  25.3134680  44.6170282  23.8001204  25.8517766
  45.5165482  24.8387027  25.2168012  93.1664581  39.2873144  20.2744269
  93.5708681  38.7059402  19.6304643  93.0807791  40.1254034  19.8200023
  81.9061722  42.5949955  35.4382086  81.2551083  42.4705553  36.1287594
  82.7473201  42.5667763  35.8941770  34.5391613  12.3514658  20.8454180
  34.9963862  13.1559664  21.0902834  35.1806599  11.6567236  20.9938788
  10.5695581  19.3647993  12.2690845  10.6366253  20.2473092  12.6336491
  10.1443458  19.4879234  11.4203990  26.4307022  25.0867796  47.4554777
  25.6049204  25.2325964  46.9938993  26.7551494  25.9661603  47.6495266
  30.1536965  68.2352543   9.1155821  30.0619793  69.0411520   8.6073011
  29.6028185  67.5997877   8.6584789  21.4407206  59.9809694  14.8869133
  20.7557178  59.3188667  14.9797785  21.1265373  60.5542088  14.1876876
  22.6282859  49.2501640  13.3894527  22.0032167  48.5315514  13.4849536
  22.1990776  49.8632240  12.7926540  21.2473941  37.0744705  41.8017721
  20.9401202  36.1889338  41.6077614  22.1346068  36.9515443  42.1393728
  93.3126583  21.5419197  65.9369087  92.6204764  21.6904926  65.2926731
  93.5652219  22.4194956  66.2237978  22.6264787  42.7243996  17.8737199
  22.3371196  42.5324106  18.7657082  22.3420572  41.9674492  17.3615062
   4.4239283  50.2765274  19.4470632   5.3246760  50.5922699  19.5191061
   4.2726737  49.7961950  20.2610874  89.8833363  61.2724495  15.6848943
  90.4362767  61.5182066  14.9432123  90.4883613  61.2084913  16.4238703
  78.7864234  41.9116688   8.4394491  78.7067821  41.5351105   7.5630397
  79.6090235  42.4005651   8.4162289  19.8628366   5.4942465  43.8560820
  20.3687191   4.7575662  43.5131311  19.4858873   5.1664776  44.6726036
  39.8655057  26.7657399   4.3686089  40.4934549  26.8946433   5.0794488
  39.1106033  26.3527203   4.7878590  53.8558330  34.7965932  25.1211476
  53.5698833  35.5678034  25.6107402  53.6539926  34.0589976  25.6968570
  23.4406662  34.6708584   0.4891603  23.2663345  34.9687052  -0.4036591
  24.3889594  34.5439076   0.5184269   4.1955343  25.1321363  35.5984020
   3.5832646  24.5474648  35.1517296   4.3547851  25.8370280  34.9707079
  51.2289953  29.4947815  43.3537483  50.9657669  30.0976944  42.6584530
  50.8590269  29.8729491  44.1514635   5.1387608  34.4923568  55.2543879
   5.4624927  34.8717284  56.0714006   5.6662291  34.9075174  54.5720005
   6.8023273  87.4313857  15.2868581   7.4151894  87.5150958  16.0173535
   6.1282417  86.8320514  15.6072319  13.8427389  52.5045443   5.3875375
  14.5299876  52.4707890   4.7221187  13.4101963  51.6526890   5.3285545
   7.6969451  23.6008215  36.3033843   7.2656959  23.2382250  35.5295777
   8.6098260  23.7131000  36.0382938  69.2246952  53.6396885  34.5677805
  69.5589890  53.9679718  33.7330866  69.7476329  52.8576374  34.7443032
  85.5028417   9.0991420  13.0406117  84.6488394   9.5313793  13.0497634
  86.1292311   9.8092991  12.9008114  18.0302620  35.0080776  63.7074518
  17.7736628  34.7002769  62.8381729  17.8182256  34.2800164  64.2915726
   3.5257965  81.4191151  16.4199984   4.4498187  81.2244892  16.2633514
   3.1278864  80.5664539  16.5957236   5.6730616  26.7806959  33.5266519
   5.8533561  27.4515510  32.8681087   6.4037681  26.8461227  34.1414857
  11.1343019  32.1854398   5.4334910  10.2425258  32.2712991   5.7705386
  11.5389220  33.0353114   5.6073554   2.7250043  31.7519855  48.8219166
   3.1409806  32.2189283  48.0972385   1.8839616  31.4620042  48.4686613
  86.3689758  21.8276954  16.2436998  85.6644704  22.4561954  16.4014685
  86.1710461  21.4569354  15.3837037  90.4617532   3.6653197  29.2017221
  91.0979046   3.4539443  29.8849964  90.0536795   4.4789714  29.4978285
  71.3908042  43.6941004  41.1865187  71.3721647  42.9106951  40.6368256
  71.5357031  44.4140625  40.5726004  34.9001694  25.7003593  36.8445587
  33.9629722  25.5620289  36.9815230  35.2738953  25.6981993  37.7257824
  75.9957804  54.1541195  54.1688728  76.8526198  53.8443422  53.8754511
  76.0393490  54.1099596  55.1240587  13.3006275  20.4254031  27.6010847
  13.6292732  20.1470375  26.7462540  12.8013349  21.2213135  27.4181437
  89.7635599  40.8650303  59.9195623  89.3288292  41.0486603  59.0867805
  89.0620138  40.9037209  60.5696106  58.2803669  29.3863010  46.9097185
  58.5927763  30.1632214  47.3734283  57.9505648  28.8115549  47.6004648
  32.1192360  40.5418396  48.8693428  31.1662579  40.5324125  48.9586401
  32.4442005  40.5390739  49.7696877  13.9926088  15.8450007  33.6730647
  13.9567184  16.7991507  33.6056709  13.0805647  15.5649543  33.5957241
  56.3095363  83.6878947  73.3410193  55.5221279  84.2321566  73.3403946
  57.0020421  84.2689064  73.6558060   0.5315414  52.2859526  36.1907959
   0.3615239  51.3457394  36.2484169  -0.1031546  52.6052523  35.5493593
  48.8600779  15.9872115  40.9444857  48.0627394  15.5064607  41.1666536
  49.5690012  15.3669584  41.1146307   5.4606408  44.0508032  40.5607128
   4.9635178  44.6583509  41.1084223   4.8762661  43.8557196  39.8281288
  39.7935247  39.0990138  37.6398110  39.5505762  38.2526708  38.0151892
  40.7387352  39.0374112  37.5019288   4.7158444  37.5882435  15.0734067
   4.8889208  38.4212351  15.5120444   5.4037434  37.5186634  14.4114506
  34.8811579  17.6834452  31.9902563  35.2427340  16.9622767  31.4750767
  33.9349723  17.6198876  31.8601656  31.0316348  45.6833315  34.5421243
  30.4286766  45.4208231  35.2376533  31.5930533  46.3436174  34.9484062
  34.9079776  57.5216913   9.0531892  35.3579545  57.3156691   8.2338560
  34.1806841  58.0863523   8.7915885  30.2217937  49.0665579  31.9511104
  29.6977592  49.2595911  32.7285147  31.0422111  49.5391369  32.0918918
  18.1916773  40.2417040  68.5701036  18.4398031  39.3208432  68.4883690
  18.4424365  40.6325293  67.7330780   8.5999644   2.0059822   6.3674504
   8.5273194   1.0955389   6.0810113   8.7845379   1.9481304   7.3049033
  82.1216491   1.9118029  27.0936465  82.8119519   1.5711409  27.6625657
  82.0996526   1.3047606  26.3538790  59.1793050  53.3103180   1.5746136
  60.1285042  53.3182383   1.6978596  58.9188494  52.4119902   1.7780945
  21.6893363  70.1693344  10.4663122  21.3591886  70.7447672  11.1563182
  21.3327360  69.3076372  10.6820452   6.6893232  58.6323023  32.9660130
   7.1172827  59.4089127  33.3265090   7.0956248  58.5115910  32.1077704
  31.4577127  27.6092267  39.4470644  30.5631948  27.9252410  39.5743465
  31.4285088  27.1360040  38.6155367  71.0753622  56.6492319  18.0819595
  71.3604083  57.2983456  18.7250972  71.7180051  56.7137861  17.3755062
  55.5866222  87.0214824  30.2357864  55.3158282  86.2928486  29.6772194
  55.2967416  86.7713402  31.1130714  73.5203971  11.7039263  48.8913155
  73.0411448  12.4701285  49.2067242  74.1613998  11.5226853  49.5787001
  81.5342953  69.7079086   9.7024202  82.1606841  69.0333271   9.4401145
  81.7108621  69.8501110  10.6323850  39.7814631  26.6060042  28.8672876
  40.3661537  27.3635459  28.8449693  40.3494167  25.8718967  29.1012692
  93.5458173  66.4360046  58.0830812  93.5890912  66.7782927  58.9759398
  93.5090539  67.2157764  57.5291538   1.3756409  54.6654797  54.3847227
   1.8728334  53.8498306  54.3235111   1.6907014  55.1936483  53.6512327
  18.5609162  21.8219423  40.0133848  18.0385613  21.3313127  39.3788290
  19.1430485  21.1683202  40.4008484  70.0559201  22.8734088  27.6356220
  69.9484267  23.0485344  26.7007375  70.9819021  23.0453444  27.8065896
  27.5331450  47.4439669  26.4770627  27.9675770  46.8242025  27.0630646
  28.2384515  48.0075264  26.1589813   4.1029221  18.8002777  21.9753051
   3.3739203  19.0563679  22.5402880   4.7567970  18.4420466  22.5755978
  89.2935308  37.7017641  38.4148550  89.3219336  38.2206273  39.2187238
  88.7673851  38.2252264  37.8103781   8.2792646  42.3290682  46.3455868
   9.1420442  41.9503689  46.5141964   7.9161239  41.7931843  45.6404686
  19.4881690  49.3562889  14.7213316  19.8301697  49.8500061  13.9760065
  19.8437762  48.4748268  14.6082067  82.7879741  26.9807673  38.7916541
  82.6277878  27.6362085  38.1127071  82.1948161  27.2227526  39.5028782
  20.7895184  19.5011842  13.5921788  20.7761955  19.4164741  12.6388276
  21.5570068  18.9992619  13.8665307  89.1462549  61.4329576  28.9161563
  88.6664702  60.6695223  29.2374039  89.1116091  62.0592737  29.6391773
  12.3698628  34.5118141  27.2999239  11.4768612  34.5587587  26.9584942
  12.5791037  35.4123330  27.5479484  92.5794462  62.7728891  36.6940093
  92.0371460  62.8033447  37.4821806  93.0460813  63.6086369  36.6919065
  28.9247108  33.7289357  16.8779778  28.3019567  34.2819953  17.3497128
  28.3770084  33.1154919  16.3881397   7.3645020  38.9486909  63.1142998
   6.5663564  39.2719650  62.6963425   7.0687699  38.5925937  63.9521360
  17.4679752  72.1184257  62.3929564  17.6662369  73.0393413  62.5627713
  17.1858402  71.7739681  63.2402937  20.9108806  32.0153189  26.4025998
  21.7231584  32.4708891  26.1814809  21.1868620  31.1243200  26.6175151
  44.2215824  20.5145907  23.6706781  44.4718122  21.3241339  23.2254195
  44.5384312  20.6264234  24.5669651  29.9914312  23.4447861  14.1562593
  30.8708715  23.3851600  13.7830818  29.6644235  22.5452638  14.1437018
  21.3504076  73.4487915  15.6386650  20.7382870  73.3034134  16.3600552
  22.0452905  73.9862537  16.0188031   9.5852590  33.1755829  50.2830505
   9.8439139  34.0835404  50.1251173  10.3884125  32.7453041  50.5763721
  24.2445135  50.8551359  23.5351419  24.7059512  51.3006783  24.2456365
  23.3205962  50.9071398  23.7799025  37.0609999  28.0365133  46.9130850
  36.7376018  28.9090371  46.6887045  36.4925885  27.7465630  47.6265717
  28.2043409  46.8600130  54.4192553  28.6809587  47.5385046  53.9410067
  27.3303413  47.2279406  54.5495892   1.7740275  44.3412161  18.0045140
   1.7745736  45.0923252  18.5978663   2.6536140  44.3335581  17.6270199
  88.3140256  57.3292065  17.4033749  88.8096907  57.2175074  18.2145905
  87.3994734  57.3616743  17.6840377  20.1129961  58.3507919  50.6664276
  19.2385495  58.7394857  50.6886101  20.2905226  58.2134533  49.7359180
  35.2789807  51.4139366  42.6803970  34.3687224  51.1390924  42.7905035
  35.5661297  51.6504002  43.5623646  28.8623330   8.0433521  62.5637452
  28.4065196   8.7912712  62.9498546  29.5507476   7.8310070  63.1940035
  23.2798672  51.0429621   7.0771873  24.1974163  50.8094931   7.2179866
  23.3141136  51.8467760   6.5585881  10.0236917  70.9408569  42.7634716
   9.1256565  71.2272406  42.5968885  10.1217091  71.0004616  43.7137747
  52.0055866  18.7973237  46.3926935  52.3715353  17.9382443  46.6031599
  52.7688122  19.3425131  46.2016773  52.2743225  31.9687843  21.8865991
  52.3869514  32.8282762  22.2925806  51.8937349  31.4258289  22.5769472
  38.5190082  73.3659983  27.6712084  37.8954720  72.9356623  28.2562232
  39.2689204  73.5712051  28.2295561  12.7678442  34.1658497   8.9044124
  12.8242445  33.2147837   8.8120830  13.6093462  34.4881511   8.5815680
  65.4606771  64.7101068  16.2851489  66.1711407  64.6870565  15.6441033
  65.8501196  64.3612623  17.0869434  88.3369597  48.8761473  27.7786207
  88.4216787  48.1154633  28.3534360  87.3935928  49.0263844  27.7176309
  30.6219602  52.5512981  38.7491679  31.3472486  51.9615078  38.9549208
  30.6661105  53.2294607  39.4232392  42.9861403  36.6877198  56.9856071
  42.8270245  36.5868354  56.0471296  43.7372398  36.1216187  57.1634054
  30.2164125  82.4441624  29.5261407  29.5033264  81.9515991  29.9324918
  30.8117628  81.7727947  29.1928935  14.1048682  71.2174463  14.9913526
  13.9541435  70.6808615  14.2131567  14.6118450  70.6542063  15.5761325
  29.2841578  49.6344519  34.3987751  29.7831964  49.6413422  35.2155662
  28.3844686  49.8222828  34.6661925   5.0163051  20.7104120  74.0189577
   4.9031016  19.9045429  73.5149763   5.9065172  20.9972295  73.8152741
  88.9850422  49.9353647  19.9179399  88.4581455  50.7342911  19.8998785
  89.0061696  49.6417475  19.0071297  10.8863413  67.0737886  27.9285216
  10.8623087  66.9574308  26.9787240  11.7634070  67.4135828  28.1060815
  87.7142670  52.2643375  52.5287914  87.0038321  52.8345060  52.2348166
  87.4628951  51.3922358  52.2246838  38.7504959  83.7521648  47.5862980
  38.2578111  84.5726871  47.5711918  39.3082118  83.8218975  48.3611012
  65.6403886  14.4146785  61.0952250  64.9958222  13.8215599  61.4811949
  65.8652430  15.0178537  61.8036417  13.5409451  87.0260334   6.9114798
  13.3329606  86.7298794   7.7976334  14.0506887  86.3096905   6.5330023
  18.6905801  85.1334572  11.4883673  18.2012367  84.5258808  10.9337223
  18.1908512  85.9489155  11.4493334  41.8068314  58.4681797  64.7480297
  42.5743055  57.8987789  64.8027992  41.8600988  59.0178251  65.5298758
  67.9131174  68.0847263  51.0211658  68.1360912  68.6266613  51.7780161
  67.1744061  67.5526571  51.3168669  14.6327865  64.8376608  54.8197365
  15.4357290  65.3015566  55.0570440  14.9257696  63.9579630  54.5819902
  46.6263151  61.9009352  41.2127113  47.0048285  61.1684990  41.6990232
  46.5779781  61.5889740  40.3090620  28.3910346  48.2404232   1.8631177
  27.7345347  47.7752066   1.3446464  28.4446788  47.7460241   2.6809955
  90.0346949  76.5172148  51.3039160  90.7631751  77.1141243  51.1328983
  90.4513102  75.7145882  51.6176891  29.2440248  30.0665832  22.7866888
  28.4951496  30.5863237  23.0787277  29.2003870  30.0995660  21.8310523
  47.9288054  31.1326361  27.3374128  47.7503967  31.9808984  26.9313931
  47.0892859  30.6735253  27.3117852  88.1773891  28.8083124  12.4136078
  88.1024386  28.9678955  11.4727843  87.9811277  29.6541691  12.8163981
  47.0929575  75.1106930  30.6464958  46.6375399  74.8911238  29.8337126
  47.2508192  76.0528183  30.5856013   6.7462480  54.9869347  55.4081345
   7.0328385  55.7321882  54.8802185   7.3248160  54.2709446  55.1457405
  85.8188327  68.6382103   3.7922648  86.3941618  69.0257931   4.4518173
  85.0732162  69.2364645   3.7435067  14.9667859  33.0224395  53.2326174
  15.0154710  32.9790902  52.2776413  14.5218480  32.2139215  53.4867048
   8.8064486  44.8413038  17.2342539   9.6911395  44.7391224  16.8833804
   8.9241731  45.3504705  18.0362022  27.0064139  61.5050745  47.3227787
  27.7661085  61.0560560  47.6935625  27.2802997  62.4194050  47.2505569
   8.2606393  13.3539438  28.8265181   7.4612099  13.2582366  28.3088470
   8.9216793  12.8619134  28.3395243  48.4714937  20.8702326  57.6352644
  48.4735966  20.8276415  58.5915136  48.1763124  21.7586517  57.4357319
  51.2082291  53.0410910  15.6072974  50.5238676  53.4062815  15.0464833
  51.7188215  52.4774933  15.0260162  20.6093669  81.8401909  37.0925355
  20.8427024  81.3161945  37.8588295  20.0792909  81.2532043  36.5533710
  91.1319976  86.0289574  24.8311830  91.9350562  85.8240604  24.3522859
  91.2588369  86.9265461  25.1385570  10.1908040  58.1362534  27.3711085
   9.7213322  58.0643463  26.5400505  10.0855136  59.0525389  27.6271725
  11.7352760  64.7202158  14.2172599  11.0757625  64.0435839  14.3703723
  11.2425709  65.4579306  13.8577414  18.1352186  76.1061621  69.7587824
  17.1985757  76.2315941  69.6064711  18.1801605  75.5958462  70.5673552
  83.8040664  17.3238909  40.1629496  83.6766960  18.2455778  39.9382186
  84.7460838  17.1824288  40.0690174  84.2744704  64.5042324  50.2637243
  83.4586944  64.3563271  49.7853279  84.3668153  63.7334871  50.8237743
  25.0210738  50.6614351  13.8301361  25.1791334  51.0195494  14.7036374
  24.1816306  50.2077055  13.9055896  53.6216068  78.7922001  49.4187164
  53.0496120  78.8844585  50.1806450  54.4561052  78.4938383  49.7804165
   5.0219345  40.3470659  12.5270617   4.9554166  40.7773066  13.3795273
   5.3914511  41.0151958  11.9497490   0.0131948  45.2599764  21.9585562
   0.1474870  44.3411493  21.7262650   0.5563530  45.3924513  22.7355123
  12.9512393  42.5978231  48.0414009  12.9880559  43.5149765  48.3128786
  13.4177732  42.1250963  48.7306786  10.7322609  47.5661135   4.0425149
  10.8504570  46.6288376   4.1967106  10.0561106  47.8282356   4.6672910
  43.1099367   2.9680890  40.0610018  43.0025291   3.4727979  39.2547989
  43.5827446   3.5558000  40.6503057  18.1413579  66.0070944  46.1979389
  19.0303230  65.6642342  46.2896872  18.2412243  66.9558001  46.2768030
  13.9402092  70.2999973  26.1321044  13.0044150  70.3336143  25.9336329
  14.3674612  70.5653620  25.3176904  21.5876484  61.4785290  38.5303116
  22.4273705  61.4760780  38.9897585  21.3040352  60.5644226  38.5448003
  14.1683197  55.8240128  15.4335737  15.0061727  55.3622437  15.4018712
  13.5263014  55.1754141  15.1448488  76.2686612  28.3359218  16.5790057
  75.9817090  29.0670967  17.1260631  77.2045245  28.4879780  16.4475882
  18.3751380  44.5980835  26.0668159  17.8164983  44.3005705  26.7848945
  18.1264412  45.5126762  25.9330010  26.7676711  50.1602650  40.2125978
  26.4882469  50.2765274  41.1206913  27.0281863  51.0363007  39.9281335
   7.9202163  11.8259299  14.6962309   8.7792403  11.5431988  14.3825853
   8.1122708  12.5161791  15.3309774  34.0114808  62.9807234  51.5018940
  33.3782673  62.6177979  50.8825684  34.8483610  62.9424238  51.0388660
  12.6259029  46.3229322  30.8003449  12.6812828  47.0149517  30.1413465
  13.3964610  46.4557457  31.3524604  85.8564665  67.2528648  33.1753993
  85.5738576  67.2662783  34.0898299  86.2113150  68.1284380  33.0215073
  55.9061956  72.9532003  63.8269901  56.2078571  72.0558500  63.6855745
  55.0292635  72.8554201  64.1980171  58.9561318  15.1949415  75.8935424
  58.9182128  15.3430996  76.8384462  58.2113831  14.6220502  75.7108544
  54.8805192   1.8955427  12.8704524  54.8907975   1.8640238  13.8270783
  54.0010789   2.2027594  12.6503706  36.0226512  82.6349068   9.6627867
  35.5412054  83.4468174   9.8216337  35.8139443  82.0815277  10.4154146
   0.7994395  51.5227079  27.8443360   1.1939164  51.4612865  26.9743657
   1.4456573  51.9970989  28.3673906   8.3229148  43.6086559  48.9511395
   8.2708877  43.0441332  48.1798840   8.9305907  43.1578159  49.5374012
  39.2335773  23.9598608  46.7447805  39.1754270  23.0116630  46.8621349
  40.1661158  24.1556978  46.8356085  31.4179730  50.3753138  50.4043484
  30.6645226  49.8917818  50.7430840  31.4326572  51.1845589  50.9153605
   6.6862971  47.3517561  11.8562937   6.3308704  48.0338240  12.4261069
   7.6324034  47.4963140  11.8710577  29.8062277  64.5586920   2.0935689
  30.7612419  64.5850515   2.0345457  29.5247936  65.4295301   1.8131009
  44.1348743  59.6289968  34.4380760  44.7307968  60.2228975  33.9815807
  44.6707010  59.2340088  35.1259017  33.0760026  71.4869976  18.6691725
  33.6221647  71.9408751  19.3109930  33.4046984  70.5880022  18.6680055
  22.3946357  19.6154130  26.1166620  21.5354824  19.3046570  25.8311534
  22.9350352  19.5844269  25.3272057  15.2145326  48.5319042  52.5039434
  15.4256594  48.8114166  51.6131401  15.4715252  47.6103067  52.5330448
  77.5977697  37.1720386  34.6125603  78.2262768  37.8319645  34.3198013
  76.7549135  37.4792743  34.2787480  15.4791605  59.0792847  14.6109927
  15.5171835  58.3025789  15.1691282  14.6613193  58.9836836  14.1229069
  20.6174040  40.7182741  27.3870516  20.5011272  40.0435019  26.7181754
  20.0704312  40.4285288  28.1171894  11.2419116  49.9687815  26.1413217
  11.2645614  49.1319609  26.6054893  11.3211215  50.6275654  26.8312216
  61.4738617   8.6099491  60.8107798  61.1492341   8.0379066  61.5062038
  61.0279899   8.3037099  60.0210659  16.6245444  79.1635898  58.6114971
  16.5786977  78.3226302  59.0663783  17.1755024  79.7095588  59.1723852
  27.6884508  57.3998165  55.8258533  28.5803342  57.3336458  56.1670256
  27.2718906  56.5773678  56.0833168  46.8866491  41.9823885  32.2513795
  47.0652103  41.4387798  31.4840245  47.5162506  41.6842651  32.9078507
   7.9475707  52.7888203  46.0023022   8.4584218  52.2346926  46.5923929
   7.2985613  52.1977711  45.6206179  49.5497084  64.1416073  61.5656757
  49.3446350  64.4807482  62.4369717  48.7380981  64.2490387  61.0697079
  33.8519621  43.5867786  19.5634639  33.5725594  42.6865482  19.3968952
  34.7795129  43.5120678  19.7877371  39.4284248  32.1973777  12.1663928
  39.7487426  31.3671064  12.5189245  39.6435547  32.8425145  12.8400016
  27.3525190  85.6637001  23.1417370  27.3855233  85.3180599  22.2497320
  28.1960630  85.4214764  23.5238242  69.3333172  32.0995388  75.3305882
  69.0957968  32.6939163  74.6188786  68.9023464  31.2744770  75.1075004
  26.3405466  46.9300127  29.5139027  26.4079261  46.0055923  29.7529340
  27.2477055  47.2173643  29.4103599   0.0892639  24.4167829  22.0896435
   0.0165221  25.1948309  21.5368485   0.0124444  24.7501111  22.9836369
  10.0126505  81.3139343  31.0658026   9.5274252  80.6066608  30.6408882
  10.0249982  82.0186806  30.4181838  16.8051267  65.5399752  36.1393666
  17.1861970  66.3736296  35.8636117  16.8965459  64.9704933  35.3754544
  31.1277986  63.1752443  45.8187580  30.9819102  63.0643129  46.7582464
  30.4440475  63.7845802  45.5405045  31.3368583  46.2227201  53.3643579
  30.6294203  46.5429878  52.8047276  31.7992473  45.5827045  52.8232384
  35.9127378  66.8159437  51.9924784  35.9985375  67.6444721  52.4640799
  36.4194345  66.1913443  52.5114870  32.8145218  79.6243763  64.4469452
  33.4369946  78.9785576  64.7811222  33.3264399  80.4286861  64.3617201
  24.4708467  48.2020140  15.7936537  24.0130949  48.4190607  14.9815047
  23.7761450  47.9381800  16.3969886  10.1993620  40.7872772  60.7456303
  10.0061667  41.6319847  60.3389692  10.0784683  40.9394407  61.6828966
  15.4897714  59.4968414  19.9826300  14.8873460  59.1698980  20.6507778
  15.4917371  58.8171339  19.3086708   1.6317427  58.4099817  46.8363285
   1.9906519  58.0086899  47.6277685   1.0564215  59.1035175  47.1591997
   3.7115902  78.3507681  44.1419268   4.1861612  78.3273602  43.3109856
   2.9365930  77.8097820  43.9904499  37.9570770  60.5813026  13.0322349
  37.7748370  60.6347847  13.9704037  38.3180165  59.7035074  12.9080176
   5.8645844  32.6340413  69.8762274   6.0225147  32.8005981  68.9469528
   6.7382681  32.5261402  70.2520800   2.2168024  40.6990194  29.3213224
   1.9436830  39.8536491  29.6776700   1.4081341  41.0941172  28.9954615
  36.1083031  47.4566031  31.4715314  35.2956128  47.7554750  31.0635543
  36.0940742  47.8449392  32.3463011  26.0489154  55.3040075  25.4683137
  25.6852317  54.4449472  25.6827497  25.5859709  55.5684328  24.6733356
   0.7119718  40.3283787  53.4686804   1.0380694  39.4340849  53.5693359
  -0.1023003  40.3444242  53.9716101   1.3806204  79.0752697  21.9180155
   0.8803055  79.7817612  22.3264122   2.1949488  79.0374517  22.4196839
  23.5554671  35.2663922  39.9973702  23.7543869  35.3248334  40.9318447
  24.3868971  35.4571414  39.5631194  22.2087312  37.7452493  38.7605405
  21.5439463  37.1650219  38.3895588  22.8212452  37.1565890  39.2016053
  24.7256637  50.5577898  45.8065176  25.0379586  51.3368511  45.3463411
  24.1119862  50.8950043  46.4591408   0.2593826  64.1134357  48.1667280
   0.5995926  65.0076580  48.1960154   0.6032138  63.7530136  47.3493528
  83.8712825  39.3329334  29.6399093  84.5101209  39.8734117  29.1751504
  83.1612637  39.9363542  29.8589683  27.4319530  80.2605438  43.4424782
  28.0302548  80.2535915  42.6953411  27.0808649  81.1508656  43.4599018
  93.5609342  61.9994974  45.0335217  93.5758375  62.9316378  45.2506018
  94.4126354  61.6724730  45.3231621  73.4607710  55.3092813  35.5823421
  73.7681713  54.7585773  36.3023829  73.3999505  56.1864042  35.9607530
  23.3652043  42.5491047  70.0105190  22.6973915  41.8796968  70.1593447
  23.9016819  42.5325966  70.8030796  34.5576024  33.6265445  36.9137931
  35.1877117  34.1779041  37.3776889  33.8757110  34.2330360  36.6249609
  16.8918765  59.9210644  70.2019501  16.3298738  59.2113543  70.5129147
  16.2914276  60.5331469  69.7764540  20.7287431  57.8928995   7.5088435
  20.2073121  58.5707283   7.9388338  20.6881595  58.1137276   6.5783489
  89.8779633  76.7504740  48.0752325  89.2634823  77.4467659  47.8432417
  89.3215113  76.0026646  48.2928991  24.1726637  48.6318684  19.7885764
  23.5508513  48.0461359  19.3567216  23.9055824  48.6291075  20.7077575
  42.3672152  62.0038033  31.2064338  41.5639687  62.1833801  30.7177830
  42.9143715  61.5108252  30.5950212  87.9745235  32.5716734  36.4383817
  87.9540642  33.4435105  36.8329859  88.2738574  32.7216101  35.5416369
   7.1438545  67.2656631  44.4273710   6.1904687  67.3410654  44.3873644
   7.4346328  68.0986786  44.7985363  42.3829492  86.7593816  65.1152257
  41.6668244  86.3660625  64.6165327  41.9968255  86.9661716  65.9663288
  18.3964443  44.5680285  52.9058790  19.3322861  44.6826744  52.7406931
  18.3339047  44.4432306  53.8528490  48.8704062  47.0811129  28.6761236
  49.3925905  46.2927198  28.8244200  48.9964819  47.2809362  27.7485418
  23.4114242  36.9946527  36.3768268  24.3503499  36.8237495  36.3030672
  23.3120728  37.4234366  37.2268319   3.8609913  67.1323824  37.0920515
   4.3459558  67.3944139  36.3095045   3.2985955  66.4163351  36.7967248
  53.3815765  55.0793648   2.9407892  53.8325834  55.8112526   2.5198767
  53.3999920  55.2914715   3.8740110  50.2060556  84.1726971  40.1577663
  49.7249794  84.9958038  40.0723886  50.7572508  84.2964649  40.9304857
  12.3610461  48.2443571  18.9413750  12.6000023  47.4653721  19.4436872
  13.1426930  48.4469938  18.4273720  18.9656687  64.0168762  13.0783927
  18.7029779  63.9590979  12.1597600  19.8805618  64.2967367  13.0487370
  24.6382642  63.4144020  44.2729044  24.5042634  62.4761248  44.4067144
  23.8782096  63.6945629  43.7629414   6.9031399  85.7762623  30.8612370
   6.4747387  86.5616703  31.2016010   7.7948934  86.0587502  30.6582332
  15.3243637  17.0882034  50.9130335  15.7975912  17.2233272  50.0920391
  15.2884889  16.1371338  51.0150671   8.2398790  50.2980280  72.3969555
   8.3268213  51.1649942  72.7932453   8.0721313  49.7127819  73.1355858
   0.5958764  24.5102546   1.5287240   1.2785546  24.9903199   1.9974692
   0.0981156  25.1876160   1.0708507  17.7231598  23.7259269  27.3031902
  18.1046641  23.4174681  28.1251025  16.9359088  23.1933761  27.1898055
   7.6927675  17.3410803  31.9010115   7.1285499  17.5777346  31.1648870
   7.5635303  16.3987547  32.0085549  62.9154730  72.7697706  40.5788469
  63.7786198  72.5494957  40.9291172  63.0979967  73.1868792  39.7368622
  68.4879174  31.2988615  41.1672354  68.7917318  31.9719958  41.7761850
  68.1885972  31.7871761  40.4003000  26.1872625  40.3517485  41.3875055
  26.7335057  41.1375046  41.3666630  25.8728337  40.2547216  40.4886436
   3.6474103  86.7014408  39.3873310   3.6560977  87.5684738  38.9818668
   3.3731443  86.1114502  38.6852527  58.2523966  69.7966099  25.3749466
  59.0494061  70.2892208  25.5707622  57.5523949  70.2971601  25.7940888
  18.7196469  80.0330830  22.5613880  18.3261669  80.5627441  21.8679404
  19.2400444  79.3779850  22.0963454  46.2170696  88.2701492  70.5574036
  46.7459393  87.5256252  70.2706718  46.7414761  89.0380478  70.3303289
  38.3066344  64.0533161  64.0627050  37.5754166  63.7587690  63.5197544
  38.5550451  64.8997831  63.6912012  22.0547700  17.4205327  47.3610449
  22.7730846  17.3480129  46.7325592  22.3439264  18.0920708  47.9788303
  37.0455480  62.4906921  44.9410152  36.5050101  62.3139620  44.1710663
  36.5819287  63.1884289  45.4041052  55.8891869  26.2049127  46.6239309
  54.9904108  26.5341854  46.6262913  55.8036804  25.2768111  46.4058733
  89.5700478  67.5462151  12.1011949  89.0162857  67.9796600  12.7505839
  90.3446384  68.1047630  12.0358706  20.1236248   7.8007311  61.2748718
  20.4312515   8.5103953  61.8387604  20.8878708   7.5638759  60.7494593
   9.8608655  49.6278048  31.0964465   8.9267474  49.5668793  30.8965874
   9.8927397  49.8484516  32.0273232  57.5073242  77.2758532  53.8495493
  57.9118061  77.9174042  53.2655668  57.9559708  77.3973227  54.6863222
  48.9146423  66.4588928  44.4974375  48.4754562  67.2956324  44.3450785
  49.3089104  66.2381840  43.6535978  76.3243008  49.7796535   9.4803500
  76.5983343  50.4280949   8.8317639  76.3369036  50.2528954  10.3122854
  32.3822498  19.1088682  24.5143437  32.7879447  18.9495474  23.6621332
  32.6771829  19.9857813  24.7598314  40.4990435  60.4086733  24.6223235
  41.2497711  61.0024977  24.6189189  39.7365785  60.9866810  24.6503377
  19.5333731  78.3445358  38.0629158  20.0776505  79.0208864  38.4660816
  18.6683607  78.7472105  37.9865122   8.1188309  11.2347817  24.6178532
   8.6059916  11.6792035  23.9240265   7.4072438  10.7860470  24.1612220
   4.7259900  63.2155991  17.6688468   5.3589243  63.1402016  18.3829486
   5.2312601  63.0212545  16.8794394  31.6189289  72.1240377  39.9214673
  31.7631507  72.3702049  40.8351612  31.2222958  71.2540960  39.9675345
   6.2112677  46.7521954   9.2313725   6.9588435  46.1879301   9.0339702
   6.2289780  46.8488646  10.1835132  18.9708769  50.4400682  39.1284776
  19.6873641  50.6076288  39.7406888  18.1865573  50.4219055  39.6768808
  30.9584594  39.4950557  46.2811708  31.5870857  39.7356653  46.9617367
  30.1084042  39.5205474  46.7204714  31.6854239  53.9268255  49.5555830
  30.8269334  54.3316841  49.6793365  32.3100829  54.6239471  49.7557163
  30.8184727  75.6858304  76.4011395  30.9449634  75.9785560  75.4986186
  31.4543239  74.9794892  76.5151816  30.2916050  74.7542953  22.8286171
  29.5435190  75.3205490  22.6389909  30.0171900  74.2414713  23.5888386
  39.9388885  15.1055586  32.0822859  40.3526306  15.6453848  32.7558136
  40.5738640  15.0875831  31.3662457  18.1614184  58.9256954  11.3062859
  19.0813935  58.7113810  11.1515403  17.9632294  59.6078920  10.6647563
  19.9996483  27.8038168  67.1233606  20.5475330  27.1096325  66.7570782
  20.5693221  28.5727596  67.1440792  76.2885152  39.2198810  75.9392407
  76.1618303  39.8117694  76.6807663  77.1039926  38.7593231  76.1370033
  23.3652496  53.3830833   5.9035492  23.8866663  54.1857529   5.9121889
  22.7690101  53.4767818   6.6464835  75.8912422  26.7666030  32.3078585
  76.1081507  27.6406860  32.6321435  76.2007536  26.7635512  31.4020848
  82.5851502  64.6575069  32.2916698  82.0789911  65.2571964  31.7435718
  82.1725406  64.7146225  33.1534839  33.8286662  27.9528642  35.6314969
  34.3522000  27.1788001  35.8387876  32.9361176  27.6201367  35.5372620
  22.7488136  59.3266773  26.4541769  21.8573952  59.6057177  26.2450290
  22.6345491  58.5905838  27.0552897  24.6090007  47.8591108  39.6174955
  25.0948715  48.5843515  40.0101614  24.9011636  47.0859051  40.1002169
  34.5881987  68.1200266   2.9428682  33.7328053  67.9337502   2.5557834
  34.5044446  69.0067482   3.2935023  10.8971572  68.6573267   0.5780003
  11.1825037  67.8814697   0.0954493  10.0889051  68.9268827   0.1417643
  32.8279424   9.5076567  20.1300383  33.3138804   8.7816244  19.7389340
  33.1489943  10.2847487  19.6725523  35.3141713  25.2923489  15.8136809
  34.8897934  25.0142050  15.0020325  34.7251225  25.9532404  16.1776531
  11.2718999  15.0198579  38.3915257  12.1432352  14.9245226  38.0069256
  11.4038789  14.8606014  39.3261123  80.8184852  50.6551266  43.7688684
  80.5555036  50.8041430  44.6770906  80.9327306  51.5332508  43.4054422
   1.8747658  76.0465765  20.3176427   1.4059083  76.8610430  20.4994202
   2.7911133  76.2509871  20.5040693   9.3339521  53.3236265  32.8680086
   9.8126757  53.9450026  32.3194218   8.4837127  53.2303667  32.4383259
  87.8305372  31.8072677  30.9947181  88.6856427  31.3795185  31.0400605
  87.3782130  31.5232062  31.7890358  39.6393108  31.9565129  22.0369887
  39.3443418  32.7966833  21.6857934  40.2362204  32.1903300  22.7478051
  24.4233656  43.0095816  11.2304509  25.1023293  43.1323814  10.5670059
  24.7144151  42.2487068  11.7330337  71.0813873   7.9523000  74.5665148
  71.3556229   8.6673173  73.9922474  71.6241442   8.0516872  75.3486715
  24.9241233  54.3731689  33.6290765  24.8039484  53.4364176  33.7849259
  25.0670218  54.7444248  34.4996977  25.7158089  78.1523991  23.9863586
  25.6837702  77.3421621  23.4777117  26.4829564  78.6159182  23.6504054
  34.8795128  60.2481985  53.6368036  34.3392825  59.4601870  53.6953115
  35.4987907  60.0621796  52.9310226  46.2687206  39.5005059  25.8214164
  47.2059393  39.3062019  25.8115292  45.8712673  38.7888479  25.3196120
  25.9299541  80.0635529  16.8152165  26.5446353  80.6650734  17.2354209
  26.3237596  79.8750591  15.9633839  27.4734759  85.4877090  46.4538717
  26.7622185  86.0047626  46.0757208  27.1676040  85.2669621  47.3336124
  25.0130320  75.9785509  56.7020607  24.9767900  76.6193008  55.9918785
  25.6639528  76.3305235  57.3092222  40.1163578  23.6139536  54.2537212
  39.9153900  23.8683319  53.3530903  40.8670473  24.1569924  54.4941473
  17.0635128  60.0925446  41.8142605  16.6628194  60.4580975  42.6029587
  17.8657138  60.6010580  41.6954422  86.0241610  30.5631348   3.3051189
  85.4994256  29.8492810   3.6674674  86.5933091  30.1397082   2.6624568
  24.4521260  31.2111092  61.9531345  23.5473442  31.4947009  61.8220615
  24.4803071  30.9127808  62.8622198  -0.0437773  46.1750174  34.6627522
   0.6910659  46.7722845  34.8024416  -0.5474636  46.5764809  33.9546847
  29.0038133  29.4501662  39.1291428  28.2164049  29.6164727  39.6473718
  29.5867682  30.1799965  39.3382978  28.8690090  46.0920238  30.7388449
  29.2872596  45.8536673  29.9115109  29.5271301  46.6134501  31.1984372
  43.2276011  66.1477327  11.5632093  43.5541725  66.7232370  12.2548604
  42.4416733  65.7478476  11.9355559  19.0181974  12.4352080  36.1956429
  18.8880482  11.4883429  36.2478995  19.0983191  12.6146227  35.2588248
  22.1638203  79.3293619  29.1009235  21.5386844  78.6325836  29.3007731
  22.0487475  79.4931602  28.1648898  44.1942501  77.1159124  34.8109984
  44.9355745  77.4763775  34.3244410  44.0161514  76.2757301  34.3883801
  27.6233244  52.8869772  55.1438999  27.0830655  52.1768141  54.7974539
  28.0917478  52.4941397  55.8804369  18.7973201  54.5495844  13.3929658
  18.9097190  54.9362946  12.5246048  18.8063467  55.2969360  13.9909720
  32.3274946  54.7034645  39.5449281  32.5610137  54.3885899  38.6716843
  33.0641413  54.4436169  40.0981522  48.3747673  81.1496735  55.6033993
  47.6455688  80.9617043  56.1942959  48.1801319  82.0183182  55.2515411
  47.0570755  74.3285894  16.1029041  46.5319633  74.5219469  15.3263092
  46.6020727  73.5994148  16.5242279  39.0140200  63.7206173  27.5971818
  38.7609935  62.8441572  27.8870463  39.2621756  64.1765308  28.4014153
  43.1741571  65.0810957  48.3419514  42.7084112  64.2599773  48.1835794
  43.9192343  65.0534630  47.7416801   6.6039044  69.3291616  25.4685259
   6.6651964  68.6365318  26.1263561   6.2506878  68.8926554  24.6933270
  35.4688311  69.3856430  12.9479074  35.9820271  68.6425066  12.6307166
  34.9930596  69.6946573  12.1769440  20.9750867  81.6359711  19.1758835
  21.0168910  82.0246506  18.3021486  20.6121206  82.3279572  19.7287357
  25.7763290  63.9249086  57.2008276  25.5332971  63.0383062  56.9341707
  26.6812706  63.8447571  57.5023031  50.2463007  60.0811672  35.6395674
  50.3458595  59.4833279  34.8986840  50.2406836  59.5109558  36.4083719
  20.0384378  68.3453989  65.3951454  20.1117539  69.1639376  65.8859110
  19.4072294  67.8243113  65.8914042  31.6752601  41.5833759   1.9064654
  32.5662470  41.5191793   1.5625875  31.1214638  41.6396761   1.1277656
  33.6813164  17.0679498  28.4641838  34.1983604  16.3372111  28.8031793
  33.9722610  17.1670079  27.5576687  54.0637064  44.4394636  12.8312349
  54.7043753  43.8195944  13.1798530  53.5220766  43.9168930  12.2398067
  29.4235897  40.5170584  48.7035131  29.0291524  40.6072283  49.5709944
  28.7366080  40.1199961  48.1681347  82.3933830  61.5561914  37.5445199
  82.1198060  62.2871494  38.0986762  83.1965055  61.8624687  37.1233058
  10.7551190  18.5993967  56.3870136  11.0564992  18.9742717  55.5594460
  11.4492985  18.8090667  57.0118229  36.5990090  37.6023746  13.3997500
  37.1939468  38.3071804  13.1437635  37.1318626  36.8088293  13.3488834
  15.7018483  34.8787904  34.6661806  16.2025630  34.1813207  35.0893259
  15.5471897  35.5182672  35.3614402  28.5660219  81.9918060  24.5542216
  29.4540238  81.7167759  24.3260860  28.4413910  81.6795635  25.4504418
  54.6666241  60.9157181  34.5710063  54.5855856  60.6674623  35.4918933
  55.5294037  60.5928898  34.3109488  59.8221210   2.8042418  40.5187988
  60.3215435   3.4032542  39.9638319  59.0267900   3.2890135  40.7394266
  60.7855463  89.1553497  42.0546150  60.6684732  88.3553314  41.5422678
  60.9978676  88.8467312  42.9354715  37.3223805  72.8478384  33.2325625
  36.5617156  73.3292675  33.5579038  37.0479751  72.5157022  32.3777986
  52.9493475  78.8461447  26.1347938  52.1556759  78.8832569  25.6009936
  53.6549568  78.6990881  25.5049372  28.7296295  63.3559275  39.2709851
  29.1654277  64.1073370  39.6730995  29.4456625  62.8005648  38.9626050
  92.3126081  13.0336767  26.3324237  93.0432370  13.0986792  25.7174587
  92.1816018  12.0928103  26.4501214  29.6536636  73.6877584  17.0776010
  30.5701780  73.4473228  16.9418538  29.6227646  74.6267986  16.8946433
  42.7273226  80.4767799   8.5968536  42.6655054  80.5224133   9.5509648
  42.9977369  79.5763302   8.4171498  16.3003981  54.4057560  23.8711500
  16.5654945  53.8602972  23.1305885  15.4334927  54.7321701  23.6299849
  70.2906370  77.8696299  63.6341381  70.6723213  78.3577251  62.9045391
  69.3542385  78.0625629  63.5875654  44.6118736  31.5429258  13.7977040
  44.1540480  32.0689678  13.1420302  44.1563749  31.7329359  14.6178555
  36.3488507  65.8250523  35.6616354  36.3319111  64.9156570  35.3634000
  35.6067371  65.8940077  36.2622547  36.9044614  48.3364630  26.8833113
  37.1691656  47.4224806  26.7793870  37.3604012  48.6296415  27.6722312
   3.6496690  61.5034485  41.4078045   3.7853175  62.3013783  41.9188261
   3.6989510  61.7915058  40.4963064  56.1739159  71.1373806   2.1669184
  55.8632278  70.5744314   2.8759962  56.5209770  70.5300665   1.5135042
  31.0111332  74.8244619  46.0605097  31.5156627  74.8920298  46.8711376
  31.6422439  75.0218678  45.3684378  37.7525401  80.6330872  49.6416998
  37.0638657  80.2639580  50.1945972  38.5308528  80.6366730  50.1988792
  87.8075698   1.9092089  15.5442786  87.6429179   1.0585409  15.1374769
  86.9388059   2.2331721  15.7820356  47.2068262  74.1255426  58.6595249
  46.8011284  73.2650900  58.7656403  46.5717888  74.6285200  58.1496525
  51.3387108  57.9661989   6.8597424  52.0031309  58.6412096   6.9980872
  50.5657196  58.2930851   7.3200190  28.6681986  49.1351748  38.7439728
  27.9099059  49.4928122  39.2058325  28.9424539  48.3883333  39.2761803
  81.4188649  82.6784039  58.4669161  81.7267110  83.4048176  59.0089417
  81.8593504  82.8033447  57.6263237  32.6779008  65.7838106  46.3251686
  33.2343984  65.0393677  46.5539598  32.1840692  65.9681702  47.1241474
  78.3578876   4.1850954  33.1080413  78.7327054   3.9063841  33.9435434
  79.0917495   4.5779902  32.6354837  14.0850711  69.3242884  12.9216731
  14.9329436  68.9911270  12.6278281  13.6576736  68.5688257  13.3252060
  15.8435154  76.8982792  59.7817421  15.9834969  75.9621668  59.9243355
  14.9557447  77.0591354  60.1014566  22.5029492  68.7371635  69.1884899
  22.7951908  69.6244669  68.9798880  21.6740370  68.8605261  69.6510029
  31.8989944  64.8194504  22.2749615  31.2353659  64.1308212  22.2347164
  31.6725492  65.3249741  23.0556011  25.8756185  69.8291683  64.9750233
  25.8100986  69.1910982  64.2645264  25.7963252  69.3074083  65.7735920
  92.5056458  55.1577854  14.0332925  93.1738949  54.5315123  14.3116164
  91.7481232  54.9603558  14.5841157  41.7874718  48.9567566   8.1141669
  40.9113598  48.5959864   7.9781413  42.3798418  48.2444096   7.8735524
  73.6290983   8.0068117  46.6174412  73.3570674   7.4960619  45.8549690
  72.9266599   7.8782660  47.2548485  21.5129304  73.3158922  51.4179802
  21.1708140  72.9420233  50.6059408  21.2948275  72.6697588  52.0896769
  67.2294712  56.0165358  57.3006296  67.0646954  56.1200905  58.2378340
  67.0279741  55.0979757  57.1220732  23.8477755  72.2595453  39.1626573
  24.7564244  72.5456047  39.2562509  23.9077854  71.4111948  38.7234235
  35.0158668  62.8516388  54.0459585  34.9607921  61.8985367  53.9767218
  34.7120261  63.1714487  53.1964636   4.6179975   8.5794264  30.5951166
   3.7806095   8.3414847  30.1971245   5.1103367   8.9946657  29.8870111
  16.9001746  51.9431019  59.9758863  17.2978604  51.5213585  60.7376003
  17.6342583  52.1124125  59.3853855  32.7500272  50.8954287  46.1671543
  32.9486799  51.0016775  47.0974636  32.9450297  49.9763680  45.9840441
  21.5451288  78.8707638  65.0318766  20.9434700  78.8223886  65.7747746
  21.8241906  77.9661417  64.8903751  17.0590413  82.5246811  32.2273779
  16.6035020  82.2324657  31.4378691  17.4575484  81.7299080  32.5819921
  44.6191406  59.0765715  27.4200726  45.1069164  58.5983133  26.7495704
  43.9537716  59.5616245  26.9319749  69.4118503  20.0545412  21.2001872
  69.3254736  19.9916846  22.1514082  69.9682167  20.8207804  21.0603189
  51.0315600   3.0602557  31.2828612  51.1783508   2.2515875  31.7735124
  50.2455917   3.4396273  31.6760063  26.7659760  76.5543127  42.1740818
  27.3018193  77.0657206  42.7803516  27.0598745  75.6517506  42.2975159
  13.8844204  43.1581020  45.6871367  14.7803128  42.8560162  45.5376339
  13.7291551  42.9960442  46.6176510  32.4752223   3.7750346   3.8381726
  32.6169048   3.2382780   3.0584002  31.9093717   4.4868952   3.5393524
  17.1256697  81.8345070  36.5580773  16.5922105  81.9551659  35.7725215
  18.0168986  81.7221546  36.2274432  35.9168378   4.4933420   1.0520298
  36.7923752   4.8585326   0.9243412  35.3313676   5.1211649   0.6285938
   1.8534514   1.1969385  75.0165753   2.3164722   0.3710804  75.1573145
   2.3623106   1.6446504  74.3406693  23.7940645  73.8968706   3.6699274
  23.3794188  73.3199263   4.3113637  24.2062283  73.3017588   3.0436715
  65.4264402  52.0677757  18.1459260  64.7993612  52.6963425  18.5035658
  66.2068558  52.1718740  18.6903036   7.5921023  46.4195871  49.3231916
   7.5620049  45.4635000  49.2881966   6.7447460  46.6726446  49.6894979
  29.4109702  59.9152851  48.2315445  30.0347328  59.9300909  47.5056410
  29.7124767  59.2001915  48.7918711  69.8698095   9.8123843   1.5077710
  69.7433737   8.9723307   1.0666969  70.2946809   9.5868403   2.3353249
  56.4215660  69.8127699  53.7649345  57.3737907  69.7155905  53.7727976
  56.2773514  70.7590389  53.7683821  69.9263525  67.7680302  30.6125259
  69.0350866  68.0148268  30.3656054  70.4504967  67.9520369  29.8330092
  13.8143158  62.3006821  33.2706118  13.6609352  63.2355595  33.4073997
  14.7672856  62.2109652  33.2763195  52.7065611  79.0677691  18.3552313
  52.6255226  79.9770927  18.6429715  53.4520531  79.0720606  17.7548540
  26.0648203  77.4021626  29.3219376  25.3239918  77.4322844  29.9273276
  26.2369561  78.3191919  29.1082573  31.1336327  66.4509201  44.3339348
  30.2360439  66.1859751  44.5348644  31.6433191  66.1641884  45.0917196
  38.3448696  62.5694227  21.8462014  37.8974223  63.3444643  22.1858120
  39.1091681  62.4664211  22.4131870  46.0954142  58.5084438  36.3311887
  46.1504364  58.6542130  37.2756243  46.5885353  59.2337370  35.9477663
  70.3293419  83.9455223  56.6874456  70.8997393  83.5288048  56.0415220
  70.3057480  84.8664284  56.4274168  49.8772240  69.0470982  36.4224982
  49.3133974  68.9303017  35.6578445  50.4725504  68.2979631  36.3977790
   2.4305287  34.7395253  26.2643766   1.6928959  34.1424799  26.3895345
   3.1098694  34.4072175  26.8511462  74.8483610  74.1560555  35.4096150
  74.3468142  73.4243631  35.7692194  75.5481100  73.7416315  34.9047995
  36.0481381  30.5788493  31.7473364  36.8963385  30.1427555  31.8286562
  35.5433226  30.2623963  32.4965048  86.3635162  31.5499407  41.1238861
  85.7786468  31.1421019  40.4852724  86.9339422  30.8384711  41.4148426
  48.5872602  85.8799934  16.8931162  48.4181356  85.5919266  15.9960961
  47.7894735  86.3419342  17.1507633  24.3036032  45.0784588  30.9109592
  23.7619877  45.3911400  31.6356063  23.7433720  44.4592524  30.4430366
  56.4835623  11.9476229  18.0429566  55.9829453  12.6733500  17.6702225
  56.9473007  12.3333365  18.7861931  85.4707769  23.4699923  18.9649940
  85.2327350  24.3291956  18.6166573  86.4248279  23.4387118  18.8940263
  92.0368863  61.9711351  30.2745271  91.2769713  61.3903999  30.2357054
  92.4204585  61.8064070  31.1359024  35.5085540  65.6150723  21.8604493
  35.2557850  66.5382910  21.8580031  34.6783400  65.1393700  21.8342686
  19.3153024  37.4122190   5.8736157  19.6208417  37.8774095   5.0948501
  20.1043582  37.0111918   6.2380320  11.9305655  40.8289585  68.3482568
  12.3686978  41.3860092  68.9916675  11.8438241  41.3822422  67.5719909
  19.4420671  67.9065752  61.2142038  20.2137566  68.0430651  61.7638397
  19.2053258  68.7833357  60.9117556  31.8752480  60.8722258  62.2173071
  31.8446016  61.4616346  62.9708958  32.6060581  60.2828407  62.4037838
  67.1389161  34.1781578  45.4861729  66.8286498  34.0454301  44.5904343
  67.7649634  34.8990640  45.4184501  11.4357078  76.6847467  53.8164234
  11.7575061  75.8143806  54.0512514  11.8064630  77.2646952  54.4815779
  81.4614299  30.4938799  32.5224519  80.5648092  30.5674750  32.8493881
  81.3742641  30.5451781  31.5706110  56.6358712   8.7511832  67.8142023
  57.2139934   8.2718664  67.2206831  57.2291687   9.1918188  68.4225416
  43.8742018  51.0286808  45.1948881  43.7883854  50.4398012  45.9446144
  44.8186016  51.1144352  45.0645447  11.8513775  56.2570190  49.4652224
  11.4836562  56.8403769  48.8013649  12.7441955  56.0858011  49.1655731
  29.5867841  10.4561621  71.0232306  30.4762177  10.3131396  71.3467741
  29.1526020  10.9432703  71.7235518  39.6907306  62.2818279  12.0581996
  40.3740549  62.3019457  12.7281952  38.9947677  61.7482710  12.4418473
  52.8545332  78.0369234  64.7756529  53.4645987  78.6087036  64.3096924
  52.0104647  78.1906605  64.3512201  61.9374609  80.2458668  32.1501207
  62.1532297  80.6007481  33.0125237  61.2881136  79.5651770  32.3268485
  60.3121522  24.2045790  44.8243904  60.4005507  24.8309904  44.1060400
  60.2723530  24.7472674  45.6118727   9.4603097  47.3823881  22.1122456
   9.1342908  46.6638422  22.6541281  10.2949548  47.6250696  22.5131249
  23.1316137  60.4881001  55.1620770  22.5642300  60.4531431  55.9321976
  22.7900290  59.8077488  54.5818377  28.9318800  68.3663273  20.7362676
  28.5806370  68.2037020  19.8608184  28.4386420  69.1219282  21.0556746
  34.0941930  48.5230541  45.2056122  34.9281216  48.8172245  45.5720234
  34.0050554  47.6193619  45.5083227  56.1306384   2.5986010  19.7412169
  55.9201482   3.3069712  20.3496003  57.0305136   2.3554713  19.9588108
  40.1063156  72.2511768  75.7913303  39.2003226  71.9887447  75.9542370
  40.0730467  73.2062864  75.7376242  87.1459117  54.9174881  19.8098135
  87.0179917  55.8275747  20.0774169  87.1995117  54.4311953  20.6325412
  79.0988730  27.6984033  69.4355754  79.8586057  27.2272358  69.7776846
  79.4715427  28.4425172  68.9626680  88.9003478  19.5982275  74.9760696
  89.1288554  20.3909359  74.4906483  89.3850933  18.8998756  74.5361188
  15.7299483  58.1477213  36.3915634  16.2966442  57.8732967  35.6706047
  16.3277185  58.5305548  37.0337033   2.4443240  20.9926987  65.7845306
   1.7415974  20.4532361  65.4220533   2.2096154  21.1044288  66.7057562
  92.5811233  41.6114187  34.7553325  91.7216693  42.0261669  34.6808243
  92.8064402  41.3644314  33.8584137  43.5853672  50.9723759  27.4921727
  44.5159388  51.1485529  27.6308513  43.4428978  50.1123762  27.8875661
  34.1613770  62.5864553  46.5718555  34.8756051  63.1898546  46.3668728
  33.4901428  62.7785778  45.9170532   9.9966389  56.1282492  56.8456125
  10.4848289  55.4986620  56.3150311   9.8920083  56.8908072  56.2765884
  81.1904262  20.6066999  63.1693892  81.9104897  20.2951965  62.6210205
  81.2074434  20.0332126  63.9355842  76.9236091  33.4841162  20.9023094
  77.6271489  34.1320998  20.8652043  76.2944892  33.7755781  20.2423906
  31.9991212   3.5688978   8.1757081  32.6708622   3.6419684   8.8536870
  31.3654665   4.2530638   8.3916390   1.3832231  86.1147785  45.5382156
   2.1077041  85.5205345  45.3426790   1.7919618  86.8470764  45.9996367
  56.7776203  63.5096216  34.5089555  56.2503910  63.6414528  35.2969146
  56.5597296  62.6233149  34.2204881  57.7644587  66.9839096  44.7853518
  56.9300652  66.5148449  44.7854376  58.3843088  66.3699818  44.3915033
  26.2110114  42.2688627  15.3244317  27.1555114  42.4132586  15.2669871
  25.8872771  43.0051374  15.8433962  31.1473131  66.0784292  12.2832775
  30.2566600  66.2171602  12.6053369  31.3245106  66.8412399  11.7328668
   2.7420992  45.2103424  56.8576527   3.6061132  44.8925114  57.1197510
   2.8987631  46.1025763  56.5484571   9.6701103  57.1956444  18.0425298
  10.3225720  56.8141937  17.4551451  10.0230408  57.0489740  18.9201164
  92.9945155  61.8778896  57.5231886  93.9466915  61.9752407  57.5339365
  92.8487689  60.9819508  57.2194099  43.0773687   8.4901613   4.0867731
  42.2952700   7.9384255   4.0749395  43.4864950   8.3440340   3.2338411
  85.4237701  55.6099939  28.4215760  86.1239101  54.9579287  28.3924103
  84.7701951  55.2875805  27.8009939  23.8366294  65.2337837  26.3255787
  24.3379450  65.7825232  26.9287348  23.3180332  65.8535910  25.8126187
  48.5332775  53.5934877  26.8482518  49.3330574  53.1985044  26.5010238
  48.6754990  54.5362759  26.7636490  82.1834663  22.9896551   7.1136951
  82.1813539  22.1926791   7.6438415  82.3819497  23.6901480   7.7351010
  86.4654364  80.6421471  25.2318215  86.0852762  79.7665501  25.3028655
  87.0537766  80.7095528  25.9838486  46.9191074  75.3290367  53.2988024
  47.1030092  75.9218884  52.5701475  47.6466656  74.7070789  53.2910204
  60.3062105  59.4479895  12.7629304  59.9525976  60.2889109  12.4730277
  59.7020531  58.7977600  12.4045563  52.8608608  77.5824213  38.7371707
  52.5452709  78.0449152  37.9608107  52.2430754  77.8237200  39.4273496
  91.5529238  10.7805070  75.8984930  91.7922794   9.9330244  76.2736137
  90.8525668  11.1040315  76.4651195  49.0406799  82.2765446  18.9579868
  48.7991190  81.4466953  18.5466039  48.3735800  82.4135494  19.6306217
   6.6556060  70.1204252   7.7560955   6.4733082  70.8350706   8.3662444
   7.6053125  70.1422262   7.6385641  25.4717374  83.8872719   4.4280237
  26.3224888  84.0495682   4.8355934  25.2472329  84.7156811   4.0042651
  19.1679013  52.7416897  41.9772577  19.1242015  51.8847895  42.4015760
  20.0765109  52.8187704  41.6861963  34.6426749  53.0698442  54.3138981
  35.3417134  52.5870419  53.8729000  34.8836231  53.0476379  55.2400064
  25.7610679  74.2395592  16.8656325  26.0626125  75.0767326  17.2183979
  25.7953930  74.3535566  15.9158647  86.8734458  22.2132784  51.0345745
  87.7460340  22.4969775  51.3072157  87.0311645  21.4384085  50.4951906
   7.6221983  30.9010932   9.4566901   7.5323145  30.8667657   8.5043319
   8.0990021  31.7142293   9.6231063  34.3737912  83.1190109  32.8674269
  34.5800734  83.4007263  31.9761848  34.4998264  82.1702385  32.8539276
  86.2254432  10.3472430  21.9890356  86.3492873   9.3997294  22.0447850
  87.0331815  10.6713301  21.5905857  75.4829741  78.9852810  56.9433451
  75.3343105  79.2740345  56.0429287  75.9591627  79.7085190  57.3512745
  32.7157640  87.4516392  33.4344053  33.2094646  88.2346153  33.1905961
  32.9544973  86.8023109  32.7728844  68.4374142  85.8201790  43.6411095
  67.5025988  85.6168556  43.6092615  68.4890747  86.6308880  44.1473866
  19.5558774  58.7198639  37.4516177  18.7452030  58.8361788  37.9471087
  19.6446908  59.5269823  36.9447637  58.9500049   6.9356257  16.8064559
  58.0460957   7.2505480  16.8079722  59.3012527   7.2198683  15.9626174
  17.4422288  67.5123692  39.2239904  18.2070446  68.0768871  39.1117048
  17.7810395  66.7358255  39.6694374  37.1517777  60.2058887  18.4239411
  36.3767529  60.7361507  18.6093688  37.2224259  59.6147060  19.1734374
  72.8790199  15.6766376  69.3931298  72.3877900  15.4633436  70.1864956
  73.0684613  14.8278484  68.9932571  36.1227870  81.8536377  30.9060955
  36.1696506  80.9519196  30.5883837  37.0349836  82.1407223  30.9474540
  36.1485210   5.5722624  41.8762016  35.5377284   6.1635596  41.4362860
  35.8931783   4.6991640  41.5783262  10.0602877  69.0625143  14.3817496
  10.0847685  68.9895010  13.4276521   9.2369294  69.5144463  14.5663297
  17.1878827  53.4276199  39.6302438  17.1268868  54.2625713  40.0943184
  18.1146157  53.3459139  39.4050312  38.5404253  78.1460285  13.9795017
  38.1490254  77.5958014  13.3010590  39.4221187  78.3329630  13.6571598
   1.8847765  49.4435698  24.1523194   1.0403885  49.0032202  24.0556812
   1.7450870  50.3139407  23.7792706  21.1877966  65.6572580  34.0666986
  21.2400079  65.2309608  33.2112598  21.0018563  66.5745735  33.8662195
  12.9433036  30.4624128  43.7979460  12.9847240  29.5251155  43.9876604
  13.2981598  30.5435038  42.9126596  92.8533389  43.4254456  37.6734805
  92.0918860  43.7496471  37.1925282  92.5392600  42.6368284  38.1158257
  21.6243362  53.5092545  28.1556225  22.0976233  53.1732845  28.9167762
  21.3482118  52.7256727  27.6802421   9.8704447   2.7165419  33.5835290
  10.6053699   3.0138403  33.0471253   9.2097391   2.4360758  32.9502535
  66.7341355   0.0060183  24.4296765  66.4337877   0.9032828  24.2849445
  65.9922913  -0.4302210  24.8487139  56.9157219  73.5083771  48.0528784
  57.7940321  73.2558155  48.3375072  57.0635939  74.0899229  47.3071098
  91.6936367  66.4547539   0.6854638  92.6044088  66.2077284   0.5251424
  91.6026225  66.4290857   1.6379811  26.3559079  70.0116920  34.3749094
  26.7842078  69.5431376  35.0913215  25.4711699  69.6475267  34.3456578
  17.7055168  73.2661867  22.3676276  16.7834222  73.0097675  22.3825359
  18.1802559  72.4661970  22.5931811   3.1826800  86.2863350  29.8770547
   3.7468946  85.8772469  29.2208958   2.4544957  86.6501713  29.3734670
  20.5472422  55.7466364  17.1732306  21.4960313  55.6496143  17.2545838
  20.2554154  54.9248743  16.7785406  33.8631678  73.0507851  44.7944260
  33.4701610  72.7817488  43.9641285  34.3067551  72.2655010  45.1150370
   8.5988897  67.8813648  17.1431553   7.8638774  68.0527782  16.5544236
   9.1620654  68.6501217  17.0532966   5.6884405  41.2155304  53.4909431
   5.1627228  41.5094814  54.2348830   5.9471390  42.0228920  53.0465691
  88.6582279  67.0864630  30.1610494  88.0116558  67.6662493  29.7585297
  89.1841316  67.6626301  30.7157469  32.2353649  69.0729380  25.3100872
  31.8458223  69.7600794  24.7694206  33.1751966  69.2527914  25.2855659
  17.1358287  72.0713806  19.2039180  16.9677985  72.8078842  19.7917628
  16.3483310  71.5308094  19.2660880  23.1932211  75.4847574  34.7560358
  23.5525870  74.7896719  35.3073454  23.9506769  76.0218525  34.5236087
  47.1313572  76.3628435  46.7402744  47.1060228  77.1308756  47.3109913
  47.2284031  75.6224966  47.3391867  26.0174179  81.2634182  11.2438142
  26.0500669  81.9680500  10.5967677  25.1602197  80.8579445  11.1133206
  20.9912825  70.7286835  19.1701066  21.8504953  70.4721403  19.5050299
  20.5809689  69.9048281  18.9071608  39.8845887  64.9596167  45.6429005
  39.8594832  64.4493723  44.8334217  39.7734547  64.3112612  46.3382530
  25.4008436  63.9774895  30.1853204  25.3675032  63.1486082  29.7077417
  24.8643351  63.8272047  30.9636545  22.7825189  84.7496319  47.9562521
  23.3941150  84.0224171  48.0717182  23.2678723  85.5199718  48.2516146
   9.8130733  65.5549335  20.3667498  10.3103769  64.7452831  20.4824543
   9.1580975  65.3408480  19.7023666  43.6612034  50.1032495  13.3638144
  43.8955450  49.5515013  14.1100621  42.7070761  50.0454426  13.3134794
  40.3135538  25.7456923  32.2842216  40.6760120  25.4983211  33.1349087
  40.3195190  24.9344087  31.7762685  72.5031853  57.0718241  46.7511177
  73.1951857  56.4972782  46.4236069  72.9006195  57.9425335  46.7634058
  56.6875458  80.0356483  17.9174709  55.9997654  80.3137398  17.3126137
  56.5091944  80.5214882  18.7226880  49.3038416  64.6091413  26.5047073
  48.7732410  64.4788551  25.7187581  48.8937521  64.0513659  27.1657252
  46.0063866   8.1972700  14.7121537  46.7390385   8.1844240  14.0962887
  46.0415521   9.0680414  15.1080787  25.2726769  37.5032735  63.0599689
  24.8357773  37.8866863  62.2994804  24.5574903  37.2280669  63.6335564
  30.3717279  53.9658403  30.4721379  30.8421278  53.3144236  29.9519324
  29.9973583  53.4673786  31.1985111  26.9411373  86.6944981  70.3629923
  26.4808369  85.9701157  70.7868338  27.7597618  86.7770100  70.8521509
  10.5377543  75.8831596  18.7221777  10.1000321  76.5758848  18.2274413
  10.6887746  76.2651205  19.5867777  27.5526524  49.5599031  45.8352041
  26.6044331  49.6788836  45.8895588  27.8906703  49.9610996  46.6358376
  38.8983297  76.0372829  33.2387948  37.9434085  76.0949707  33.2067013
  39.1155338  75.3243876  32.6381016  30.3234553  23.1989408  56.3633204
  30.8252573  23.8538098  55.8779573  29.4087791  23.4331369  56.2059975
  33.8428752  10.3951842  34.6089816  34.7264311  10.1442915  34.3395162
  33.4470749   9.5810419  34.9200249  24.9679136  80.6310177  40.8983326
  24.5401430  80.4226494  41.7288923  24.4754004  81.3768768  40.5557585
  40.2520895  67.9027033  13.9996624  39.3340874  67.6587915  14.1180575
  40.7401371  67.1050835  14.2042255  86.6061118   7.3586661   3.3530766
  87.2804597   7.1023089   3.9821804  87.0854762   7.8118044   2.6594618
   2.5830862  46.5211248  14.9927974   3.0883330  46.9845629  14.3248296
   2.8844482  45.6144476  14.9349105  41.5058324  77.5521335  73.3564894
  40.5851266  77.4856529  73.1032766  41.9791266  77.0959243  72.6607163
  69.7997289  70.5084667  75.9797009  69.1922199  71.0307369  76.5035338
  69.3357651  70.3554020  75.1565729  60.1855043  21.6922480  24.2615700
  60.2819041  20.8701044  24.7422171  59.4275144  22.1170050  24.6631527
  64.0053037   5.0941378  35.9698486  64.2468241   5.4810530  36.8113899
  64.7854141   4.6123129  35.6950545  44.3589687  72.4187517  37.1281147
  45.2569056  72.2798634  37.4291945  43.9988995  71.5368986  37.0337057
  76.1442617  30.4508215  18.3501029  75.3168300  30.4534632  18.8313282
  76.7767623  30.8319384  18.9591372   8.3843228  60.5536327  68.0512629
   7.8442690  59.9946365  67.4926035   7.8876898  60.6292781  68.8660423
  47.0733166  76.9792509  22.8326750  46.5937185  76.1525536  22.7798271
  47.2717857  77.1996164  21.9225764  31.5735292  70.3366852  64.7977972
  31.1881828  70.9915733  65.3799152  32.3065996  69.9751663  65.2959394
  80.6634858  23.6511427  49.2609024  81.4278367  23.4337050  49.7944975
  80.9573940  23.5247618  48.3587503  83.0802441  80.1887131  70.9487104
  83.5083294  79.8352957  71.7284966  82.3294353  79.6124601  70.8057117
  42.5109673  57.6974106  52.9901552  42.3240185  57.4554062  52.0831203
  43.4293509  57.4593449  53.1171417  92.5220111  12.3315722  70.7708645
  92.2836164  12.8316218  71.5514803  92.8960470  12.9809862  70.1753950
  12.3584747  78.4239531  12.4502504  12.9401219  77.8839207  12.9853022
  11.4776862  78.1294823  12.6820445  45.2148834   6.2137801  44.5646000
  45.3218869   6.7290503  45.3641462  45.1157895   6.8658358  43.8708925
  14.6244466  81.0862827  22.5317550  15.5329871  80.7918739  22.5958514
  14.6722806  81.9052219  22.0385289  23.1872749  72.0567942   8.8675469
  24.0218091  72.0172358   9.3346876  22.6277065  71.4278936   9.3231750
  52.9506806  14.5460516  26.0565066  52.8285268  14.8754126  26.9469166
  53.8433030  14.8037249  25.8261681  41.9910669  49.0781116  29.4565701
  41.8622065  48.2796717  29.9685431  41.2889862  49.6622658  29.7430754
  83.3008483   9.3902880   9.8133945  82.6976112  10.1290804   9.7326678
  82.8519920   8.7770659  10.3953874  37.5126532   0.6295782  30.0452757
  37.4683860   1.5411955  29.7567868  37.8056154   0.1475817  29.2719197
  30.1266170  80.9917259  47.6640463  30.2828741  81.0137367  46.7199421
  30.9125328  80.5836678  48.0274391  30.1518370  24.9963766  28.7999105
  29.5135006  25.4243571  28.2293081  29.6417843  24.3490130  29.2867374
  62.3072481  84.9282837   1.9796775  62.6494408  84.5314503   2.7807155
  61.6044378  85.5048943   2.2793546  33.5323728   3.4687048  20.7220149
  33.4028543   2.7129752  21.2950039  32.6614298   3.6557585  20.3717303
  48.1724385   1.2889868  52.3886299  48.2352927   0.5192381  52.9541063
  47.2401157   1.5056902  52.3818111  90.0198844   8.7891489  56.7526579
  89.4884303   8.3630663  57.4251461  90.6257633   8.1086165  56.4593792
  13.5769653  32.9999065  29.4452119  13.2259166  33.2955384  28.6052132
  14.5231128  33.1209707  29.3653393  55.7038116  63.8542986  43.5687637
  56.4258194  63.9734459  42.9517221  55.7805252  62.9438972  43.8542795
  82.3562673   7.5809580  23.0513310  83.2531217   7.3817355  23.3200240
  81.9167140   6.7308050  23.0348992  29.7481585  82.0510197  33.1476188
  29.9932599  82.6690769  32.4590254  30.4081345  82.1777630  33.8292360
  88.2266525  31.9601065  52.7174234  87.9664090  32.3310572  53.5605717
  87.4358323  32.0081717  52.1802759  26.9231749  79.5088577   3.5707939
  26.9854164  80.3613758   3.1400084  27.3427892  78.9014387   2.9615375
  82.7998307  18.7042910  18.6649239  82.9882577  19.6211821  18.4648228
  82.5015023  18.3342367  17.8340840  21.3372159  50.6779432  27.7891064
  22.1294785  50.5995369  27.2576880  21.4634132  50.0508547  28.5011888
  60.3982445  47.5117645  74.4673733  61.0333153  47.7348957  73.7868346
  59.9119183  46.7701301  74.1072534  71.6151908   5.1460081  26.2234592
  72.2709325   4.6565062  26.7200685  71.9280246   6.0504919  26.2402749
   1.5195478  22.2171885   5.8327180   0.8297933  22.6157385   6.3634080
   2.1053280  22.9428679   5.6170905  67.7129078  69.5837021  48.6656666
  67.5151682  70.4992914  48.8627291  67.8020000  69.1679668  49.5232534
  22.3606027  16.1149794  63.0760145  23.0220140  15.4233748  63.0970907
  21.5632547  15.6749541  62.7813101  21.0775137  86.8197727   9.3331707
  20.9629512  85.9782887   9.7747588  21.1851645  86.5928555   8.4095091
  61.5503407  77.4005699  53.3248997  62.3612118  77.1855211  53.7858534
  61.7029476  77.1127796  52.4248314  67.0613384  82.6448250  58.0897331
  66.9005442  82.8720474  57.1739006  66.2609577  82.9057121  58.5453176
  88.5211660  79.4312859  26.8244195  88.3412953  78.7619114  26.1642551
  88.0664333  79.1229439  27.6082397  83.4763432  71.6583252  24.2184472
  83.3141994  70.7802629  24.5633411  83.8583183  72.1376705  24.9536657
  78.8273798  57.4869117  65.3618769  79.2610668  56.6357956  65.3006534
  78.9661728  57.7617988  66.2681906  42.2718763  73.3441734  47.2659397
  43.1917334  73.2384682  47.5086689  42.0112085  72.4846792  46.9349575
  46.1803532  77.7742577  32.5789595  45.4143858  78.1209707  32.1214461
  46.8452978  77.6816988  31.8966746  24.0937281  76.6186380  40.8834887
  24.9656963  76.6477346  41.2772655  23.4940648  76.6133976  41.6295528
  64.5310834  43.2232958  49.6411133  63.7580803  43.2891947  50.2017879
  65.1794651  43.7896162  50.0595808  32.8816676  58.5269785  17.8870440
  32.4413657  58.1856918  18.6654329  32.2575116  59.1481495  17.5118053
  88.7989906   9.6076304  20.5049133  88.8295701  10.5117422  20.1920819
  89.5838598   9.5143133  21.0448241  83.6445812  -0.3036779  50.4768848
  84.5485929  -0.2502817  50.7869530  83.3389238   0.6033999  50.4724407
  37.9807711  78.4829473  20.3344727  37.2286487  77.9410696  20.5730367
  38.6427259  78.2779551  20.9947968  53.9841509  81.4149666  34.4860220
  54.5346689  81.6632080  33.7433624  53.8105154  80.4828835  34.3544531
  81.0573581   8.2089049  14.3354487  81.3336423   7.6944262  15.0938749
  80.2697089   7.7660376  14.0196788  49.0409088  88.7203407  29.1414571
  49.1737175  88.9806843  28.2299662  49.2556047  87.7876759  29.1578746
  49.8820305  82.0892620  27.3205566  49.4670391  82.9009914  27.0288348
  49.6942282  81.4603996  26.6237760  61.5219262   9.5921046  34.8580503
  61.8721059   8.7388712  35.1141906  61.3723877   9.5165068  33.9156294
  10.7648958  45.2322012   5.6595862  11.4540781  44.7045142   6.0630786
  10.5120529  45.8564955   6.3397086  89.5912706  40.3659401  64.0421919
  89.9910938  41.1841831  63.7475101  88.7247335  40.6227169  64.3574850
  64.2325357  24.4369417  -0.3670220  64.8357609  24.2998415   0.3634249
  63.4426215  24.7944075   0.0385454  39.8715702  15.9768587  21.7146039
  40.2202657  16.1458212  22.5898743  39.0872345  16.5227896  21.6597557
  52.0230344  24.2476279  10.8706272  52.3813799  24.6697527  10.0898397
  52.5502041  24.5911795  11.5919423  86.5696621  79.6711111  42.1068430
  86.9259453  78.7849712  42.0432234  87.3067188  80.2048683  42.4036026
  93.0427316  21.7603976  26.5152597  93.7763599  22.3118311  26.2433314
  92.9921058  21.0806185  25.8432722  46.9581270  73.3468914  32.8980422
  47.7680683  72.9193115  32.6198244  46.8756247  74.1040421  32.3182559
  77.0912695  73.5028696  32.2767019  77.8215504  74.0141106  32.6253486
  76.3808727  74.1367197  32.1776843  81.6494849   6.6751105  16.5648699
  82.0427182   5.9038073  16.9731486  80.8952049   6.8802363  17.1173358
  59.3405771  79.0658808  23.2910085  58.5254622  79.4973135  23.0347133
  60.0066233  79.4570112  22.7256489  78.7289429  82.1159363  27.6809525
  78.5874367  81.6414833  28.5001588  78.5468006  83.0299950  27.8990269
  46.0791731  67.0593500  50.0922108  45.5273008  66.2772894  50.0852537
  46.8819141  66.7900085  49.6457863  49.7477674  77.3043108  22.8331923
  48.8369179  77.0203209  22.9101825  49.8676777  77.4736691  21.8987560
  63.6493161  24.1092879  20.1835656  63.3492044  23.7259394  21.0077071
  62.8455928  24.3715197  19.7346854  15.2495143  12.7914009  62.5120453
  14.8564574  13.6027488  62.8336934  15.6872174  13.0432472  61.6988890
  79.4747594  43.6173159  17.2622263  79.2242101  44.0808684  16.4631164
  78.6450818  43.4343439  17.7031195  35.1852202  78.8971901  25.8775997
  35.9411669  78.4367275  25.5132484  35.5257320  79.7560406  26.1279106
  73.1921135  48.0627212  71.9537745  72.5792162  48.7947521  72.0224200
  72.7863829  47.3619709  72.4642305  36.5070176  71.7227602  37.8761506
  35.6106591  72.0529890  37.8151345  36.6196394  71.1888933  37.0896792
  78.0528119  17.0181185  43.1183147  78.2302907  17.9052359  43.4309721
  77.9991153  16.4897543  43.9146757  47.5529948   9.4607645  10.2878702
  46.9679812   8.9111239  10.8092988  48.4303549   9.2418772  10.6018126
  70.5550841  19.4692522  30.6139398  70.5449346  20.4237276  30.5424833
  70.7473067  19.3001562  31.5362668  70.6734494   7.3862559  43.4492588
  70.5142144   8.3300597  43.4590673  69.8269609   6.9982249  43.6708975
   4.1327633  10.7535654  50.0032234   4.4045461   9.8379523  50.0666380
   3.2532371  10.7690245  50.3806257   4.2990658  13.3479604  76.6022570
   4.6657273  12.4639997  76.5821170   3.4086749  13.2304487  76.9333547
  22.6895332  38.2530856  32.4420047  22.2308707  39.0068555  32.0709372
  23.3130670  38.6330366  33.0609369  36.9113398  70.3623247  50.1770544
  36.9388986  69.4880390  49.7883463  36.9227457  70.9579992  49.4278717
  57.5129271  85.2054119  60.7914782  56.8709707  84.8191929  60.1956940
  57.0577288  85.2593708  61.6317797  86.1958698   2.3537642  35.6367254
  86.5959695   2.5888926  34.7995472  86.7107824   2.8277212  36.2897682
   4.0824649  47.3251495  65.1625637   3.7502262  47.4852333  66.0458664
   3.7891862  46.4383087  64.9534253  56.0843182  78.7463188  51.2936401
  55.5460024  79.0181875  52.0369673  56.9473886  79.1189098  51.4739704
   7.4791166  50.4873809  69.8053060   7.5785801  50.4366645  70.7559727
   6.6964385  49.9690113  69.6183829  47.4264431  78.8425779  41.2794447
  46.5986061  78.9616680  40.8139038  47.4893904  77.8975868  41.4182329
  82.5882244  70.4652500  51.7669725  83.4182262  70.0731468  51.4956903
  82.8391457  71.1595392  52.3762655  20.4480243  55.4382229  51.1016226
  19.5994687  55.2296019  51.4923429  20.5951166  56.3572884  51.3250351
   4.4533933  51.9880301  63.0785370   5.3567184  51.9645697  62.7628136
   4.2101110  51.0675150  63.1770325  17.0369387  71.9050312  64.9801970
  16.0807633  71.8936253  64.9374104  17.2333336  72.1654510  65.8801079
  49.5522526  34.1624266  13.3032250  49.4247332  33.3799273  13.8395810
  50.5017319  34.2798907  13.2729053  72.9397205  41.8034464  43.2933140
  73.4402135  41.5289313  42.5249529  72.1005252  41.3512617  43.2066154
  75.7070640   0.3415591  57.1324968  76.3360217  -0.3791231  57.0970821
  76.1899570   1.0975176  56.7984629  30.4584575  36.7286730  26.7006469
  30.0500679  35.8658218  26.6303778  29.7557378  37.3440099  26.4914131
  81.3823083   9.8641306  31.2311888  80.6057313   9.3144423  31.3360524
  81.4534906  10.3386408  32.0594430  82.5575115  80.2461720  63.8665295
  81.6942384  80.6551456  63.8054323  82.4134495  79.3405151  63.5921907
  53.5492325  65.6466389  33.6599994  54.3246889  65.5075836  33.1163430
  53.8971138  65.8029222  34.5379424  35.6213233  69.6989498  76.6324296
  36.3626429  70.1501426  76.2285848  36.0041043  69.2196044  77.3672325
  57.0285657  13.0430228  20.6349635  56.5824965  12.7963454  21.4451528
  57.1172765  13.9944845  20.6905222  92.4696115  20.2422053   6.0113668
  92.2339013  19.6444899   6.7208809  91.6838363  20.2891737   5.4667705
  18.3359064   0.9227949  26.2426734  19.0924753   1.3129336  25.8049273
  17.9015077   1.6596323  26.6723275  20.2878857  87.3460674  48.9230013
  20.1702094  86.5044594  49.3635511  20.3276944  87.1257496  47.9923534
   5.1756678  80.0013447  29.3518949   5.4949675  79.1631889  29.6862316
   4.2392359  79.8618889  29.2108941  85.4379991   8.5420519  44.5053959
  84.9917558   8.5692602  45.3517723  85.3540757   9.4314581  44.1616774
  56.0327673  79.8745251  38.7931299  55.8960962  79.6300936  39.7084498
  55.8539867  79.0727091  38.3018470  59.7159481  83.6286831  39.6978879
  59.3777657  83.6073589  38.8026714  58.9747334  83.3594131  40.2404022
  89.7123388  12.2378832   6.0909420  89.8558906  13.0109125   5.5450088
  90.4886201  12.1912772   6.6490173  60.8394861  87.4822140  11.3140154
  60.0305128  87.7303791  11.7614698  60.5747461  86.7922211  10.7056940
  26.1531973  87.8105831  57.9895210  26.8568921  87.4920654  58.5548449
  25.5918050  88.3228874  58.5714245  29.5178294  86.6267395  16.4036369
  28.8645768  87.0714474  15.8635199  29.6055508  87.1814728  17.1787524
  56.9026041  69.6828985  66.3963938  57.2349787  68.9210367  65.9217119
  57.4902153  69.7727203  67.1466494  77.9576463  11.8697306   0.0388177
  78.8157374  11.5159318  -0.1951472  78.1230921  12.4064061   0.8139547
  42.5793648  66.4495754  33.1317472  42.4659824  65.6053829  33.5684562
  41.6920614  66.8001270  33.0540514  51.5041733  66.7571592  52.2870111
  52.2175312  66.1231470  52.3603678  51.7874575  67.3577356  51.5976000
  12.5617695  84.4091225  65.6038094  11.6259897  84.2303371  65.5111742
  12.9799294  83.8354778  64.9617052  41.9953075  24.3764216  46.4534330
  42.4104598  23.7659460  45.8441734  42.6697925  25.0314528  46.6329861
  17.8345084  62.7330256  38.2441521  17.6806831  63.6373949  37.9708791
  17.5746727  62.7136374  39.1652060  34.2624010   2.3647314  55.3863668
  33.6639417   1.8728644  55.9486341  35.0851835   1.8773657  55.4280043
  25.0327396  87.6531601  15.8306158  24.6407843  88.2890034  16.4292014
  25.0033927  88.0804062  14.9745584  23.7814185  37.6952991  74.4054405
  23.7333819  38.6502609  74.3611072  23.1421992  37.4542007  75.0758917
  87.4833110  17.6929480   7.6864773  86.6508153  17.4525744   8.0931842
  88.0331901  17.9774576   8.4164864  38.7669325  60.6541252  52.1633387
  37.9449511  60.1755238  52.0560074  39.0580559  60.8336449  51.2693310
  47.2666788  63.6840820  57.4595594  46.5213680  63.2937765  57.0030499
  47.4556541  64.4841337  56.9692135  68.8575176   5.2254683  30.8996391
  69.4096354   5.3670603  31.6686320  68.6901787   6.1045271  30.5597949
  26.3326168  61.6448164  10.0558472  26.1476398  61.2886763  10.9248567
  26.2572265  62.5928402  10.1645041  24.5099112  50.3504905  68.6620430
  23.8712165  50.1440486  69.3444536  24.1156575  50.0168285  67.8561501
  90.0924972   9.8622137  44.4259310  90.3015044   8.9290243  44.3847990
  90.5391029  10.2412802  43.6689043  66.3574362  82.8225422  24.6646404
  65.8854628  82.9376984  23.8398886  67.2238827  83.1939602  24.4986367
  38.0797195  81.7691422  41.0783243  38.4144354  82.0926285  40.2419329
  38.2218313  82.4923801  41.6890287  71.5676641  88.3865738   5.5330902
  72.2150612  88.2025528   4.8524675  70.9109402  87.6976395   5.4315245
  68.1822088  31.8546110  26.8834448  68.7782911  31.7133147  26.1479521
  67.3496178  32.0914561  26.4748788  60.4551366  22.0435339  27.5405478
  60.8241466  21.2218291  27.2167182  59.5347241  21.8424898  27.7098179
  53.4747961  14.0788561  41.3864899  53.5002759  14.3725878  40.4758263
  54.3948248  14.0031630  41.6395712  25.9993720  83.6007214  24.7800398
  26.7034125  84.2472935  24.7300339  25.6267166  83.5837460  23.8985252
  69.0589476  74.1881227  44.9869776  68.2603693  73.8374186  45.3813314
  69.2151594  75.0097179  45.4526043  46.6596460  77.6809978  44.3169594
  46.8709421  77.0140362  43.6636972  46.7486000  77.2303772  45.1567554
  47.4725464  14.1498095  14.1997910  47.4335840  15.0007731  13.7632382
  47.4151948  13.5125452  13.4878659  73.6186412   3.5983568  27.7851105
  74.2388061   4.0456683  28.3609080  73.1188730   3.0274969  28.3687019
  33.6224461  86.3858604  28.6461568  33.2584834  85.5259991  28.8568544
  32.9647231  86.7926788  28.0821276  90.0980984  11.8132743  62.4076740
  90.8812319  11.6583499  62.9358129  89.6060835  12.4728736  62.8966383
  74.0730909   4.5541102  22.9827476  74.5302823   4.5522982  23.8237023
  74.6871475   4.1414267  22.3754048  72.3086991  78.3258009  35.2846742
  71.9033947  77.4783468  35.4684711  73.2495322  78.1581974  35.3392220
  35.3601289  74.5166159  53.0739832  35.2272725  73.5802650  53.2217407
  35.3383851  74.6143246  52.1220303  87.9637817  25.2057368  24.1543102
  87.4505904  24.7600752  23.4803271  87.8970674  26.1342055  23.9313293
  81.8906883   1.4911848  56.7820883  81.2299016   1.7825419  56.1538315
  81.6651157   0.5782896  56.9608974  58.8700321  18.9956957  27.5117803
  59.0233973  18.9821822  28.4565163  59.7457269  19.0375811  27.1275473
  92.5929589  61.0685444  77.2391796  92.3777918  60.5369043  76.4728260
  92.4996737  61.9722033  76.9376373  71.9816068   8.1223971  18.2271576
  72.7145341   7.6501948  18.6222291  72.3782638   8.9071661  17.8489709
  74.2786697  17.3844153  24.3342304  73.7855342  16.5647703  24.3692374
  73.6781791  18.0405146  24.6880341   9.0519139  57.5806770  62.5514213
   9.2768285  57.9058990  63.4231297   9.2966267  58.2922420  61.9598023
  92.9159740  26.2485224   5.1837462  93.6469081  26.2552267   4.5657480
  92.3945573  25.4870516   4.9297574  73.7264446   7.2745425  58.6800385
  73.9143279   8.1639105  58.9799643  72.8415874   7.3255926  58.3185768
  67.4040127  59.9189949   7.4535400  68.3287048  59.6942282   7.5567746
  66.9542646  59.0745974   7.4227440  67.7873495   6.0982043  19.6971810
  66.8536499   6.3090044  19.6959519  68.2030419   6.8542582  20.1116800
  52.7052689  65.9010363  38.8620901  53.2065439  65.3747320  38.2392263
  51.8269730  65.9471846  38.4843326  47.7541637  86.7063999  37.3485947
  48.2337618  86.9886684  36.5697837  46.8753338  86.5033531  37.0281839
   1.1984457  13.6431700  58.3963299   0.4583133  13.0797201  58.1705713
   1.7491258  13.1005579  58.9607382  70.2840188  14.3798930  41.3021326
  70.1168087  13.7730891  40.5809832  70.6683710  15.1498705  40.8830357
  79.1771129  25.0126940  19.2333508  79.3976453  24.5143133  20.0202537
  78.2223132  25.0781161  19.2510271  69.5729640  23.6679560  33.8856053
  70.3456476  23.6951453  34.4499230  69.1181877  24.4914633  34.0623641
  84.1960727  83.1041679  76.2453945  84.5834338  82.3827037  76.7410512
  84.5812045  83.8921318  76.6288115  72.8121808  19.6382338  21.5242672
  72.5769714  20.4913431  21.8891048  72.8447727  19.7828871  20.5786228
  49.5872211  74.0341473  54.5241404  49.5228672  73.9341307  55.4739237
  48.8996267  73.4662628  54.1763639  60.5982161  47.1075106  13.9615810
  61.2747335  47.7375269  13.7133074  60.7533979  46.3530397  13.3933198
  85.5135015   5.6655604  47.0049524  84.7243312   5.6747347  46.4633226
  85.3076795   6.2457091  47.7379513  50.3432894  62.7136087  22.4444151
  50.6869698  61.9641590  21.9581628  50.3879881  63.4419441  21.8249297
  55.5854368  84.2948723  37.7855682  55.2090788  84.6812439  36.9948077
  55.6813145  83.3658504  37.5759315  40.4644871  71.4774704  35.9154677
  41.4169836  71.5218353  35.9992051  40.1432896  72.2078991  36.4441848
  66.5198854  15.2309805   5.1840597  66.7244890  16.1658675   5.2025551
  67.3475054  14.8091894   4.9530238  80.3595308   0.7693678  53.5809278
  80.7831147   0.0750834  53.0761719  80.4165939   1.5425402  53.0195189
  50.2126217  72.5278568  73.2497883  50.2545071  71.8264771  72.5997543
  50.7886887  72.2347832  73.9558268  54.7725725  61.3310623  47.8033638
  54.5092964  62.2156429  47.5495338  55.0741959  61.4210510  48.7073326
  36.5612140   0.2198893  68.4696913  36.4660952   0.1133734  69.4161797
  37.4103066  -0.1735681  68.2685280  61.9938278  86.5463066  13.7072575
  62.5446081  87.0791531  14.2808044  61.8884373  87.0757961  12.9168344
  52.9761410  64.5581341  43.7905645  53.8931370  64.4137144  43.5571289
  52.8399229  65.4961681  43.6572504  65.0498247  71.5842009  36.6429996
  65.8982754  71.5633535  36.2003636  65.2594376  71.4595318  37.5686073
  82.2690776   3.4337431  16.9570434  82.1934608   2.5643832  16.5636826
  81.3891938   3.6278158  17.2801030  86.6616061  14.8081309  66.6257238
  85.8920244  15.3199297  66.3766336  86.3036779  13.9920908  66.9752789
  17.9229021  86.6226482  36.6244102  17.2024274  86.1942673  36.1622000
  18.4762692  85.9020710  36.9256997  22.6462936  52.1616983  30.4139709
  22.6890159  51.4945459  31.0990334  23.2641721  51.8607664  29.7477126
  48.0592516  15.3757006  37.6847196  47.6910117  15.6301791  36.8386292
  48.9108101  15.8116919  37.7162004  35.0291562  62.5343657  42.8904867
  35.1512027  63.4837055  42.8811932  35.3341866  62.2452354  42.0304918
  30.8735943  56.3325882  25.8994961  30.8666062  56.2583780  26.8537879
  30.0731969  55.8889055  25.6188893  62.9194120  19.6308142  36.8811274
  63.8007406  19.3344218  37.1083760  62.6381138  20.1470381  37.6365232
  61.5682128   7.4899012  23.7360477  60.9316018   6.8860918  24.1186333
  61.2663177   8.3577734  24.0041709  86.8498901  24.6540552  30.9879422
  86.4922384  25.1959711  30.2846336  86.0830310  24.3719012  31.4864874
  88.7010654  72.1994448  23.2537150  88.0861964  72.8629208  22.9407239
  89.4928967  72.6908302  23.4722900  72.3018649   7.7747160  26.6323376
  72.2092393   8.4989554  26.0133624  73.2026103   7.8438002  26.9487596
  53.4674075   6.1100107   7.0455289  52.9534748   5.3055483   7.1158868
  53.9130476   6.0364825   6.2015903  71.5346673  16.4312369  55.2055979
  71.7634252  15.5062300  55.1147366  70.5812147  16.4513689  55.1234055
  65.8364964  75.2233934  40.5482674  65.2566099  74.5077085  40.2879477
  66.7168093  74.8524046  40.4879189   5.7362045  18.6193568  52.8009605
   4.9219192  18.2977587  52.4139929   6.2529386  17.8299052  52.9621553
  37.5254068   3.9524752  37.2313976  38.0745140   3.6180502  37.9405332
  36.9658879   4.6067244  37.6498938  51.3170555  23.5082823   3.4999087
  52.0462015  23.6592108   2.8984118  50.5581096  23.8866621   3.0559880
  60.2964020  63.5118198  41.5982294  60.2621174  62.6829958  42.0758343
  61.2310886  63.6950970  41.5033484  33.2679081  71.8748903  48.2344198
  32.3511147  71.6203022  48.1299734  33.7333775  71.3740158  47.5645733
  38.3882022  79.1370773  41.4818954  37.6029563  79.0932989  40.9362745
  38.6220503  80.0652313  41.4910555  71.5310577  11.1573988  41.9391060
  72.4136356  10.8802897  42.1850586  71.6686395  11.8909842  41.3398075
  70.2524927  30.7789141  43.8566685  70.3083184  31.1309344  44.7450352
  70.5136827  31.5074927  43.2934761  15.5333897  41.5536937  68.1202082
  16.2201688  40.8979187  68.2407324  14.9885127  41.4765987  68.9034067
  42.2203234  12.8028971  23.5670519  42.5839487  13.4202582  22.9323196
  42.6762644  11.9802481  23.3893156  87.2701600  20.5737215  26.9246888
  86.4908460  21.0692793  26.6730475  87.8396323  21.2192255  27.3433304
  15.0258554   4.5834929  43.8268232  15.4103197   5.2203280  44.4292021
  15.1982940   4.9426562  42.9564762  69.7652748  20.0541216  24.1501069
  70.1298645  20.8343130  23.7322617  69.3861321  20.3755480  24.9681306
  33.7735030  41.8223819  74.1895662  33.5798976  42.4087867  74.9209210
  34.7293183  41.8090019  74.1398458  60.9321642  86.2308216  47.4716902
  60.9622812  85.2915001  47.6533222  60.5065155  86.2959480  46.6168165
   1.5764106  53.3401400  46.9078064   1.7643608  54.1471773  46.4286423
   1.9225277  53.4970671  47.7863312  51.7809916  84.2445374  28.1989741
  51.6290283  83.3163261  28.0212951  51.9677782  84.2813778  29.1370487
   7.4642290   1.8786627  26.8743873   8.0911316   2.1453101  26.2019849
   7.8705801   2.1440226  27.6994300  36.0958910  68.9140368  53.5389900
  36.0474801  68.7259102  54.4762707  36.2431288  69.8586559  53.4915924
  75.2782872   8.3906275  43.9640474  75.8334115   7.9012877  44.5711803
  74.7763971   7.7182299  43.5033846  87.7170661  16.1652094  15.8941340
  86.8990901  15.7806403  16.2091744  87.4404815  16.8840033  15.3257334
  48.3069324  69.2439032  13.4364688  48.6862326  70.1195621  13.5111809
  49.0500116  68.6507702  13.5471714  43.0385780   5.8640352  75.1876187
  43.5709381   6.5822473  75.5296597  43.5132599   5.5617300  74.4133298
  85.4598621   2.8372485  53.5203028  85.5704978   3.2195002  52.6497459
  85.3957942   3.5911948  54.1065598  63.3601740  45.1833254   4.4547936
  62.5149039  44.9517542   4.0699235  63.5168651  46.0822111   4.1655004
  29.6530482  25.8903894  76.4946174  30.1709220  25.5470953  75.7664765
  29.6796891  26.8403921  76.3805235  73.8801578   9.3687254  61.7035580
  74.0988496  10.2319723  62.0545530  74.7249130   8.9844614  61.4691067
  12.7114023  41.8906695  24.7985959  12.2245420  42.0871168  23.9982152
  13.0458320  42.7389437  25.0898123  75.1858953  63.7637430  37.0097876
  76.1190608  63.6623102  37.1972609  75.0086787  63.1221777  36.3218760
  31.5149113  47.1633205  64.4047086  31.2977359  47.5534687  63.5580365
  31.3857075  47.8719101  65.0351421  80.3148273  12.6794249  46.4045000
  79.4723228  12.5794894  45.9612989  80.2038482  13.4520632  46.9585371
  83.0622247  36.0660368  38.9307714  83.7146619  35.9601313  39.6231151
  82.6992610  36.9398695  39.0753365  11.6737331  29.0159804   5.1179731
  12.5299610  29.2270094   5.4902250  11.4186586  29.8057371   4.6410662
  82.1317342  26.7254072  24.0846443  81.8912128  27.2074801  23.2934546
  83.0553058  26.5067297  23.9604044  16.2388703  43.5702762  63.7999598
  15.7377240  43.0734882  64.4467072  15.6143376  43.7453231  63.0960051
  33.7523532  77.8507614  17.1825409  33.4607053  78.4929037  17.8297102
  33.7063503  77.0114183  17.6403821  43.0426741  86.9346905  58.0386782
  43.1681061  87.8666496  57.8599405  42.6771164  86.5822697  57.2272587
  89.9367812  52.0393092  38.7863016  89.4824270  51.9354636  39.6223688
  90.8218816  52.3129088  39.0270710  88.7630323  33.1340510  33.8704324
  88.2620290  32.7531439  33.1492257  89.0715745  33.9739329  33.5303926
   2.2268697  76.6816673  65.9452693   1.5067646  77.3061142  66.0332803
   2.3986456  76.6452369  65.0043146  19.4199240  77.2976685  49.7258472
  19.9486387  77.2861862  50.5236959  19.7153246  78.0763149  49.2539549
  77.9844761  78.9075089  52.0153618  77.1737337  78.7352276  51.5365601
  77.7632809  78.7354898  52.9306269  55.2061179  22.7025801  26.4698720
  54.5253685  22.5379092  27.1223283  55.1268056  21.9755942  25.8522677
  21.0888685   6.0384375  36.3522410  21.4638151   5.4139239  35.7312536
  20.9949983   5.5412394  37.1647763  59.1047552   1.9455344  49.4532824
  58.2111028   2.2874838  49.4271040  59.5933989   2.5911909  49.9637604
  65.0937989  20.5721670  19.6504104  65.9698585  20.2225024  19.8131645
  64.9660805  20.4689127  18.7074065  61.2201322  11.7190844  23.3585024
  60.9298052  12.5140196  22.9112768  61.6037477  12.0317370  24.1778398
  20.9822572  41.1181456  31.9735432  21.1517919  41.5954691  32.7857351
  20.1716055  40.6380564  32.1426296   1.0805381  17.6113993  34.7135758
   0.3206409  17.4814612  34.1462111   0.7243551  17.5816065  35.6015372
  60.2491665  88.0497932  19.7419477  60.5411911  88.8887119  20.0985479
  59.3001795  88.1425571  19.6579516  82.2133258   3.3604056  39.1155624
  82.4800924   4.2513472  38.8890719  81.2683395   3.3474261  38.9637065
  59.9088717  74.8235321  39.6861815  60.1268291  74.4065285  38.8526130
  60.7204628  75.2511311  39.9595165  66.6398385  21.6178519  66.8716908
  67.0328286  20.9423167  67.4243641  67.0099715  22.4385458  67.1968079
  80.1471999  15.1966196  18.6631250  80.3672937  15.3093630  19.5878315
  79.2698482  14.8139578  18.6706734  82.4162868   6.3587195  58.9347219
  81.9165996   5.5423456  58.9258909  83.1558851   6.1931807  58.3500624
   5.3899015   5.1448351  15.5468893   4.5899738   5.6364352  15.7330894
   5.7146944   5.5174452  14.7271919  79.9791490  62.8810558  73.8330148
  80.0325750  63.7985477  74.1005902  79.8595952  62.3994312  74.6515327
  70.3983620   1.4415461  53.8706446  69.8782423   0.9755236  54.5252705
  71.0838226   1.8784624  54.3760920  88.7535384   7.4984652  35.9343052
  87.9735854   7.9493529  36.2577367  88.6129764   6.5804869  36.1662340
  93.8666728  40.7286459  41.4884663  93.7452176  39.9206263  41.9870472
  92.9934552  41.1186224  41.4479399  59.3311644  82.6599598  23.6549282
  58.5533905  82.1023846  23.6752915  59.5520926  82.7966022  24.5762038
  94.3601850  14.1412741  34.8594952  93.4263376  14.3492132  34.8898554
  94.5979408  14.2410666  33.9376783  74.3789625  52.6451683  10.2479386
  75.0269032  52.4270821  10.9178996  73.6016560  52.9054070  10.7422066
  63.9345530  23.0591112  16.7436850  64.1896919  22.1628672  16.9625187
  63.8093498  23.4861857  17.5911283  52.5815868  68.6529922  19.5156682
  52.7274275  69.5890856  19.6523643  51.8533802  68.4364986  20.0979733
   0.9946073  49.6655566  33.7793636   0.1483501  50.0716692  33.5918427
   1.3568176  49.4580656  32.9179811  85.4733995  29.2008883  45.7034779
  84.6129421  28.9361101  46.0286474  86.0904458  28.8503462  46.3458252
  94.0467838  19.2902285   8.1906646  94.9268058  19.6667677   8.1878042
  93.5288099  19.8959643   8.7207758  75.4900268  19.9239641  45.0020552
  75.2561382  20.7087523  45.4976702  75.8185104  19.3131167  45.6617451
  68.9917043  24.0358359  45.7585621  69.4817856  23.2716185  46.0619164
  69.3195179  24.7585112  46.2938166  62.7646974   6.4262587  48.5909081
  61.9249895   6.8493277  48.4116316  62.7442673   5.6232363  48.0703688
  40.0382471  66.9149208  31.6947532  39.1106558  66.8501186  31.4675927
  40.3768587  67.6050663  31.1244226  57.3613241   7.1480089  41.4802504
  57.3953274   6.7373854  42.3442316  56.8124870   7.9223257  41.6045141
  70.7941845   6.5847212  58.3383369  70.2881673   5.9497935  57.8313446
  70.4601696   7.4365431  58.0571413  15.7608808  11.3308913  35.5209088
  15.0098385  11.0967261  34.9756241  16.5035928  11.3338953  34.9170923
  33.5391617  79.1015863  38.0089545  32.8960395  79.7629070  38.2644606
  34.0527105  78.9479446  38.8019824  41.8759850  15.3657728  33.9350343
  41.5462640  16.1110789  34.4370627  41.4007023  14.6121889  34.2849684
  68.1532195   6.2382132  51.6864491  68.9544872   6.5466601  52.1095991
  67.9553250   6.9075781  51.0314512  50.9675360  75.1335621  29.2955565
  51.0929394  76.0231018  29.6260548  51.2734509  74.5689678  30.0054049
  43.9081287  63.9310026  22.2115326  44.5704365  63.9076185  22.9022098
  44.1523457  64.6821594  21.6708398  71.6402102  82.4752808  22.0433426
  71.4599085  82.8415775  21.1775780  72.5704670  82.6485157  22.1877122
  70.8560756  39.8228747  43.1900883  71.0069421  39.0611655  42.6303720
  70.1418331  39.5568663  43.7691689  64.5019674  70.5800533  27.7786040
  64.2167854  70.6377745  28.6905074  64.6419764  69.6448517  27.6301765
  62.5572109  65.7904243  48.3005047  62.4053526  65.9677458  47.3722124
  63.3840990  66.2310266  48.4963703  40.6774187  70.8519077  42.2226191
  40.0601387  70.4649639  42.8434801  41.1727047  71.4860821  42.7410316
  26.6558596  52.8870830  77.1422106  26.8170115  53.0468139  76.2122935
  26.0151240  52.1760807  77.1555806  28.4863278  24.5123443  60.3704123
  28.8435742  23.7457475  60.8186786  27.8781506  24.8970518  61.0015623
  66.4347270   8.5540778  11.9647646  65.7804015   9.0238482  12.4818754
  66.2245086   7.6294333  12.0954156  21.2144876  66.3021278  44.4259691
  20.9389806  65.8649254  45.2316856  22.0935559  66.6280890  44.6188927
  92.9767230  16.6233450  18.7109149  92.3615649  17.0402151  18.1075609
  93.7891725  16.5479380  18.2104480  67.7747202  55.1541853  14.8877704
  68.1746101  54.7877836  15.6764829  67.6845837  56.0882139  15.0767064
   4.7354950  67.9082590  28.1558084   5.5156912  67.3880392  27.9637003
   4.9175943  68.3080012  29.0062666  71.7773438  70.2230835  18.1216538
  70.9149075  70.6171799  17.9907954  72.3776579  70.7970810  17.6458621
  21.0823168  12.4999815  70.0933790  20.3339494  12.4463278  70.6877756
  21.8448747  12.5346190  70.6709003  89.7168258  45.7365805  25.3529382
  90.6385854  45.9942919  25.3659964  89.3107274  46.3314158  24.7224760
   4.6727628  62.7182770  50.9002066   3.7196186  62.6466465  50.9513664
   4.8263469  63.5304022  50.4174089  26.8824339  42.5996304  70.3459740
  27.0990682  41.6969061  70.1127577  27.4046230  42.7767706  71.1283875
  65.1257524  80.5172515  25.7121062  65.5277221  80.4054993  26.5735960
  65.5943354  81.2557417  25.3231430  72.8351693  84.1679597  53.6108637
  72.5804399  85.0803116  53.4731722  73.7310563  84.2171332  53.9443302
  18.2428420  30.3628635  11.5952587  17.6111400  29.7441053  11.9617593
  19.0957069  30.0233555  11.8665302  10.2944505  14.3547213  43.5336304
   9.7733665  13.8186693  42.9358387  10.9702861  14.7441542  42.9788113
  94.2560707  71.4602488  55.1029062  93.4935056  71.1679298  54.6036291
  93.9724766  71.4240807  56.0164118  92.1637090  64.5522785  29.9382663
  92.0351209  63.6088848  29.8397398  91.2985795  64.8888302  30.1717520
  26.4887023   0.5361768  26.8156695  26.6697979   1.2712246  27.4014521
  25.6528091   0.7574167  26.4050961  10.1319158  62.9674721  27.2445774
   9.2381549  62.6777983  27.0615101  10.4526806  62.3523951  27.9041386
  87.6214232  22.0622802  60.2951670  88.2520344  22.0620942  59.5750570
  86.7737814  21.9279122  59.8712778  52.6629305  15.0815070  48.2743788
  52.7223539  15.0090647  47.3217773  51.7661476  15.3740990  48.4368610
  66.5312209  19.1270196  25.5874777  67.4286928  19.4083738  25.7652783
  66.2588324  18.6760259  26.3866282   2.8217593  28.0286527  52.8513908
   3.0839932  28.6434865  53.5365486   2.8220865  28.5501218  52.0487070
  15.6736505  14.5794272  24.7129488  14.8609030  15.0630403  24.5653319
  15.3968060  13.7727749  25.1475763  26.9874747  80.7032970  73.3795388
  26.9053312  81.3898996  72.7176763  27.5905951  80.0686219  72.9926739
  24.5142007   7.8135639  15.1372993  25.1278639   7.1612120  14.7995329
  24.1424179   8.2204652  14.3547130  27.5922214  64.8411411  53.0858612
  28.0120026  64.8737138  53.9454842  28.1686817  65.3527754  52.5182724
  43.3145857  41.6216040  60.9197617  43.3504725  41.1198473  61.7341232
  43.3730507  42.5353956  61.1986828  83.5844805  38.6136913  24.6375561
  83.8009014  39.5436549  24.7051263  83.7413075  38.2668543  25.5158138
  80.7442417   6.0189533  39.9635458  81.0706570   6.6901040  39.3641782
  80.1016082   6.4751029  40.5068541  92.5064621  20.3233051  16.5968740
  93.1410825  20.4807854  17.2959363  91.7833706  20.9196973  16.7910004
  27.5799823  32.3165250  10.1863408  27.3172307  33.2037616   9.9413860
  27.3459220  31.7797589   9.4291544   2.8820413  20.0324368  33.3483791
   2.3398842  19.6485102  34.0375090   2.2839826  20.5987620  32.8606987
  93.3957164  39.3325090  32.7288795  93.7707259  38.5808969  33.1878757
  92.5689851  39.0073824  32.3724532  70.4134296  88.4008658  23.4967589
  70.8407323  87.5657763  23.6872053  70.6234996  88.9544146  24.2488790
  14.7312255  51.8221083  65.6549732  15.5381234  52.3365387  65.6324140
  14.9938698  50.9513942  65.3564660  34.5937324   5.5574483  55.6197309
  35.3576636   5.7250947  55.0678825  34.5165133   4.6035528  55.6384945
  24.5284247   4.2249322  40.5497217  24.9876571   4.2361456  41.3894892
  23.7339592   3.7182203  40.7179403  42.8985119   1.8855806  16.3497424
  43.1171608   1.0234760  16.7035794  43.5727453   2.0521599  15.6910408
  23.3626171  75.2840212  77.0631424  23.9646699  74.5746639  77.2880361
  22.8232046  74.9258927  76.3581536  56.5178871   9.4697231  11.8851137
  56.9068289  10.1426470  12.4437988  55.7416248   9.8874271  11.5120542
  54.7949266  17.0560598   9.3719202  54.7758675  16.1321819   9.1222852
  54.6033716  17.5272608   8.5610509  81.4274775  80.7568753  30.8414507
  81.7712032  81.2064582  31.6134357  81.7198895  81.2912345  30.1030827
  12.8505409  53.7626171  32.9147482  12.3224235  54.3254995  33.4808636
  13.4758103  54.3578386  32.5012517  19.5232272  24.3242955  10.0742245
  20.1929379  24.2733979   9.3922198  19.4780123  23.4376860  10.4321492
  17.2251678  19.3060911   4.3132952  16.5137017  19.4362867   4.9402696
  16.8635225  18.7049532   3.6620826  28.3993530  23.1191182  16.5890634
  29.1525793  23.4704208  16.1142290  27.7678442  22.8961492  15.9051681
   0.4629396  30.8820033  47.6079512   0.5642445  30.2621078  46.8856668
  -0.3240342  30.5883932  48.0669689  26.5268636  31.9399548  36.8924308
  27.0556498  31.8513989  37.6853848  25.7996774  32.5059414  37.1514463
   4.8059517  32.5579834   0.6229501   4.7658670  32.2501707  -0.2825200
   4.4420320  33.4427476   0.5914822  88.0644365  14.3919408  51.5582943
  87.7793135  14.0879953  52.4200106  88.6624600  15.1155496  51.7453480
  42.5610495  23.4471250  33.2889891  41.7686844  23.0700278  33.6713362
  43.2703638  22.8904963  33.6103487   1.3387176  70.7223231  50.5897045
   2.1292373  71.1381692  50.9337711   0.6282756  71.0821706  51.1207485
   7.0175093  19.3486452   3.8231322   7.9419857  19.2103684   4.0291783
   6.5459412  18.8899314   4.5184290   3.3995578  74.4319469  55.0285053
   3.6229774  73.5695749  54.6783257   3.9902541  75.0343996  54.5764446
  68.9871533  25.3470507  51.0860984  68.7851747  26.0873786  50.5139534
  68.7298687  24.5762423  50.5802409   9.6392763  44.2529058  40.3203964
   8.8483465  43.7815189  40.0587511   9.8267806  44.8338747  39.5831370
  53.6240176  61.5076223  11.0856708  54.1386464  62.2802320  10.8522971
  53.1282571  61.7748931  11.8596347  21.4354038  40.2667427  51.7135954
  22.3333526  40.5854893  51.8048096  21.3039637  39.7002125  52.4738598
  14.4868827  18.3107901  55.6508446  14.6881962  18.9479113  56.3362503
  15.1102972  18.5064769  54.9513483  11.9466588   6.8782959  62.5766901
  11.0837790   7.2020254  62.8352765  11.8058678   5.9522399  62.3796431
  69.6451892  48.8215399   8.6764622  69.0498080  48.4421253   9.3228364
  69.8430218  48.0994081   8.0801231  24.4498396  29.7999835  21.9566584
  25.0019050  30.3070617  22.5519109  24.4467187  28.9171195  22.3264909
  63.5323033  62.1145052  70.4238510  64.3630079  62.5252193  70.1841068
  63.2100895  61.7316931  69.6078444  26.8570328   6.8552721  18.4145415
  26.1085129   6.6183317  17.8669953  27.3828387   7.4350733  17.8635502
  36.4050174  50.2951622  19.3646061  36.9040918  51.1098099  19.4238007
  36.9383097  49.7274590  18.8082373   3.8624910  25.4556108  58.0704355
   3.5442665  25.2829719  58.9565325   4.3667865  26.2652397  58.1505537
  43.4621477  29.6969104  47.8751135  43.3531761  29.2723894  47.0241499
  43.0607367  30.5589819  47.7658653  33.9384842  26.1559796  26.5733409
  33.3950543  26.4765453  25.8535147  34.5011878  26.8972659  26.7971516
   0.4702314   1.8172973  28.2240510   0.4113789   2.2327366  29.0843892
   1.3943601   1.8902999  27.9855394  69.9048867   1.6605750  22.1855187
  69.5708932   0.7697371  22.0802164  69.3247189   2.1990643  21.6473126
  75.8024814  84.1502762  11.5225792  75.8957972  84.1924858  12.4742830
  76.5927007  83.7000084  11.2241733  20.6285691  38.8801265  23.5949445
  20.8220530  38.8351989  24.5313096  21.4837551  38.8132596  23.1701851
  16.9045413  46.1238003  21.2475848  16.1880350  45.5465508  20.9837031
  16.6562688  46.9839621  20.9088826  39.0136528  42.1857977  55.9744215
  39.4199133  41.4382410  56.4129877  38.4207869  42.5544643  56.6292715
  57.3692956  35.4510403   5.5116200  57.7869620  36.1077929   6.0688126
  58.0978193  34.9517488   5.1425767  79.7458174  33.9960527  22.7984619
  79.5049264  34.6581221  22.1504879  79.6921708  34.4521928  23.6382771
  87.2472848   4.3014416  28.5820103  87.1250172   5.2003551  28.2766604
  86.9082042   3.7585276  27.8703213  11.1539078  15.1572704  52.5264931
  10.9866691  15.6172645  53.3490896  10.2893901  15.0572813  52.1279430
  37.9163348   4.9159345  74.5898485  37.6193057   5.4142675  75.3512089
  38.6946379   4.4508800  74.8967622  33.6838961  11.2305737  17.8515387
  33.6899114  11.0661018  16.9085944  33.8618302  12.1676099  17.9323649
  22.2088432  31.2097239  11.6957092  21.6614747  30.4787993  11.9827032
  22.5024962  31.6223884  12.5079346  55.7574068  84.7342282  11.1387873
  56.6658734  84.6514377  10.8488452  55.7108890  85.6041783  11.5353405
  63.7127057  67.4912161  31.3988423  63.8994164  68.3362406  31.8078709
  63.1153670  67.6995963  30.6805134  50.1937485   9.4580376  25.5635762
  49.9017954  10.2337635  25.0847840  50.8441782   9.7894436  26.1827254
  22.4939561   5.5306387  49.6635294  21.5755343   5.7896531  49.5883799
  22.7660513   5.8589518  50.5205059  20.1294136  18.3961093  25.3571105
  20.2331090  19.0416753  24.6580219  19.3042147  17.9550159  25.1553297
  18.5622621   7.7684796  25.3691387  18.5473764   8.5393107  24.8018360
  17.9303694   7.1679211  24.9738240  21.3695478  11.3424110  30.4951191
  20.4507565  11.5436792  30.6727242  21.8374538  12.1491683  30.7106161
  35.0574780  43.0748081  45.9389687  35.2677417  42.6273060  45.1193571
  34.7927690  42.3731899  46.5338564  50.8400126  24.9190250  49.1126339
  50.1090153  25.4740098  48.8408462  50.4390462  24.2488268  49.6660702
  47.1497107   4.3359974  33.5559487  46.9514608   4.4801554  34.4812298
  46.3777828   4.6605188  33.0922222  72.8221791  66.1056489  23.6787748
  73.6569654  66.0097474  23.2203364  72.1947472  66.3259333  22.9902720
  20.1526308  17.8329718  32.7839518  19.7520328  17.1334600  33.3001280
  19.4791925  18.0781806  32.1494555  37.4879809  86.6519597  73.8316671
  37.2879125  87.1546748  74.6212765  36.7471279  86.0536912  73.7345008
  77.7775409  42.4964380  42.4590206  77.7647557  43.4531784  42.4857187
  77.2525742  42.2712278  41.6909599  93.9412804  29.1644168  13.7990677
  94.2365500  29.4589353  14.6606398  93.3039625  28.4753847  13.9869261
   3.3410880  27.8934360  46.4347553   2.7724755  28.3547449  45.8182287
   3.4393165  27.0177865  46.0608292  79.0694847  51.5734434  18.3483458
  79.9421181  51.9642353  18.3933091  78.6909272  51.7326164  19.2129791
  64.4573190  72.1272105  57.1311951  63.6661869  72.3728400  56.6516018
  64.5298756  72.7824920  57.8251505  52.3393240  14.8690903  45.5783463
  52.2001638  14.0959907  45.0313711  53.2517805  15.1122236  45.4216957
  29.8452663  14.1696155  40.7140017  29.1808891  13.8867545  41.3423538
  29.4257641  14.0676546  39.8596859  18.3942449  13.0216694   6.6122466
  19.0086389  12.2909379   6.6814053  18.5043788  13.3433259   5.7174617
  89.6286746  24.4505668   2.8561768  89.0552868  24.5715332   2.0993242
  90.3462030  23.9081550   2.5288019  33.5976243   0.5832935  11.8704593
  33.5883594   0.1837314  11.0006917  33.6603665  -0.1573183  12.4736083
  49.2101002  28.2947779  26.5169477  49.3215275  28.6538911  25.6366897
  48.4881020  28.7992048  26.8917894  75.3355694  18.1438160  18.2568681
  75.7046938  18.9647591  17.9312468  76.0297060  17.7669024  18.7975574
  42.4191761  24.9124408   5.1546669  43.2451534  25.3062606   4.8737723
  42.0693064  25.5253386   5.8013350  78.9560031  20.6471119  59.8037712
  78.7189053  20.5491743  58.8815860  78.9518307  19.7540721  60.1482920
  12.0266628  15.3524327  47.6047039  12.9047811  15.6867564  47.4220371
  12.0154941  15.2134430  48.5516930  36.4119636  41.1173937  74.1315202
  36.4887305  40.1673302  74.0436683  37.2533007  41.4550889  73.8243632
  28.4699321  52.6117516  33.1401801  28.8269877  53.0369234  33.9199042
  28.4490561  51.6811228  33.3631682  74.4478168  31.0981345  36.1280012
  75.1029362  30.7955241  36.7568707  74.0110793  30.2988076  35.8337784
  60.3499206  67.7431300  68.9938150  59.5670851  68.2821325  68.8803450
  60.0301154  66.9397262  69.4042979  47.7459526  29.6540666  21.9978786
  46.9858456  29.5620322  22.5723314  47.8304148  28.8001347  21.5737343
   0.6035738  17.7212965   6.2097508  -0.0354133  17.0305514   6.0342550
   0.1973562  18.2555890   6.8922102   7.3561475  81.4048320  29.9170399
   7.4973747  81.2641662  30.8532548   6.4851257  81.0450035  29.7494888
  10.4231739   6.7027128  41.1975718   9.9844950   6.4039153  41.9941330
  11.0433280   6.0039866  40.9891891  74.0633928   9.4455919  75.3392511
  74.3440639   8.5481176  75.1603737  73.3849250   9.3554840  76.0084258
  17.8303477  68.6874932  18.3501840  17.5878903  69.5054930  18.7841439
  17.2164628  68.0406994  18.6980855   6.1999094  16.1529422  14.6070910
   6.7504066  16.4289629  13.8742900   6.8101233  16.0402489  15.3359056
  24.7672057  33.8580298  32.6863551  25.3626800  33.6613703  33.4095192
  24.2846966  34.6319079  32.9770947  63.9638853   8.1687814  29.4712162
  63.2719803   7.5482643  29.7002435  63.6836672   8.5423052  28.6356401
  91.2411760  36.7242789   6.0165417  90.9304713  37.2492504   5.2789104
  92.1744264  36.9276857   6.0790086  89.9379959  55.4078627  37.0410609
  89.7003197  55.5206776  36.1207271  89.4553246  54.6295404  37.3194098
  63.9342075  12.6304016  59.0541701  64.3756304  13.4746847  58.9616398
  63.0700185  12.8489122  59.4029705  11.3797426  18.6565506  21.3686919
  11.8540001  18.3780563  20.5852699  10.5474532  18.9939904  21.0375381
  73.6968453  64.0894285  74.0599407  73.9984353  63.9628950  74.9595333
  72.7828343  63.8053957  74.0715612  48.3581924  22.1199703  25.0810885
  48.6171389  21.5889478  24.3279648  48.2458735  21.4888167  25.7919049
  24.0280247  25.8805895  50.7554770  24.6075797  25.1779366  51.0497999
  23.2707596  25.4271364  50.3851271  19.0401456  79.1026175  52.6904058
  18.6371133  78.3122545  53.0497408  18.4373805  79.3878514  52.0037127
  24.2200613  54.7195148  46.9293451  23.7358999  55.1532316  47.6319885
  25.0424314  55.2056980  46.8696165  20.5640221  33.8000917  19.6215224
  20.6834865  33.2600117  20.4027224  20.0204158  33.2662392  19.0421033
  19.7992623  20.7236814  23.8267779  18.9069045  20.9387326  24.0982223
  20.3268456  21.4618206  24.1317987  67.5420666  26.9603372  34.7931504
  67.5698757  27.9091740  34.6699905  66.6137505  26.7370987  34.7251606
  85.4771080  41.4248848   1.4951512  86.4179518  41.2819910   1.3920744
  85.0837549  40.5717468   1.3116789  47.4081774  74.2383054  70.2837799
  47.3388536  73.8587859  69.4077711  48.0124457  74.9732640  70.1792596
  83.3575927  88.3007969  33.4667397  83.2133733  87.9256600  34.3354774
  84.1919195  88.7640055  33.5413671  27.5669813  77.8117323   1.4779341
  28.3534646  78.3519936   1.4018013  27.8714061  77.0019388   1.8875554
   3.8246074  23.9580870   5.0966859   4.3088391  24.7831035   5.0635260
   4.4671476  23.2931280   4.8492938  45.8949518  24.4247007  50.6676722
  46.5964890  25.0738931  50.6164455  45.4101562  24.5308518  49.8491764
  39.6684813  37.2655463  40.0413513  40.5884075  37.2693586  39.7768688
  39.6930337  37.3470092  40.9947586  31.9547725  31.6931009   9.5269454
  32.9067349  31.6605473   9.4324142  31.7909718  31.3713574  10.4134464
   2.2911616  30.6114507  43.7953138   1.8814236  29.8118281  44.1253901
   2.7943352  30.3255939  43.0328608  24.1070914  44.4887304  23.2088518
  23.4089565  44.5675182  23.8589525  24.3750548  43.5709715  23.2551861
  31.7993820  73.2028344  71.6878609  32.0507709  74.0836647  71.4100645
  32.2162724  72.6226619  71.0508083  30.2644583  16.0310278  50.1996366
  30.0753447  16.9590196  50.3385417  29.4277617  15.5909929  50.3497712
  93.4868993  43.1353092  64.6731329  94.3330250  43.4503460  64.9910259
  93.2351378  42.4543238  65.2969170  87.2893115  72.9995728  30.7222700
  87.7987655  73.1814241  31.5119648  86.4357974  72.7141762  31.0483003
  33.6849189  38.5933709  18.4162831  33.2908201  39.4653463  18.3922279
  33.0749750  38.0690956  18.9352560  25.6437087   9.9595404   6.8167681
  24.9423480  10.3333378   7.3502493  25.8393192  10.6370330   6.1694872
  20.9746623  31.6092253  21.6736412  21.8401575  31.8102956  21.3176656
  21.1520171  31.0695934  22.4440789  34.8692942  33.7811112  32.9966879
  35.0274277  32.8422070  32.8982687  34.1704226  33.9731240  32.3714352
  46.4188957  42.1184206  26.5587926  46.4388943  41.2018156  26.2837100
  47.2997904  42.2874689  26.8929768  79.5552066  17.0221525  13.3492041
  80.0541595  16.2052828  13.3499551  78.6853984  16.7718130  13.6606395
   0.5885714  59.9043417  42.0936918  -0.2370001  60.2059937  41.7146540
   0.5043147  60.0891161  43.0291033  12.8642237  11.5180016   9.9466830
  12.6678562  11.3969958   9.0176892  12.2656703  12.2091758  10.2299571
  32.1405268   3.3600044  16.5475595  31.9766736   4.2359161  16.8970776
  32.5696898   3.5143578  15.7059979  19.4509983  38.6591744  26.2467670
  19.2179942  37.7714491  25.9749532  18.6781478  38.9774370  26.7132902
  21.0439205  29.1161180  26.7873454  20.7158661  28.8842201  27.6561570
  20.5799413  28.5281348  26.1913323   4.8706958   0.9265337  65.1672475
   5.3199646   0.3749094  64.5268564   4.4914529   0.3082046  65.7918088
  29.1659212  13.5247898  11.9242275  29.3443060  13.4222758  12.8590548
  28.8713789  14.4311225  11.8345773  85.3655921  78.7019080  47.6390982
  85.5733191  78.7742323  48.5706854  85.9445654  79.3351078  47.2147417
  61.2029839  50.0561047  17.3162198  60.4244041  50.2807951  16.8067539
  60.9506178  49.2739868  17.8069675  27.4819112  29.1607189  17.1767199
  27.6391339  28.7995958  16.3043070  27.4409175  30.1072621  17.0403147
  70.5632146  73.7332633  75.0027239  69.9835880  73.0187681  75.2668474
  70.0187858  74.5182160  75.0633695  61.0443790  83.0068353  73.2529209
  60.6740125  82.6244000  72.4574317  61.9709619  82.7683786  73.2243578
  16.1045229  39.7766638  17.8017187  16.0789311  39.2591667  16.9968760
  15.5294812  39.3076968  18.4063911  14.2882025  57.5923538  17.6512015
  13.5505760  57.4329233  18.2400322  14.0936208  57.0661783  16.8756342
  48.6922169  50.6650162  15.4176593  49.4316387  50.4337883  15.9798157
  48.8613176  51.5712976  15.1601887  52.3530340  23.6106658  24.5498157
  51.9755077  22.8928018  24.0415072  51.5963173  24.0712237  24.9124384
  81.3138308  -0.0322226  31.6538787  81.0041513  -0.0418330  30.7482100
  81.0836603   0.8390897  31.9764757  39.9396014  54.9012756  34.8590350
  40.1230764  54.1368866  34.3128824  40.7760143  55.3636217  34.9126983
  69.9219139  87.3029378  70.0653003  70.0580795  86.4373258  69.6800713
  70.8002694  87.6004413  70.3024016  27.0144033  20.6049347  23.3956099
  27.2662997  19.7234535  23.1203437  27.1490860  21.1463881  22.6178432
   7.5353402  65.0739050  18.5065079   7.7282971  65.8933878  18.0510437
   7.4757117  64.4207144  17.8093600  19.2611682  56.8088675   2.8491870
  19.5262289  55.9049273   3.0190897  19.5345187  56.9730043   1.9466518
  87.9589303  63.1684926  76.2439645  87.2076829  63.6406627  76.6030167
  88.3428796  62.7206162  76.9977681  39.5105171  52.6783514  15.1820230
  38.6256027  52.3433065  15.3266084  39.7095394  52.4456072  14.2751324
  37.5153446  29.4680810  24.6419549  36.9645524  30.2329946  24.4753146
  37.5609875  29.0175104  23.7986660  93.3935057  83.5132241   2.7181298
  93.7562691  83.8239646   1.8886277  93.0932509  84.3071324   3.1606102
  42.8627443  56.8454027  26.9276905  43.7194252  57.1656656  27.2101259
  43.0278730  55.9510279  26.6292691  36.4655733  23.2536173  29.1893482
  37.0894718  22.9822350  28.5160470  36.9463849  23.8895965  29.7190452
  10.6964386  84.7611046   9.8738921  10.3162718  85.6135082   9.6614820
  10.1640940  84.4356060  10.5997646  89.6850111  42.1486425  35.0784492
  90.0883903  42.8697968  35.5616140  88.8547077  42.5060558  34.7636747
  56.3566764  19.3146494  67.4206619  56.9018276  20.0988749  67.4841742
  56.6862090  18.7374476  68.1094853  10.4621744  28.3631659   7.9321110
  10.6387353  28.5047197   7.0020467  11.1229026  27.7276087   8.2073116
  52.6143837  15.7138741   2.4941906  52.1196651  15.4337835   3.2642785
  52.5305939  14.9861991   1.8779917  89.7265755  16.3365326  52.9886429
  90.3755819  15.6824359  52.7294557  89.9186193  16.5126094  53.9097015
  25.1342154  17.3318624  24.4764066  24.3883276  16.7333269  24.5168757
  25.8522844  16.7971504  24.1377425  44.3543339  40.6697750  32.5673437
  45.0727367  41.2991285  32.6309800  43.8005829  41.0087204  31.8639851
  20.3066683   2.1878172  15.0162554  20.8117199   1.3748258  15.0020623
  19.8075855   2.1740277  14.1995811  10.5495942  59.4319105  33.1100106
  11.3919401  59.2336321  32.7008986  10.7725012  59.9746132  33.8663292
  58.3855152  79.7745943  37.5835824  57.6709652  80.0137997  38.1738639
  58.5163498  78.8382292  37.7330089  13.2912254  43.3738470  15.2143121
  13.4770191  44.2758083  14.9531949  12.5135171  43.4402704  15.7683790
  17.5329113  37.6545668  35.9027076  17.0569909  37.0528913  36.4751768
  18.0060184  38.2317066  36.5021324  23.2604384  24.1124153  31.1348176
  23.0560493  23.9691806  32.0589066  22.5266838  23.7180686  30.6633067
  17.1024108  47.4117231   6.4100665  17.4529731  46.9153786   7.1496469
  17.8419375  47.5000000   5.8087856  85.1201751  25.1908803   1.1194421
  84.8250224  24.4561696   0.5815628  84.8301335  24.9712658   2.0048104
  27.8875494  51.1693096  28.1694221  28.4987068  50.4560089  28.3535910
  28.2117820  51.9032764  28.6913419  14.4299567  27.3770237  49.3743372
  14.2899132  28.1915069  49.8572826  14.8295629  27.6532888  48.5495806
   4.8207828  16.9875419  45.3980398   4.6994501  17.2699761  46.3045359
   5.7618535  16.8309951  45.3198671  18.8873160  35.9323382  33.9165521
  18.3474326  36.5027905  34.4636774  19.7864366  36.2027621  34.1027927
  34.7562695   6.7756748  22.6257038  34.9914503   7.6828575  22.8204894
  33.8503790   6.6937900  22.9238439  41.8694210  61.3710737   7.1430242
  41.4617586  61.8240881   7.8811461  41.1405277  61.1592817   6.5598500
  15.3571308  50.3636074  28.0567575  16.3087940  50.4566574  28.0130529
  15.0286996  51.2626553  28.0650806  12.4997032  13.1436527  35.6833100
  12.0570636  13.3622229  34.8632336  12.4204028  12.1922255  35.7520962
  72.9534354  54.1886854  61.3554764  72.8328099  54.5553446  62.2313976
  73.5953822  54.7650862  60.9408617  57.4622973  84.4572547  56.2544433
  57.3167165  85.2287296  56.8020384  57.8777249  84.8001149  55.4631798
  34.5974922  47.3177052  12.9179752  33.6967754  47.2624683  12.5987709
  34.5455980  47.0361376  13.8313532  26.2349510  45.3495026  24.5427656
  26.2934947  44.5978069  25.1324749  25.5282903  45.1246500  23.9375353
   3.6269897  50.7253599  26.3406157   3.6725867  50.3075075  25.4806423
   4.0694931  50.1129055  26.9282556  58.5682631  58.9102650   3.8537988
  58.2418203  59.5512772   3.2223186  59.2498636  59.3765259   4.3377984
   0.0418988  54.1433573  10.5250251  -0.0514122  54.8536062   9.8901469
   0.6539652  53.5331869  10.1135683  92.5899659  49.5330161  66.8730736
  92.5258480  50.0451750  66.0669613  92.9797207  48.7028259  66.5990162
   0.9088667  81.8778610   3.7291732   0.7108250  81.6054821   4.6251768
   0.1203541  82.3359680   3.4382799  24.3657160  28.5297799   4.2673954
  23.4450507  28.6661148   4.0437379  24.3740869  27.7069831   4.7564405
  28.7761569  20.9209514  17.9830551  29.7017002  21.1650681  17.9803228
  28.3151460  21.7270803  17.7509856  62.7944946  63.6968517   4.4841826
  62.4096012  64.4835472   4.8704547  62.9755926  63.9398479   3.5762230
  62.6710013  40.9878608   4.2205127  63.1899932  41.7567944   3.9846786
  62.0645145  41.3043919   4.8900016  90.9000619  60.1666036  67.6804070
  91.5813573  60.8155301  67.8563712  90.5383809  59.9593821  68.5420780
  66.2740500  60.2591005  66.7024438  67.1820314  60.2487114  66.3996355
  65.9983929  61.1701980  66.6017274   3.2980806  48.1418610  29.5564246
   2.7387795  47.4806404  29.1487432   3.0385736  48.1400204  30.4777741
  27.6383758  15.5977380  26.0308790  27.3899364  15.3184628  25.1496792
  28.5311747  15.2712238  26.1428213  15.3669746  76.3852409  69.5103942
  14.8321982  77.1709040  69.6243112  15.4250856  76.2705210  68.5618721
  25.1871872  20.7095075  56.4198446  26.0635328  20.7684612  56.8003416
  24.9923134  21.6001081  56.1281490   3.1838369  20.9579706  53.2791233
   2.2828111  21.2570429  53.4013510   3.3435568  20.3706598  54.0178967
  26.2418771  55.9874535  16.3067591  26.7016697  55.4421902  15.6683958
  25.3904009  55.5636692  16.4145887  26.8610239  49.4013405  36.3790727
  27.1586156  49.2746687  37.2799754  26.0557342  49.9120188  36.4624071
  75.0859274  51.7042065  20.2056575  75.4539945  51.8450689  21.0779619
  75.8360900  51.4527178  19.6669173  24.4548321  17.8139639  65.9044075
  23.9675927  17.5484896  66.6843796  25.1029277  18.4395278  66.2282515
   5.7657382  74.1569489  33.9819694   6.1578104  74.5553154  34.7590256
   4.9554369  74.6475416  33.8442707  44.1863823  25.9566236  46.4499474
  43.5266924  26.5505672  46.8080997  44.0541697  25.9949732  45.5026960
  26.6350079  38.4367537  20.6290245  26.3211370  39.2645168  20.2649832
  27.1957040  38.0714107  19.9446452  56.5466976  35.2661443  23.8179493
  56.6435719  36.0680103  23.3042789  55.6061745  35.1995349  23.9829087
   2.2513837  21.5027809  19.4146609   2.2041921  22.1480608  20.1200819
   1.4897177  20.9399319  19.5535719  65.3154861   4.0456113  56.7014448
  64.7125031   4.4240818  56.0615985  64.8041925   3.3648548  57.1389179
  90.8955645  52.8728962  20.8729577  91.3044666  52.0123863  20.7804942
  90.4956331  53.0409622  20.0197053   4.9213704  15.9661591  41.2377024
   4.3795747  16.4498949  41.8611526   5.4708034  16.6347730  40.8286667
   8.9170533  36.5054107   4.7293845   8.2454389  35.8687758   4.9740469
   9.2415082  36.1979580   3.8829607  19.9951899  11.0430729  47.2485590
  20.2094293  10.7574117  46.3604546  19.1076088  11.3947260  47.1794796
  20.2210379  10.1531601  16.3516855  20.3118968   9.2422152  16.0721231
  20.3171635  10.1223028  17.3035467  14.2151368  32.7085924  12.7586114
  14.1626835  32.1987438  11.9501972  13.6742234  32.2245407  13.3825827
  22.3606706  20.0405359  20.1918650  22.3897886  20.8844280  19.7410560
  23.2159948  19.6470714  20.0191212  37.4289322  10.7824337  48.7456226
  37.1988201   9.8865926  48.9920998  38.1749725  11.0004294  49.3043137
  80.0938569  11.7280731  49.6761052  80.2755259  12.6397094  49.4477574
  80.3546523  11.6545734  50.5941550  16.0163510  32.9140544  32.0761919
  15.7818556  32.1819592  32.6465249  15.4678667  33.6381006  32.3781085
  27.3172471  88.6492271  16.7956865  26.3909766  88.4094572  16.7680252
  27.4914786  89.0315463  15.9356225  30.1480341   9.7206420  41.1595488
  30.2896500   9.8667115  42.0948792  30.9871554   9.3899190  40.8390379
  10.8539653  39.4796371  14.3138063  11.2755966  40.2701569  13.9768565
  11.2593663  38.7644291  13.8235402  71.0648664  42.4903377  72.7950601
  71.5553935  43.0607531  72.2032501  70.4435165  42.0340502  72.2276450
  42.3499584  32.4326706   5.8815575  42.5719738  32.9824901   6.6329825
  41.7369604  32.9613662   5.3707242  27.7426434  47.9233170  10.1314342
  28.1880522  48.7646055  10.0310254  26.8309903  48.1063509   9.9042398
  14.0776145  35.4190087  12.8734815  14.0717530  34.4633436  12.9273152
  14.9886906  35.6426024  12.6832736  23.8055444  32.1769643   4.6411982
  24.1077733  33.0135608   4.2876506  24.5726514  31.6063070   4.5950720
  91.0473644   1.4836988  71.7474518  91.7973934   0.9953985  71.4079646
  91.4236532   2.0831546  72.3918844  62.1761847  26.9089079  26.7912221
  61.6322756  26.1447191  26.6004086  63.0728102  26.5740681  26.7778873
  13.7819457  27.7058029  22.4339032  13.8244939  28.5707140  22.0260453
  13.6732423  27.8863811  23.3676100   3.0080980  38.3929896   3.0726406
   2.7015167  37.8482747   3.7975708   3.7958387  38.8194752   3.4099951
  46.1041554  67.3325470  65.1351587  45.8462782  67.4970272  66.0421745
  45.9154244  68.1531409  64.6799259  92.6916135  52.6865387  39.4161010
  93.0143540  52.4536514  40.2866364  93.1891144  53.4687328  39.1775584
  37.6140594  21.2510633  41.7242002  38.1697702  21.9911671  41.9684744
  37.9796767  20.9401107  40.8960342  45.0048161  21.3825703  26.1121869
  45.7882309  21.8748307  26.3574958  45.0409794  20.5914021  26.6497517
  45.3820705   4.8785579  11.2863839  44.6428442   4.2872530  11.4282835
  45.7328987   4.6229580  10.4332602  78.9813088  65.9826392  44.0092373
  78.9271795  66.7294282  43.4129047  79.8861133  65.9905618  44.3214798
  63.5878372  17.4450350  25.2321649  63.4794331  17.3533285  26.1787748
  62.9474306  16.8399560  24.8580170  45.2191687  42.9183960  30.1986361
  45.0555134  42.1549129  29.6449757  45.8265018  42.6031256  30.8679509
  84.3192734   6.2794822  35.3711867  84.5648893   6.2548065  34.4463634
  84.2679801   7.2120893  35.5805779  33.3553362  43.1645203  29.1525650
  33.3280969  43.1872368  28.1960225  33.1621432  44.0633345  29.4190907
  31.6811872  66.3275194  19.9133849  31.6179204  67.0986366  20.4769492
  31.8289304  65.6003809  20.5180979  83.9621355  22.8924608  63.4538984
  83.7464037  22.9223752  62.5218058  83.5529449  22.0864224  63.7687016
  33.0346465  25.5197206  71.7044352  32.2087399  25.9103504  71.9899507
  33.1526043  25.8367148  70.8089839  78.8043867  44.6532020  59.0418283
  78.3912085  43.7933311  59.1201786  78.0829631  45.2477321  58.8361375
  37.9915237  44.4600630  15.5067921  37.2144318  43.9363861  15.7020354
  37.6745009  45.3631353  15.4929829  39.2889245  84.4341043  73.7584333
  38.8148959  85.2321246  73.5245619  39.5355846  84.5617870  74.6744506
  81.9545482  10.4362258  48.2127921  82.4270700  11.1890277  47.8574888
  81.2851666  10.8193883  48.7796633  41.4323425  12.1120954  34.5931220
  41.9019699  11.3745749  34.9826670  41.8914652  12.2807109  33.7703180
  85.8206021  86.4331822  22.6759744  85.5681382  85.9364048  21.8977022
  86.7528521  86.2466952  22.7871752  87.9970704   3.5644397  59.5003144
  87.9144131   3.8930091  58.6050825  87.8522764   4.3331966  60.0519280
  93.6627542  22.1976528  76.1263028  93.0155884  21.8634662  76.7473733
  93.1421195  22.5552425  75.4070654  15.6667602  16.3083625  31.1381221
  15.7186747  15.9505808  32.0244217  14.7286963  16.3567364  30.9539247
  59.6952391  17.4668288   7.2249222  60.0115347  17.8974652   6.4307308
  59.4898129  18.1863034   7.8219038  66.9144773  29.3216372   5.2931052
  67.2426462  30.1700783   5.5909055  66.3273764  29.5332551   4.5673230
  29.9809074  52.6328135  25.0148225  29.5633960  53.0669928  24.2709112
  29.8489714  53.2339764  25.7479167  89.7671409  16.7181873  44.0587282
  89.7517805  16.2312007  43.2348108  90.0508498  16.0772038  44.7105598
   8.2837778  28.5812473   4.8191041   8.7648672  27.7553797   4.8713389
   8.2745320  28.7944436   3.8859946  87.8565045  15.0891328  19.0942192
  88.7015327  15.3842115  18.7549734  87.3258313  15.8844483  19.1399324
  20.3391071  59.1470149  59.6764783  20.7338365  59.8452202  60.1989059
  20.2165063  58.4259525  60.2939479  44.7204781  18.2112026  16.9906580
  44.1567850  18.8920665  16.6233623  44.7760057  18.4231162  17.9224527
  19.0556431   8.1186825  30.9405875  18.3509684   8.5765946  31.3988256
  18.8292491   8.1970167  30.0138521  43.6581023  82.0029000  71.7630575
  43.1435342  81.3407567  71.3015179  43.1162222  82.7913669  71.7327623
  10.7333207  20.0098610  24.0238810  10.2489257  19.3547630  23.5214472
  10.7593560  19.6581006  24.9137211  26.7299223  56.0043764  50.3020525
  27.0323324  56.9059753  50.4111433  26.0813117  56.0526276  49.5997620
   5.7938010  25.8825421   4.5663238   6.2677962  25.3531885   5.2076840
   5.3232032  26.5301085   5.0911349  36.1245561  80.7948971  56.0792255
  35.4589272  80.1206398  55.9430647  36.0353422  81.3755894  55.3235340
  23.1017180  59.8737815  75.1362064  23.7184550  59.7304717  74.4183419
  22.8620090  58.9933589  75.4253919  87.0326935  78.1749088  28.8566327
  86.0935508  78.0335110  28.9759994  87.2069179  79.0083331  29.2939901
  26.4317846   6.6047937  13.7810612  27.3568392   6.5271634  14.0144622
  26.4161968   7.2517323  13.0757535  74.8212528  53.2841444  13.1501245
  75.5082703  53.9005089  13.4037697  74.9181366  52.5530767  13.7603605
  65.6370258   3.0077496  27.6685739  65.5319548   2.0689756  27.5139952
  64.7791290   3.2967809  27.9795432  28.9139076  72.2541693  50.6466858
  29.4447710  73.0060104  50.9096519  28.2265182  72.2023133  51.3107936
  28.8258931   5.4972086  49.2700092  27.9349992   5.8396301  49.1972677
  29.2528960   6.0733280  49.9040334  20.7123399  15.9356582   6.7692566
  20.1352358  15.6225801   7.4657935  20.1232839  16.1345708   6.0414666
  46.8250895   7.9632956   8.0768776  47.1613407   8.5040915   8.7915134
  46.3090611   8.5667127   7.5422418  36.2468743  42.5525475  16.4644945
  35.3542018  42.8228855  16.2493563  36.1548185  41.6550875  16.7843783
  59.9436458  62.3161867  61.6841976  59.7911151  63.2587400  61.7517130
  60.6161840  62.2301856  61.0085313  93.3883141  59.1424274  25.7939625
  92.6155849  58.8220263  25.3287029  93.2692576  60.0914764  25.8308983
  14.1892767  54.0961266  21.7905378  14.1310465  53.1481695  21.6712713
  14.6305752  54.4101620  21.0013199   8.7696040  52.7830935  23.9950538
   8.5043913  52.1156788  24.6278667   8.5597885  52.4016809  23.1425667
  51.0200882  17.4369526  59.1436625  50.5165005  18.2084894  59.4032001
  51.8919134  17.5856996  59.5097589  27.0156240  34.0954447  25.3632593
  27.6525354  33.9441919  26.0616159  26.2163401  34.3567562  25.8205295
  55.0812844   7.5012118  10.7202876  55.8902648   7.9844481  10.8884180
  54.3976239   8.0267054  11.1358535   3.5877970  78.0580091  23.3452344
   2.7935630  77.7323008  23.7687182   4.3025130  77.6203251  23.8076711
   5.2723044  43.8869047  27.1446276   4.9069944  43.1316328  26.6838145
   5.7902557  43.5069513  27.8542709  56.0194397  28.6161304  23.9052272
  55.8204079  27.7773213  23.4892774  56.6969776  28.4094405  24.5490098
  28.1601189  80.6402353  77.2463749  28.3422913  81.4608625  76.7885365
  28.3489652  79.9589279  76.6010919  82.8887616  82.1527207  29.0574193
  83.4010063  82.8766864  29.4175720  83.1528388  82.1063143  28.1385398
  30.6169888  58.5148472  36.0705400  31.2126824  57.8513807  36.4186668
  31.1760995  59.2727750  35.8997416  54.5304489  31.8566203   7.0434076
  55.1156378  31.1370182   6.8068469  54.5985746  31.9173813   7.9962444
  20.0427580  46.8387556  16.9344151  19.8591101  46.3180304  17.7163029
  20.1390767  46.1934328  16.2340474  11.8213785  21.0380507  45.3874731
  10.8996522  21.1417866  45.6238890  12.2013950  20.5459499  46.1152458
  22.7215719  37.3684263  49.3948936  22.7073979  36.6103745  48.8106060
  22.1064973  37.9865885  49.0001917  25.0397277  15.1921260  21.8897891
  24.1679716  15.2912235  21.5070963  25.5697608  14.8197734  21.1850572
  53.4422970  33.7739396   0.2165664  54.1344118  34.3456888  -0.1155772
  53.3447266  34.0247130   1.1351658  12.6591694  75.1032352   4.1185743
  12.7313018  74.4318819   3.4401092  11.8201804  75.5300570   3.9449373
  50.8183098  69.7740698   0.8134606  50.3956985  70.6315279   0.7645231
  50.0955153  69.1480064   0.7705099  12.9510820  38.0422473  16.1662364
  12.4171638  38.4264827  16.8615973  12.7328336  37.1104264  16.1838543
  35.3585240  24.2979631  73.1412358  34.4667622  24.3924961  72.8064863
  35.5804059  25.1652965  73.4799613  46.9475317  59.6104336   1.2685682
  46.6771555  58.8983154   1.8482348  47.9017353  59.6296644   1.3417576
  16.8551660  33.5435343   0.9533471  17.1238208  33.8573647   1.8168098
  16.8087316  34.3336964   0.4150924  31.8916368  49.6466112  15.7308304
  31.4456773  49.9755001  16.5113342  31.3017058  49.8631239  15.0087929
  18.2944703  31.2738967  29.5454502  18.5298800  30.9985137  30.4314399
  18.2341266  30.4577088  29.0490365  18.0998206  37.5534058  30.7167459
  18.0912077  37.1967983  29.8284960  17.2991669  37.2157192  31.1181855
  21.4986141  79.2372993  75.2069741  22.4283047  79.3128875  74.9920477
  21.4862861  78.9643744  76.1243567  21.1938095  33.6995721  33.4622955
  21.9807029  34.2360663  33.5582232  20.5498385  34.2873955  33.0673313
  44.9400997  67.8724003  46.9071293  45.2099276  66.9549847  46.9492865
  45.2044106  68.1598759  46.0332108   3.8559178  30.5907845  30.3857040
   4.6084571  31.1816764  30.4133010   4.2386886  29.7139406  30.4150724
  63.0570173  50.6987143  19.6056128  63.8863754  51.1647463  19.7115099
  63.0391836  50.4484081  18.6818922  54.0501070  48.5801315  11.2276745
  54.4168854  49.4152927  10.9374917  54.3744040  47.9422903  10.5918884
   0.3753230  24.6027622  62.8158836   0.9815904  23.9987764  63.2446889
  -0.3169873  24.7456178  63.4612743  84.2810300   2.0298106  32.4101782
  85.0067857   2.4697405  31.9674969  84.1513971   1.2222105  31.9129658
  28.5252810   9.5316809  50.5320835  29.0060449   8.7260687  50.3421211
  28.6520863  10.0752890  49.7544956  47.2501421  48.8435555  35.2285147
  46.5807533  49.2920828  35.7452130  47.5697136  48.1476974  35.8028722
  67.4717855  59.9851227   3.1575349  67.8356123  59.1719484   3.5076869
  67.6391125  60.6355906   3.8395390  72.4565022  19.7930297  74.6800594
  73.0591749  19.1808328  74.2578818  72.2936790  19.4121418  75.5429877
  81.0387253  13.5616550  75.0606218  80.7727968  12.8074750  75.5866703
  80.2153002  13.9752397  74.8014925  43.5495663  18.7704897   2.4043219
  44.3314171  18.3023477   2.1114382  43.8086653  19.1749513   3.2322764
  14.2909968  62.1174908   9.5670462  13.9248204  61.8183422  10.3993058
  13.6054015  61.9352293   8.9244181  26.6370296  45.5537748  17.4484766
  27.2474265  44.8486328  17.6639402  25.8026958  45.2710867  17.8229201
  45.0192881  86.1182213  22.8012300  44.6326065  86.4004326  23.6301255
  44.7554541  85.2022934  22.7134132  42.1368599  40.0908184  27.2368884
  42.5366211  40.4058313  28.0475616  42.1469784  40.8500671  26.6540718
  25.0919914  75.8609200  22.6712584  25.0066638  75.4054117  21.8337226
  24.2399645  75.7487440  23.0928040  36.0360551  35.5332851  34.7914147
  35.5163074  36.2523508  35.1506376  35.4723883  35.1397872  34.1253281
  26.2155056  74.8535919  29.3652630  25.6436467  74.7674894  30.1280165
  26.1603475  75.7792330  29.1278315  86.2280275  66.3693094  13.8466525
  85.3763320  66.8042850  13.8061321  86.7014577  66.8335438  14.5370018
  38.8506551  87.2959283  65.7152633  38.9152725  88.1044105  65.2069227
  39.6123101  87.3157933  66.2946765  65.2294493  14.2285061  51.3443136
  64.9777079  13.8170266  50.5175495  65.8909988  14.8751080  51.0983658
  37.6557899  47.7858257  39.7748542  37.5658226  48.2181883  38.9256215
  37.0340061  48.2412004  40.3425264  20.9278059  34.4105554  40.5097103
  21.8771172  34.2879319  40.5087233  20.5842590  33.6239386  40.0861025
  19.9884653  40.6062508  14.0097642  19.5672441  41.0684061  14.7344804
  19.3237269  39.9915981  13.6990249  85.0147393  20.1581484   5.7537895
  85.2153590  19.9782187   6.6722703  85.8682111  20.3078181   5.3470790
  26.7633176  18.6176622  32.6342344  26.5524912  19.5166111  32.3818994
  26.6558194  18.1113958  31.8290210  26.3338566  36.9192123  36.3672066
  27.0251226  37.4147058  35.9280396  26.5483856  36.0027814  36.1929536
  42.6002693  69.8089504  25.2986860  42.0110750  69.1384172  24.9530530
  42.2046947  70.6376791  25.0285769  20.9747720  39.7245502  49.0206766
  21.1039138  40.1340199  49.8761845  20.7166243  40.4456234  48.4465313
  33.3948898  27.8843808  53.5720301  34.0720129  28.3846331  54.0275335
  32.9585147  28.5265350  53.0121660   8.0802339  83.2856253  70.3003077
   7.4228900  82.9773262  69.6765427   7.5736135  83.5713747  71.0605131
  44.3017626  21.9865799  18.2329369  43.3595467  21.8265009  18.1796730
  44.6854162  21.1187100  18.3588183  62.3566437  31.8269038  13.5858905
  62.0133114  32.6307678  13.9759648  63.2380867  31.7418385  13.9492798
  49.3075848  46.7062712  25.4546165  49.9175310  46.0586643  25.1013446
  48.6165428  46.7691040  24.7952652  68.7915357  88.6278156  56.8927924
  69.3343409  88.9927104  57.5916807  68.4199913  87.8302577  57.2697322
  80.8037456  78.1803063  71.3796912  80.0621541  77.5847343  71.2721340
  80.4448350  78.9250210  71.8621973  52.5867128  25.9155178   6.3272327
  52.6704979  24.9683690   6.4373249  53.4368181  26.2639880   6.5957910
  26.3323808   3.8420701  14.3774354  26.4559841   3.8776919  15.3259528
  26.1667609   4.7499114  14.1232204  78.1677246  60.5521297  18.9076638
  77.5851107  61.3068819  18.8231480  77.9968786  60.2149677  19.7870755
  44.4393459   2.5481802   3.3335561  43.9629498   1.9696051   2.7381369
  43.7856487   2.8194720   3.9780056  88.0363737  14.1177377  44.3856828
  88.4166848  13.5884771  43.6846249  88.6320173  13.9989576  45.1255028
  33.4061408  31.9330025  14.8911822  33.1907082  31.8074059  13.9670372
  32.5742459  32.1702218  15.3009498  60.6898546  38.5602617   1.5483144
  61.4379644  39.0245128   1.9238572  61.0754633  37.8071856   1.1006387
  16.9596970  28.5779285  19.7141933  16.5988100  28.0604959  20.4340935
  16.2338078  29.1342759  19.4317186  18.6256421  58.5458851  27.3503900
  19.3342090  58.3852959  27.9735851  18.4640086  57.6932240  26.9465637
   2.4841033  13.5064447  16.7272913   3.1190541  13.9121783  16.1369944
   1.6332395  13.7018907  16.3347816  23.9891028  81.5164185  19.0713060
  24.3156171  82.4049759  19.2130554  23.3514953  81.3808918  19.7722483
  61.3034868  68.6236286   4.8479789  61.1853409  68.9998817   3.9757940
  62.1998835  68.8564491   5.0898510  68.3088878   1.6977507   8.0228484
  68.5835746   1.5662009   7.1153927  68.7646535   1.0132223   8.5126770
  11.3624477  52.0930529   8.5535216  10.8476245  51.3174725   8.7763822
  11.4823222  52.5485277   9.3868303  -0.0232628  14.2487440  66.0229520
   0.3189871  15.1419267  66.0592346   0.6454036  13.7182483  66.4561872
  16.5362656  20.7928038  27.6290607  16.2460971  20.0751901  28.1921458
  15.7888973  21.3900495  27.5979257  16.9021618  40.0789595  25.6395745
  15.9807348  39.9013257  25.4507542  16.9328392  40.2019501  26.5883446
  29.2844677  20.0527620   3.0368167  29.4682312  19.9891686   2.0995770
  29.1839170  20.9909105   3.1980586  61.4072569  61.1542085  57.1477417
  60.7717569  61.7376450  56.7330448  61.0197766  60.2825752  57.0680682
  14.9004447  70.8489323   7.7422225  14.3208563  71.0146427   6.9986844
  14.6187806  71.4746618   8.4095740  74.3943310  62.0562887  18.5844266
  73.7453747  62.7352524  18.3997798  75.0959444  62.5149298  19.0466189
  34.0365505  36.6284156  16.3508642  33.6334157  36.0127616  16.9629788
  34.1805339  37.4208283  16.8681479  31.8569994  66.8859339  63.2739449
  30.9303665  67.1099758  63.1880045  32.3207211  67.6447344  62.9198074
  35.0095602  70.9442309  61.5758304  35.2896701  71.8595198  61.5716152
  35.8231734  70.4444483  61.5088670  31.4406753  52.8110933  19.0336716
  31.7750454  53.7079954  19.0353334  31.9835258  52.3519135  19.6745276
  13.7686658  65.8172846   3.5738575  13.7405574  65.4661846   2.6838166
  14.5983040  65.4998446   3.9304611   8.0309033  57.1332359  23.5362720
   7.4748677  56.4530849  23.1562042   7.4704355  57.5701809  24.1775131
  42.9318953  51.0116529  35.5500793  42.5036192  51.7423773  35.9960079
  43.0442905  51.3137960  34.6487975  44.6366310  55.5505800  20.6695628
  44.4263554  54.7414970  21.1358190  44.1345263  55.4958677  19.8564649
   6.1337698  52.5502157  10.1269448   5.5461520  53.3042383  10.0780833
   5.5500305  51.7916393  10.1328647  25.6643152   2.2266778  54.3497992
  26.1743927   2.4197166  53.5631657  25.0628209   2.9666415  54.4328022
  42.9666328  77.8836727   9.9182910  42.0252705  77.7117920   9.9410087
  43.2800245  77.6152945  10.7819986  40.1930618  36.3749218  24.9282074
  40.5390549  36.6569757  25.7749462  40.7165909  36.8522334  24.2845297
  33.3610153  43.3341980  40.4735184  32.7734137  44.0472317  40.2234411
  33.2049251  43.2124949  41.4100313  25.9272790  60.9679508  24.5938873
  25.5553198  61.7374802  25.0248194  25.9623837  61.2058353  23.6673832
  44.9636889  59.3590784  39.1574168  45.6149244  60.0455904  39.0131330
  44.1407442  59.8318958  39.2816663  59.6975040  58.9631748  22.9168701
  59.7767019  58.6050367  22.0327353  60.0396872  59.8542976  22.8458571
  88.8452758  42.6432276   7.5047189  89.0380778  41.7995024   7.0958364
  88.2314022  42.4335718   8.2085896   0.4311620  64.6817160   8.9550382
   0.9829567  64.2446899   9.6037006   0.0488564  65.4223061   9.4257778
  24.6323586  62.5912666  26.2971497  24.3542504  63.4942150  26.4506745
  24.9002695  62.2732878  27.1593237  82.3432572  63.2542470  69.8992638
  81.8420632  63.9883629  69.5441489  82.8247340  62.9073599  69.1482101
  43.8273716  68.2090664   8.7273765  42.9718018  67.8894711   8.4408599
  44.4548893  67.6127863   8.3188426  33.2449102  75.1351452  18.3298433
  33.0933785  74.2304468  18.0563629  33.6785388  75.0589991  19.1797853
  40.4541826   3.0032140  16.8718970  40.4984713   3.6945778  17.5324166
  41.2562227   2.4969429  17.0009387  35.6972528  61.4289379  27.6913762
  35.8839679  61.5651703  26.7624998  34.9146366  60.8778763  27.7000570
  23.2288599  18.2772195   1.6278529  24.1436505  18.5455799   1.5419982
  22.9914927  17.9539931   0.7587073  55.9452963  20.8845997  35.5983138
  56.6799164  20.4834104  35.1339698  55.8016968  21.7161131  35.1464343
  36.9627070  48.8394928  22.9888201  37.0806718  48.3797979  23.8200808
  37.8331995  49.1754723  22.7752900  16.2598562   2.5939009  45.0105143
  17.1261394   2.8925651  44.7337723  15.6526101   3.2150295  44.6084166
  16.2887609  63.8996983  22.0135355  15.7787466  63.3840084  21.3888884
  16.5178645  63.2793903  22.7056050  34.6750879  76.2039137  55.2925396
  34.9378133  75.9313631  54.4133806  35.1287651  75.5967283  55.8771229
  23.8064408  10.8110726  33.3350611  23.6420059  11.0887599  32.4339056
  24.3112516  11.5283358  33.7183762  53.2516861  29.1205740  17.4873221
  52.5569248  28.7928200  18.0583882  52.8398180  29.8275328  16.9905281
  29.1265130  52.9667616  41.4886332  29.3683124  52.6295996  42.3512411
  29.3421292  53.8985872  41.5266323  32.0766702  86.0871938  70.7800345
  32.6229613  85.3413013  71.0279081  32.4097549  86.3537553  69.9231611
  36.4625835  54.7900343  16.6577482  36.4252687  54.9201059  15.7101619
  36.3174415  55.6619406  17.0250928  34.1021109  50.3432369  10.7285881
  33.2830620  49.9608803  11.0435367  34.1993189  51.1505604  11.2335730
  19.5613909  51.1928463  33.7857842  19.4948041  51.5838528  34.6569395
  19.4855618  51.9336176  33.1843352  56.9621857  83.1961063  35.0210969
  57.2713812  82.5129154  34.4262187  56.4402421  82.7280143  35.6727855
  27.1028757  11.8582547  41.8361902  26.7954397  10.9527206  41.7946768
  27.9143786  11.8127429  42.3417807  48.6163473  44.0994835  24.2296314
  49.3261385  43.7775517  23.6739445  47.8962803  44.2713928  23.6228490
  37.4306273  58.4226227  20.5899739  37.1516299  57.5332689  20.8077741
  36.9214225  58.9834499  21.1751366  49.3609047  40.1915073  11.0251367
  50.0519466  40.2293110  10.3638816  48.8733959  39.3945312  10.8168137
  49.4510937  42.2409582  12.6333964  48.5866880  41.9328833  12.9056442
  49.6315670  41.7632866  11.8237722  34.8090219  45.7600641  34.3492031
  34.7312427  45.8398056  35.2998996  34.9621344  46.6548109  34.0455294
  63.0353162  18.9250192  54.6998422  63.6284062  18.2683382  54.3348185
  62.6241872  18.4881982  55.4457609  32.6396656  32.6669955   2.6119974
  32.3445511  32.2860980   1.7849210  32.5479102  31.9579649   3.2484648
   7.0349538  40.3391552  19.2612588   6.1985064  40.6869221  18.9519930
   7.6754409  40.6525087  18.6226535  29.3099356  26.8213439  56.1257648
  28.7105322  26.6439033  56.8506575  29.9899697  27.3762774  56.5076447
  49.2700830   0.6214720  21.0929918  48.4717265   0.1008326  21.1812973
  49.4622770   0.9179884  21.9825840  18.7777996  32.8632641  23.2870865
  18.8736510  31.9951606  22.8953743  19.6748161  33.1464386  23.4642982
  68.6816748  87.8602937  76.0656069  68.7760933  88.6554387  76.5900655
  69.1724761  87.1952584  76.5483863  48.0067635  68.1709862  34.1354203
  48.0893803  67.2201347  34.0627193  47.1110916  68.3107710  34.4427824
  36.8916559  64.7566080  18.7550473  36.7049384  65.5829144  18.3094239
  37.0230651  65.0026560  19.6707022  51.0418224  53.3706522  35.0035286
  51.1139202  53.0147457  35.8891726  50.3203964  53.9976168  35.0553441
  55.9346533  23.1284761  34.0355659  56.4527655  23.7761927  33.5578060
  55.3833818  23.6474633  34.6212125  29.9168086  15.1843047   7.3337442
  30.3199291  14.7087526   8.0600888  30.2249074  14.7299266   6.5496230
  36.1782408  34.7456193  11.5401626  36.2989378  35.4287577  10.8806276
  36.9887924  34.7582221  12.0491600  81.4327224  88.7292484  58.4466771
  81.3178332  87.9427818  57.9132907  81.6990741  89.4047979  57.8230421
  40.2029276  63.5251093  42.9994392  40.2572441  64.3758202  42.5640392
  39.8706341  62.9319763  42.3256397  31.9806862  22.8601170  36.4721155
  32.4113703  23.1936765  35.6850433  32.3185849  21.9700241  36.5710759
   8.4725234  30.5417499  71.4668987   8.6329695  31.0564622  70.6759749
   8.9579102  30.9996137  72.1531914  68.1773599  85.7483629  34.9708383
  69.0308674  85.8890155  34.5609919  68.3541401  85.7847932  35.9108655
  48.0300999  79.7045135  18.2500994  47.8441095  80.2930927  17.5185168
  47.6490593  78.8669300  17.9864824  44.9239206  49.2994308  20.4290867
  44.9745989  49.4289589  19.4820464  45.5553722  48.6031055  20.6097221
  44.3280792  37.3446608  28.0461454  44.5579147  36.4856029  27.6919866
  43.4580040  37.5254011  27.6904321  66.2026405  53.0734777  13.6578238
  66.6438675  52.2543097  13.8825655  66.8271875  53.7566471  13.9016581
  28.8801479  36.5843892  32.6566386  29.7895908  36.8491411  32.7946758
  28.9249396  35.6389332  32.5140333  34.7530842  79.0875626  41.4491749
  34.9483418  79.9090481  41.9000292  35.4221916  79.0234566  40.7676935
  90.7947277  69.0473318  38.8285398  91.1460259  69.0992498  37.9396486
  90.4385086  68.1612921  38.8939214  50.9428689   8.2095918  64.6050136
  50.8543488   9.0484771  64.1526119  50.2006146   8.1836185  65.2088503
  59.3320370  37.9099822  10.1676905  60.2550316  37.9745078  10.4129565
  59.1004181  36.9982076  10.3444695  13.9189804  79.9150991  61.6332674
  14.2972028  79.2594004  62.2191286  13.7180388  79.4324350  60.8314657
  24.6680546  68.8135386  30.0893402  24.2287993  69.1704369  29.3173885
  24.8896313  69.5818615  30.6154704  91.6087993  73.2141474  67.7799336
  91.4405950  74.1280607  68.0094997  90.7389577  72.8209308  67.7093278
  14.5739978  79.1704539  72.0569472  13.7618392  79.4215658  72.4969150
  15.0475257  78.6508229  72.7065523  20.1744795  41.5496635  46.7955017
  20.8916593  42.1825886  46.7596149  19.4190860  42.0236731  46.4477587
  22.2279453  32.5843596  16.2597668  21.5027404  32.1305633  16.6891599
  21.8045449  33.2038784  15.6654954  22.1849895  27.6568651  17.4520862
  22.5633097  26.9671464  17.9974234  22.8899097  28.2965946  17.3517597
  28.0545616  32.3544192  13.1065190  27.8507900  32.4073863  12.1727622
  28.6650515  33.0755711  13.2597256   6.7524815  31.5255523  31.5546966
   7.1874291  32.3711252  31.6644979   5.9280193  31.6164732  32.0324278
  44.5293713  56.7159128  40.1112700  44.8400068  57.5220728  39.6991515
  44.8631096  56.7609692  41.0072708  31.6794372  57.4941730  38.9208698
  32.6266456  57.5451040  38.7926698  31.4809680  58.2083511  39.5265031
  28.4671593  44.0725327  39.7353864  29.1235137  43.5777569  39.2448473
  28.8019204  44.9692249  39.7462368  73.8125420  18.4508288  28.9735198
  74.0499020  18.7221134  29.8602533  74.6182346  18.5552418  28.4673643
  62.4964809  84.6865368  22.3352528  61.9775677  85.3949070  21.9542503
  62.3448753  84.7586823  23.2776117  28.7207007  54.1734171  20.4769516
  28.5169864  53.2405329  20.5437136  28.7051606  54.3553257  19.5373237
  22.6186633  16.8150771  67.9704380  22.2647262  17.6853156  68.1538582
  21.8622971  16.2314677  68.0299282  47.9630089  44.5863390   9.8182499
  48.4325600  44.9259853  10.5800855  47.5457621  45.3560352   9.4313329
  11.6579950  32.5800753  33.4264445  12.3685455  33.2098746  33.3051848
  11.0550594  33.0127025  34.0310383  27.0615768  34.9171758  30.4466343
  26.6171503  35.7546592  30.5783081  26.7196441  34.3529344  31.1401367
  57.9977711  63.8048127  54.4155042  58.4981449  63.4615579  53.6752097
  58.1590350  63.1810466  55.1234166  39.3615460  49.2869997  24.1433263
  39.3868351  49.8828125  24.8920536  39.7751045  49.7774076  23.4329033
  84.8269351  73.5367659  76.5523463  84.0027459  73.2473567  76.1609614
  85.3265317  73.8970330  75.8196502  42.0606804  34.7141933  21.5328288
  41.7445898  34.3463039  20.7076144  41.6100025  34.2081475  22.2088766
  34.7794819  52.9713631  18.9445126  34.5717430  52.0727348  19.2005217
  34.3877316  53.0698204  18.0767167  23.8545203  14.5790768  50.6122303
  23.1035662  14.1319036  50.2219296  24.5965600  14.3242192  50.0639105
  82.1196397  72.8956440  58.0321209  82.3586162  73.3906916  57.2485082
  81.5904315  72.1686486  57.7040188  34.8752856  39.3845677  33.7789416
  35.4265332  39.6796918  33.0541945  35.4229140  39.4939661  34.5563531
  54.9806150  88.8760427  76.4497585  55.7840713  88.3557609  76.4500099
  54.8793300  89.1607145  77.3580173  35.9091496  35.2976418  22.6571488
  35.0047708  35.2593684  22.9683828  36.4288902  35.4398727  23.4482694
  30.0276637  18.8798380  50.9632540  29.1263914  19.0699375  51.2236452
  30.2774715  19.6185493  50.4081583  93.3316898  63.5552549   4.2934471
  93.7930584  62.7542830   4.5420533  92.9595947  63.3602047   3.4333679
  39.7873545  38.7088442  -0.2323457  40.5322075  38.7835765   0.3641786
  39.0192914  38.7465835   0.3376436   4.2111012  60.9708548  61.0666800
   5.1208723  61.1773396  61.2809515   4.2343637  60.0589132  60.7767582
  15.3917691  22.5256643  55.7659237  15.8606049  21.9585428  55.1537196
  16.0801265  23.0264577  56.2036507   2.7569172  26.1139154  31.0556245
   3.2540894  25.4306531  31.5052962   1.8507373  25.9692931  31.3279366
  22.7941704  47.2571945   0.3499316  23.2301307  47.0098400   1.1653985
  21.9761205  46.7602062   0.3553826  47.4102068  22.0665503  12.1900260
  47.2021055  21.5473318  11.4132762  47.9574966  21.4904189  12.7236688
  26.9411182  31.6594172  39.6853662  26.4279270  30.8514857  39.6959662
  26.7767811  32.0587754  40.5396128  24.3861008  61.4588499  40.9092569
  25.1416349  60.9552813  41.2122774  24.1149187  61.9672012  41.6736317
  46.6013861  37.4018598  21.6302395  46.7949152  38.3329010  21.7395020
  45.9257317  37.2194266  22.2832632  33.9736509  72.3636770  25.0003338
  33.0479121  72.1249437  25.0477362  34.3441129  72.0513678  25.8258343
  31.6032120  10.0450286  61.6655831  31.6819855  10.8481130  62.1804397
  31.1352011  10.3125438  60.8746139  40.2627708  61.7303470  63.4053628
  40.5162366  61.5063444  64.3008010  39.6186479  62.4310735  63.5069518
  23.3249995  16.3793907  74.0041373  23.2280728  16.6913518  73.1044046
  23.0528208  17.1205673  74.5452532  36.1078358  57.7952337  11.4401639
  36.9379139  57.3373365  11.3077557  35.6331062  57.6730585  10.6180108
  11.3541925  22.8914189  48.0444288  11.3808393  23.7825179  48.3929491
  12.2207856  22.5331235  48.2364511  12.4004650  87.9444408  16.8572974
  13.0472136  87.2442722  16.7694962  12.3052692  88.0654812  17.8020310
  63.3348417  13.1362879  38.6292601  63.7797642  12.5807774  39.2693257
  62.4368906  13.2038033  38.9538550  33.3866405   6.6694272  10.1472914
  33.1558251   5.7470638  10.0368309  32.5576639   7.1374172  10.0472176
  86.7294820  78.6935547  65.2157156  85.7745202  78.6348513  65.2445249
  86.9563230  78.4662941  64.3139784  48.1431818  44.5200968  20.3048658
  48.2651377  44.3055010  19.3800390  48.8096333  44.0054464  20.7600665
  27.1169996  36.5028501  23.4380555  26.8485999  37.2339797  23.9945126
  27.2937942  35.7883978  24.0500474  54.5809603  78.5709143  29.4485426
  53.8358021  79.1008139  29.7316980  54.4398832  78.4409952  28.5107541
  66.7433270  81.4496496  37.0229093  67.6469620  81.1499575  36.9236152
  66.7897685  82.1331886  37.6913802   6.0274622  83.0475986  12.5395596
   5.2846119  83.6319691  12.6909471   6.7886826  83.5458744  12.8370368
  92.5528726  66.2227249  34.9091125  92.9354367  67.0601654  34.6472669
  92.9074210  65.5912781  34.2831683  12.7549171  32.0644164  24.0180278
  13.0405164  32.9496241  24.2440200  11.8260610  32.0462608  24.2485261
  33.9377022  48.2191038  30.0376081  33.8128543  48.1569433  29.0906239
  33.1960011  47.7413034  30.4088497  15.0594354  52.6777697   2.2647502
  15.9847224  52.9155588   2.2053109  14.8288453  52.3901033   1.3813998
  10.2918622  11.8742332  69.1868530   9.9855468  12.3593292  68.4206389
   9.4949481  11.5162000  69.5779769   7.8449437   0.6337604  58.8776998
   7.2102257   0.6598196  59.5937197   8.6845729   0.4714641  59.3077115
  36.2364885  13.6389548  35.6245518  36.0823569  14.3350893  36.2632036
  35.4102257  13.5647589  35.1470399  25.8713412  35.6123853  59.5835447
  26.1483097  34.8503661  60.0923157  25.7910872  35.2857471  58.6873865
  47.4728997  65.7738832  55.6107561  47.9181917  66.5801624  55.8712570
  47.3243340  65.8753398  54.6706144  15.9574950  49.8486900  49.9923944
  15.7541978  50.6401253  50.4909277  15.3615546  49.8774290  49.2438889
  14.8646399  10.9838209  76.6282558  14.8120400  10.4602251  77.4278263
  14.2560145  11.7077741  76.7755675  78.5955190  35.9923420  47.6786105
  77.6658999  36.2204418  47.6821272  78.6154198  35.0724325  47.4148099
  21.5520740  56.3667536   9.4728380  22.1626902  56.9175673   9.9627185
  21.1860967  56.9486475   8.8067394  35.1914501  55.9629107  35.5005717
  36.0834312  55.7095718  35.2630401  34.8358560  56.3608837  34.7059631
  10.7071699   1.1647230  37.1388197  10.3593839   0.6080824  36.4420915
  11.4394916   1.6279799  36.7322111  25.9698582  40.2733564  12.4637032
  25.6246042  39.7147775  11.7672694  25.3965759  40.1055908  13.2116556
  68.7006569  43.8179111  10.2475953  68.9781666  43.0426311  10.7356179
  69.4357729  44.4259596  10.3257620  31.5113616  75.2038908  34.1637754
  31.7983937  75.5042076  33.3014226  30.5649328  75.3470802  34.1644812
   8.2389867  73.9708090  38.6907339   8.4453917  73.2973623  39.3388844
   8.1393892  73.4899426  37.8691030  66.3076996  46.7875824  70.3636311
  65.7300453  46.0841331  70.6597875  65.7351159  47.3770389  69.8727922
  49.0204668  78.7218285  34.4542098  48.9013386  79.4588232  33.8551450
  49.0043974  79.1167736  35.3259826  34.9505186  58.0345678  25.9199977
  35.7421422  58.4914541  25.6357074  35.2458191  57.1467018  26.1218071
  38.8770291  12.4876937  68.9126955  38.7803551  11.5353927  68.9156870
  38.2180497  12.7933750  68.2893650  42.8910828  50.1940298   1.0625520
  42.8092384  51.1383152   0.9289182  43.3906460  50.1094675   1.8746591
  32.4875546  40.7792997  16.1761248  32.2159576  40.3525877  15.3634858
  33.3292770  40.3761005  16.3886452  42.5491333  60.4128933  39.3436837
  42.5457048  60.6438589  40.2725935  42.1764135  61.1778402  38.9053059
   5.1882216   9.3424043  71.8873344   5.1580641  10.2990923  71.8789707
   4.5920679   9.0901336  72.5924541  29.6643329  51.9365931  47.7649927
  29.3373990  51.2198925  48.3087635  30.5722713  52.0542479  48.0443382
  73.6899980  88.0747703  70.8122770  73.3925183  88.9802554  70.7237951
  74.5159419  88.0457357  70.3293614  45.1189756  77.0256805  19.4136655
  45.4057026  76.1442471  19.6526122  45.0713205  77.0111465  18.4577632
  67.5792027  32.2759581  29.7806168  67.2825956  32.3354387  28.8724780
  68.5041714  32.0384502  29.7154069  45.9006119  56.3719940  47.7708673
  45.4290628  55.8438826  47.1266842  45.6652403  55.9867239  48.6149025
  84.7047952   2.3101813   7.6183629  85.6527713   2.4355990   7.5755262
  84.3856242   3.0640608   8.1143767  85.9624596  81.2479496  13.5857689
  85.6902339  81.8060303  12.8572953  86.5234454  81.8093300  14.1209137
  69.7256184  46.3801289   4.3477124  70.6308126  46.2016869   4.6027005
  69.2085075  46.1408043   5.1168358  81.9304469   1.2806612   7.1512139
  81.5509036   1.6149145   6.3385338  82.8756574   1.3673312   7.0275313
  27.4691749  40.5404949  38.6372852  27.5281286  40.2281713  37.7343941
  28.1665707  41.1919355  38.7113976  29.2166257  62.0944929  60.9114075
  29.4167304  62.0651913  61.8470001  30.0378060  62.3626804  60.4991293
  42.5906467  64.2864513   8.5196227  42.2795486  65.0569630   8.9947605
  43.1709480  63.8420725   9.1376913  42.8858212   5.6968314  23.5657215
  43.4593991   5.6524473  24.3307495  43.4140673   5.3443056  22.8495407
  26.3956308  34.3063760  35.3697920  27.1669436  34.1105771  34.8378420
  26.4463282  33.6906552  36.1009192   3.4369704  22.0402107  75.9854798
   3.8464376  21.4474306  75.3552593   3.7028786  21.7016992  76.8404268
  47.7547312  86.3316154  24.4998002  47.5698471  85.8696365  23.6821055
  47.3579836  85.7854748  25.1784396  26.2383342  41.3162422  18.8456821
  26.4842582  42.1977425  18.5651314  26.2540674  40.7960844  18.0423021
  23.2537675  57.2478437  35.0419879  22.6763344  57.9141712  35.4145670
  22.6774478  56.7053413  34.5036769  88.3696893  26.1626250  28.5878539
  87.4663642  26.1581713  28.9044237  88.7805799  26.8955046  29.0464211
  67.7782519  77.1626094  69.7585062  67.5975950  77.0365456  68.8270007
  67.2690518  77.9367498  69.9986140  31.3542271  36.8419266  45.5191898
  31.5359759  37.7793455  45.5858564  32.2122312  36.4252877  45.5996513
  12.7198482  45.6036139  23.3259082  12.7868915  45.1144791  24.1459560
  12.1833396  46.3655424  23.5446692  29.3058944  59.7917557  31.2562728
  28.8409185  59.7490788  32.0918608  29.8927402  59.0356731  31.2698436
   4.6192777  40.8608913  41.8325806   3.9898884  40.1397562  41.8244171
   4.0802264  41.6499138  41.7768621  37.5234461  54.2782927  11.5589929
  37.1454144  53.4539652  11.8652701  37.5556135  54.1878080  10.6066215
  33.5150743  80.7935238  43.7943459  34.0223932  80.2971745  44.4365978
  34.1735268  81.1921787  43.2253551  57.2049046  57.4368668  26.9430232
  57.9259634  57.5360680  26.3213611  57.6180220  57.0968628  27.7367258
  37.6697874  53.2862616  20.9830880  37.8461432  54.1504765  21.3549280
  36.8895984  52.9809904  21.4460635   5.6714547  50.8026457   6.7519939
   4.9476257  51.3488436   7.0585340   5.2521276  50.1243544   6.2225395
  85.8561047  79.5757532   2.4461214  85.6253131  80.5041599   2.4780400
  86.8088921  79.5688105   2.3545793  46.6535521  59.8540545  21.8998623
  47.2814751  60.4326773  21.4672661  46.3777161  59.2450428  21.2148452
  71.8786863   0.1176840  32.5964499  72.1740726  -0.4768652  31.9068933
  71.0017279   0.3858191  32.3220754  93.2461773  77.9808599  12.7777815
  92.3959981  78.1646246  13.1773531  93.8768612  78.4334999  13.3377683
  47.9707861  72.1034336  38.1106472  47.5895405  72.3865128  37.2795320
  48.6231136  72.7733278  38.3154321  34.5651317  59.2088747  34.6039844
  35.3443861  58.9938736  35.1165986  34.4560742  58.4656000  34.0107870
  57.1269846  70.1397133  36.0651922  57.5743484  70.1186514  35.2192283
  57.3969316  70.9696770  36.4582872  21.4622657  28.6344001   3.9486678
  21.1599414  28.1444546   3.1839641  21.1015813  29.5128295   3.8282569
  34.1893101  68.1207228  21.6581988  34.5431042  68.8044596  22.2270274
  33.2557750  68.0939102  21.8680167  39.0938067  22.4451137  11.1676979
  38.7431431  22.8737926  10.3869927  39.1374493  23.1407738  11.8237352
  30.8392286  33.1264806  15.0901473  30.0060821  33.1637096  15.5599463
  31.1664248  34.0257764  15.1111376  80.7860516  30.1371059  68.3143298
  81.3454472  29.9496135  67.5605707  80.3834342  30.9810743  68.1097536
  15.1702782  42.3569355  76.0689886  15.4951045  42.0960292  76.9307592
  14.2235800  42.2249946  76.1198481  45.7050753  51.9706297  38.7121677
  46.0524464  51.4077330  39.4040561  45.2644110  52.6803446  39.1794538
  35.3025913  60.5153847  38.0782151  35.7380772  60.1047564  38.8251901
  35.4796290  59.9267197  37.3444843  38.8278437  23.6420250  21.7699957
  38.4244156  24.5061707  21.6879725  39.3356562  23.5374212  20.9653735
  42.2411060  60.1805973  11.0842526  41.9429636  59.6052265  10.3797710
  42.1248770  61.0648537  10.7366776  37.6855397  56.1576509   4.7987515
  38.6413288  56.2017059   4.7711539  37.4017024  56.6162205   4.0079409
  42.0168638  35.8370638  39.1716528  42.5825119  36.5943480  39.3226194
  42.1703434  35.6021190  38.2565141  38.3337352  46.1931762  75.7474243
  37.4441001  45.9315452  75.9847759  38.6245963  45.5211601  75.1309575
  63.2837470  88.5816625  65.0574784  63.1506260  88.5036519  64.1127960
  64.1341455  88.1711963  65.2142279  40.3965092  57.6624966  17.2866166
  40.1430082  58.4548521  16.8131852  40.2354670  57.8714132  18.2067537
  38.6957145  62.6584864  24.8484612  38.8869381  63.1370497  25.6550860
  37.7512074  62.5060701  24.8785782  43.4566355  58.0187416   4.5727599
  43.1767988  57.7612257   5.4511720  44.3869686  57.7955675   4.5427164
  67.2245836  55.9806967  21.8738031  67.4086380  55.2630186  21.2677550
  66.8756008  56.6787052  21.3195252  45.1718041  20.5890045  73.3537377
  45.2445122  21.4937887  73.0499203  46.0146281  20.1933202  73.1316714
  24.7641468  76.5287876   0.4210560  25.0144458  77.2888899   0.9462507
  25.1361656  75.7812738   0.8890915  56.8821621  70.3855848  13.9957678
  56.8168068  71.3184357  13.7914491  57.7789402  70.2715731  14.3104506
  43.4532976  47.1235847   7.1161550  44.1141510  47.6657152   6.6853410
  43.8333750  46.2451315   7.1259075   6.9243809   5.7417926  73.4169896
   6.9448086   6.4535627  74.0566770   7.7566668   5.2852783  73.5399760
  78.5187101  27.9926586  27.6518226  79.3226385  27.6648903  27.2487116
  78.5007668  28.9231873  27.4281573  12.7756584   5.9129518  22.4398613
  13.4702194   6.4339197  22.8428602  12.9767489   5.0111961  22.6901221
  46.3647318  77.6975489  13.9492428  46.4190817  78.6491442  14.0372252
  47.2649908  77.4210358  13.7780440  28.3270144  42.9428244   6.2427628
  28.5916138  43.5839844   6.9024128  28.9571905  43.0570793   5.5313867
  55.3379965  16.7387593   2.3918232  55.7171726  16.0508704   2.9388765
  54.4665670  16.4128029   2.1668765  85.5922368   5.8446986   1.3394730
  85.9868148   6.0374457   2.1899959  84.7640088   6.3245207   1.3454115
  31.7437434  61.0744524  35.5084515  32.6751304  60.8558273  35.4776168
  31.6160488  61.6818523  34.7797608  49.0026617  73.5368347   2.6289856
  48.6473322  72.9280424   3.2765543  49.0010595  73.0424833   1.8093237
   4.7166297  27.0852909  69.7752408   5.2246401  27.6342115  70.3726028
   3.8148400  27.3888597  69.8794017  73.8318971   8.5801035  37.1769333
  73.2808641   8.0236155  36.6265559  74.7147849   8.4656149  36.8253183
  45.5133963  59.0061998   7.8861612  45.1744604  59.8814678   7.6983851
  45.4956579  58.5561943   7.0415241  45.3279018  78.1648397  26.6947651
  46.0156393  78.7735319  26.9644761  45.7977867  77.3724174  26.4349437
  38.7658978  30.0144577  16.6272700  38.5377860  30.0886750  17.5539243
  38.8896894  29.0759420  16.4855039  75.9365228  12.6233393  39.6379614
  75.3228811  11.9345766  39.3824840  76.7682555  12.1674162  39.7667503
  24.0372109  74.9150181  61.4900208  23.2915854  75.2558327  60.9959364
  24.3010449  75.6403303  62.0561886  46.4861774  66.9654846  18.4477830
  46.8661594  66.1752272  18.8316309  46.5129852  66.8099117  17.5036907
  67.1801233  71.3093519  10.2213705  66.5499735  72.0202732  10.3385758
  67.2008944  71.1611462   9.2759418   0.4815592  27.7173048  32.6846957
  -0.1838194  27.7249533  33.3727694   1.2963165  27.9360777  33.1369543
  51.7274666  57.7288389  22.6557326  51.8091249  56.8626022  23.0547237
  52.5405645  58.1772327  22.8882241  43.9601851  69.9003839  41.4147282
  43.0201626  70.0393724  41.2995100  44.1299725  69.0548801  40.9993649
  69.4972658  70.6659746  12.2815311  69.0697384  69.8348951  12.4883270
  68.8806629  71.3337326  12.5817525  30.1846051  46.3228416  25.0916314
  31.1290693  46.1928034  25.0061607  29.9992490  47.0929003  24.5541477
  76.7688516   0.8438593  23.4434485  76.7537120   0.7531172  24.3962169
  75.8514503   0.7680994  23.1810284  27.0421311   8.9874038  73.6408458
  26.7239091   8.8755760  74.5366478  27.9688689   8.7518892  73.6847265
  21.3407135  78.9921570  62.0306158  20.5485392  78.8543272  61.5112925
  21.0187340  79.2183590  62.9031897  23.9668846  58.4172344  51.3361073
  24.8088002  58.7272453  51.6697216  24.1951084  57.8526354  50.5976105
  78.5611251   8.0521971  23.8967991  78.2248929   7.3558337  23.3326650
  79.1485933   7.6045328  24.5056534  77.4719619  30.8700380  59.2101089
  77.4226974  31.0506448  60.1488249  76.9635497  30.0674352  59.0936176
  32.1881366  66.0880518  16.8485546  32.5679398  66.9214773  16.5703750
  31.4408636  66.3353157  17.3932350  47.3964643  46.5222597   6.2052000
  48.1243753  46.3627958   6.8059886  46.7227697  45.8976984   6.4740700
  85.5531727  46.4611969  63.1644349  85.0039755  46.5031490  63.9472858
  86.2336885  47.1175632  63.3138112   7.8551030  19.4358647  25.4039931
   8.5271120  19.5165312  26.0808444   8.0587840  18.6120236  24.9612379
  17.3472369  55.9990597   6.4126724  17.1500874  56.5166950   7.1933228
  17.2763753  56.6211176   5.6886190  45.1824617  67.6622820  56.0654783
  45.7989216  68.3580542  55.8372068  45.1329947  67.1186399  55.2791929
  30.4914138  16.8238267  67.7716492  31.3635346  16.8215332  68.1661419
  30.0678298  17.6031503  68.1314604  42.3876187  51.5740547  70.0657014
  41.4378354  51.6354522  69.9638550  42.5101897  51.1074028  70.8924029
   6.5456210  78.6378717  36.0660505   6.0655604  79.1808224  35.4407692
   7.3361121  79.1406727  36.2623954  49.5731878  85.9617901  27.9823589
  49.6731424  86.4877415  27.1888709  50.3823853  85.4533291  28.0361962
  89.2743114  16.4779383  23.9777064  89.7266629  16.0053927  24.6764994
  89.8819450  17.1736723  23.7267542  40.7748502  86.5920308  49.8731653
  41.4101976  86.5434268  50.5874578  41.1122125  87.2795394  49.2989199
  60.0237226  78.9228153  55.5908728  59.6704912  79.7135067  55.1831198
  60.5221653  78.4961319  54.8939323  33.1986928  75.3108549  15.2715492
  32.8490281  74.6192360  15.8333552  33.3835864  76.0348272  15.8698058
  59.4593382  70.4189587  17.7517772  60.3138161  70.4696131  18.1801879
  58.8508463  70.7991886  18.3853328  34.4029662  29.7237453  66.7594461
  34.5468995  30.1847133  65.9329931  33.4940860  29.4270668  66.7130820
   4.5026582  87.5875524  74.9363725   4.0796989  87.2034696  74.1683764
   4.1282743  87.1128467  75.6784801  34.0484476  85.8312798  17.6943791
  33.6106753  86.4529705  18.2758284  34.9336863  86.1809254  17.5927341
  17.0521748  72.4842262   7.2248775  17.2729385  72.7686262   8.1117892
  16.2628543  71.9536448   7.3329937  15.5804360  83.0278492  34.4931126
  14.6429551  82.9169464  34.3348026  15.9995210  82.6690960  33.7108779
  93.1347207  73.9332056  18.1106138  93.5014222  74.0596008  17.2355211
  92.9616116  74.8194838  18.4280658  11.6461182  58.3290148  24.0082192
  12.4277484  58.3151007  24.5605707  11.1249137  57.5858450  24.3119884
  81.2813905  14.8801333  35.1035237  80.9836152  15.6374556  35.6075191
  80.9398225  15.0297839  34.2219543   9.2777908  60.1708269  19.9746335
   9.5003390  59.3909883  20.4831171   9.8030365  60.8693075  20.3651071
  23.5161471  64.0148830  59.5641994  24.1266775  63.9304161  58.8318396
  23.8034630  64.8026037  60.0259113  31.6393518  79.4440317  41.5742016
  32.1143389  80.2084827  41.2482691  32.0393586  79.2577553  42.4236298
  77.2951852  10.3516397  73.0830534  77.1251820  11.2039575  73.4841604
  76.9192659  10.4206714  72.2054706  66.6151857  74.5956945   8.3128870
  66.9115448  73.7123203   8.0936849  67.3848915  75.0191212   8.6930108
  92.0702222   1.6399866  10.9903443  92.1149972   0.8607680  11.5444624
  91.3598350   2.1602923  11.3656723  46.8643522  70.4900074  60.7443380
  46.9408607  71.1784458  61.4049673  46.6988134  70.9597731  59.9269342
  21.7383075  24.0799904  46.4995718  21.5897751  23.1579375  46.7092991
  21.0682893  24.5495653  46.9963646  47.9552746  66.3129044  22.6625204
  47.4878263  65.6976748  22.0975304  48.5635185  66.7622852  22.0757222
  73.8699249   0.4012877  23.1762028  73.2700637   0.8519656  23.7705874
  73.4444860   0.4549700  22.3204303  50.1958513  38.6748767  22.1901155
  49.7874928  38.0481505  21.5928817  49.7080994  39.4873118  22.0549345
  29.4524336  56.6654825  33.7539220  29.4398808  56.9160843  34.6776485
  28.5508776  56.4060497  33.5638618  49.8619080  20.5095387  38.7790465
  50.2755308  21.2182856  39.2718196  50.3180838  20.5049109  37.9375529
  60.5756267  85.9074500  76.1499764  61.4079125  86.3688520  76.0468283
  60.2511867  85.7960323  75.2563564  48.4133625  27.5506353  16.5653956
  48.0892658  27.0696735  17.3268867  47.7434969  27.4170184  15.8948314
  32.0218825  37.4429893  20.6711745  31.6835451  36.8926692  21.3775110
  31.6171861  38.2977867  20.8187342  14.8233354  68.1168175  27.3645997
  15.4853058  68.3997107  27.9954696  14.5825076  68.9157581  26.8956351
  58.2294512  52.6736736  27.5639820  58.2953215  52.5618696  28.5123444
  59.1276121  52.5746012  27.2481799  12.2734782  33.9666614  71.5746234
  12.1922490  33.1201515  72.0140014  11.4276501  34.3919477  71.7158340
  63.3228353   8.1313616   7.7566570  63.4229806   7.9053408   8.6813831
  62.3808673   8.2563216   7.6412886  10.7740223  54.9025774   3.9298940
  11.5651608  54.8252010   3.3966523  10.8134949  54.1553450   4.5268196
  57.6742697  76.0989809  16.7320573  58.2932711  76.8218851  16.8344080
  58.2214975  75.3437805  16.5165436  12.4995515  13.4056911  73.9057047
  12.6986119  12.6928196  74.5126821  11.9852015  14.0247831  74.4237773
  60.5680799  66.3207483  41.4018869  60.1750040  65.4571390  41.2757826
  61.3270187  66.1589479  41.9622993  15.0435683  10.8119926  74.0151982
  14.9392411  11.0907468  74.9249474  15.2777335   9.8857317  74.0738602
  12.9766309  18.3923757  11.4699364  13.5399377  19.1478479  11.3020670
  12.1493149  18.7716699  11.7664421  49.2471838  72.1861219  31.8172193
  49.7244596  71.4150620  32.1236515  49.9082899  72.8772593  31.7784476
  42.4730825  60.7972956  41.9721842  41.5992880  61.0216045  42.2921848
  42.5181484  59.8440838  42.0469618  18.1875324  64.1567087  15.7533050
  18.3864176  63.9581871  14.8382819  17.6655078  64.9581861  15.7165074
  14.1644809   4.7253141  71.6149370  14.1413686   3.7873277  71.8043516
  13.9302966   4.7885189  70.6889812   6.7659235  45.8877468  25.9582281
   6.4145231  45.2477264  26.5772033   6.9590104  46.6575146  26.4933968
  92.2267233  69.1787910  29.3587542  92.2763770  70.1266003  29.2345476
  92.3981134  68.8141441  28.4904861  57.1796417  84.0179634  16.2155485
  57.7469110  83.8215828  15.4699826  57.6788855  83.7283897  16.9791794
  35.2180171  74.7038651  34.7980261  34.4053149  74.4198513  34.3795967
  34.9751544  75.4933071  35.2817988  21.0571313  68.7138319  53.3452797
  20.9539366  67.7671957  53.2479811  21.9891286  68.8358212  53.5261869
  45.0904846  41.7810392  15.9708548  44.6594763  41.1254883  15.4224813
  45.2379274  41.3358164  16.8052816   6.4854873  20.3900725  50.1833248
   7.3634065  20.5617720  50.5239248   5.9026016  20.8730513  50.7691622
  42.9509068  82.8593159  29.4800520  42.6047087  83.4344006  28.7976694
  42.1744776  82.4663353  29.8787522  23.9778709  85.1289463  68.8094330
  24.8271203  85.3647232  68.4360409  23.5588312  84.5959091  68.1337786
  11.7224956  54.0746021  14.3334949  10.8671737  53.7771893  14.0233302
  11.9846213  54.7471809  13.7048769  21.5904593  77.8177261   5.5482101
  21.8557072  76.9613934   5.8837265  20.9665918  77.6186705   4.8500699
  45.7257175  44.5014668  23.5902596  44.8806238  44.1575003  23.8796377
  45.9030819  44.0418005  22.7696037  50.8304691  77.1911335  33.5433841
  51.5644169  77.2171116  34.1572833  50.2155495  77.8442001  33.8774705
  41.4076087  14.8459348  65.2323679  42.3643252  14.8763380  65.2313368
  41.1403176  15.7051858  64.9060683  58.6568546  80.1916981  58.3637810
  59.4622564  79.7181129  58.5718060  58.8549471  81.1045361  58.5728979
  30.5547619  52.9232502   1.2069459  29.6687913  52.9780674   1.5651119
  30.4373384  53.0186939   0.2617824  53.0645084  83.0013657  38.5836148
  53.8154173  82.4341393  38.7585831  52.6431417  83.1106949  39.4360995
  36.2232113  74.7370815  14.4989622  36.8962765  74.4641352  13.8754928
  35.5532384  75.1570749  13.9595425  75.8132696  88.6306381  11.2901819
  75.1875639  88.0128574  10.9119427  75.4166174  88.8953304  12.1201456
  56.0022306  73.9758778  56.5969181  55.9032249  73.0474854  56.3859177
  55.5574465  74.4325399  55.8828735  52.4169779  64.9554491   7.0732588
  52.6912308  64.0553522   7.2488678  53.0577135  65.4956150   7.5357616
  60.7327175  44.7956705   3.2255822  60.9739256  44.0773392   2.6407301
  60.2122259  45.3847456   2.6794001  65.7300282   9.9580109  15.8875084
  64.9187374   9.4711876  15.7424414  65.4470730  10.8643687  16.0086977
  45.2145147  12.0917380   6.0810322  44.5573187  12.0833063   5.3851473
  44.7207451  11.9032288   6.8790853  49.7883606  67.1386814  20.5955052
  49.5634985  67.0640135  19.6680915  49.4871473  68.0122042  20.8454156
  41.6338348  54.9998379   3.5508308  42.4908686  55.0465488   3.9745623
  41.1612463  55.7637739   3.8814220  40.4607677  43.5303354  16.1808801
  40.5549240  43.1582832  17.0577741  39.5527959  43.8311768  16.1445713
  13.8528883  87.8680992  39.0357113  14.0733421  88.3512115  39.8321009
  13.5627389  87.0110798  39.3480444  66.2705326  38.1531072   5.1333714
  65.4209280  37.7192116   5.0550103  66.0674858  39.0122461   5.5033481
  76.6893867   1.3518912   7.6673001  76.1955455   2.0245463   7.1983796
  76.0997251   1.0639483   8.3641618  62.8049564  62.9996490  10.6218052
  62.9495335  63.4951210  11.4279306  62.8660393  63.6529684   9.9249017
  93.8278972  10.8500824  62.3825864  93.3853208  11.1802206  63.1644861
  94.4623886  11.5315876  62.1607689  28.8945246  37.1347713  46.9648314
  29.6443844  37.3107600  46.3965273  28.4117985  37.9610324  46.9871712
  82.7683830  87.1845341  42.6218987  82.7365398  86.3704681  42.1194029
  83.2621193  86.9600201  43.4105968  71.6836977  49.6388483  21.2218881
  71.6306734  48.8964462  21.8237710  71.6961718  50.4082775  21.7911482
  38.3231044  27.4310946  32.8181791  39.1817904  27.0763445  32.5878644
  38.1826138  28.1427526  32.1936488  40.9878111  44.9401331  22.5439310
  41.2608433  45.7422495  22.9892349  41.4839029  44.2452288  22.9766321
  33.4233499  82.7618217  46.2906170  33.5770035  82.1174145  45.5996990
  33.0293846  82.2591782  47.0036221  31.8508363  66.1961412  31.2851858
  30.9077740  66.2913132  31.4186358  31.9748950  65.2635002  31.1090660
  40.2428055  38.0442405  12.9798698  40.2271271  39.0012836  12.9873216
  40.9616089  37.8210688  12.3884773  74.6152067  36.2328935  20.6106162
  75.2799225  36.2829232  19.9236763  73.7820387  36.2710905  20.1409292
  56.3225749  22.8489786   3.5317948  55.8177236  22.2920805   2.9391640
  57.0641354  23.1482321   3.0057099  73.3409357  53.8472605  16.9343996
  74.2041826  53.4480572  17.0424211  72.9591036  53.3926964  16.1835277
  92.1591841  10.1290378  58.6592965  91.4764606   9.8916397  58.0317931
  91.7100893  10.1528129  59.5042710  29.0839458  69.4661999  42.8379250
  29.1395998  70.3413725  43.2216024  29.9637961  69.1034126  42.9402876
  79.9500881  32.3316011  69.9490861  80.7907842  32.7720079  70.0735949
  80.0676178  31.4722309  70.3539346  34.1284490   7.3212206  19.2707801
  34.6337509   8.0187511  18.8532233  34.7572756   6.6098940  19.3925261
  51.6641998  62.5714159   2.1337548  51.9969606  62.2879505   2.9853097
  50.9960890  63.2241917   2.3429057   2.7135852  79.3887234  28.0354548
   1.8198329  79.3551970  28.3765054   2.8166109  78.5686779  27.5526071
  53.1048059  50.9494019  25.5010271  53.9873791  50.5800438  25.5304790
  53.0128384  51.2790775  24.6071124  63.6804676  58.8059473  22.7885032
  63.0311394  59.2665386  22.2570324  64.2261076  59.5013237  23.1558752
  83.0849229  56.8943367  63.6259417  82.3287677  57.4705562  63.5144202
  83.6349880  57.3426399  64.2683486  21.8600321  52.6284313  35.9701061
  21.6266656  51.7649078  35.6293702  21.4153385  52.6802635  36.8161511
  57.5951242  66.3378620   1.0465138  57.3424244  65.6335068   1.6433887
  56.7850351  66.5687418   0.5918923   5.7660955   7.0194954   6.4679050
   5.8487862   7.0660949   5.5154228   4.8815739   6.6846985   6.6154331
  90.9691011  37.6408062  76.2757735  91.6043078  37.2282943  75.6904728
  90.1744114  37.7212867  75.7483031   9.6367325  18.3100611   3.9154693
  10.1158203  18.8679892   4.5281917  10.2818264  17.6660639   3.6233091
  60.9944251  41.3912970  21.1362529  61.2803510  40.5289751  20.8348036
  61.6194371  41.6244227  21.8227243  46.3529015  60.9537458  28.7475371
  45.6875992  60.4418945  28.2875228  46.9089842  61.3042116  28.0517101
  39.5596698  27.0115858   9.1356170  39.1283456  27.6513010   9.7021443
  38.8542065  26.6564661   8.5948378  52.8577328  66.8625116  13.2686996
  53.5458088  66.8778515  13.9339435  53.2572365  66.4178276  12.5211132
  24.5652673  38.8508472  60.7701902  23.8827559  38.2827720  60.4128258
  25.3145978  38.7196121  60.1892321  76.6543484  78.3003521   8.6021185
  77.1343279  77.5033522   8.3770841  76.2632465  78.5856247   7.7763534
  53.0605602  73.8469410  28.1810784  53.6497974  74.3335915  28.7574530
  52.2057676  74.2578936  28.3101988  93.7012779   8.1802139  41.6359655
  93.4792386   9.0905866  41.4406411  94.4161164   7.9735479  41.0338632
  75.8715200  79.6661043   5.7801229  74.9497747  79.8393345   5.5887860
  76.0379744  78.8049555   5.3967923  19.8629940  55.8606386  67.9319334
  20.6713343  55.9354925  68.4390974  19.2902887  56.5374041  68.2928085
  36.9868752  40.7642898  41.4905898  37.2321698  40.9464321  40.5834572
  36.9573828  39.8090133  41.5435378  17.8054643  73.5847569  28.3490491
  18.0961049  72.7730227  28.7647915  16.9617724  73.3632469  27.9549074
  73.9134976  16.6221437  63.2534258  74.6552369  16.0204801  63.1896202
  74.0707299  17.1113786  64.0609888  65.1476625   0.9879881  49.3171883
  64.6805528   0.2520663  48.9216375  64.7422293   1.0943133  50.1777411
  23.9546121   0.4175097  23.0896187  23.6435903   0.8646685  22.3025036
  23.3637727  -0.3288072  23.1903744  23.5651779  73.9835501  44.6710110
  24.1811204  74.3495941  45.3057194  23.9317083  73.1280184  44.4475031
  40.3954690  75.8284810  63.6008410  40.2717775  74.9333122  63.2852368
  41.3450426  75.9310201  63.6642734  61.0027695  71.3419008  51.3318872
  60.9466839  70.6825447  50.6402636  60.3031397  71.9626331  51.1283302
  68.9868498  51.1349392   3.5590449  68.4150839  50.3961468   3.3504629
  68.3869123  51.8587923   3.7388712  85.9849361   6.6134459  13.7496006
  85.9497455   6.1633211  12.9055750  85.8402446   7.5351530  13.5357082
  87.6774267  15.6352240   1.7375344  88.4028819  15.9756762   2.2610292
  87.4693492  14.7906977   2.1371689  60.3927469  81.6518974  14.3005741
  60.8941698  82.4625015  14.3884611  60.9790850  81.0570717  13.8330042
  55.0439742   1.5812880  15.5859149  55.0999072   1.0502631  16.3803446
  54.8746255   2.4686438  15.9023881  86.2094082  74.6264315  10.2154517
  85.9691079  74.7460365   9.2966574  85.5220272  75.0795507  10.7037365
  29.4914163  16.6748530  55.5449963  28.9632524  17.4224478  55.8249521
  29.6975816  16.8571574  54.6282101  41.1049652  67.7775431  41.6910982
  41.0377645  66.9461346  41.2215567  40.1975012  68.0331469  41.8566513
  69.1585779  49.8266029  20.0836396  69.0562963  49.3039417  19.2882848
  70.1032162  49.8472929  20.2368188  71.1804199  80.3995037  29.0706849
  71.1299515  81.2296104  28.5967493  71.8173122  80.5596352  29.7670722
  40.0898504  81.9490814   9.2890465  40.4952145  82.0140553  10.1537371
  40.7386112  81.4916897   8.7541378  55.8654976  83.1828308  19.1593254
  55.6107521  82.3453236  19.5465100  56.8041897  83.0946445  18.9940524
  40.2429056  83.1241989   3.2787928  40.7664776  83.8324738   3.6535677
  40.3773212  83.2009697   2.3341921  50.0270939  61.6925144  11.9889390
  50.8513546  61.8050146  12.4624050  49.3923616  62.2071266  12.4874568
  59.7998190  86.7508793  44.6882820  59.4333220  86.1748409  44.0173960
  59.1159964  87.4022484  44.8442888  88.5607246   8.5369211  30.6908584
  87.7336124   8.7552267  31.1203456  89.1338781   9.2789084  30.8836865
  40.9469315  16.8650398  55.9520928  40.3662583  16.2301216  55.5326549
  40.8356377  16.7084417  56.8898146  31.8433091  51.8812522  66.3616959
  31.0986993  51.8328819  66.9612412  31.6623875  51.2129936  65.7006947
  23.1244922  71.3735914  53.1456375  23.0229640  70.5008745  53.5254908
  22.2603106  71.7754984  53.2344818  36.5777156  20.2022609  74.9820879
  37.3730227  20.1129827  74.4569702  36.6611239  19.5308075  75.6591589
  86.5808061   0.0532824  50.4605389  86.9233659   0.7515913  49.9026346
  87.1912292   0.0137430  51.1967850  12.3991704  49.1787481  31.5312409
  12.6692855  50.0765800  31.3384604  11.4940476  49.1296721  31.2237096
  77.7155689   1.6957384  29.5651317  78.3377746   2.1965796  29.0376306
  77.2995475   2.3482233  30.1285338  49.3485737  56.5534306  35.5811977
  49.1929102  55.9784412  34.8319387  48.5320616  56.5234423  36.0798311
   1.3869163  28.9953432  73.1493969   1.6778037  29.6205530  72.4855236
   2.1652076  28.8323316  73.6822383  27.1272922  56.4061928  20.8364844
  26.3259029  56.4024925  21.3599277  27.6492429  55.6871414  21.1925197
  26.0165334  63.9746094  20.5664229  26.8924737  64.3599319  20.5884194
  25.6300664  64.3044710  19.7552097  36.7800808  73.0733061  18.8136983
  37.6551366  73.2107353  18.4509063  36.2251306  72.9199696  18.0490077
  54.7451115  59.6042633  52.5248861  54.9242592  58.7806034  52.0713234
  55.5255127  60.1368570  52.3714304  61.5304136  67.0252895  34.1569901
  60.9048700  66.6012096  34.7444320  62.3396015  66.5261793  34.2680788
  11.0696173  87.9258442  62.8289509  10.2085173  88.1637859  63.1726360
  11.5121257  87.5017548  63.5641861  69.7661495  72.8369808   8.3947420
  68.8825989  72.5168133   8.2129139  70.1112986  72.2291660   9.0487015
   8.4940550  19.7549066  69.1567699   8.9719769  19.1204700  69.6909187
   8.7716338  19.5699844  68.2595609  81.7889023  88.6956501  40.5137682
  81.9801426  87.9941463  41.1363029  81.0217667  89.1369534  40.8784485
  76.3880110  74.5233107  20.9973335  76.9428730  74.3383741  21.7550659
  75.9251976  75.3281975  21.2301207   7.4220559  74.6754989  76.1852245
   6.6961333  75.0769958  75.7076589   8.1091925  74.5651588  75.5280359
  50.9438893  38.5797653  58.2018010  51.2193009  38.8725338  59.0705184
  51.6211793  38.9104232  57.6117377  54.9734592  61.6116667  50.5986500
  54.1283083  61.5614367  51.0452223  55.6155777  61.6651535  51.3065004
  72.8850746  58.6639023  13.1009293  72.6859188  59.5999956  13.1181312
  73.7652874  58.5994482  13.4714699  42.0672986   1.1124811  70.8559064
  42.1745011   1.3672742  71.7723231  42.8151938   0.5425939  70.6766949
  81.3424018  26.5905768  19.9059403  82.0261291  26.6645819  19.2401552
  80.6721357  26.0402781  19.5007885  28.3465621  70.0645694  69.2331044
  27.7159211  70.7398948  68.9831708  27.9368636  69.2426357  68.9632778
  11.9663442  20.0552088   2.0780331  11.9742407  19.9839121   3.0325413
  12.0205558  20.9955603   1.9076382  55.6413725  20.6505877  17.1418941
  56.4520958  20.2624327  17.4709737  55.3349355  21.2077624  17.8573561
  68.6017036  57.9598188  15.3537679  68.0294800  58.7254763  15.3031981
  69.2130089  58.0691481  14.6253550  59.4338277  14.0032107  37.8791976
  58.9082244  13.3636862  37.3985863  58.7913373  14.5903021  38.2776499
  16.6988799  49.9531898  73.9876584  17.4052855  50.5592498  73.7642283
  17.1293160  49.1017398  74.0650625  54.4092849   7.0409304  40.6398058
  53.8980129   7.0356757  41.4490032  55.1121405   7.6694685  40.8046484
  16.5531441  46.4224491  51.3032810  17.1377417  45.7741890  51.6960184
  16.6939637  46.3321170  50.3608148  24.2015457  46.1295700  33.9977169
  23.2673025  46.2923813  33.8676548  24.3610311  46.3664246  34.9113321
  38.4135386  26.8985042  73.3350639  38.2532117  27.8327331  73.2018675
  38.0974194  26.4843664  72.5320761  90.3362945  11.9267947   0.7726319
  89.6005014  11.5815550   0.2670080  90.6151346  12.7045065   0.2892695
  28.5589981  77.5165462  25.6621051  27.6277590  77.5758982  25.4487824
  28.9976501  77.4811506  24.8120666  15.0661016  70.2191639  19.9083281
  15.2278113  69.4358778  20.4342079  14.1363335  70.1706648  19.6860421
  50.7117179   4.8420149  22.7898073  50.3717187   5.6948668  23.0605316
  50.3398922   4.2249113  23.4200144  17.5629152  10.4794604  44.7269964
  16.7087854  10.0999171  44.9335003  17.6435674  11.2253958  45.3213930
  66.6143990  72.8302622  24.1026640  65.8261633  72.9486895  23.5726786
  67.2168112  73.5052824  23.7901258  58.1817532  83.9087677  49.0884876
  58.6772728  83.1259823  49.3292046  57.4302244  83.5752010  48.5984182
  23.1012151  46.5069065  72.9901711  24.0522858  46.5988597  72.9332693
  22.8660390  45.9754524  72.2295887  84.2298685   5.9096870  71.7249231
  83.4547077   6.4266595  71.9442366  84.8481737   6.0932788  72.4321888
  64.6268365  23.4651670  53.8196103  64.2921254  23.6637220  52.9450933
  63.9417264  22.9320869  54.2229478  85.9616089  63.9443541  38.4276652
  85.5468178  63.6049128  39.2207336  85.8600426  64.8939800  38.4919119
  19.3525804  10.3795248  24.4697046  20.1419462  10.6038100  24.9624848
  18.7532629  11.1077982  24.6330333  16.3260600   1.2611875  62.1496431
  15.6877038   0.9154949  61.5257601  16.3816210   2.1942243  61.9432752
  40.6611776  78.0651760  42.5479078  39.8717213  78.6023903  42.6141739
  40.7783556  77.9265451  41.6080761  33.6561036  63.7403584  10.7021141
  34.1080451  64.4582319  11.1455560  33.1224036  63.3348703  11.3854718
  33.5208678  71.4297628  31.9746232  33.8058400  70.5551052  32.2391915
  33.0709410  71.7781115  32.7443314   5.2111232  85.0852108   0.6318637
   6.0348248  84.5981789   0.6084936   4.6897787  84.7082138  -0.0768729
  42.0452452  47.3845911   3.9431277  41.9718409  48.1515884   4.5110694
  41.9398451  47.7315521   3.0572712  30.8602524  74.0781975  38.1514573
  29.9610758  74.1081047  38.4782887  31.2763047  73.3809805  38.6584306
  56.5083361  70.0289631  32.7573156  56.7754221  69.2181396  32.3243499
  57.1166754  70.6892967  32.4254775  24.3507695  62.3972034   2.3357368
  24.5714474  61.6314602   1.8054816  24.6297884  63.1439352   1.8058571
  15.5887887  56.2682018  73.4764482  16.0068366  55.4414138  73.7170614
  14.7566029  56.2623462  73.9493777  75.2174759  84.9150562   3.3830050
  76.0889864  85.3108311   3.3915633  75.1281023  84.5139027   4.2474782
  86.1120704  37.0392138  36.7045379  86.7953828  37.6924616  36.5542507
  86.3424352  36.3137633  36.1241317  80.5052471  79.1341352  36.0053539
  81.1252785  79.3922234  36.6873932  80.9210205  78.3878183  35.5736446
   8.0013574  27.6844031  44.9482679   8.3069910  26.7773348  44.9410152
   8.3418573  28.0453306  45.7668161  81.3582328   2.3720747   9.7875851
  81.6738418   1.7556197   9.1268218  80.6858876   2.8829390   9.3368030
  47.0415715   5.2964026  40.8751917  47.0687130   5.1490599  39.9297881
  47.1924797   4.4316298  41.2567997  70.3716925  10.1393133  44.1374493
  70.9009317  10.3985888  43.3831882  70.5864337  10.7824045  44.8131371
  16.6433942  68.6079597  29.6465254  17.4949372  68.4007120  29.2616153
  16.5292299  69.5445490  29.4852901  55.1989031  76.9314241  14.8670781
  56.0814667  76.9101620  15.2370214  55.3295708  77.1699762  13.9493358
  61.1292032   2.0338160  22.0173979  61.5341500   1.9127375  22.8762293
  61.4967898   1.3334090  21.4783859  50.1656342  75.0592279   9.6601844
  49.9165869  75.9833670   9.6736312  49.4272995  74.6182919   9.2398709
  72.3512128  18.1771857  11.5595102  72.8233627  18.6862093  12.2184503
  72.8723338  18.2750517  10.7625866   7.7594918  61.1983967  33.8955402
   8.4638822  61.8335009  33.7662911   7.8064817  60.9744501  34.8249865
   5.7378384  10.8985481  66.4880459   6.6781494  11.0166559  66.6225688
   5.3368685  11.2387714  67.2878597  76.4078048   3.4684855  11.3979340
  75.5476764   3.7731463  11.1088157  76.2505248   3.0947882  12.2650254
  80.2663803  80.9012508  14.9582040  79.5782518  80.6294918  14.3508697
  80.1966858  80.2874088  15.6893420   6.9978822   6.4430052  23.5754776
   7.7713312   5.8806807  23.5330892   7.2778763   7.1966654  24.0949345
  51.9022036  84.4005966  22.4867940  51.5267277  83.8145351  23.1438947
  51.5280294  84.1020966  21.6578627  66.5387964  86.6959381  46.5245390
  66.6079760  87.6253986  46.3064766  65.6473589  86.5938473  46.8579245
  48.7870169  55.0128317  33.4273052  48.7350130  55.5276060  32.6219893
  48.0056667  54.4602060  33.4091973   6.1442767  85.6820774  11.2092412
   5.7117281  86.4519024  11.5787208   5.7483397  85.5770111  10.3441262
  17.7806104  24.4171339  41.5534210  17.6071371  23.5669428  41.1493015
  18.6475671  24.6632296  41.2308502  24.0942873   6.9642264  51.6286373
  25.0028146   6.7842299  51.8703222  24.0699114   7.9087168  51.4750957
  48.5534811  74.9382877  44.5167542  48.6976242  74.1413021  45.0269222
  48.3507395  75.6076241  45.1702976  94.1401866   6.0771853  27.9859710
  93.7620118   5.2561766  27.6710701  94.8599342   5.8062941  28.5558987
  28.2806727  46.2654838  50.6179420  28.0430409  45.5980262  51.2615792
  28.4844777  47.0407924  51.1409966  18.5963930  18.2718283   0.9499460
  19.1959108  18.1162363   1.6797422  18.6345876  17.4672037   0.4328823
  31.4486980  88.3515453  52.9008150  30.8115745  88.2446480  52.1945000
  32.2935176  88.1640625  52.4917126  21.8869424  58.6441040   1.5960081
  21.6964602  59.4414186   2.0902115  21.7379642  58.8873243   0.6822899
  25.6601644  45.4805851  41.5836906  26.4826989  45.9695673  41.6075134
  25.9095311  44.5817852  41.7986488  15.6293344  60.8328390  37.6533985
  15.9821749  61.6875601  37.4060345  14.6877468  60.9794378  37.7436829
  35.3058147  88.0456161  30.4952240  35.0100279  88.5512447  31.2522411
  34.5149064  87.6147079  30.1711631  74.8078108  59.7183037  20.0964475
  75.0336075  58.7998724  19.9490464  74.3324900  59.9777412  19.3071485
  31.4006114  64.2763758  59.4361115  31.7777872  64.9641180  58.8874960
  31.9895172  64.2203426  60.1886272  83.2781795  12.2394663  69.8471165
  83.3491615  11.3042742  70.0384808  83.1936982  12.6539141  70.7057953
  37.4903870  72.9852200   3.3367538  37.2520304  73.8965130   3.5069194
  37.5872803  72.9365730   2.3857141  66.2837839  79.0757322  46.4089108
  66.6838408  78.5370493  45.7262611  65.7777643  79.7322178  45.9301615
  77.4757293  10.2304465  31.6123700  77.2877553  10.1128489  32.5435352
  76.6148093  10.3200728  31.2036920  65.3479722   2.7826506  17.5946701
  64.7799972   3.4783560  17.9257798  65.7252696   2.3871523  18.3804572
  73.1461477  73.7631226  39.2574477  73.7055302  74.2467070  39.8652887
  73.7113905  73.0740404  38.9083099  34.1040039  77.0983267  35.7439947
  34.3753242  78.0144405  35.8019543  33.1631613  77.1156263  35.9193492
  66.3733414   9.8356348  50.9211874  65.8833006  10.3514201  51.5615368
  65.7990053   9.0972239  50.7184172  43.8075447  29.1865659  16.1651957
  43.8458967  29.4158340  15.2366495  42.9223442  29.4303989  16.4357436
  65.8827782  88.2236195   6.9408989  66.6379547  88.3026123   6.3580555
  66.2286854  88.4268379   7.8099692  30.0356650  88.0837631  33.5386968
  29.8671651  87.6592350  34.3798971  30.9888959  88.1591702  33.4951520
  90.6517410  63.7209177  20.1162529  90.9503555  63.3162022  20.9306645
  89.6990204  63.7564421  20.2017236  88.8663673  79.5353842  61.8217611
  88.8941193  79.6066570  60.8676195  88.6571884  78.6161041  61.9872808
  19.4235703  25.8303318  63.0238573  18.7339064  26.2043914  62.4755172
  19.4703624  26.4138660  63.7811736  62.4732998   1.4208037  18.3339977
  62.7267197   1.5186125  17.4161494  61.5838912   1.0685641  18.3006752
  33.3308264  46.9373474  75.3184761  33.2275674  46.0867271  74.8918453
  34.2503258  46.9624290  75.5832934  59.2997789  76.7878532  29.8223186
  58.4331036  77.1936417  29.8012209  59.9088049  77.5178194  29.7106409
  62.1049881  83.7602234  14.3249631  61.9427204  84.7029018  14.3604040
  62.9397297  83.6780548  13.8637853  18.4182085   7.0057112  10.3407431
  18.0236734   7.7524954   9.8903197  19.2858709   7.3144633  10.6016302
  86.3967930   9.8782978  67.3445986  85.9476029   9.1822204  66.8650822
  86.4523946   9.5528469  68.2430546   2.9771873   5.0086269  58.9014785
   3.5014602   4.2996273  58.5290627   3.2434985   5.0463781  59.8201112
   2.9635061   2.2953802  17.4978697   3.5889543   2.1358973  16.7910361
   2.6810039   3.2006747  17.3679781  47.5786448  67.3823643  30.1081252
  46.9820309  67.5997114  30.8243942  48.4081459  67.1794510  30.5405498
  64.6804932   2.0110422  37.8750873  64.3547490   1.9549185  38.7734032
  64.7583035   1.1002356  37.5911856  17.3830045  21.8656164   8.6584258
  17.7741350  22.3169237   7.9103768  18.0960859  21.7907339   9.2925686
  21.0604378  67.5893364  76.6497387  21.4412543  67.5362262  75.7731609
  20.3268954  66.9747219  76.6298380  60.2816299  13.3930975  49.6851444
  59.3409231  13.3521372  49.5130253  60.6882218  13.1635767  48.8495445
  47.9647970  85.5416393   1.1127801  48.0411196  85.5555153   2.0668319
  48.7538624  85.0883198   0.8159463   2.6278795  22.6298243  16.7955506
   3.5525764  22.6395899  16.5484273   2.6278270  22.3540598  17.7121675
   4.7908748   1.0397345  43.3110571   4.2522682   1.5821081  43.8872242
   4.2113270   0.8146578  42.5832558  65.6017828  49.4590569  22.1174502
  64.8314476  49.9297714  22.4356413  66.1404467  50.1333714  21.7034864
  62.1410421  11.1571795  15.6267989  62.3603609  12.0885378  15.6003892
  61.5812710  11.0646921  16.3977301  69.1653589  10.8043486  29.7772908
  69.0433052  11.7537314  29.7801447  69.4927457  10.6075865  28.8996005
  35.6945491  71.7677259  52.4641800  36.2726521  71.5128040  51.7451191
  34.8114514  71.6645575  52.1096039   0.3058447  27.0631796  52.9470587
   0.4600252  27.2967345  53.8624334   1.1733736  26.8457419  52.6059580
  30.4104373  71.7464695  62.6772193  30.7525822  71.1328277  63.3273069
  31.1139485  71.8304882  62.0336012  34.4028950  70.1591444  46.4331436
  34.4133019  69.2086935  46.5461349  35.3269577  70.4061127  46.3964510
  55.9925461  49.4471693   4.6120661  55.4651022  50.2034950   4.3551424
  56.5380573  49.7683668   5.3300363  80.3221512  71.4904881  50.4500628
  80.6288052  71.3065481  49.5621681  81.0289192  71.1808920  51.0165119
  60.4232740  78.0654049  32.6242661  60.9908390  77.4947405  32.1061516
  59.8313665  77.4659014  33.0786633  34.2345285  39.2144036  -0.1336528
  34.5749664  40.0140095   0.2675480  33.4598112  38.9973330   0.3849288
   0.3197585  56.9101095  14.5511258  -0.5668726  56.5567303  14.6234703
   0.7983218  56.2543488  14.0439844  13.2087673   1.6296679  40.0069952
  13.7221302   1.5467173  40.8106184  13.5517420   2.4167830  39.5838594
  38.8114810  81.6489887  21.7710900  38.8387990  81.7560863  22.7218866
  39.7177982  81.4642525  21.5247321  27.8274676  36.3765964  62.9060141
  26.9059607  36.6352901  62.8945403  28.3078858  37.2035083  62.9467074
  15.6244816   2.9121596   7.1960324  16.3084234   2.4604136   6.7016768
  16.0892690   3.3299452   7.9210508  33.9768314  75.6597185  45.5561733
  34.0740085  74.7224617  45.3878355  34.2818403  76.0803366  44.7522545
  58.9597321  87.7696705  32.8919816  58.8651800  86.9543648  32.3994684
  58.6431170  87.5572109  33.7699628  40.4496285  43.7376651  62.9984145
  40.1487300  43.0544242  62.3993580  41.3783309  43.8445816  62.7927021
  28.8614345  70.8051538  40.2470922  28.8566661  70.7058954  41.1991167
  29.4257855  70.0976562  39.9353385  75.5440334  14.3781287  25.3626275
  74.6768811  14.7287184  25.1592326  75.4748681  13.4426218  25.1721716
  64.3249682  14.6737677   7.0663500  65.2588490  14.5311934   6.9121641
  63.9322451  14.6531493   6.1936671  58.1734565  13.8495451   1.8418761
  58.9238265  14.4277388   1.9792418  58.3054617  13.4901339   0.9645884
  24.8567101  12.0792827  57.2437136  24.5279977  11.2089452  57.0185582
  24.8561141  12.0953283  58.2007782  62.7648783  73.3201122  43.2303619
  62.8406286  73.5987711  42.3177576  61.9926214  73.7809515  43.5581970
  52.2214031  78.7527752  10.6548870  52.4904776  78.0687761  10.0417221
  52.0265627  79.5083284  10.1004434  55.1964903  40.1037979  -0.1027432
  54.6894789  40.9115028  -0.0203868  55.3616667  39.8315978   0.7999505
  41.8470573  68.5765076  38.2679296  41.0678053  69.0528536  38.5544467
  42.4829769  68.7131166  38.9701939  56.6700745  47.4236727   0.7086591
  57.6066875  47.4332523   0.5114398  56.2526178  47.7295828  -0.0965601
  10.2673906  75.6365302  70.9619532   9.9586099  76.4762500  70.6217240
  11.1233705  75.5121687  70.5519972  56.0407686  78.9164639  32.0771027
  55.7096434  78.6002398  31.2365127  56.0479593  79.8695230  31.9884706
  38.7020612  46.4769030  28.4324169  38.4073019  47.3509884  28.6880136
  39.5944881  46.6091061  28.1125259  52.9901791  68.6199856  36.7744637
  52.5052881  68.4274721  35.9719372  52.9348469  69.5712519  36.8653798
  56.8835306  69.2214203   5.1769918  56.3430023  68.4873104   5.4687834
  57.3788309  68.8741589   4.4351572  72.1900320  57.3099422  31.8373632
  71.6102266  57.9080629  31.3658690  71.9118214  57.3769903  32.7507830
  33.5208297  53.2668591  16.4973652  33.5342073  54.1462135  16.1194932
  32.5940990  53.0279541  16.5153039  53.3557892  72.6102257  10.2331805
  53.3039141  72.6386070  11.1885524  52.5485659  72.1728611   9.9623710
  94.2690948  26.9110590  20.7889199  93.4514907  27.4067503  20.8341694
  94.9393276  27.5704485  20.6094050  28.6257169   6.9875774  75.9102038
  27.9826447   7.5310621  76.3655163  28.8486191   6.3019714  76.5398790
  44.3319035  45.6453848  27.9076695  44.3231487  46.5010786  27.4787807
  45.2048731  45.2963114  27.7279401  38.0050302  85.7030392  28.9722490
  38.0445623  86.4541626  29.5642662  38.1228185  86.0791397  28.0999494
  82.7569293  23.4223470  51.1807744  83.3708059  24.1312465  51.3727347
  82.0885860  23.4931383  51.8623464  38.1205511  87.9849625  30.5245042
  38.1383681  88.6991882  29.8874855  37.2366142  88.0126572  30.8907318
  38.3597732  62.1660757  37.2117066  37.9167962  62.7935696  37.7828932
  38.4129095  62.6090860  36.3648582  64.1438341  72.9213381  70.2934933
  64.2622948  73.7836361  70.6917858  64.5261192  73.0063772  69.4200754
  89.2458347   9.3877417  13.1035793  89.6126893  10.2539641  13.2805109
  88.2994369   9.5078856  13.1818902   7.5189270   4.3742663  40.4964542
   8.2673467   3.8363558  40.2380991   7.6595367   5.2099139  40.0512981
  35.1274392  21.2060365  64.0430097  35.6236932  21.9797954  64.3099539
  35.7863185  20.6101045  63.6866657  36.4020038  59.4765902  51.5773821
  36.7506027  58.6296225  51.2992430  36.1134171  59.8948765  50.7662201
  78.0198193  64.4749117  54.3136406  78.7297726  64.2317104  53.7194633
  78.3767033  65.1974535  54.8301649  13.0548109   5.4343897  69.2413139
  12.9854025   6.2419516  68.7321377  12.2837270   4.9258810  68.9901733
   1.0066189  40.2791315  25.8847165   1.1633028  39.5186144  26.4444494
   0.0552334  40.3844839  25.8845925  10.1614727  16.7010599  13.1925976
  10.0112070  17.6232439  12.9846656  10.9028639  16.7097670  13.7979865
  78.6923215  78.2859001  74.4788676  78.4398648  78.8272438  75.2268251
  79.6094224  78.5094223  74.3201257  87.6839431  88.5537818  74.7325992
  87.2636064  87.8322223  74.2647259  87.5957997  88.3231881  75.6574174
  92.9004815   6.8637759  13.4298480  92.2633603   7.2625548  12.8371608
  92.4357274   6.1219984  13.8171554  38.0826184  21.7578611  66.3607149
  38.0115887  20.8033046  66.3586215  38.8747164  21.9379863  66.8670432
  26.2814879  74.0219641  26.5556359  26.5692353  74.9262810  26.4305806
  26.6016841  73.7869978  27.4265528  74.9755576   8.5783202  27.6168609
  75.2089837   7.6901060  27.8867149  75.7864574   8.9413077  27.2605968
  67.8218362  62.3247966  73.7159793  67.6735207  61.7874679  72.9378305
  68.1598660  63.1526622  73.3745156   8.2544491  63.8880310  75.2481155
   9.1194627  64.1242179  75.5830763   7.8116581  63.4821090  75.9933680
  67.8374478  35.4977474  67.0809303  68.1294915  35.3797922  67.9848276
  68.6399171  35.4478178  66.5615122  79.4278768  31.7713744  18.0449474
  78.8947109  31.7548567  18.8397384  80.2874759  32.0724207  18.3393896
  66.8414927  75.1597977  30.5718350  67.1590090  74.3177509  30.2456808
  66.5111542  74.9675798  31.4494228  92.6107934   8.4918219  27.9959178
  92.7994302   8.9378554  27.1702671  93.1813195   7.7232558  27.9887414
   1.9846977   4.5463568  29.1935372   2.5862230   3.9775091  28.7131095
   2.1538223   4.3500048  30.1149893  86.9176534  19.5954043  22.8606653
  86.2500003  19.4763476  23.5361624  87.4345639  18.7903220  22.8902721
  78.2776883  15.6272799   9.6548110  77.6854327  15.2937800   8.9808351
  78.6474422  14.8421103  10.0585699  74.2806768  79.9536228  60.6831598
  74.9016762  80.5460835  60.2593851  74.0158176  79.3486643  59.9902630
  82.1477369  25.2145392  56.8307495  82.3629621  25.2800757  57.7611351
  81.8342307  26.0877711  56.5953445  57.0226574  85.9192085  35.0135088
  56.1394882  86.2815094  34.9429607  56.9045830  84.9762630  34.8988342
  36.9651103  76.4903545  38.1396055  37.2038007  75.8065271  37.5137949
  36.1189985  76.2105703  38.4889555  47.5253388  61.9392261  70.5229042
  47.8877827  61.9215354  71.4086537  48.2915875  61.9105205  69.9499540
  90.7885412  71.0316283  26.4476562  90.3226569  71.1872107  25.6260824
  90.6658986  71.8378073  26.9489145  66.1132148   3.7057310  44.4708824
  66.2630347   3.4461314  45.3799438  65.9378317   2.8837305  44.0128565
  78.5368064  17.8940398  29.2469811  78.5475019  18.2292467  30.1435065
  79.3084148  18.2840735  28.8362217  87.1919441  79.2438078  45.0873184
  86.6892529  78.4717560  44.8275614  87.1872425  79.8047638  44.3117285
  82.9785728  87.9752731   2.1691641  82.6688480  88.6205864   1.5336552
  83.6134911  87.4476337   1.6846964  79.6812585  16.7974383  63.0500603
  78.9692691  16.8541247  63.6873102  79.8449567  15.8589751  62.9566765
  58.6099052  88.4616756  12.1017861  58.5201788  88.0755615  12.9730451
  57.7432489  88.3657837  11.7068958  76.7992166   4.8375708  50.7925510
  77.4090865   4.7999579  51.5293503  77.3608497   4.8887354  50.0191259
  21.0949339  29.2894083  36.7309880  21.1654199  28.4831339  36.2199211
  20.1633848  29.5080763  36.7061234  10.8155693   5.2637011   4.8498344
  10.9130491   5.2215487   5.8011240  10.6253446   6.1842352   4.6691155
  92.7815488  32.7381617   5.1419735  93.6987165  32.6262766   4.8919263
  92.5612357  31.9332892   5.6108797  54.9066782  75.8338928  51.6939354
  54.1116667  76.2950325  51.4264679  55.6217051  76.3787079  51.3650799
  44.4361687  47.6545429  32.3496604  44.5000982  46.9089937  31.7527533
  43.5220432  47.9319620  32.2893310  30.0998129  18.4962279   0.9073622
  30.2779306  17.7588278   1.4911005  30.9646524  18.7868792   0.6178772
  18.5979379  24.5525366  24.8816991  18.2626165  23.9637953  24.2055535
  18.3356870  24.1439349  25.7066202   1.5383829  20.4637438  39.4354725
   1.2813820  19.8531157  40.1263571   2.3229612  20.0733382  39.0504408
  13.7832178   9.5081145  31.5146804  12.8999580   9.1583639  31.3973951
  14.3424905   8.7331683  31.5685487  48.4446478  72.4708271  24.0367937
  48.1770563  71.5517950  24.0358353  49.3556690  72.4553299  23.7434840
  34.9422264  81.7917538  20.5338550  35.6433129  81.1691189  20.7263041
  35.3946590  82.6199913  20.3739786  90.8558086  30.5485541  12.2242272
  90.3650049  30.7058340  13.0308282  91.4814237  31.2716395  12.1796775
  82.2027686   0.8178526  15.7435322  81.8225578   0.3108317  16.4608836
  83.0952552   0.4821783  15.6597173   0.5430950  19.5977217  14.6611345
  -0.2867352  20.0632578  14.7654831   0.3042568  18.7754065  14.2333615
  54.4353247  79.9934244  41.1742640  54.1853809  79.0849924  41.3431120
  53.6450148  80.4986858  41.3649368  15.0389303  -0.0302499  13.4798551
  15.8960308   0.3613669  13.3117926  14.5424999   0.6597143  13.9200091
  23.6245155  87.9964924  10.0156736  22.7398920  87.6982689   9.8041689
  23.4923244  88.7955570  10.5258262  78.6812875  50.8036098  59.0625135
  79.3396374  50.4594764  58.4588746  78.5954377  51.7262897  58.8226692
  72.6269197  74.0795326  28.7051296  72.3000145  74.9788046  28.7310910
  71.8502855  73.5472441  28.5326695  14.0676464   5.8070761   8.8010091
  13.4697021   6.4097887   8.3589256  14.8972763   5.9073836   8.3342296
   4.3140615   5.1307017   2.6938674   4.9201215   5.0674635   3.4320581
   4.7530044   4.6636683   1.9829181  69.9551105  69.3461180  32.9252553
  69.9270153  68.8954020  32.0812798  69.2556238  69.9973917  32.8723788
  89.8678640  32.1611124  23.2345319  90.4141572  31.6006857  23.7856340
  89.7957614  32.9807955  23.7235618  91.0098031  35.6851202  16.8764067
  90.2126268  36.1651713  17.1006799  90.9166864  34.8439699  17.3236454
   0.3121675  18.1326014  41.0131979   0.0519432  17.8366190  41.8854952
   0.6546749  17.3474127  40.5861187  86.1474708   0.8143336  41.1699390
  85.7012800   0.3124529  40.4878378  87.0311979   0.4476172  41.1977863
  54.4103384  86.8226433  42.1748209  54.9390268  87.6122856  42.2896242
  54.6604633  86.2584686  42.9065180  16.6265596   6.1499125  24.6965051
  15.7168783   6.3158327  24.9438596  16.5699257   5.7543665  23.8266945
  55.4054689  86.7755318  26.1761165  55.5887222  87.7117729  26.2542248
  55.9104490  86.4955044  25.4126954  76.2289241  25.2002436  44.0533161
  76.8844989  25.7647520  43.6437082  76.0273937  25.6309325  44.8840523
  77.9955247  12.4822050  27.0557213  78.4560159  12.6395136  27.8799987
  77.2008804  13.0119139  27.1204376  77.4728584  85.9802628  49.8454285
  77.0149088  86.0801601  50.6800127  76.8232965  85.5892944  49.2610979
  58.6743402  73.9387512  15.7369912  59.6079779  74.0727139  15.5738628
  58.6292076  73.0992937  16.1947083   9.7389981  44.9793491  61.8515138
   9.6119115  45.9216270  61.7410628   9.8238227  44.6429214  60.9594111
  88.7596896  23.0023009  15.4692459  88.3765224  22.6889235  16.2885189
  88.0174020  23.3510023  14.9756336  69.1456223  80.1808167  38.6639810
  68.6644650  80.7433987  39.2708063  68.8673544  79.2929506  38.8886642
  31.0193099  25.0717455  16.8466401  30.4507516  25.7530123  17.2056031
  31.7023302  25.5519110  16.3785017  76.7362741   8.1572539  53.3199120
  76.6127065   8.3759219  52.3962545  76.5517762   8.9727694  53.7858772
  54.6843144  69.2437515  72.5237651  54.3440625  69.3924484  73.4060071
  53.9286801  68.9335117  72.0247678  38.6333013  73.5335493  37.9770279
  38.0119228  72.8150225  38.0946660  38.2604647  74.0591717  37.2692513
  85.3866533  12.0987707  15.0728238  84.6656183  11.9360167  15.6809759
  86.1580995  12.1833903  15.6331313  57.7579880  64.2954111  19.6547985
  57.7704382  64.9346876  18.9424777  58.1155872  63.4969950  19.2663574
  50.4363343  41.7062435  76.2509326  51.3744351  41.6855297  76.4400663
  50.3694627  41.4220867  75.3393319  42.0639753  52.3038340  40.6234646
  42.0889235  51.3475418  40.6569862  42.2171497  52.5792503  41.5272951
  56.4074799  20.5666217  63.4420053  57.0804784  21.2471256  63.4568529
  55.9286687  20.7210168  62.6276748  77.1523336  10.9783465  67.0649672
  78.0847314  10.8454138  66.8940830  76.8587068  10.1515585  67.4476242
  31.9777979   6.4904887  23.3049536  31.8666853   6.7157465  24.2286134
  32.1100343   5.5424696  23.3038521  29.1585445  78.5821056  28.9437246
  29.9889231  78.9615774  28.6561418  28.8402033  79.1842508  29.6162677
  22.6722166  21.9067770   1.4545318  21.9587454  21.5559012   0.9215412
  23.4545496  21.4594561   1.1319035  82.7126694  72.2989035   9.3055391
  82.6830769  72.8666210  10.0756407  82.1848488  71.5381956   9.5483464
  51.1835909  80.8957100  36.7627764  51.4742851  81.2269688  35.9130764
  51.3106441  79.9486351  36.7068338   6.7219557  45.9617430  15.5357218
   7.5890650  46.1222082  15.9080243   6.1940635  46.7042548  15.8293986
  84.4702342   7.1414763  49.4859219  85.1923230   7.5170809  48.9821911
  84.5508340   7.5389391  50.3529596  67.7439192   5.7069689  -0.0602068
  67.8772214   5.4253870   0.8448756  67.1173695   6.4278513   0.0030427
  26.5847611  82.7075768  43.8764524  26.1746454  82.8951645  44.7207546
  26.0949206  83.2390499  43.2488918  89.6165183   8.9830214  52.6601744
  89.5606044   8.9700991  51.7046976  90.5039027   8.6799055  52.8522873
   2.8557028  14.7654063   7.6597762   1.9146503  14.7186381   7.8285110
   3.1733574  13.8780123   7.8266978  66.1645126  87.8233910  14.9987245
  66.2361240  86.9678307  15.4219496  65.3029680  88.1485081  15.2600241
  48.5980082  78.0728340  57.2342205  48.5285759  77.1908522  57.5996256
  48.8317490  77.9341269  56.3164186  12.0502914  10.2547270  38.0780506
  11.8820633   9.8709494  38.9386606  12.7993501  10.8343512  38.2165527
  39.8157117  31.9794044  55.8093445  40.2288005  32.6702652  56.3273208
  40.2870938  31.9902572  54.9763314  71.3767672  78.7178946  24.2670417
  71.0563374  77.9777622  24.7825575  70.8772612  79.4682264  24.5891047
  21.7496753  21.1653781  10.4738510  22.5542259  20.7924700  10.8342266
  21.6792703  20.7829905   9.5991772  85.3943433  26.2421870  29.1385341
  84.9173274  27.0485401  29.3347001  84.7278263  25.6470895  28.7952495
  11.7415679   9.5488906   3.7844649  11.6267085   8.9251733   3.0675158
  11.1779058   9.2169815   4.4832870  52.6483917  42.3184204  11.6208816
  51.9823360  42.5588131  10.9768212  53.4163141  42.0895767  11.0972822
  71.6884422  13.9583623  28.3688211  72.0863438  14.7858214  28.0982304
  71.9599962  13.8487244  29.2801237  93.7257321  75.4925159  69.1901140
  92.8875001  75.9255913  69.0287254  93.9623864  75.7529262  70.0802891
   1.6916269  85.4984525  63.2123773   2.2033542  84.6926263  63.1415812
   1.9037574  85.8413938  64.0804927  50.6867810  74.7878245  62.2409288
  50.0899179  74.8729423  61.4974634  51.5289815  75.0986102  61.9087486
  27.8898811  39.4255447  28.6075115  26.9738865  39.5533490  28.8541913
  27.8911328  38.6109781  28.1048036  48.2749176  35.7554436   5.3774315
  48.9550829  35.0835991   5.3301871  47.8830147  35.6390619   6.2429351
  56.8120487  74.5684770  39.5878927  57.2858770  74.9800375  40.3106205
  56.3431676  75.2893785  39.1675560  45.2364159   5.3245616  38.2606554
  44.5997858   4.6625990  37.9909492  44.7243118   6.1287791  38.3456230
  35.7777762  13.8016725  26.6671443  35.1458120  13.9393485  27.3727632
  35.7811093  12.8543460  26.5300584  70.2755864  76.6905907  76.7460461
  69.8305829  77.5364831  76.7977030  70.7971271  76.7428449  75.9451107
  75.1280911  44.9903324  73.2602624  75.5326589  44.3176750  73.8080664
  74.2126306  45.0077942  73.5392882  17.5080102  87.5722554  54.1740314
  16.8749994  88.0277732  54.7290437  18.0438894  87.0678666  54.7861211
  87.8681694  20.4757032  65.8695225  88.3942877  20.9499750  66.5133349
  88.4845530  20.2575121  65.1704542  21.0748959  23.8164139   7.6580667
  21.2572885  24.7481799   7.5365126  21.9367576  23.4001303   7.6463753
  34.2412901  30.1236749  26.8979836  34.2253590  30.9421110  27.3941064
  33.4064627  29.7028160  27.1033478  40.4505110  31.8337154  35.9456277
  41.0276937  32.3531580  35.3859210  39.7360158  31.5643287  35.3684282
  35.6123710  37.2598767  31.8547988  36.5518379  37.3193645  32.0282769
  35.1997423  37.5474882  32.6691985  49.9022770  45.0964832  14.5327413
  49.6987295  44.1740513  14.6874070  49.8848772  45.1891470  13.5801959
  68.5868795  44.3914936  67.5767569  69.0568550  44.3149064  66.7464022
  67.6784094  44.1842095  67.3577867  26.5645909  47.6851034   5.5059838
  26.9540668  48.5364914   5.7051837  26.6588831  47.1832609   6.3156086
  50.8077288  26.2167764  23.5420728  50.5823088  25.5898023  22.8548169
  50.4656839  25.8247185  24.3455195  25.5935049  27.9501319  32.2089648
  26.2825799  27.7977824  31.5622830  24.8624420  27.4082017  31.9121647
  81.3277187  43.9960432  31.5851498  80.9092893  43.7239504  30.7683802
  81.5632429  43.1756830  32.0184731  49.6494813  82.9236725  74.1836585
  49.3540271  82.3080400  73.5128872  48.8671656  83.1033424  74.7051309
  91.7217495  49.3061209   3.2432970  91.6516851  49.3838120   4.1947624
  91.6432579  48.3674288   3.0732104  47.9006958  83.5000515   5.2841341
  48.0696583  84.2381573   4.6985683  48.7230444  83.3774662   5.7584214
  42.5286818  32.6708913  30.3115129  42.9107428  32.3499894  29.4946408
  41.8395567  33.2739973  30.0329304  44.6973801  19.5173872  19.5595396
  44.0821457  18.7844586  19.5363033  44.2560816  20.1839280  20.0860500
  43.6842775  36.8568087  22.3029709  43.2976627  36.0424137  21.9812179
  43.7329388  37.4203086  21.5307450   9.1793582   4.4266519  73.8051094
   9.1660210   3.5187206  74.1079496  10.1073262   4.6222219  73.6752756
  16.6767418  47.4238253  16.4479756  17.5324667  47.6128387  16.8329954
  16.5754128  46.4767265  16.5426850   2.7445623  71.7599314   8.9582628
   2.2658250  71.6246229   9.7760254   2.5753495  70.9680635   8.4478265
  38.7665129  32.6893020   6.0797077  38.2976937  32.6281404   5.2474225
  39.3372488  31.9209361   6.0901409  64.2638810  87.0269159  67.4322895
  64.4609101  86.0977367  67.3138283  63.6114128  87.0460418  68.1323968
  46.7755032  74.2820358  22.9430151  46.5267277  73.7029505  22.2225928
  47.5830317  73.9014101  23.2883406  67.5748714  55.2278474  66.8231480
  66.7994054  55.7811836  66.9164447  67.2663053  54.4630054  66.3373129
  84.0640163  37.3623300  27.2670126  84.7550011  37.9005933  26.8809485
  83.3700466  37.9842234  27.4858189  10.2456272  48.4463501  17.3611879
   9.8187876  47.6394224  17.6491213  11.0444784  48.4952497  17.8862393
  22.9135558   6.2671623  74.6533768  23.3139369   7.1215257  74.4921663
  22.7064320   5.9313259  73.7812824   3.1004307   1.0208664  70.5362181
   3.2106253   1.4945755  69.7117869   3.2749030   0.1067123  70.3123574
  53.1578718  88.6877803  15.8252013  53.5316365  88.8871047  14.9668300
  53.8567560  88.8964798  16.4450705  17.6550138  32.9003835  16.2187743
  16.7334151  32.6693034  16.1026168  17.6362312  33.7896681  16.5723968
  90.6669267  77.4543980  55.2930490  90.0342305  77.1502999  54.6423213
  91.5206702  77.2725275  54.9002687  82.2390397  56.9995955  69.8700945
  83.1391223  56.8141058  70.1378165  81.7092069  56.3695839  70.3585581
  12.7943921  36.0795856  51.8722534  12.5913465  37.0095491  51.9731140
  12.2594070  35.7966828  51.1306429  34.3645406  53.8377380   5.9757680
  33.6296844  53.2781219   6.2268609  35.0951624  53.5282183   6.5111381
  33.8226318  11.3700879  15.0539339  33.8036728  12.3266923  15.0259876
  34.2876124  11.1163509  14.2566621  30.4628181  34.0504551  19.2216659
  30.6405377  33.2185316  19.6604717  30.1182365  33.8002515  18.3644056
  22.7374458  24.1754341   4.5905018  21.8908930  24.5743608   4.3894172
  22.5826049  23.2338953   4.5145985  23.9745975  24.7004700  23.4583855
  24.4456077  23.9307070  23.7775230  23.5542727  24.4061065  22.6503563
  39.1525133  75.0262287  76.0118831  38.8305433  74.8116258  76.8873900
  40.1023467  75.0863078  76.1140530  29.3016291  36.2124896   8.7707514
  29.7246718  35.3592086   8.6749530  29.7041535  36.5930963   9.5513582
  22.8791475  72.4466038   6.3792497  23.0337334  72.3135376   7.3144656
  23.6538363  72.0791054   5.9537673  66.4006295  22.6539430  71.0443513
  66.3615789  23.4945783  70.5882369  65.9027891  22.0557365  70.4870955
  75.0522243   1.6039714  67.7111660  75.8442782   2.1301851  67.8206281
  75.0837051   0.9715757  68.4290211  39.5943403  17.0829415  12.1267664
  40.0323439  17.6566732  12.7554297  40.2994394  16.5540099  11.7535424
  21.6973495  27.3039675  45.5204296  21.6282415  28.2510090  45.6411266
  22.1248531  27.2014451  44.6701574  74.6725105  20.4642067  69.9061958
  75.1425492  20.7528076  70.6885026  75.2886318  20.6115017  69.1886101
  76.0729297  45.7912740  58.8781838  76.0749658  46.5217313  58.2595889
  75.2408107  45.3455207  58.7196950  86.1476170  73.9291626   0.9926372
  86.7448341  74.3388671   0.3667714  86.4942943  73.0448133   1.1108441
  64.5904549  64.7732094  72.7324779  64.0129812  65.5205420  72.8882025
  64.2586215  64.3780139  71.9262890  27.0033455  28.4251022   8.4588206
  26.0783648  28.6672688   8.5034943  27.3364663  28.5879946   9.3412775
  17.8782666  29.0144587   5.7361186  18.6600912  29.4024277   6.1291361
  17.8725660  29.3450069   4.8378217  36.2713933  56.8327236   2.4237567
  36.1497498  57.0052576   1.4901263  35.8308554  55.9959698   2.5720802
  35.1378417  42.5376987  13.3713102  34.3133044  42.9802465  13.5726047
  35.6334639  42.5709009  14.1895342  87.6721461  71.2685874  59.9190859
  87.3068460  70.6419733  60.5436985  88.6128839  71.2621167  60.0957326
  76.4269065  14.6717939  70.3250871  75.7919954  13.9575014  70.3789524
  75.9348141  15.4018316  69.9494169  37.6888633  33.3669853  32.4835324
  37.6084876  33.0540323  33.3845496  36.7855120  33.4659123  32.1828628
  13.2442045  21.2830472  36.1596131  13.8738775  20.7338953  36.6267061
  13.2175946  22.0973587  36.6620302  46.4659452  46.7513418  15.8530414
  46.1338902  46.8766737  14.9640751  45.6954193  46.5029144  16.3637292
  29.7927308   5.6449199  46.8638182  29.6533847   5.5066639  47.8006744
  29.1590714   6.3213211  46.6246748  15.1919317  74.8955822  22.2143102
  14.3831265  75.3974676  22.3151994  15.8267367  75.3505516  22.7677178
  84.4062741  35.5157134  61.3428430  85.1628478  35.6369934  61.9165317
  84.4060214  34.5799562  61.1413710  53.2511187  36.0469604  13.7606704
  53.7441397  36.3090181  12.9831815  53.6466360  35.2168369  14.0265501
  64.3457015  77.2828272  62.3579888  64.8470028  77.4252966  63.1608788
  63.9705308  76.4083627  62.4618606  52.8945494  14.6789849  34.5177817
  53.6323833  14.1612375  34.8399162  52.9826260  14.6544707  33.5649586
  28.4475133  83.9421201  11.2965417  28.1580874  84.7986260  11.6109681
  27.7085826  83.6125070  10.7851052  28.3533359  18.3380103  22.8085899
  28.9232111  17.9789066  22.1285033  28.7219048  18.0088162  23.6283588
  29.6259999  17.7447462   6.3684845  29.8671198  16.8426120   6.5788323
  30.4624867  18.1999564   6.2720096  50.5197859  44.5584345   5.7864124
  50.7379293  45.3487349   5.2923739  50.4157495  44.8610115   6.6885519
  66.9745827   0.4875997  13.3559906  66.7349815  -0.4357899  13.4345686
  66.7227411   0.8726574  14.1953588   7.2309249  71.7873123  76.8354200
   7.1118778  72.6028851  76.3486952   8.1689924  71.7551401  77.0231020
  23.9537930  35.8486295  26.3746023  24.2878270  35.1893330  26.9828629
  23.0262041  35.9307575  26.5961051  83.3200966  80.8312887  46.8272066
  83.5517107  81.0348880  45.9210396  83.6027418  79.9248904  46.9488001
  63.6573513  71.1286834  72.2476478  63.7914928  71.7590550  71.5399275
  64.4988807  70.6803730  72.3317809  92.7136440  32.2413039  13.3851516
  92.9254634  33.0722356  12.9598081  93.5428338  31.7634583  13.4035909
  60.0580605  77.9382804  69.6835635  60.0262268  78.5642198  68.9600865
  59.4175895  77.2670844  69.4479255  48.9197584  65.1623085  63.9330546
  48.9619072  65.4413799  64.8476986  48.7449368  65.9669355  63.4449498
  25.8590937  37.9823661   8.4873486  26.4376521  37.7121353   7.7742726
  26.2508607  38.7895489   8.8208258  94.1558511  13.3717799  24.3670917
  94.9348761  12.8821158  24.1033101  93.6462698  13.4629905  23.5619593
  92.4745380  83.8831094  36.0909867  91.8948327  83.7895757  35.3350592
  92.0497285  83.3759892  36.7827940  27.2340655  43.9426661  46.3407946
  27.5782561  44.0737247  45.4572868  26.8748617  43.0555010  46.3287449
  14.9987054  28.4365010  11.4917934  14.7065032  29.2036390  10.9995055
  14.8077703  28.6508965  12.4049258  26.0819602  13.2725096   6.1203521
  26.5551209  13.5692811   6.8977052  26.1780357  13.9893091   5.4932952
   1.6849082  73.4470490  62.1408705   1.4389461  74.3685916  62.2214441
   2.5421661  73.4642747  61.7153804  81.8474375  20.4691228  54.5799438
  81.6913818  20.0999317  55.4491822  81.7012321  21.4087781  54.6890466
   8.9329505  50.0828123   5.8927190   8.8133508  50.0837898   6.8424177
   9.8291570  50.3933620   5.7638580  66.9224453  51.0516691  25.4058218
  66.4994478  50.7504225  26.2099075  66.2300062  51.0226870  24.7455788
   0.9424350  19.6882686  76.3527851   0.9514972  20.6419811  76.2716133
   0.7006857  19.3759689  75.4808582  32.9413390  63.1573391  17.5642633
  32.2770333  63.8196230  17.7548087  32.4404788  62.3683500  17.3572135
  65.8095932  50.1479626   8.7522799  65.9336948  50.7212448   9.5087045
  66.6420364  50.1889610   8.2815480  66.4929581  37.9310107  11.8094289
  67.2082043  37.3811579  12.1293080  66.0174465  37.3719478  11.1949611
  51.1549997  56.6425371  17.1516216  51.2830687  56.7843533  18.0895543
  50.3226566  56.1736488  17.0917380  59.1291626  55.8950141  56.7337219
  58.3269103  55.5365077  56.3541238  59.4034870  55.2405051  57.3760597
  86.0186513  82.3421553  70.5539779  86.5538486  82.5030950  69.7768704
  85.1172574  82.3635367  70.2326314  50.1374670  78.2953647  71.4802490
  50.1987167  77.5857976  72.1197752  49.4121905  78.8367394  71.7918901
  40.3392172  76.4264488  10.7937706  39.5101666  76.8845701  10.9317243
  40.0958014  75.6250620  10.3303480  65.3224230  62.3397779   3.8721693
  65.9984493  62.9058027   4.2447743  64.5067978  62.6498032   4.2657092
  51.5404701  46.3976860   4.0457171  50.6831026  46.8058586   3.9250955
  52.1451235  47.1337843   4.1394401  66.1025572  22.1887183   6.9644451
  66.9060802  21.7136788   7.1763778  65.4285002  21.5106559   6.9184726
  75.9412082  88.3112815  69.0359603  75.6921752  89.0369895  68.4636329
  76.2550004  87.6321414  68.4388523  16.3624757  88.0680278  68.6897890
  15.4526800  88.0728343  68.3923273  16.3727897  87.4479917  69.4189529
  17.3342845  79.8708773  24.7368741  17.7201792  79.2787296  25.3823805
  17.7924487  79.6676534  23.9213872  48.2334471  83.8852596   8.2193768
  48.1908083  84.4468498   7.4454057  48.0061388  84.4633961   8.9476073
  17.4349201  43.9719248   9.9505615  16.7403269  44.6304655   9.9408197
  17.4790525  43.6838245  10.8623099  46.1654231   8.3134136  68.5286353
  46.5818640   8.5324153  69.3622081  46.6638753   7.5646600  68.2012997
  89.9834617  74.9656728  60.6021563  90.3589280  75.7454375  60.1932220
  90.6967862  74.3273977  60.6006483  42.2783375  42.9862785  12.8519869
  42.8426266  43.5783672  13.3492184  42.8125763  42.2036695  12.7165294
  21.3559338   8.1407175  76.6293068  22.2110459   8.3291254  77.0159822
  21.5302273   7.4541626  75.9854927  93.7996848  82.7484349  51.9166700
  94.2668040  82.0330909  51.4850251  93.9268096  83.5007265  51.3386313
  60.2117968  32.8026795  29.4552922  59.7332525  32.0623159  29.8282337
  59.5707560  33.5130024  29.4281244  32.0845839   2.9175148  58.9086656
  32.5377843   3.7428674  58.7365202  31.1905381   3.0664692  58.6008911
  27.3564434  14.7528422   8.3217537  28.0242491  15.3100860   7.9220688
  27.8210998  13.9473403   8.5486782  86.1886390  85.7248071  63.7616996
  86.2803538  86.3333467  64.4948439  85.9412606  84.8946574  64.1689937
  88.5910924  30.4303983  74.6985984  88.2370265  31.2185434  75.1105421
  89.5026143  30.6498268  74.5056990  29.1575623  64.4120359  16.2529755
  29.3911409  65.1732302  15.7216978  29.3124056  63.6623001  15.6783867
  85.8549102  65.3792575  56.2569682  85.0625499  65.1420644  56.7387692
  85.5335458  65.8058360  55.4626219  69.8722363  34.3301868   4.2572242
  70.8141279  34.1687179   4.2024839  69.7991467  35.1698709   4.7109002
  64.7732449  54.0498114  22.0261931  64.1354132  54.7577190  22.1171284
  65.1350403  53.9389896  22.9054308  12.1001112  61.2436342   7.9069388
  12.1230781  60.3892326   8.3378732  11.3338709  61.6794968   8.2799399
  14.2526746   8.9319611   8.5246038  13.5615551   8.6680901   7.9171848
  14.9614727   9.2419380   7.9609108  14.5949960  14.8680735   5.4006207
  13.8602686  14.5720387   5.9379947  14.6059608  14.2654562   4.6570051
  19.0279281  42.5271845  29.4605446  19.7385037  42.8945017  28.9348125
  19.4016588  41.7362881  29.8491764  79.4648218  69.4489956  12.8425658
  79.1466761  69.9752188  13.5761225  80.4182720  69.5136738  12.8971541
  16.3262546  33.4139299  29.3307757  17.0701969  32.8255200  29.2021036
  16.2150180  33.4552121  30.2805924  91.7951425  31.1657062  57.5746290
  91.7469533  31.0105327  58.5179381  92.6625426  30.8481124  57.3236589
  66.2142284  78.7415460  76.4751739  65.8830531  77.8858784  76.2024262
  65.5164631  79.3538836  76.2419410  23.0278254  33.0751920  20.1668000
  23.7319946  33.6525011  20.4619193  22.6149535  33.5503125  19.4456697
   2.7390490  30.9934783  25.4782748   2.0771513  31.4581585  24.9662256
   2.2603426  30.6490159  26.2322092  16.7180201  11.2774190  52.5931851
  17.3266169  12.0076475  52.7054660  17.0917651  10.5709753  53.1199471
  16.8529698  42.0133171  51.0198132  17.5150820  41.4522132  51.4235560
  17.3319480  42.5094375  50.3559820  40.3939915  23.6650062  19.1058183
  40.9584808  22.9708576  18.7656105  40.9903669  24.3914604  19.2870092
  56.2980700  38.4827399   7.5888342  56.2723207  38.9914918   6.7784381
  57.0854235  37.9443264   7.5087082  27.0417118  45.4317331  32.6200700
  26.1937499  45.3544188  32.1827888  27.6736021  45.5093813  31.9052863
   6.7365095   0.8357725  61.3691453   7.2847482   1.5493497  61.6954462
   6.7537638   0.1817379  62.0678381  55.3833898  84.2472676  76.6413808
  54.5341523  83.9439920  76.3203641  55.3464373  84.1054443  77.5872943
  74.6347380  42.0020771  23.2390594  75.1080370  42.4981976  22.5711656
  74.4776392  42.6341534  23.9405084  40.7853889  40.6342649  23.7869215
  41.3460350  39.8585367  23.7747359  40.1218271  40.4607201  23.1192398
   9.9022949  36.0088706   2.3448318  10.8406186  36.0086322   2.5339851
   9.7783971  35.2720785   1.7464848  18.5034704  40.2346516  18.8851297
  18.7454712  40.1180077  19.8038578  17.5946021  39.9381590  18.8373482
  74.0308412  70.9472278  69.0732179  74.9050077  70.6373432  68.8365106
  73.5314782  70.9011725  68.2578961  20.9607267  47.8186274  20.2909923
  21.4208388  46.9794607  20.2729583  21.5010595  48.3760595  20.8509421
  21.5860701  16.5966618  17.9246330  21.4399409  17.1211207  18.7119198
  22.4345207  16.8919313  17.5942147  12.1684214   9.9988946  63.3234863
  12.8982589  10.1479921  62.7223687  11.5230700  10.6649313  63.0865328
   0.2950260  14.3850383  54.1615335   0.3371784  15.0695810  54.8292581
   0.7325384  13.6333284  54.5612137  66.4680489  76.4766243  47.8921644
  66.1768730  76.6132501  48.7937085  66.3713820  77.3335627  47.4767796
  56.7099245  86.0691932  74.9957584  56.3900645  85.3731254  75.5696970
  55.9529670  86.3037112  74.4588689  67.4865039  61.9585481  76.6971433
  68.0728515  62.4490538  77.2731909  67.6629169  62.3067036  75.8231308
  41.1731577  53.2119513  28.5049653  40.7802820  52.5870466  27.8955603
  40.4266453  53.6242390  28.9396644  12.6788947   7.5646362  67.2839944
  11.7913768   7.5455055  66.9259731  12.6643845   8.2778797  67.9221980
  92.7336391  77.3219374  48.7662928  91.8780025  77.3177651  48.3372228
  92.5538667  77.6253393  49.6561591  41.8500376  77.6365900   3.0953488
  41.2626886  76.8826342   3.0423307  42.3307848  77.5086451   3.9131156
  45.3151846  53.8708258  33.0801105  44.5481873  53.6795664  33.6198902
  45.3117752  54.8235893  32.9881239  83.8763602  82.5664356  54.0446512
  84.4885142  82.1798781  53.4184949  83.0460389  82.1220687  53.8733642
  16.6768166   9.6125230  68.6652057  16.3690707   8.7264928  68.8561885
  15.8840176  10.1488075  68.6752943  86.8617328  83.2129744  67.7055226
  86.0403712  83.5853627  68.0263482  87.1231111  83.7912253  66.9889073
  34.7494340  39.7569609  22.8924680  34.9528003  39.1583490  23.6111736
  35.5394554  40.2880526  22.7922797  66.7181635  13.5298944  36.7700028
  65.9654665  13.3675253  37.3386145  67.2027111  12.7044034  36.7725062
  46.6996479  33.9782119   0.7081256  46.3120079  33.8837171   1.5782043
  46.0990238  34.5581841   0.2400276  37.2812319  29.7992039  19.1617262
  37.0537066  28.8939428  19.3737876  36.4665866  30.2862501  19.2857075
  28.9977098  13.3393347   3.6322802  29.2381620  12.8825951   2.8261763
  28.8337135  12.6394403   4.2643288  78.9149411  68.1185129  42.2920577
  78.2911523  68.8065556  42.5238268  79.5424731  68.5496500  41.7119209
  12.5552273  14.6288860   7.0720279  12.5151145  15.3946543   7.6449341
  11.7171454  14.6315646   6.6095966  88.6467411  61.2812805  20.0280762
  89.4592382  61.3753223  20.5253029  88.1854184  62.1088409  20.1642990
   2.0593637  82.4944595  62.0649247   1.1439889  82.3199657  62.2837345
   2.1916479  82.0586565  61.2230174   9.7190139   8.4860239  69.6517686
   9.1437384   9.2507753  69.6306763   9.9486062   8.3844242  70.5754558
   7.1483529  26.5805006  13.9602387   7.3146379  27.5155020  14.0800476
   6.9344616  26.2610173  14.8368299  28.6124706  23.4850168  30.3280354
  27.9432988  23.8157153  30.9272695  28.1179214  23.1259012  29.5913625
  89.6497713  25.4272852  51.7830459  89.8933421  24.6743116  51.2445871
  90.3307353  25.4720506  52.4542515  75.8756828  36.6885948  47.8191710
  75.7204390  36.3132596  48.6859179  75.2504826  36.2411809  47.2489309
   7.9892212  63.7689161  32.4094820   8.1731611  63.4148884  31.5393901
   8.6334604  63.3495045  32.9798174  52.4300337  31.3321614  10.6648755
  52.0053482  32.1888661  10.6209254  52.0612240  30.9218550  11.4470899
  11.2996337   3.9419708  62.0395522  11.3003060   3.9832363  61.0832421
  12.0605513   3.4033260  62.2565798  41.5488052  44.0109348  30.2935338
  40.9080887  44.3459368  29.6662521  41.7678833  44.7665358  30.8387852
  72.3049434  66.6880611  69.1758714  73.0949767  66.9434384  69.6521769
  72.5651439  66.7031983  68.2548402  51.3668633  36.9287395  16.0607088
  50.5885506  37.2926641  15.6387782  51.9060755  36.6118503  15.3360951
  58.7086105  32.6816678  15.9474409  58.8351488  33.6302853  15.9289861
  57.9292917  32.5335240  15.4117656   0.1296350   4.1750297  59.0015642
  -0.2056578   5.0192365  59.3034284   1.0278961   4.3585834  58.7264852
  43.3310553  13.6204633  60.8337538  42.4182460  13.4792957  61.0849122
  43.3417413  13.4887228  59.8857228  45.0726748  31.2190366   5.4286259
  44.4593048  31.6394138   6.0313630  45.1093149  31.8078732   4.6748620
  69.3248796  11.5767515  17.3007810  69.2041063  12.5085783  17.4833870
  69.3533659  11.5215933  16.3455963  80.6726440  87.2455886  61.7811791
  79.7634490  87.2419503  62.0804850  80.7457192  88.0363706  61.2468056
  57.1220541  10.4595995  27.0437598  57.6856089  10.7662380  27.7541208
  56.3449812  11.0159433  27.0973444  10.1315904  73.5324574  53.1448603
  10.9855902  73.6880159  52.7414799   9.8618490  72.6764774  52.8120422
  46.7740917  46.9154024  42.2975159  47.1061897  46.1114407  42.6970005
  46.9923782  47.6032209  42.9263926  42.4230620  48.7044105  74.9885995
  42.4924227  48.3358726  75.8692816  41.9489094  48.0405960  74.4878359
  54.0902408  72.1754316  59.2721478  54.7834189  71.7328885  58.7823574
  54.5212753  72.9349783  59.6639733  71.8475326  55.5523840  75.4040160
  71.1742623  55.7974509  74.7692859  72.5197251  56.2277320  75.3129530
  21.3768291  50.7131481  44.8339415  21.3050723  49.9489832  45.4058981
  20.6868696  50.5900002  44.1820097  48.6908054  38.6194324  25.0086069
  48.9434671  38.7952638  24.1022515  48.9652920  37.7154732  25.1627064
  15.1054761  15.1008806  69.9867843  14.8884961  15.6377134  70.7489942
  16.0188243  15.3142509  69.7957305   5.7923883  72.1853832  69.4741599
   6.2440532  72.2584894  70.3149251   5.1018852  72.8470329  69.5148901
  26.3899302  39.4985557  16.8862855  26.6514993  38.7324047  16.3755763
  26.4793277  40.2330780  16.2790668  54.1932678  12.2698724  52.0852423
  53.7156582  11.4510179  51.9525957  55.0819969  12.0801902  51.7845583
   9.8499867  23.4885130  63.3163552  10.5952069  23.3458719  62.7328042
   9.2126796  22.8226337  63.0581240  14.2260927  72.8028730  44.1662804
  14.5302766  72.1013263  43.5904900  13.5420221  73.2454208  43.6638538
  42.8779411  35.6563568  14.0238357  42.2221375  35.6394887  14.7208786
  43.7160349  35.6973505  14.4844317   4.4861886  10.6247816  75.8683429
   3.9658066  10.1770124  75.2013074   4.7212335   9.9365387  76.4906814
  34.5915055  56.7950249  32.7874637  33.8307977  56.2970018  32.4882460
  35.0602269  57.0219517  31.9843245  16.1690664  32.4252081  41.2950420
  16.9118428  32.9334617  41.6209173  16.4856410  31.5220237  41.2786055
  34.3020245   4.6940193  65.9563546  34.8984858   4.0590534  65.5597679
  33.5577485   4.1704711  66.2533061  88.8743019  57.5176144   3.4430751
  88.5535049  56.6158009   3.4507659  89.3266678  57.6180601   4.2806336
  21.5597007  25.6173477  66.4725975  22.0505807  24.9578533  66.9628386
  20.7705781  25.1607904  66.1809210  52.7420886  36.8914697  71.0295139
  52.4358471  36.2840709  71.7029480  53.6941226  36.8987343  71.1285667
  81.6245778  58.5953704  72.3056249  82.2378953  58.6214879  71.5711944
  81.3252051  59.4996444  72.3999409  23.9992189  47.6877451  22.3044848
  24.7012854  47.7203894  22.9543042  23.2190776  47.9728556  22.7802181
   1.9601175  25.4326487   9.1477710   1.4269993  25.9563088   9.7459316
   1.3784835  25.2438831   8.4113598   2.7362960  64.2011932  67.0737068
   2.1944278  64.2406753  67.8617732   2.1086448  64.1250756  66.3550333
   2.0195648  86.0510147  34.9384499   2.7093479  85.4029462  34.7954822
   1.2510010  85.6829119  34.5025110  37.3503733  29.3733978   6.2259245
  37.3239946  30.1735663   6.7505836  36.9933248  29.6321702   5.3763443
  53.5528612  60.4872656  15.2611470  53.1210041  59.7095108  14.9078357
  53.2433891  60.5431843  16.1652100   1.1474855  21.6812062   1.3398780
   0.6791486  21.3992977   2.1256387   1.0818112  22.6360798   1.3515460
  64.5461750  76.5246439  33.2738662  64.8084641  77.3741531  32.9192233
  65.3039980  76.2321806  33.7802243  51.5029192  54.1910791   1.3448700
  52.1489000  54.3800163   2.0254911  51.9864178  53.6896706   0.6883286
  41.7224023  23.7909755  69.7813718  42.2995517  24.3895301  69.3071715
  41.0431859  23.5606679  69.1474561  39.3149614  47.0739269  36.0410738
  39.2121840  46.3678074  36.6790867  40.2368212  47.3232555  36.1061835
  71.6286691  69.9485830  37.9110615  72.1241649  70.2517513  38.6718552
  71.9101222  69.0420583  37.7876536  46.9148111  53.7810040   7.4894214
  47.5323105  54.4825268   7.2825569  46.0530424  54.1911650   7.4162358
  45.4309225  28.5813951  52.0928478  45.4283762  28.1791949  51.2242460
  44.5204878  28.5290170  52.3837090  81.7827797  23.9318442  14.9126351
  82.6922798  23.8327718  14.6311688  81.3978004  24.5303822  14.2724979
  28.1229568   4.9672675  20.4609323  28.6494923   5.6272423  20.9119606
  27.6040101   5.4654503  19.8294747  41.0681963  23.5824895  15.0414336
  41.7323875  23.8631153  14.4118845  40.2349949  23.7473083  14.6000206
  90.2139695  84.8440364  46.5139214  90.5543740  84.7110084  47.3986022
  90.8246835  85.4623655  46.1127631  30.7525468  26.5863323   8.1271291
  31.6554260  26.8929172   8.2110798  30.2497053  27.3750472   7.9238778
   6.9139406  81.9981515  27.0836973   6.0079357  81.6995162  27.0049214
   7.0432827  82.1255302  28.0235243   8.5297891  17.6030216  74.4091068
   8.1828257  18.3363304  74.9171462   9.4515845  17.5514326  74.6618329
  24.2547223   0.8265838  70.2246062  23.5796210   1.4627418  70.4607783
  25.0801608   1.2674007  70.4260067  65.4510069  41.6592598  15.7809651
  65.8004570  40.7694626  15.8296919  65.0011969  41.6940308  14.9367547
  22.2499746  85.2599767  65.6177024  21.8563169  85.0011352  64.7844748
  23.1931871  85.2032617  65.4648475  73.6959775  65.4950169  66.8329100
  73.1005509  64.8941520  67.2808651  73.1416019  65.9572056  66.2041966
   1.1449998  87.9404596  55.2117006   1.3710016  88.5626224  55.9031217
   0.1913875  87.8700164  55.2552096  23.8942552  17.8664899  21.4681053
  23.5012364  17.1649456  20.9488726  24.7455454  17.5192332  21.7344666
  32.0840001  26.9761229  21.5952182  31.7806935  26.4343858  22.3237491
  31.2820601  27.2484541  21.1491680  72.9055913  83.8146928  63.8490586
  72.4086793  84.1021636  64.6150009  72.7388938  84.4876054  63.1890349
  67.1432495  24.4062328  12.4314582  67.8527689  24.6693134  11.8452847
  67.4654675  23.6109638  12.8556681  13.9344066  80.4788879  75.7449710
  13.9824336  79.5735911  75.4377836  14.7756475  80.6306079  76.1756969
  51.4831161  45.4491091  23.6668682  51.8678856  46.3118601  23.5124636
  52.1745825  44.9535227  24.1056180  75.4969072  70.9343195  13.2852328
  76.3084555  71.4072466  13.4695268  74.9584246  71.0697556  14.0649271
  65.1314449  21.8059874  22.0533800  65.4442406  21.0393453  22.5336432
  65.2069283  21.5585113  21.1318111  51.2596846  60.6996822  24.3587136
  50.5698872  61.3531685  24.2430878  51.7926979  60.7713795  23.5668898
   9.6418470  20.3926873  35.5271411   9.8719072  21.0050917  36.2259007
  10.3759181  19.7792232  35.4950094  24.7904867  79.7470477  75.2347482
  25.5503839  79.8909500  74.6707618  24.7876447  78.8036516  75.3967090
  11.4351126  22.4523458  67.1390794  11.0582968  21.9756088  66.3995079
  11.2312361  21.9111404  67.9018132   9.6339458  76.1627939  46.8637840
   8.8847679  76.7403630  46.7175571   9.9656385  76.4143208  47.7257268
  47.2763586  49.2767143   7.6573086  47.8375196  49.0601730   6.9127023
  46.6100168  49.8596811   7.2934890  29.3836260  22.7556276  10.6765699
  29.5847392  22.1179223  11.3614917  28.4385586  22.8910398  10.7454205
  40.6223679  51.3386583   7.1373230  39.8006248  51.4555502   7.6140887
  40.9667683  50.5038691   7.4547273  85.5033575  12.8265724  52.8736536
  85.0164186  13.5534248  53.2619922  84.8307453  12.2710619  52.4796502
  20.9091183  29.4329557  62.7980105  21.5284821  28.8310394  63.2107036
  20.0479075  29.0725479  63.0093293  22.7086663  50.6325579   9.8319763
  22.9485226  50.6883383   8.9069963  22.4233770  49.7266722   9.9512237
  38.5738993  40.4922915   7.8509855  39.0737367  40.6636047   8.6491364
  37.6702595  40.7054043   8.0839032  47.3157406  23.9489293  22.4147081
  48.2187986  24.1659617  22.6462531  46.8961525  24.7964287  22.2666454
   1.1869165  77.0051336  29.9772811   1.0985760  77.8260422  29.4929957
   1.4913264  76.3739491  29.3252301  35.4622507  21.3002443  13.2426214
  35.4878998  21.8450356  14.0292454  34.5355940  21.2658286  13.0052233
  34.7349501  49.4265842  21.3601685  35.2556801  49.7637701  20.6312108
  35.3474259  49.3889952  22.0948052  57.0129283  78.0275086  34.2996375
  56.4988215  78.2136825  33.5139720  57.0658191  78.8673356  34.7558419
  35.3680894  25.2873096  69.7232865  35.3423926  24.3337545  69.8026357
  35.4726884  25.5997047  70.6220095  16.8230864  17.3786315  48.5316460
  17.7081391  17.6692924  48.7516920  16.9156787  16.4426956  48.3536379
  70.8454640  53.4273914  58.9676802  70.4283460  52.6449111  58.6071686
  71.7523368  53.1645277  59.1248791  74.6996018  26.2440071  46.3949148
  74.4770047  26.9439516  45.7811109  73.8643738  26.0013256  46.7945806
  63.5577965  10.0995100   4.1468260  62.7781057  10.6547177   4.1390288
  63.2198334   9.2138427   4.2795223  64.1636229  39.2951274   9.9191481
  64.9683142  38.7775111   9.8912501  64.4353294  40.1412821  10.2747166
  46.3391304  70.0836945   8.0765623  46.8173695  70.5652237   8.7515789
  46.0376692  69.2892361   8.5172361  26.5301606   4.9131736  74.7430019
  26.3502022   5.8211622  74.9867274  25.8175322   4.4127521  75.1404619
  62.1497710  80.3107026  71.9615178  61.1972197  80.2537421  72.0365686
  62.2969611  80.8546141  71.1877440  30.0434971  50.5541658  37.1203303
  29.5651865  50.0497961  37.7784038  30.2083611  51.3989067  37.5392151
  50.2573927  64.8628739  69.6141539  51.1739393  65.0934175  69.4624226
  50.1758810  64.8195365  70.5668919  77.3559030  78.7277964  54.6071689
  77.9203780  78.2931927  55.2464859  77.1511157  79.5741180  55.0047032
  66.3764906  28.9676595  22.7410412  66.6741943  28.6771345  21.8789506
  66.0015297  28.1834149  23.1417847  27.7323243  17.1069011  67.1693288
  27.5240084  16.1817417  67.0392863  28.6807534  17.1231184  67.2976123
  59.6463346  40.1424742  12.7946603  59.2643213  39.3005490  13.0425680
  59.5693636  40.1688766  11.8409252  34.5329571  49.4264603  15.8235192
  34.8360705  50.2738667  15.4975462  33.5808444  49.4609737  15.7312071
  49.6278572  67.8456211  17.9419947  48.9403915  68.2875109  17.4436426
  50.4189825  68.3530140  17.7606010  77.3965343  80.5236748  75.9363133
  78.1710561  80.9766224  76.2697536  77.2867425  80.8600119  75.0469006
  44.4431448  52.8596687  12.8059781  44.2757177  51.9193172  12.8686988
  43.9441299  53.2405186  13.5285902  14.9458718  36.2422013  53.5571480
  15.4114926  35.4112506  53.6517477  14.0795863  35.9957790  53.2330179
  31.7281812  72.1160057  74.9107688  31.8546861  72.7540377  74.2085279
  32.5171464  71.5745118  74.8873852  86.3587459  74.6621755  74.1167791
  87.0381339  75.2724937  73.8301111  85.6302531  74.8147681  73.5149105
  32.1965644   1.6898784  74.8865750  33.0785987   2.0013675  75.0896086
  32.3027322   0.7503137  74.7376305  40.2669287  79.7049999  18.5087049
  40.8636045  79.5024300  19.2292464  39.4273782  79.3351030  18.7817597
  49.2008551  77.6972655  65.4676334  49.0428718  77.4449995  64.5578889
  48.4645172  78.2672027  65.6894700  91.1571916  86.2075999  31.5294806
  91.9823440  86.3848403  31.0778825  91.0601028  86.9342473  32.1449344
  90.6525241   3.4143409  55.1431600  90.3173457   2.5776300  54.8209850
  90.4532539   4.0372858  54.4442574  58.0007172  50.0854826  19.6375787
  58.4976721  50.7846355  20.0623775  58.0040312  49.3693352  20.2726769
  27.6626012  16.2070713  69.8277501  28.0213687  16.9231758  70.3518866
  27.7690360  16.4967832  68.9216749  70.7786615  87.9059985  41.7272775
  71.3443716  87.1618465  41.5212695  70.5555542  87.7888349  42.6507108
  31.7768645  35.3651714   2.2950141  31.5139532  35.5381536   3.1989983
  32.2755909  34.5495439   2.3425241  10.7524297  75.6610149  23.8961744
  11.3281295  75.8884066  23.1660414  11.0238454  76.2435049  24.6055913
  31.8372440  46.8400526  31.0364962  31.7751527  45.9520960  31.3885093
  31.6244721  47.4069977  31.7778015  44.9890518  67.9542303   2.6467964
  44.2524672  67.3437166   2.6776305  44.7457933  68.6538601   3.2530749
  22.1615076  36.3116503   5.0886101  21.9669318  35.4105544   5.3462887
  22.0113635  36.3282037   4.1434038  76.2560617   7.7438840  61.2961797
  76.9479238   8.3994302  61.3846235  76.6368293   7.0679388  60.7355134
  31.6100955  30.6004286  33.2053733  31.1728311  30.1682520  32.4717164
  31.1231542  30.3126764  33.9775920  61.2869120  44.6690893  27.4718595
  60.8278942  44.4528008  26.6602254  61.4668512  43.8214254  27.8784561
  25.1432800  51.3232756   3.6930564  25.7473707  52.0633888   3.7525225
  25.0250459  51.0372400   4.5988354  53.5962486  55.6913519  23.5910273
  54.4204330  55.2061033  23.5524392  53.8590336  56.5971708  23.7543225
  55.2643776  17.9423785   5.9626728  55.2820444  18.4168291   5.1315188
  55.1851606  17.0221210   5.7115096  63.8550329  53.8452578  24.9978828
  63.7106419  53.8494253  25.9441209  64.5480394  54.4906616  24.8584986
  60.1391217  12.0714531  68.9808635  60.6934258  11.7340288  68.2772200
  60.6341740  12.8054723  69.3446843  82.5466092  77.9947499  75.6111008
  83.3525403  78.1937459  76.0876596  81.8584760  78.0398348  76.2749326
  88.8093236   1.6617781  29.8466754  89.6284059   1.1754519  29.9405956
  89.0832427   2.5703722  29.7215915  76.4629126  44.0400791  15.3342056
  76.3481855  44.9008131  15.7369542  76.3707590  44.2008543  14.3951154
  49.2729044  77.3830748  14.8155069  48.9084244  77.1946192  15.6803012
  49.8148489  78.1608248  14.9483001  19.4112393  15.7115469  71.4217810
  19.6265408  16.5895853  71.7363010  19.9258229  15.1254806  71.9767229
  13.7284610  20.2965269  65.9987394  13.6032340  19.8708591  66.8468873
  14.4697615  20.8867607  66.1341135  30.1247501  61.0863972  25.2986646
  30.6972694  60.3369141  25.4621434  30.5263591  61.8054581  25.7864165
  43.1328103   9.1696367  67.3580049  43.5044238   8.5170755  67.9515545
  42.9620263   9.9296627  67.9142652  25.2406832  29.2519006  44.0010659
  24.8524472  29.6974573  44.7540514  24.5251319  29.1817531  43.3691661
  13.7817186  82.4764064  44.9926822  12.9852766  81.9928268  45.2119176
  14.1494459  82.7288273  45.8396141  59.8469731  18.9563379  49.4086973
  59.2759892  18.7300024  48.6745493  60.7334801  18.8309249  49.0701596
  22.9159444  73.5151819  70.6025170  23.6118787  73.1340340  71.1378948
  22.1534723  73.5367516  71.1807899  50.8157253  33.2696319  25.8744550
  50.7706213  32.3947239  25.4887915  51.5796900  33.2384467  26.4503193
  71.2434053  84.3105507  34.0889430  71.7383432  83.5376072  33.8172293
  70.8044481  84.0423107  34.8961592  67.4948498   8.4710846  55.3944103
  66.7225167   7.9526243  55.1687090  68.0927750   7.8448925  55.8025710
  46.5693092  35.6428957   3.0731380  47.2332573  35.3860927   3.7130252
  46.9530630  36.3920140   2.6173073  72.7862883  29.1746163   9.1172093
  73.0050755  28.2688165   8.8983655  72.8300428  29.2074013  10.0728464
  81.6061020  52.8786516  18.2183886  82.4196053  53.3130360  17.9619706
  81.8743515  52.2363806  18.8754773  79.2986965   9.7750843  11.5679455
  79.7088480   8.9165801  11.6727269  79.9749613  10.3977728  11.8346965
  63.5898972  57.9091406   6.7739397  62.6907492  58.1711864   6.9716752
  64.1233635  58.3835936   7.4115467   0.4370826  78.8783124  62.8985290
   1.0729402  79.3979100  63.3903949  -0.2823407  79.4845465  62.7220444
  67.2008419  55.4424238  35.8310628  67.2693396  55.2013111  36.7548609
  68.0761862  55.2854300  35.4770088  25.4340458  67.8200483   1.4705233
  24.7463918  68.2056046   0.9276523  25.3597379  68.2744646   2.3096979
  41.3299894  22.4814415   6.2546152  41.4524937  21.7748141   5.6206560
  41.7016888  23.2533336   5.8277029  58.3456850  52.0367050  17.6414442
  58.0317116  51.3213015  18.1944835  58.6239958  51.6089869  16.8316114
  36.6270777  17.0194206  54.5385258  37.4949118  17.3237190  54.8040311
  36.4549586  17.4755868  53.7148039  79.0367842  70.4932785  34.7302222
  78.7789488  70.0926876  35.5604482  78.3634043  70.2136803  34.1100478
  61.5240908  74.3360615  13.8360965  61.8543100  74.9693489  13.1988084
  61.0361624  73.7009525  13.3118927  57.6002404  12.5789508  36.5167825
  57.2010323  13.2639131  35.9804217  57.7131268  11.8409547  35.9177415
  90.6203257   9.0414486  64.0783576  90.2654873   8.6404333  64.8717753
  91.5351712   9.2254266  64.2915360  92.7167617  51.2957916  60.9537713
  93.6722051  51.3161335  60.8994643  92.4234496  51.8281707  60.2143292
  40.5226657  11.9922456  60.5184929  40.7823750  11.1193618  60.2237729
  40.3155038  11.8800077  61.4462439  55.9174204  60.1994419  26.5676427
  55.0177050  60.3213310  26.2645125  56.1409807  59.3075037  26.3017654
  37.0940018  53.9203262  35.0247097  36.8105078  53.9664745  34.1116190
  38.0163097  54.1754341  35.0023317  60.5810793  88.6278346  55.4257838
  60.8261545  87.7427581  55.1559536  60.0724037  88.5018161  56.2267844
  55.7983398  24.0822840  57.1569109  56.1310005  23.3904505  56.5851259
  56.5754843  24.4183564  57.6033735  46.9732761  79.6969175  50.8232784
  47.7743435  79.6561670  51.3456440  46.9492006  80.5943966  50.4913282
  50.9667444  47.3539305  20.9368515  50.0497007  47.4042940  21.2065411
  51.0240841  47.9295778  20.1742387  53.1757256   9.8071155  70.2573238
  52.8256509   9.3324098  69.5034449  54.0997216   9.9423990  70.0471775
  43.2630396  49.7708178  40.4392815  43.9374733  49.1036034  40.3120089
  42.5975561  49.5671034  39.7821140   9.9885171  76.2549880  66.9177262
  10.1959508  77.1819714  67.0356385   9.0725606  76.1786440  67.1849845
  36.1715770  41.5797329   8.2703716  35.3812861  41.7774963   7.7678150
  35.8933926  40.9180498   8.9036351  73.2398844  49.1941118   3.9575854
  73.4140444  49.6430540   3.1303307  72.6001930  49.7504759   4.4019815
  39.7605252  18.7305629  14.5102966  39.2123652  19.5091236  14.4123471
  39.1664147  18.0602717  14.8478925  59.3617535  35.0104356   9.9181968
  60.1608706  34.8581028   9.4137794  58.6553955  34.7190714   9.3416566
  75.6671330  26.4605245  60.0654880  75.0635335  26.4832410  60.8080427
  75.4684922  25.6366643  59.6204833  65.5006170  71.0381174  18.2258403
  65.6059027  70.0926971  18.1194079  65.1769447  71.1438608  19.1204262
  11.5682217  18.5762224  64.8459474  10.9885499  17.9374513  65.2608971
  11.9242808  19.0851364  65.5742721  69.5814323   7.4259239  11.7073059
  68.7823391   7.9506207  11.6585696  69.2764950   6.5446079  11.9230044
  29.9306202  24.5818353   6.3996255  29.0389657  24.8922873   6.5571141
  30.4771733  25.1251006   6.9674045  38.0937314  61.4259052  28.7441444
  37.1517682  61.5603828  28.6399794  38.2504582  60.5485106  28.3950806
  45.6722879  44.0673637  18.5196161  45.7631016  43.3979893  19.1977918
  46.5119314  44.0582275  18.0601084  54.8736286  56.7601442  20.7715178
  55.8155298  56.6478777  20.8997965  54.4884872  55.9485340  21.1019540
  61.9024658  73.4417248   8.6284059  61.8485498  74.2822647   8.1736410
  61.1270761  72.9617977   8.3374161  38.0664349  48.9366055  29.2796969
  38.5771275  49.6413040  29.6782207  37.4231982  48.6996174  29.9477673
  12.9144138  53.3255825  68.0597119  13.4801477  52.8936270  67.4197195
  12.0506566  53.3360496  67.6473383   0.1543468  79.8492363  57.6653604
   0.0065607  79.4921544  58.5410790   0.6579107  80.6494334  57.8148322
  63.1907991  15.2338988   1.9990191  63.5367897  14.5245653   1.4573756
  62.4262551  15.5512053   1.5183730  50.0611544  35.4617882   9.6805471
  49.8512554  36.0935354   8.9927471  50.5040932  35.9786963  10.3534806
  28.6791608  26.4636383  53.4688322  28.8080594  26.6932210  54.3891088
  27.7777573  26.1445198  53.4255783  85.1279068  58.8987541  26.1720634
  84.6699238  58.5012674  25.4314637  85.0616741  59.8409700  26.0168815
  62.5665522  18.6299419  20.9111261  62.3696327  19.4267178  20.4185796
  63.3730984  18.2978320  20.5168915  30.7391021  15.4991016  37.5478331
  30.8848616  16.1002883  36.8173806  30.0002381  14.9581775  37.2690551
  81.3349056  78.9357662  26.5438247  81.6486549  79.7161245  27.0008159
  80.8815289  79.2759657  25.7724977  79.8040012   0.2834612  10.9963191
  80.2678636   1.1199766  10.9602153  79.8485807  -0.0539392  10.1016653
  45.4451609  55.0906038   2.2054592  45.1685476  54.3461132   2.7397391
  44.6525812  55.6166410   2.0990169  68.1191540  82.6686764  31.1509538
  68.5084200  82.2545910  31.9211674  68.4535027  83.5654545  31.1664510
  74.8443063  83.6898664  75.2364519  74.4788583  83.0739644  74.6013580
  74.2604335  84.4474319  75.1987399  76.3857603  84.6995544   8.2381159
  77.1954203  85.1999855   8.1368512  76.6322708  83.9530945   8.7842494
  37.8972960  45.3555059  31.8698573  37.6400185  44.7254753  31.1967301
  37.4356437  46.1601114  31.6338062   4.7485743  33.0444670   3.2022250
   4.8171339  32.5805306   2.3677820   3.8769541  32.8217435   3.5291874
  82.4611855  76.2378693   6.2631357  81.6128540  76.4753437   6.6375363
  82.8575039  75.6600618   6.9152850  90.0458204   7.7834949  66.3115732
  90.8753930   7.3140344  66.3990466  89.5155822   7.4715099  67.0448856
  88.8603361  35.4700994  20.6318641  89.5393546  35.0416398  21.1530066
  88.0406727  35.2353621  21.0669279   0.5014583  13.5065088  62.7753429
  -0.3185395  13.9467821  62.5517396   0.3154728  13.0584726  63.6005132
  13.5225436   6.1204061  75.2404976  13.8777634   5.2331457  75.1874317
  14.1994378   6.6731510  74.8499608  40.5190369  19.1016826  71.6327642
  40.0448224  18.3727417  71.2327705  41.1343381  19.3866357  70.9571598
  25.9018227   8.1146774  64.9626498  25.7576272   8.1870231  65.9061567
  26.6467377   8.6902723  64.7893707  56.8154287  64.9472094   4.9212718
  56.9581747  64.7468948   5.8463287  57.1316624  65.8448553   4.8190144
  26.9524571  11.9271192  70.6689046  27.6539466  12.5783453  70.6623576
  26.2268922  12.3520431  70.2114914   5.7047936  42.6036796  64.0589861
   6.3816044  42.6540622  63.3839886   6.1317894  42.1634826  64.7939197
  73.2866621  43.8670731  17.8988755  73.3125353  44.5137405  17.1936190
  72.9566145  43.0711269  17.4820209  55.6832600  61.0900736   7.7786607
  55.9419060  61.1217403   8.6997092  56.0751629  61.8734837   7.3927605
  37.4669337   9.4210559  30.3999710  38.0294633   8.8197887  30.8881021
  38.0557466  10.1177704  30.1099372   2.8269380  74.9863151  76.5914082
   2.4507326  74.1074541  76.6393954   3.0037302  75.2212361  77.5023350
  52.6327896  21.6921163  15.3861058  52.3586607  20.7792878  15.4746032
  52.5521755  22.0530701  16.2689686  33.4594154  62.4542141  24.8425126
  32.8789282  62.6226807  24.1002965  33.0462480  62.9074669  25.5774164
  16.3228935  81.0422519  76.8264832  17.1335453  81.4405397  76.5095587
  16.5728134  80.1504997  77.0684540  39.5367599  59.6249390  37.2890735
  39.6078801  59.3100023  36.3879681  39.4231653  60.5715322  37.2036934
  15.2937616  10.0778395  13.9292514  15.3937019   9.6176916  13.0958760
  16.1352695   9.9604708  14.3700719  27.4659038  58.8447571  50.1286602
  26.7687011  59.4882822  50.2551985  27.9640007  59.1751575  49.3810177
  72.1857166  81.3807869   8.6246711  72.2887325  80.4877090   8.2959795
  71.2388086  81.5179157   8.6527914  31.7889261  34.2591047  52.1586227
  32.6949811  34.0800166  51.9071817  31.2633514  33.7864447  51.5131760
  33.6009404  14.8720989  64.8707561  34.1744706  15.6375227  64.8329310
  32.7178332  15.2370653  64.9268965  84.6301301  47.8980810  39.5694749
  85.3143342  47.6447192  38.9498774  84.7109921  47.2687265  40.2861373
  89.0885976   2.3905951  13.2616866  89.0392020   1.5147787  12.8786016
  88.7196782   2.2893721  14.1391182  47.7926207  61.3129091   4.0366882
  47.9260015  62.1890116   3.6749074  46.8432951  61.1909580   4.0250742
  41.0558694  83.9591482  21.6261641  41.1635393  83.0128816  21.7221705
  41.9374650  84.2829874  21.4413468   7.4560461  29.8724174  23.6275053
   6.5238772  30.0306177  23.7767482   7.8884612  30.2473068  24.3947792
  54.3195629  58.8833666   6.1704636  54.7670269  59.1311932   6.9795322
  54.8445177  58.1653786   5.8167005  70.2601770   1.5118033   6.1024112
  70.5993846   1.5692431   5.2091742  70.6067279   0.6848437   6.4374971
  31.6816616  62.9722595  12.3389184  30.8314776  63.1173134  11.9237351
  31.7100000  63.6069918  13.0548406  81.0713387  54.9425268  30.9469581
  81.0622215  55.1313925  30.0086188  80.1887131  55.1633978  31.2443161
  20.8412692  32.8032789  70.9067385  21.1185643  32.6907882  71.8159596
  20.5847451  33.7235078  70.8466749  22.7572629  29.2241487  38.9794819
  21.9953248  29.3128547  38.4069316  23.4639212  29.6650323  38.5077969
  57.3010111  57.0888138   2.2664133  57.7725410  57.6508331   2.8812560
  57.2097445  56.2543201   2.7263251  13.8691136  13.6074838  53.5350506
  13.2031056  14.2812357  53.3982221  13.5379168  12.8438339  53.0624287
  33.2282823  87.1319631  68.2382451  34.1026681  87.2220042  67.8593288
  32.6454919  87.0629791  67.4820523  27.9591155  54.4579411  29.2001557
  27.3159790  54.4985867  29.9079394  28.7793279  54.2246056  29.6349406
  22.0759627   5.7912836  41.5032308  21.8340489   4.9619398  41.9154231
  22.9991957   5.6845579  41.2741343  87.4168777  31.6342616  27.1871996
  86.6501236  31.3557625  27.6879478  87.0886803  31.7602921  26.2969017
  63.0887270  62.3584127  35.7587886  62.5300741  61.7219782  36.2049866
  62.7926922  63.2078648  36.0859513  22.6172365   7.9733473   8.5664767
  22.5323213   7.3934180   9.3232524  22.8825201   8.8146597   8.9380109
  44.2688656  76.8142366  12.2644460  45.0502920  76.3736439  11.9305551
  44.5907021  77.3639202  12.9789388  66.0056353  52.1010399  10.8160698
  66.7712879  51.7436361  11.2658143  66.3612318  52.7742338  10.2359104
  48.7413073  62.6601410   8.1953984  47.9605818  63.1615448   8.4305406
  49.4164515  63.3227348   8.0491650  37.4530840  77.4303961   7.3088318
  37.0578933  76.7664051   7.8737861  37.7179193  78.1280804   7.9082721
  75.7936859  39.9835420  14.1240120  75.5925751  39.1724896  14.5908964
  75.9677076  40.6214666  14.8161089  49.6125031  60.6182957   5.9983385
  49.4122887  61.1598539   6.7617905  48.8779879  60.7639503   5.4020953
   4.1322133  87.3908161   1.1651883   4.6299526  86.5931016   0.9859132
   3.4079882  87.1015896   1.7202371  41.4451361  17.9222047   8.1090420
  42.3670340  18.1621909   8.0155450  40.9766340  18.7565100   8.0830789
  53.0675507  62.1410036   7.3830122  53.8650656  61.6245174   7.4989861
  52.3604918  61.5525007   7.6475221  46.0263395  88.3157158  39.1005969
  45.1515675  87.9459286  39.2199993  46.2363815  88.7118816  39.9462724
  37.9979893   8.6418924  74.6955618  38.1086013   8.5537920  73.7488652
  38.1638285   9.5681676  74.8709038  25.2018547  60.8967352   0.0797758
  25.9703207  60.7357931   0.6273068  25.1464772  60.1275873  -0.4873016
  41.8295336  59.8428631  14.9642289  41.1842680  59.1956568  14.6796381
  41.4114952  60.2903986  15.6998825  85.1930904  38.6021113   7.3477364
  85.1733494  39.4897985   6.9901675  85.7812881  38.1221008   6.7647713
  37.3497176  50.8763981  14.8843646  37.1139479  49.9646616  14.7129524
  36.5121984  51.3389349  14.9136078  13.0150458  26.0472736  40.3830616
  13.0937669  26.9769487  40.1691977  13.7679526  25.6386671  39.9559729
  77.7704906  61.4207935  10.0730002  78.5602665  60.8815718  10.1145339
  77.1110916  60.9169054  10.5499923  23.2734023  71.8448830  14.5913029
  22.9472742  70.9939098  14.8840761  22.7247820  72.4819756  15.0488579
   9.7309729  14.7838172  61.5982513   9.8119303  15.5848512  61.0805396
   8.8358304  14.4847974  61.4384477  63.7328243  68.9887857  20.4694295
  64.3373013  69.7132874  20.6304860  64.1610384  68.4657288  19.7917306
  60.6165025  21.8801794  69.6932624  60.3664300  22.6518020  69.1850351
  61.3361069  22.1815595  70.2478514  46.4711428  47.9007769  29.7265172
  45.8385944  47.2881556  29.3512702  47.2216034  47.8633547  29.1335249
  18.1094193  65.4352093  43.3974695  18.4615350  64.5681572  43.5986423
  17.6706743  65.7083797  44.2031431  60.4851230  70.1898411  63.4863130
  60.5418523  70.6039193  62.6251785  60.6131847  70.9078458  64.1062335
  53.3084965  24.4538903   1.8394598  53.5687590  25.3696132   1.7397353
  53.4691477  24.0642738   0.9800289  44.8549557  84.3404770  33.4110951
  44.5401335  85.0388908  33.9849758  44.1404247  84.2007446  32.7896786
   2.9210293  41.7641401  49.1247368   3.6465046  41.1550856  49.2624760
   2.2341155  41.4560270  49.7158813  79.2226933  16.8338117  72.3069863
  79.2363499  16.5551719  71.3913415  79.0778076  16.0267314  72.8008102
  58.1103706  25.7441759   7.7348834  57.2250557  25.8801794   7.3973155
  58.0046701  25.0938487   8.4292424  45.6996059  62.8038025  30.6558275
  45.6908989  63.6631107  30.2342248  45.9713936  62.2004366  29.9642277
   8.5835028  62.0220041   5.9087259   9.2298508  62.7192736   6.0195524
   8.2410836  61.8705988   6.7896670  20.9012699  32.4610448  29.1748595
  19.9631107  32.4385190  29.3634963  20.9617710  32.2740197  28.2380605
  36.5569493  31.9048843  39.3580238  37.2153517  32.3198709  38.8007752
  36.8522546  30.9983739  39.4432608  43.0750132  33.4614992  12.2493255
  42.7207851  34.2566967  12.6473355  43.8654757  33.7527895  11.7948401
   6.3109773  68.9082340  59.2229752   7.0730537  69.1356829  58.6903040
   5.6009096  68.7982991  58.5905592  42.5554514  53.0782747   1.2011233
  41.6238070  53.2966661   1.2252146  42.8388166  53.1366730   2.1135513
  32.5479126  49.9395561  33.2398844  32.1396756  49.7525501  34.0852261
  33.1956911  49.2438507  33.1276059  26.8640801  26.3812599  77.1166530
  26.2885424  25.7650146  76.6636206  27.7032706  26.3031063  76.6629074
  30.1451775  57.4981079  69.4173632  29.9891707  57.1711883  68.5313515
  29.6681258  56.8916950  69.9838684   1.2016317   7.7404317  39.2729847
   1.5161058   7.0368156  38.7053029   0.5603716   8.2100067  38.7395875
  43.3442017  17.5408086  54.9848000  43.7656972  18.0181465  55.6994502
  42.4947592  17.2789297  55.3399078  36.4874196  64.4447851   1.1665747
  35.8037853  64.5825911   1.8222323  37.2849250  64.7771358   1.5785873
  67.0967245  72.5782633  13.8448691  66.5040064  71.8446159  13.6815298
  67.6121902  72.3053360  14.6038377  42.0496318  25.2553472  58.9912729
  41.5542409  25.7533083  58.3409993  42.0971867  24.3702802  58.6298446
  66.1953354  64.9943733   1.9002713  66.3438463  64.7706318   2.8190285
  66.8948746  65.6123400   1.6881515  82.6444909  16.8947515  63.1920151
  82.7490613  17.8340063  63.0400459  81.7547890  16.8049678  63.5334973
  67.7823019  16.5410042  24.6607661  67.1723461  17.0396531  24.1171336
  67.4919844  16.7044270  25.5581188  42.4063587  38.5619283  29.9851775
  42.5247431  39.4878602  30.1969910  43.2812643  38.2576489  29.7439575
   5.1628062  10.6533250  39.8205916   5.5962154  10.7363329  38.9711801
   4.9029013   9.7333059  39.8679726  46.0072947  26.0545278  21.3617921
  45.4876232  25.4412174  20.8421493  45.6025839  26.9070315  21.2015343
   8.4757910  43.3093929  26.5907478   7.8491316  42.9564190  27.2223568
   8.4846793  44.2509651  26.7627764  46.4805269  41.7451239   6.2609768
  45.7575703  42.1617746   6.7299795  47.2545242  41.9453955   6.7873341
  20.8952898  72.8983834  58.9717702  21.6525644  72.8374413  59.5540420
  20.6110567  73.8096240  59.0430705  15.6777096  55.6931591  19.8520029
  15.7254541  56.3791323  20.5178809  16.5306866  55.7203770  19.4185030
  70.0356483  14.2781675  18.2440007  70.5947876  14.8808706  18.7342489
  69.6996546  14.8014152  17.5162959   4.5965025   3.3169994  61.6291944
   4.5476839   2.4410734  62.0120792   3.6845633   3.5997495  61.5609984
  68.0429125  72.4769783  48.6407709  67.8554678  73.0233622  49.4040251
  67.5422478  72.8780413  47.9303360  53.9864779  58.9339828  23.5796571
  54.9344063  58.8263226  23.5016870  53.8195801  59.8222399  23.2644224
  61.5392399  67.3495388   9.5689082  62.1814489  67.4511194  10.2713895
  61.7742443  66.5229893   9.1472274  40.9401751  70.9880638   4.1016173
  41.4317083  70.2521849   3.7367764  40.9196329  70.8189011   5.0435269
  70.2469301  60.9882212   9.8270226  69.6687603  61.5348101  10.3591788
  71.0877848  61.4454126   9.8401755  20.9177300  31.1459217  40.6326286
  21.3460728  30.3536949  40.3083913  20.4505250  31.4935979  39.8729770
  87.6350387  82.4813131  58.6785344  87.1042760  82.1306566  59.3937735
  88.3358224  82.9653815  59.1153542  49.2136908  73.9657164  40.1106501
  50.0630045  74.4069195  40.1257753  49.3693161  73.1313372  40.5531693
  51.7682600  41.6622829  14.0483105  52.4303341  41.8635035  13.3869469
  50.9364080  41.8831158  13.6294019   4.7505516  75.7254413  74.9345781
   4.1054767  75.3717306  75.5469508   4.6538776  75.1883891  74.1481559
  39.6567607  85.8096123  20.1764369  40.1196146  85.2072620  20.7588267
  39.8138881  86.6753483  20.5533123  48.3543491   4.5340818   0.4031377
  48.4915733   4.0175241  -0.3909461  48.6780500   3.9764053   1.1105604
  41.8653536  67.4857426  17.4246037  40.9491682  67.6374674  17.6565778
  41.8695927  66.6179943  17.0205951  35.6758591   2.6320228  64.7053115
  35.7060811   1.7006311  64.9240021  35.7940051   2.6590643  63.7558154
  30.1803255  41.0797024  20.1447773  29.8557663  41.9206047  20.4669237
  29.7127342  40.4269695  20.6658602  29.6397233  34.3308091  31.1304188
  28.8297129  34.6295667  30.7170725  29.5604181  33.3771276  31.1511803
  42.2612429  60.0968790  26.7829990  41.9613695  61.0054255  26.8122411
  41.4674902  59.5783281  26.9145107  65.4752493  33.2465029   8.9335722
  64.8446035  32.8237414   9.5164865  66.3294029  33.0306768   9.3078357
  83.3712196  21.2490487  18.4901178  84.1590118  21.6836405  18.8168454
  82.6931858  21.9237494  18.5258281  56.4990902  75.0194645  26.3724399
  55.8642101  74.3356657  26.1589551  56.7397690  74.8470926  27.2827101
  79.4938040  60.0921345  13.1733668  79.9903393  60.6738806  13.7489116
  79.8107433  60.2976608  12.2938561  11.7474934   4.7916946  73.0747841
  12.3271891   5.0598535  72.3618515  12.3109433   4.7754726  73.8484071
  40.0645018  37.0417619   3.2191002  39.1474247  36.7812252   3.1335077
  40.1984549  37.1405411   4.1617197  56.9551086  48.1653214  21.5871406
  57.2214127  47.7980471  22.4300051  56.8346834  47.4029589  21.0209870
  30.9714267   6.5501985  58.8673632  31.8685195   6.2419233  58.7392060
  31.0659024   7.4764595  59.0895228  67.9727316  36.6272688  18.2269669
  68.5968924  35.9574437  17.9476941  68.0013895  36.5975237  19.1832757
  37.1049782  19.1710863  62.9615752  36.9711873  18.3366499  62.5120787
  37.6807353  19.6670494  62.3795478  49.5277309  52.4159050   2.2445069
  50.0948715  53.0932903   1.8760937  48.9668894  52.8835917   2.8633437
  54.9928427  66.7500877  35.7435298  54.6657753  67.5350380  36.1829758
  55.9412193  66.7829514  35.8689642  40.0870702  14.4415197  74.0594531
  40.7230851  13.7333736  73.9582504  40.2138516  14.7509584  74.9563391
  22.3018050  45.0137281  15.8628249  22.5178289  44.3914795  15.1682937
  22.4454212  44.5264864  16.6741204  76.9026756  81.4599800  31.6750813
  77.3138237  81.2606812  30.8339691  76.0492945  81.0284901  31.6327453
  51.8337342  39.7967395  71.2620435  52.0591351  38.8835868  71.0843460
  51.4342496  39.7799549  72.1317328  76.3966227  72.6381969  25.9308839
  77.2030544  72.9450893  25.5164933  75.9552145  73.4377956  26.2172914
  74.7806978  58.9704657  32.9130578  74.9589777  59.6309614  32.2435856
  74.4900084  58.2027864  32.4207115  47.5591755  18.6821306  14.7443438
  48.2234240  19.3345761  14.5222723  47.9450464  18.1828773  15.4641211
  57.4386454  66.3930130  21.4812064  57.4542427  65.5497265  21.0285950
  57.7880621  67.0142555  20.8423018   3.3133803  49.3243265  21.8150091
   3.0729304  49.0966177  22.7130985   2.5628672  49.8175812  21.4838552
  59.0577936  65.4478025  29.7377777  58.7439871  64.7855663  30.3535676
  59.7278833  65.9284115  30.2238107  72.2517681  84.0584755  48.8766146
  71.7107725  83.4786701  49.4126940  71.8093538  84.0821838  48.0281258
  82.6659298  56.8413353   5.9614766  82.3974991  56.6152811   5.0709283
  83.5312366  56.4438772   6.0589844  51.3935617   6.5740019  20.8303618
  50.6212309   6.5738207  20.2649093  51.1648718   5.9837347  21.5483546
  39.2430827  20.2451715  73.7399728  39.6006867  19.6580848  74.4060676
  39.6355864  19.9447403  72.9202692  55.4283381  80.2077484   9.3067026
  55.9039783  80.8308983   8.7574458  56.0573721  79.5054626   9.4720626
  39.3694925  55.8973360  15.3060055  38.6209559  55.3290081  15.4874587
  39.6130753  56.2528038  16.1607242  77.3083957  82.1386245  73.6128266
  77.7980121  82.2484520  72.7976919  76.3914044  82.1115974  73.3396424
  27.6348445  11.8745956  57.1426312  26.8188855  12.3711452  57.0802895
  27.7553126  11.5012273  56.2695233  63.3808947  66.3195515   6.6214383
  64.0357208  66.4042521   5.9284306  62.5517941  66.5371418   6.1954319
  39.4232845  71.0102463  20.0289917  39.7804928  70.3386354  19.4479835
  38.4750199  70.8890200  19.9807179  67.0911023  56.4936504  54.2982284
  66.6823193  57.2789917  53.9343993  66.9656750  56.5744648  55.2437274
  64.0338230  64.9077559  26.3477159  64.5181370  65.7289410  26.4332867
  63.8645220  64.6344709  27.2493172  68.0784798  66.0118151  33.0198956
  69.0099239  66.0964537  32.8162527  67.6318932  66.3349628  32.2373581
  82.3249531  63.3226109  40.9586525  81.9003582  63.0654907  41.7770910
  83.2011414  62.9411077  41.0132408  86.1991024  17.8952229   4.0502363
  85.9610653  17.7217090   4.9609852  86.7660046  17.1632397   3.8072202
  75.9318113  74.7078562   4.5286667  76.3838148  74.5943832   3.6925733
  76.6339540  74.8537779   5.1626515  43.1657934  84.7280884   0.1615538
  43.3888721  84.1288471   0.8738593  43.9091635  84.6735382  -0.4389989
  88.3198026  18.7280756  45.0861073  88.6249736  17.8487402  44.8628187
  87.7279571  18.9647299  44.3720007  69.7215176   6.5675712  28.4364772
  70.5589676   6.6420722  27.9789162  69.3320084   5.7632160  28.0936575
  49.8269892  47.1600771   7.7089125  50.3660297  47.0603991   8.4935987
  50.1755285  47.9395866   7.2763360  57.8053951  78.3895350   9.6485227
  58.1803656  78.3801651  10.5291712  57.7578545  77.4667597   9.3986166
  57.3841000  65.8162498   7.5372887  56.5954590  66.3080645   7.7661842
  58.1064367  66.3740063   7.8260279  52.4934098  19.8119459  74.9712927
  53.2185361  19.9640760  75.5773283  52.2423836  18.9006433  75.1221075
  55.7534310   6.9981012  46.2110536  55.8292195   7.5294122  47.0036427
  55.1065537   7.4575767  45.6756417  25.0161788  14.4998321  59.8605768
  24.1972825  14.0246687  60.0014977  25.6386658  14.0870771  60.4592220
  31.4416787  15.6163463  56.9717519  31.1964652  14.7112903  56.7794625
  30.8310744  16.1443767  56.4573805  61.6708374  70.0143528  33.5274220
  61.5398121  69.1222239  33.8486242  61.5980339  69.9394560  32.5759387
  49.0863362   7.4310213   5.5237234  49.2182914   8.3218771   5.1993716
  48.3392170   7.5007159   6.1180192  28.3760163   7.5119934  71.3656835
  27.4503943   7.7552423  71.3824628  28.7666365   8.1004676  70.7196633
  61.5302944  79.9556875  27.9088712  61.3747358  79.3926764  28.6671925
  61.2429380  80.8237076  28.1920552  46.8894842   1.6645247  24.0874839
  47.6687434   1.1244494  24.2190218  47.0721880   2.1578795  23.2878256
  69.1714621  85.6202793  31.9823146  69.5587444  86.1040783  31.2528038
  69.9103212  85.1667213  32.3880363  69.3929148  76.6087294  73.7972116
  69.3750811  77.5653124  73.7679386  69.9675560  76.3576460  73.0740404
  28.1283283  74.4851542  38.8135886  27.6769638  73.8328648  39.3493295
  27.5843620  74.5699072  38.0305529  80.7798532  10.9939867   1.7645861
  81.7109063  10.8770186   1.9535060  80.4377607  11.4616019   2.5265169
  35.2258444  76.5061283  43.1782627  35.9853792  76.0811424  42.7798605
  35.1500249  77.3418188  42.7177143  76.2384939  53.9117956  30.1086116
  75.3210258  53.6447954  30.0520945  76.2192059  54.8615742  29.9912143
  37.7486658  82.8952599  28.4303904  38.6005569  82.4627018  28.4887981
  37.8733397  83.7314320  28.8792729  70.5855131  58.8874245   7.9951376
  69.8632240  58.2992744   8.2156181  70.5422926  59.5781755   8.6563665
  78.0161572  44.4933653   9.3403822  77.1400785  44.7260952   9.0328825
  78.1805611  43.6290312   8.9633811  75.8857629  24.9104080  70.5378829
  76.4640137  24.6915063  69.8071710  75.1879975  25.4331932  70.1428447
  67.3126173  82.9367638  52.7241135  66.4043140  82.6390457  52.6733065
  67.2818279  83.8496208  52.4377871  39.0743634   1.3964138  65.6467120
  38.8770148   2.1065149  66.2574820  39.7362372   0.8709201  66.0961692
  24.2785784  37.0331058  65.6766335  24.5067307  37.6155052  66.4011912
  24.7538611  36.2231025  65.8616440  64.5863724  46.0836458   0.6701770
  64.8190594  46.9389105   1.0315794  63.6717892  45.9576130   0.9229192
  42.2391605  77.8684235  19.7488678  42.2096252  77.4487114  18.8891006
  42.9517269  77.4238777  20.2080607  16.9365621  87.9045296   9.0071344
  16.1013377  87.6470566   8.6168265  16.7841256  88.7902927   9.3364155
  37.1307588  33.5165453  50.8206844  38.0119014  33.2747746  51.1059332
  37.2271466  34.4017720  50.4695225  55.9484911  39.3667102   2.4415323
  55.7370043  38.4721470   2.7084741  56.4055014  39.7398686   3.1952739
  86.3923264  57.7432680  23.7306809  87.0709229  58.2580328  23.2939196
  86.5650558  57.8625727  24.6645761  65.0016114  13.3895216  73.3659596
  65.5944535  12.6893339  73.6389248  65.5165765  13.9138946  72.7527122
  61.3134623  56.5883350  26.8115997  60.5124807  56.7503357  27.3100114
  61.3646603  57.3196840  26.1961818  71.1005592  42.8207541   7.4319518
  70.3602076  42.3791552   7.8480083  71.6349697  43.1322050   8.1624532
  61.6261959  26.6976714  29.3558884  61.4942074  25.7506013  29.3126535
  61.7317963  26.9666862  28.4433579  19.4826555  59.9474955   8.5882407
  18.6639965  60.2730227   8.9624900  20.0952148  60.6771612   8.6809385
  39.5177698  68.0885887  18.5818720  38.6503243  68.2299185  18.2026708
  39.3767214  67.4327803  19.2646968  75.0825405  65.8505297  22.0392895
  74.7615004  65.7857895  21.1398625  74.9703836  64.9700403  22.3976016
  23.7522030  86.4386272   6.8027872  22.8434205  86.5048885   6.5096021
  24.0932536  87.3299694   6.7290455  16.5041345  79.1362169  67.6923714
  17.0491546  79.4180468  68.4270523  16.0066694  79.9171856  67.4497752
  12.4523494  68.3909378  67.2341428  12.6554581  68.1492958  66.3304905
  11.7019030  67.8436431  67.4655179   8.5184826  13.5426050  34.2522049
   7.7828373  12.9821783  34.4991302   8.3166755  14.3907267  34.6474338
  45.0919342  85.1184750  13.3083749  44.8849821  85.8362961  12.7099347
  44.7547102  85.4084873  14.1559625  16.3082024  22.0844039  49.5623485
  17.1005389  22.5086078  49.8917262  16.5754792  21.6889772  48.7326304
  81.5707874  41.2075472   2.9090255  81.1082077  41.5442944   3.6763933
  80.9378624  40.6301641   2.4821028  32.2196528  35.9878788  63.0518476
  32.5963256  35.1751670  62.7144341  32.8986117  36.6461429  62.9037468
  72.5677493   1.2701041  20.6697011  72.1415475   1.3393313  21.5239787
  72.3482755   2.0890814  20.2254677  32.9389000  51.7139053  21.1218095
  33.5261631  50.9993029  21.3681912  32.9783702  52.3217440  21.8601871
  42.6101685  44.7877121   8.9576209  41.9829035  44.0910769   9.1511762
  42.1240425  45.5975866   9.1125876  83.0077171  30.9225011   8.9672005
  82.2879314  31.4857411   9.2516381  83.0874443  31.0914397   8.0284059
  51.4704752  78.2571125  36.3959527  52.0585918  77.6098108  36.0069132
  50.7264376  77.7449369  36.7126727  67.5578499  47.7213430  25.2488971
  68.1278229  48.2206488  25.8337522  67.6497602  48.1524897  24.3992496
   6.5153143  28.5315761  71.9635121   7.1697613  28.7960395  71.3169901
   6.1476299  29.3555746  72.2829888  36.9053864  77.8609133  45.0775337
  37.6923823  77.4154711  44.7637701  36.1888146  77.2668600  44.8542500
  27.1729803  63.1810427  43.6202383  26.2488365  63.3718061  43.7808657
  27.2543764  62.2404957  43.7782574  38.6459565  60.7134485   8.7898588
  39.3059659  61.3400412   9.0865028  37.9489040  60.7724762   9.4432086
  82.8339672  50.3175354  31.6950464  82.4598789  51.0119104  31.1527038
  83.7779331  50.3831148  31.5506268   3.7911905  15.9653956  20.7397294
   4.4491352  15.5396372  20.1901174   3.9931501  16.8988425  20.6755328
   8.1500858  84.8476219  13.1920981   7.7327669  85.3841877  12.5181770
   8.1162989  85.3866482  13.9823771  13.6403653  13.5953817  76.6257067
  12.9625317  14.2581567  76.7580205  14.4313952  13.9838991  76.9992817
  90.2311420  67.7089787  69.4193459  89.5689392  68.0280161  68.8062096
  91.0535431  67.7615166  68.9323854  52.8049943  15.5493555  72.9237441
  53.7137219  15.7926330  73.1005729  52.7717492  14.6078834  73.0933155
  11.8932462  64.2954588  11.4130712  11.9041777  64.1522980  12.3594415
  12.6244199  64.8920059  11.2526131  40.3608704  57.5478315  27.0105648
  41.3141108  57.4944210  27.0791769  40.1859570  57.5105333  26.0702229
  53.4604260  32.0385704  63.1550543  53.9944550  32.5523958  63.7608830
  53.7037656  32.3621425  62.2876923   2.2273837  61.8163204   1.4741088
   2.1569548  62.5527477   2.0815183   1.8048392  62.1255112   0.6728058
  32.6560307  43.5946608  43.2108545  32.7967381  42.7061176  43.5378456
  32.0573664  43.9908695  43.8439846  49.0601063  88.8685322  38.3867764
  49.0580273  89.2768097  39.2525339  48.2329035  88.3886051  38.3463049
  32.2306296  16.0616884  72.4471785  32.8220364  16.0343608  71.6950337
  32.3534533  16.9360647  72.8167908  87.7272474  79.5230827  58.8251106
  87.2902714  80.2545318  59.2612926  87.8129684  79.8041019  57.9141168
  76.4539416  49.5742276  46.9945375  76.3314326  48.9749998  47.7308480
  76.8085702  50.3704414  47.3901550  39.2930283  87.2255710  69.6462558
  39.4517072  87.4682811  70.5584751  38.6140086  86.5524772  69.6921359
  10.1112652  30.2028608  21.2160897  10.0030875  29.7047567  22.0262885
   9.7485381  29.6354604  20.5358553  62.5745106  62.8826904   7.2863626
  61.9137621  62.1923113   7.3413378  62.8325176  62.8944397   6.3646650
  94.0228780  42.9851091  61.8194096  93.7615474  43.9059389  61.8159561
  94.0148719  42.7373326  62.7439503  42.9274464  63.6017656  17.5456131
  43.5398006  63.9934206  18.1683922  42.2307920  63.2373857  18.0916321
  85.2733453  66.9088200  53.5084597  85.0331529  66.9809988  52.5847022
  84.4405778  66.9622997  53.9773600   0.8597239  16.4393473  17.1814001
   1.3627563  16.1504066  16.4200175   1.1492696  17.3391306  17.3323476
  14.5315212  31.1607817  70.1805864  14.7136634  30.2617577  69.9070696
  13.6880392  31.3673869  69.7779916  52.5876999  52.0231867  22.8095746
  53.2433701  52.2034264  22.1358991  51.9088364  52.6824617  22.6655555
  90.0568421  62.4569956  25.2436225  89.7975524  63.1363824  25.8660619
  90.9741433  62.2792259  25.4514520  38.7447637  69.4467619  74.4791096
  38.4532350  70.0003818  75.2035024  38.0809015  68.7596777  74.4205551
  59.8622687  81.4838126  35.8302895  59.5995768  80.7977942  36.4439694
  59.7314818  82.2999409  36.3130538  12.5533783  17.8070831  19.2363703
  12.1659493  16.9350386  19.1610801  13.3890891  17.7385545  18.7747169
  79.4046147  85.0266031  71.7977385  78.9269956  84.4250181  71.2265967
  78.9894708  84.9242452  72.6541309  30.2353764  13.1552410  17.7832186
  30.9768486  13.0002916  18.3684039  29.6911645  12.3730350  17.8738809
  71.0314703  62.7698898  13.1922007  70.1868725  62.4455547  12.8796339
  71.5786219  62.8079367  12.4077201  56.7306805  57.7814245   9.2061734
  56.2954855  57.2842598   9.8987556  56.7216587  58.6860657   9.5188683
  26.4421031  80.3429294  46.9860983  27.0255467  79.7166008  46.5576839
  26.0496184  80.8361137  46.2657118  24.1869539  68.6408547  60.9877340
  23.7613576  69.4547179  61.2573974  24.3875402  68.1919387  61.8089966
  38.4092426  25.5531883  18.0002248  38.5573769  26.3911104  17.5618482
  39.2613792  25.3224921  18.3701909  10.6774467  42.4288483  71.2544302
  10.2146047  43.0683765  71.7957346  10.8905595  42.9042614  70.4514377
  52.9476221  68.6219552  49.0824477  53.5940917  67.9240969  48.9761273
  52.9796346  69.1058591  48.2571952  79.7603353  54.6422485  55.8478205
  80.2123960  55.4669097  56.0261695  79.5521911  54.2910996  56.7136161
  68.7615633  37.4457979  25.1550412  69.0242004  37.5639915  24.2421961
  67.9735613  36.9043207  25.1093626  57.0696624  87.0015720  54.7866504
  56.3112934  86.4562085  54.5776312  56.7447360  87.6247123  55.4365365
  11.4654207  23.0956817   1.4385305  10.5944121  22.9120326   1.0866079
  11.7929351  23.8179183   0.9024902  55.3566504  42.5250912  16.8236589
  56.2959003  42.3637104  16.9130659  55.2593708  43.4648132  16.9776011
  53.0823708  60.5939531  18.1200922  52.8754854  59.7204924  18.4525049
  53.9919043  60.7399893  18.3802009   0.6066936  79.5263627  32.9403273
   1.3877433  79.0748671  32.6204125  -0.0314385  79.4312480  32.2332398
  23.8171670   9.4484624  64.0763204  24.4869801   8.8255653  64.3584148
  23.7109706   9.2784462  63.1403450  57.5184914  88.1319795   6.8062788
  57.6022431  87.2800353   6.3780177  57.6725671  88.7675755   6.1073452
  53.8959487  69.0986636  77.1934607  53.6700471  69.1812566  76.2669736
  53.7599595  68.1720927  77.3914688  65.4100187  70.5850342  75.2068543
  65.1571758  69.8570684  74.6390821  64.9830969  71.3496474  74.8204173
  38.0058524  15.3970632  44.4472138  37.4672791  14.6059093  44.4628732
  38.9027545  15.0782785  44.5480959  44.6280289  19.2855036   4.7630051
  45.4122591  19.8310781   4.7033209  44.9534798  18.4271276   5.0341213
  85.3038152  44.9729652  53.6820881  84.5739968  44.4104813  53.4228484
  85.3252156  45.6598664  53.0158011  38.5954118  51.2600613   8.9088917
  38.7203431  50.7189751   9.6885377  37.9690647  51.9308853   9.1807652
  16.0836976  61.2229505  73.1688724  15.6647533  60.4263619  72.8430409
  16.8014663  61.3838020  72.5563638  89.1288550  84.9053481  63.2594661
  88.5183366  84.6769813  62.5585024  89.2188628  85.8563426  63.1983177
  26.8347907  32.5250387  53.6109734  26.2566781  32.5512695  54.3734217
  26.6738963  31.6672730  53.2178020  67.1529245  18.8795078  20.1444435
  67.9104996  19.4157851  20.3783703  66.8645716  18.4977150  20.9734893
  93.9647134  84.3664745  70.1134185  93.9013417  85.1508907  70.6583087
  93.0598243  84.0710715  70.0126938  64.5718861  41.4547205  13.0169630
  63.6971521  41.3571262  12.6407433  64.8740435  42.3068953  12.7027476
  50.6906223  61.9703245  17.2413611  51.2832451  61.2588072  17.4837935
  49.8198605  61.6451931  17.4700391  91.6279252  81.8919090  60.4154102
  91.8474563  81.4272383  61.2229494  91.3816293  81.2007144  59.8007409
  15.5878878  43.4915400  21.4640021  15.6360602  43.9422607  22.3070669
  16.4818394  43.1900597  21.3021636  20.2431226  25.9102511   4.5379937
  19.4856262  25.7139540   5.0892639  20.5415487  26.7688656   4.8379186
   4.5724150  20.5004272  63.0822734   3.7874171  20.0123844  62.8336219
   4.8984596  20.0490675  63.8608639  38.6075902  47.4496365   1.6296281
  38.2932115  48.3287621   1.8406698  39.5463157  47.5607061   1.4789943
  11.8601033   3.5481653  49.5430629  11.0330102   3.6753854  50.0077788
  12.2665831   2.7987918  49.9783127  59.8236367  17.7065906  58.4762554
  60.2435300  18.5509929  58.6403064  59.2271229  17.5881061  59.2154185
  67.4158748  68.2160190  41.3547556  68.1436952  68.5014418  40.8024494
  67.3676141  67.2699621  41.2173526  90.3169441  11.8959308  13.7055135
  89.7631836  12.2689676  13.0196428  91.2078285  11.9781780  13.3652198
  42.4655533  47.0294189  23.6469626  42.1261835  47.9004097  23.8529611
  43.1538200  46.8810034  24.2954183  89.3702348  56.8091884  58.4114901
  88.7799056  56.0661474  58.2864575  90.0373776  56.4858201  59.0169541
  20.2181813  81.7647105   9.7890443  19.5459840  81.8426984  10.4660261
  19.9709698  80.9830320   9.2949814  30.8395669   7.7799234  64.4707541
  30.8025595   8.6476383  64.8731594  31.7684314   7.5491390  64.4840900
  55.2297589  12.7399120  69.1408412  55.1651570  12.3807344  70.0257419
  54.7653577  13.5756311  69.1870741  49.4169219  62.2981694  64.6733920
  50.1545461  61.6913405  64.7358493  49.7737761  63.0633190  64.2223565
  87.1256638  36.1427999  15.0784492  86.2505627  36.1403203  14.6906054
  87.4136734  35.2314901  15.0255537   3.0860036  88.2095197  59.5105283
   2.5699609  87.5006297  59.1265921   3.9837831  87.8775409  59.5139305
   1.9223806   2.4509821  54.3205611   1.0257050   2.6146469  54.6128241
   2.1333954   1.5846548  54.6686737  50.9289742  55.5721903  29.4687819
  50.8729029  54.6170521  29.4970846  50.2771711  55.8311749  28.8173890
  67.8516992  74.6888259  53.4331481  67.1609672  75.0443414  53.9923732
  68.5887058  75.2877835  53.5527317  50.1506513  64.0923849  72.3325138
  49.8943418  63.1807867  72.4722625  50.8415597  64.2483261  72.9763753
  41.8083951  34.3299112  68.1666730  40.8663842  34.2691669  68.0080513
  42.2042176  34.2250356  67.3014812  38.6375809  29.1293359  10.8615184
  39.2615747  29.4392204  10.2051389  38.3174515  29.9268937  11.2830031
  93.3285809  41.3139820  16.5531027  93.0227947  41.8864489  15.8495343
  93.5723782  40.5006361  16.1112118  59.1244650  38.2295394   3.7956876
  59.8642540  38.2987642   3.1922412  59.5078850  37.8978848   4.6076143
  14.9155009  25.0745511  15.8610618  15.7426941  25.3380251  16.2642550
  14.4454658  24.6151781  16.5569603  66.4790853  67.4260977  63.5356955
  65.6544192  67.4686912  64.0197853  67.1355660  67.2137025  64.1991357
   2.8677055  23.4045705  38.3672206   3.2305977  23.7117443  37.5364463
   2.6915070  24.2047510  38.8620846  65.5952978  48.1281424  12.3791277
  64.8248720  47.5666380  12.2931767  65.3427505  48.7833834  13.0295944
  32.8461119  32.4043998  46.8311159  33.0863854  32.7527961  45.9725587
  33.0251691  33.1215581  47.4392740  27.4157572  16.8230331  30.5545545
  28.2447314  17.0851767  30.1541615  26.9511151  16.3565719  29.8597503
  93.5655625  84.5898154  75.2658738  92.8704913  84.3580178  74.6499337
  94.0143378  83.7630537  75.4427896  91.6135676  64.4822434  58.4573416
  92.3548873  65.0619462  58.2823567  91.9058879  63.6220029  58.1560676
  87.2903379  76.6823748  46.8073623  86.7570336  75.9050778  46.9735782
  86.7331489  77.4154952  47.0687310  65.9334278  14.2464972  28.4572554
  65.0414419  14.4382405  28.1677151  66.1034489  14.8860669  29.1488290
  42.2730490  21.1181793  61.0775380  41.7167660  21.8711910  60.8781437
  42.9048821  21.4494667  61.7157106  26.7691398  16.6935563  39.4476414
  26.7324400  15.8737445  39.9403834  26.4494991  16.4631975  38.5752916
  29.6335503  79.5928615   1.8714474  29.4273612  80.4909480   2.1305957
  30.5871245  79.5383656   1.9343415  85.9675694  28.5056925   9.9917156
  86.1817741  29.4290376  10.1250684  86.1115170  28.3590245   9.0568358
  51.1173725  12.8755605  15.2630556  50.5604792  12.4587786  15.9206223
  50.7574224  12.5846493  14.4251776  85.5625057  48.1788254  18.8295090
  85.1658440  48.6661863  19.5515680  85.8283424  48.8523293  18.2034469
  34.3231773   9.8108613   3.4889305  34.2298651   9.5196354   2.5818956
  33.4752154   9.6203977   3.8900751  60.7916403  42.2822571   7.5544327
  60.5494833  43.1232786   7.9420871  61.6666746  42.4274635   7.1946156
  92.3806381  30.3311467  28.9815998  92.4884510  30.8304954  29.7910810
  92.6029873  29.4320726  29.2233825  89.0616703  64.4883204   2.5522330
  89.3905258  64.8380566   1.7241183  88.4722137  65.1667929   2.8815362
  78.0170138  43.5688256  55.1738469  78.4091838  42.7121191  55.0050561
  78.1578858  44.0603470  54.3646542  35.3096776  72.5403264  75.0596232
  35.2159430  73.0343440  74.2451347  34.9469097  71.6774395  74.8594765
  38.3512473  23.7861490   9.0230078  39.2051935  24.1277647   8.7578553
  37.8058934  23.8712907   8.2409775  51.4509757  72.3831728  58.8650374
  52.3954757  72.5249794  58.8014595  51.3347049  71.4533404  58.6697857
  15.8263442  11.7339191  56.5262834  15.5675313  10.8732423  56.1969201
  16.0163542  11.5884838  57.4530928  41.5060136   4.1787729  63.2464795
  41.8062636   4.3674192  62.3573820  41.6269156   5.0019178  63.7198166
  23.9595839  41.5780315  52.9858605  24.7451350  41.8817863  52.5310246
  24.2909285  41.1414203  53.7705986  75.6989511  81.4062122  38.4703438
  76.5218528  80.9770420  38.2360904  75.7632859  81.5482834  39.4147508
  50.4005098  61.8552494  27.1288061  49.4608879  61.7986584  26.9551992
  50.5294371  61.3342905  27.9214025  76.6744597  85.3886846  36.9366567
  76.0355504  85.2226213  37.6298038  77.4027808  84.8005393  37.1363251
  66.8102261   2.0779619  46.8570964  67.0835778   1.2437686  46.4754860
  66.0560796   1.8558750  47.4031393  60.7356691  29.6780682  13.5067236
  61.3249540  29.1018462  13.0199540  61.2656927  30.4498959  13.7056923
  50.8938503  41.0585165   9.0056843  50.8851147  41.9550610   9.3408829
  51.6115570  41.0465431   8.3724540   5.1504177  83.5373452  24.1812722
   5.2401584  82.5933913  24.3121497   4.7059339  83.6209968  23.3376662
  68.3222368   4.9464423   9.6579158  68.2550362   4.2709166   8.9830959
  68.1466535   5.7656771   9.1950434  20.3670686  81.0926440  32.8011100
  21.1472124  81.6459206  32.8396956  19.9975007  81.2598470  31.9341103
  75.6049630  28.7769804  68.5096805  76.0891816  28.1274042  67.9999618
  75.0035092  28.2605943  69.0461759  50.9714079  27.3219156   1.1181284
  51.3995075  26.8219852   0.4231235  51.6844225  27.7955794   1.5464763
  12.8807252  87.9810146  50.3907649  12.4851554  88.1468442  49.5350425
  13.8097566  87.8469756  50.2032463  54.0535831  26.6766167  18.2144856
  53.7526178  26.8253374  19.1108859  53.8617945  27.4960208  17.7583885
  24.0238902   3.9512929  55.3170554  23.3033940   4.4733295  54.9640743
  23.8146445   3.8512668  56.2457339  65.0204274  11.3366661  47.2741739
  65.8517739  10.9325275  47.5226919  64.7755048  10.8988342  46.4589755
  34.4720167  61.9460490  75.8782563  33.7315076  61.3714925  76.0726027
  34.1856569  62.8121916  76.1681297  56.4389416  13.4412202  59.1296629
  55.6222340  13.8040742  58.7867967  56.1839387  12.6062212  59.5220618
  83.8090611  29.9343061   5.1013112  83.1139565  30.3195977   5.6348032
  83.9908028  29.0914822   5.5170649  52.2549057  64.0878582  26.7443204
  51.7331696  64.8859167  26.6598845  51.6101837  63.3934069  26.8795991
  52.7055642   4.4272384  65.1873545  52.2186181   4.7596654  64.4332914
  52.6644227   5.1353321  65.8301167  72.3676491  36.9216394   4.3685603
  72.9049015  37.5891542   3.9419243  71.4876652  37.2978497   4.3864059
  44.8625851   9.1362196   6.3172942  44.3172026   9.4863164   7.0217252
  44.2412853   8.7315255   5.7119495  19.9848008  74.3245077   4.5694065
  19.0327930  74.4007778   4.6333963  20.1384354  73.9715672   3.6930144
  83.5225041  79.2394474  73.3382888  84.4349368  79.3056563  73.6199118
  83.1196340  78.6433342  73.9696197  26.7873141   0.2121410  45.5420129
  26.4100978   0.8377943  46.1604730  27.6740500   0.5362520  45.3842823
  57.5930977  44.4275618  14.2748666  57.2188950  45.1374435  14.7966611
  57.4456310  43.6409283  14.7999322  92.5166591  76.4980748  76.1873124
  91.8718560  75.9322313  76.6119113  92.9487975  76.9531515  76.9100793
   5.8739421  35.3346595  75.3753458   5.6921932  36.1623725  75.8204201
   5.0272557  34.8893699  75.3426008   1.3025707  59.0679816  60.0538651
   2.2178596  58.9666835  60.3150491   1.2605566  59.9400893  59.6615700
  71.0368347  65.0655508   4.5913658  71.4779997  65.6088734   3.9383721
  70.9607887  64.2064142   4.1762334  71.4496946  73.5421658   3.5349426
  70.8927822  72.9385042   4.0265414  70.8871937  73.8691473   2.8328705
  66.1418676  48.2851028   1.4695811  65.8159685  48.9197397   0.8314116
  66.7651844  48.7793159   2.0019905  76.9746001  56.2220183  33.5533873
  77.1649631  55.4813674  34.1290872  76.1497720  55.9885267  33.1275098
  90.8235073  82.1735382  23.9588141  91.4258862  82.0607853  23.2235169
  90.0738907  82.6370907  23.5854173  36.5543699  63.3076525  50.4640388
  36.7805958  62.5859213  49.8773909  37.3800159  63.7718344  50.6021595
  29.1637465  15.0798091  63.5232584  28.4381243  15.3360328  62.9539995
  29.6483657  14.4290886  63.0153779  50.4884815  30.9120989   8.3816403
  50.0361633  31.7449570   8.2475126  51.4161777  31.1239767   8.2781053
  91.3905652  84.0039995  69.2369024  90.9319623  84.8332551  69.1017978
  91.3638862  83.5735539  68.3823637  35.1580024  24.2120504   3.2098269
  35.7710028  24.9089670   3.4438494  34.3623829  24.4181418   3.7004876
  71.1461496  47.6646709   6.5935344  70.9140491  48.3411646   5.9573632
  72.0773840  47.8057718   6.7642009  33.5028884  17.9699049  61.3793008
  33.5398003  17.5837574  60.5042235  32.7555224  17.5430021  61.7981450
  52.7449986  10.0862989  52.6795141  52.7543160   9.2906532  53.2115809
  51.9248673  10.0364503  52.1884553  79.3121052  75.0855970  33.5694289
  80.1601887  74.6893787  33.7693930  79.4294548  75.4790068  32.7047372
  39.5557523  48.0841637  33.5220289  38.6962891  48.4051847  33.2490826
  39.3674684  47.4672461  34.2292738  38.3671948  24.3056688  70.0073598
  38.9679095  24.1261015  70.7306371  38.1154820  25.2214250  70.1267992
  41.8496033  22.0986805  66.2028436  42.5327870  22.4428711  66.7781917
  41.5037820  22.8699359  65.7536177  40.5897230  86.6220954  59.7764413
  41.2896722  86.7251924  59.1317098  39.8264879  87.0315030  59.3689005
   3.5139411  71.1258629  58.4857790   4.1250938  70.6454519  59.0442829
   4.0204280  71.8706158  58.1616716  83.8398933  29.8188543  14.6553290
  83.0463123  30.0540185  14.1745508  84.2053032  29.0805340  14.1678929
   9.9768632  72.4078444  55.8967678   9.1611618  72.7395848  56.2720243
   9.8986715  72.5848916  54.9593393  88.7367153  48.7152910  17.5530672
  87.9977036  48.8581276  16.9617248  89.0273190  47.8234720  17.3621666
  14.0937134  17.6600799  77.0655114  14.5655915  16.9487533  77.4986139
  14.1909405  17.4778089  76.1308696  81.9622039  15.9633264  70.7107542
  82.7286111  15.8716735  70.1446704  81.2152313  15.8616600  70.1209001
  57.5176382  63.3572960   2.9508016  57.3355675  63.7335443   3.8119173
  58.3692169  62.9317474   3.0505550  11.9387811  84.4155696  47.2119991
  11.4201826  84.6402601  47.9845278  12.8374284  84.6403602  47.4531142
  40.5401274  17.6804504  60.9183936  40.3792283  17.1470985  61.6967742
  41.3513943  17.3295126  60.5510859  22.3915622  13.4271202  60.3549461
  22.1359393  12.7258310  59.7557072  21.7495152  13.3826265  61.0634844
  44.9497604  51.9908905  24.5972538  44.6216869  51.1168909  24.3857837
  45.8992672  51.8833208  24.6529031  29.0274137  73.7641433  75.1580231
  28.8189977  73.2581118  75.9433426  29.5653146  74.4892243  75.4760608
  30.7565451  69.7826767  16.9287312  30.1867723  70.4509211  16.5478826
  31.5745401  70.2434206  17.1153617  72.0170450  22.2688699   9.5195544
  71.2656879  21.7791724   9.8540604  72.6940155  21.6058421   9.3841404
   8.7704843  62.8378049  51.1982481   8.1003135  62.1931639  50.9712235
   8.7966436  62.8292933  52.1550505  81.3163376  50.4329538   5.0182027
  82.1996498  50.0692368   4.9573499  80.8029461  49.9210501   4.3932092
   3.8205477  27.6359567  42.6059048   4.6325514  27.5236997  43.1001560
   4.1041705  27.9506931  41.7475740  92.4067688  30.5814505  18.3545732
  92.1823406  30.3013587  19.2419374  92.8584862  31.4168453  18.4741449
  45.2402878  64.5398426   2.7777103  44.5662165  64.1436100   3.3298472
  45.3448963  65.4253912   3.1256959  42.0845938  52.3472118  20.7224369
  41.5096092  53.1034374  20.8396769  41.9577885  52.0891762  19.8094356
  78.3131838  38.6392307  13.8106143  77.8123283  39.3858814  13.4821510
  77.9454517  38.4668040  14.6773756  74.3171215  31.6037536   3.3511773
  73.7851143  30.8323979   3.1556916  75.2089548  31.2655115   3.4315056
  10.9540650   7.1530399  50.2834575  11.0782859   6.6236076  49.4957392
  11.1844966   8.0419693  50.0133864  19.0642640  14.0981159  43.1618707
  19.9150702  14.2832002  42.7642457  19.0822026  13.1576309  43.3390562
  63.4392595   8.3177292  15.4131365  63.0803013   7.4722999  15.1436388
  62.8301716   8.6349684  16.0799193  44.7984505  43.0146408  21.2536430
  44.6087980  43.9527512  21.2682533  43.9377689  42.5960207  21.2686539
  93.5279083   3.2945579  13.8938391  92.8678322   3.9340171  13.6261976
  93.0230236   2.5665963  14.2563272   4.5198414   2.3535165  75.3368956
   4.4496295   1.8003377  74.5588855   5.3039786   2.0373020  75.7856372
  63.3517265   5.1743037   3.0989298  63.6915779   5.3293937   2.2176357
  64.0286970   4.6510419   3.5280460  74.8232031   9.2018002   2.7547020
  74.5362616   9.7932315   3.4504795  74.9236345   8.3538920   3.1873646
  71.4614197  12.9322919  46.5647666  71.8669030  13.7317047  46.2289707
  71.9869992  12.2232732  46.1942307  71.7951727  44.1246510  10.0486755
  72.6498699  43.7897682  10.3199267  71.8265200  45.0582981  10.2573788
  73.5513576  88.4366658  34.9698512  73.4826930  87.4926522  34.8271768
  74.3388827  88.6946395  34.4908111  92.6121362  71.7554191  63.0753176
  91.8698390  71.7588952  62.4709873  92.4459918  71.0116461  63.6544792
  75.6164455  73.0518627  11.1832869  76.2561750  73.6618233  11.5506172
  75.2907085  72.5626516  11.9387984  53.5453033  31.4722919  30.7393837
  52.9492092  31.9274569  31.3341355  54.2886782  31.2240648  31.2889385
  47.0473862  51.6862583  33.6110973  46.5772057  52.3687172  34.0900707
  46.3740635  51.2567377  33.0834794  59.4558382  47.7579641   0.4550493
  59.7951078  47.3099375  -0.3198062  60.1591921  47.6862860   1.1003321
  31.8178508   1.0404024  50.5978791  31.9389722   1.5085849  51.4239351
  32.6695439   1.0951337  50.1644484  50.6450268   6.0997734  70.9478901
  50.1278779   5.3094921  70.7922129  51.5526387   5.8188972  70.8313642
  31.2952086  17.0412979  62.6178591  31.7173239  17.1964798  63.4628252
  30.5529925  16.4723072  62.8218178  89.4263680  87.5295928  66.2683098
  89.6116956  88.4685996  66.2806479  89.4382413  87.2709850  67.1898381
  92.2842503  45.0569487  17.0776868  92.9932404  45.0308180  17.7202451
  91.7096519  44.3325996  17.3254430  63.2557583  59.9128008  -0.0357516
  63.7238455  60.4247093   0.6238537  63.8536453  59.1973782  -0.2523869
  48.0591914  27.8042945  69.5583503  48.2007214  28.5133752  70.1855711
  47.4242303  27.2295723  69.9858384  57.8199100  63.2118893   8.3347827
  57.5073099  64.0230513   7.9341191  58.4189081  63.5002565   9.0234619
  79.3391895  75.1484013  52.2418642  80.1613617  74.9854708  52.7041531
  79.5144987  75.9226418  51.7070293  89.4172912  84.8200321  26.8232656
  89.7375034  85.6267834  27.2268033  90.0704729  84.6105385  26.1556602
  27.7190757  69.6327972  29.5601964  27.0301676  69.1159630  29.1424322
  27.3086309  69.9851656  30.3498816  52.5669482   0.6165034  74.8978376
  51.9243387   0.0728136  74.4421101  52.2652748   1.5137488  74.7558498
   1.7925957   5.6075674  73.2623386   2.6637629   5.3654295  73.5764408
   1.6698054   5.0847727  72.4699783  20.9389496  42.9030752  63.1842184
  20.2192950  42.2737551  63.2320499  20.8042264  43.3582592  62.3530197
   8.6370122  40.3040123  49.1578531   9.3571687  40.7445526  49.6089983
   9.0576434  39.8319197  48.4392214  14.2566681  75.7018518  34.8851633
  14.8384833  76.4601231  34.8327708  14.6205413  75.1691675  35.5923223
  22.0357537  61.8258572  27.8403902  22.9656672  61.7049408  27.6483727
  21.5907073  61.1914301  27.2785449  91.9544642  33.9672232  57.9582071
  92.2989260  33.7268043  58.8183069  91.9139936  33.1408381  57.4768686
  89.1175993  70.7325935  45.6830692  89.9001755  70.1958752  45.5576086
  88.7395467  70.8132124  44.8073959  56.7213072  37.7021194  61.5743256
  55.7942738  37.5260758  61.4135456  57.0909323  37.8525949  60.7042885
   9.4351131  61.0634184  76.0760450   9.4583315  60.1563644  76.3809204
  10.1384783  61.4966917  76.5595579  81.7820158  85.0965118  60.1236105
  82.5446512  85.0803566  60.7018471  81.1732425  85.7018375  60.5469465
  30.2806275   4.4165617  36.0040569  30.0067473   3.5977846  36.4173651
  29.9253187   5.1014048  36.5706086  24.5790339  50.7443714  37.5039482
  23.7142444  50.3911734  37.7128053  24.3989396  51.5818548  37.0768332
  30.0361323  58.0628872  17.9641676  29.5147276  57.4182415  18.4424949
  29.8848414  57.8565025  17.0418072  60.5006388   9.5816046   8.5233724
  60.3634766   9.6148783   9.4701093  60.9314063  10.4104811   8.3144897
  85.1772358  55.1965714  41.4507389  84.3026330  55.5575991  41.3059664
  85.6153794  55.2834797  40.6041527  66.5685639  49.9713084  16.9691165
  66.4298514  49.2554232  17.5891955  65.9862724  50.6675956  17.2729953
  51.6308521  36.3388118  60.8208053  51.1638128  36.3119278  59.9857108
  52.2107493  37.0967350  60.7466237  59.0128440   5.0254008  18.6797317
  58.1526971   5.2245471  19.0494903  59.1222209   5.6605813  17.9720481
  14.6537471  55.9746265  57.3476315  13.7248611  55.9616470  57.5783587
  14.7729588  56.8015242  56.8804455   5.3687704  74.4491768  27.7194524
   6.1265719  74.9006701  27.3478055   5.5096191  73.5273266  27.5036192
  15.0750148  80.8977890  18.5029721  16.0083401  80.7196045  18.6186635
  14.9130321  80.7328892  17.5741029  13.4489191  71.1276197  34.9376798
  13.2377696  71.7906952  35.5949283  13.3266652  70.2935219  35.3910756
  35.2856988   1.3115889  27.7284288  35.2577311   0.3661925  27.5811744
  36.0847515   1.5992361  27.2868323  74.8900341  18.9695129  75.5248767
  74.3304180  19.7274122  75.6941490  75.0691937  18.6056575  76.3919081
   4.1952786  59.2145252  35.6796217   4.6208140  58.4429026  36.0534596
   3.4760940  58.8613081  35.1559401   8.2074291  75.8554173  30.7013583
   8.3297843  75.5255508  31.5915537   8.7804699  75.3096676  30.1628280
  84.7938927  29.0064907  51.4807606  84.4584777  29.8817086  51.6749859
  85.2744826  29.1109586  50.6595707  68.3190717  55.3589535  31.0643840
  68.0440750  55.7831097  31.8772173  67.6079144  54.7523069  30.8582997
   1.8155235  61.2408113  58.4108639   2.6158172  60.8253479  58.0896950
   2.0664781  62.1500397  58.5738516  44.9384536  65.0036430  40.9201050
  45.3318204  65.4289627  41.6820765  45.6335725  64.4451046  40.5721426
   6.7597419  67.3407173  23.6913538   6.5552080  67.4068117  22.7586007
   7.6475501  66.9838381  23.7171769  16.7971504  79.6190929  14.2763436
  16.4708018  78.8397217  14.7261322  16.0665762  80.2367973  14.3068922
  25.0639391  81.9288826  26.8946075  25.2717328  82.6237488  26.2699389
  24.4916677  81.3341999  26.4097428  10.7608187  80.9826469  19.0248156
  10.5887938  81.9238949  19.0511215  11.4680386  80.8506775  19.6562076
  69.2252411  67.2871780  44.1521502  69.1320791  66.6451359  43.4483480
  68.5138955  67.0822811  44.7589731  90.4810729  71.3742018  60.1885986
  90.8079972  72.0867443  59.6393824  90.9621497  70.6021404  59.8907375
  91.9934564  83.4672546  18.0318463  92.8730394  83.0912781  17.9971504
  92.0696065  84.2984200  17.5632238  93.0295554  61.1989975  51.8095016
  92.0795401  61.1177635  51.7252207  93.2674958  61.8853092  51.1861324
  14.7219229  83.9163780  18.0138445  15.2553225  83.1325626  18.1455839
  13.9019859  83.5887718  17.6442420  26.5777445  73.7911844  49.5112228
  25.7045841  73.9382315  49.8748207  26.8561697  72.9560423  49.8870659
   3.5842884  88.5876751  64.1344690   2.8127959  88.1546116  64.4998407
   3.2462409  89.0990734  63.3993387  45.3982019  85.6313896  36.8086767
  45.4266548  84.7065926  36.5633798  45.2722692  85.6237411  37.7575254
  17.3509562  84.3936825  38.1029081  16.6560030  84.0396881  37.5479627
  16.8919945  84.9336433  38.7463593  37.9970095   3.7130934  70.0237656
  37.0638070   3.5011011  70.0444078  38.3630774   3.2568651  70.7814455
  35.3989357  25.0284487  47.6007843  35.6349534  24.8162943  46.6977215
  35.5941090  24.2310339  48.0929947  90.8348378  60.2234507  39.8973775
  90.1975994  59.7109890  40.3949118  91.2400024  59.5909643  39.3040514
  19.5114532  12.5615603  18.9770293  20.1191476  11.8237883  18.9256918
  19.4283775  12.7386767  19.9140239  84.6035828  67.2439766  50.9053469
  84.7051992  66.2999821  50.7837963  84.8241146  67.6202869  50.0532961
   1.5116832   6.9689331  46.2654964   1.1475608   6.1000642  46.4349596
   1.0359737   7.2821054  45.4961769   2.5158018  51.8710470  69.3606949
   2.2798361  52.3126411  70.1765013   1.6870099  51.7762041  68.8912868
  12.4235332  88.7334538  13.8728654  11.5980947  88.5013580  13.4474099
  12.3174810  88.4397602  14.7777009  16.2761974  62.3139048  27.3440886
  15.7965040  62.9898882  27.8228068  17.1034408  62.2264242  27.8176379
  74.3412878  59.6655750  44.1471672  74.1443195  58.7819290  43.8363647
  73.7115659  59.8175335  44.8518562  28.5404980   0.1089197  18.1120336
  29.3005355   0.5067736  18.5366321  27.7889305   0.5672842  18.4879041
  48.6282063  86.3742733  40.0496817  48.3072519  86.6271591  39.1840792
  48.6826324  87.1975899  40.5348873  15.3366029  69.7188997  23.0477858
  15.0863671  70.5419588  23.4675241  16.2828064  69.6605158  23.1801629
  10.0304988   7.1714026  27.9437733   9.6978358   6.8028456  28.7621403
  10.4566196   7.9878908  28.2045579  73.1392636  70.7424450  43.1100750
  72.6440658  71.5506172  43.2437372  72.4940075  70.0446081  43.2236528
  31.9860163   1.2602240  18.6654818  31.4847002   1.9048888  19.1647983
  32.4336040   1.7735869  17.9929090  37.3179534   4.6597773  18.4445834
  36.8541101   4.5780283  17.6112771  36.7509899   5.2139574  18.9809322
  29.6475865   3.7408263  24.9956203  28.7983427   3.9098078  24.5876193
  29.4359425   3.2784373  25.8065629  35.2269745  73.2513714  30.2997255
  34.5418096  73.7747908  29.8840165  34.7543049  72.5475931  30.7441449
  25.6930052  55.4875526  75.7376142  26.0922777  55.5229625  74.8683847
  25.0991784  56.2379703  75.7591686  90.4836874  44.4035387  36.0708046
  90.4725440  45.2807856  35.6879830  89.8584591  44.4499016  36.7941117
  10.0515130   9.7770220  56.9146395   9.8929647  10.1733404  56.0578871
   9.1973570   9.4392973  57.1840763  29.6169233  58.5535955  10.5086124
  30.0799012  59.1976643   9.9728322  29.4826078  57.8077602   9.9238718
  32.3395467  78.2092810   8.9521533  32.0446110  78.5075331   8.0917525
  31.9280839  78.8142443   9.5693636  34.1826415  79.0256834  55.6584835
  34.5671105  78.1501865  55.7022572  33.3467579  78.9434290  56.1175776
  18.6015880  66.4753914  66.7618799  19.1952467  65.8356762  67.1550226
  17.8937829  66.5687656  67.3994732  67.0985219  32.1802375   5.5409225
  66.1657149  32.3758742   5.4524406  67.2565162  32.1886727   6.4849551
  31.6240287  29.8078012  43.3010292  31.4497709  28.8667536  43.3182001
  32.5664639  29.8741031  43.1472349   9.3330210  60.7598257  42.8937817
   8.7083173  60.1031065  42.5860453   9.6429855  61.1880112  42.0957756
  51.9401789  80.6489086  28.1919050  52.0642471  80.0056076  27.4940467
  51.0429716  80.9607124  28.0734921   5.1725161  77.7781057  60.0987148
   6.0804462  77.7599621  59.7961140   5.2388293  77.8382921  61.0517120
   7.2808385  62.9120350  27.1364927   7.2929353  62.3882294  27.9375601
   6.3968456  63.2776165  27.1026945  56.8593073  28.5107422  60.6181765
  57.4921751  29.1292191  60.2532148  56.0959339  28.5831046  60.0452375
  11.8664336  77.7077103  46.3778448  11.0091805  77.2878647  46.3065815
  11.9721127  77.8791571  47.3136187  78.4500565  64.3525982  34.6715641
  78.9008560  63.6978483  34.1383529  77.7666046  64.6992636  34.0980220
   3.1749818  73.5257101  48.1014442   3.6877152  74.3157339  48.2723141
   2.9907352  73.1673050  48.9696789  60.3136066  24.9868590  39.9371600
  60.0409249  25.8669192  39.6775961  60.0918892  24.9318034  40.8666992
  92.1629067  79.4988441  36.2388372  91.9859723  78.9109850  35.5044341
  93.0476731  79.8258543  36.0760927  74.2959239  66.2001896  47.7594280
  75.0937392  66.0368109  47.2564077  73.6194458  65.6976414  47.3054981
   2.5993708  53.0450344  52.0180225   2.6232192  52.6898813  52.9065752
   2.1903175  52.3553371  51.4953136  17.6753521  33.3195424  54.0357590
  16.7776978  33.1897020  53.7298346  18.1173444  32.4936676  53.8387728
  13.6050236  42.5099468  36.6453552  13.1666553  41.6646528  36.5476799
  13.7463725  42.5989580  37.5878668  17.9713821  62.9148626  54.6744967
  18.2122028  63.0625534  55.5890608  18.8076174  62.8118706  54.2202520
  60.5598797  84.7880936  34.5641041  60.2782526  84.5032978  33.6947346
  60.0258722  84.2735672  35.1693559  79.2909004  84.0244484  15.9478021
  79.9441220  83.7868595  16.6058946  78.4692170  83.6692810  16.2868094
  73.3870568  53.3459520  29.6938348  72.9279627  54.1404104  29.4212508
  72.7521815  52.8760052  30.2344918  91.7201008  79.8789263  20.2723098
  91.7916318  80.5274487  20.9726954  92.6232474  79.6139812  20.0980592
  87.2108122  59.6940660  12.3012626  87.3460831  60.0872993  13.1634140
  88.0648406  59.7554350  11.8733597  85.6841882  66.4458847  66.7351961
  85.6119951  66.7573261  65.8329630  85.3900280  67.1847630  67.2678900
  56.5183261   5.9013754  19.7744000  56.5418914   5.4592902  20.6230712
  55.7854131   6.5131861  19.8433089   7.3649478  43.6990929   4.4422579
   7.3552412  44.5283890   3.9643335   6.4655334  43.5901260   4.7511455
  25.3628778  83.8839722  18.7701905  26.0051823  83.2396412  18.4726763
  25.0765657  84.3239594  17.9697740  86.4112336  23.8350579   5.3984912
  87.1605331  24.4152972   5.2639373  86.7145640  22.9784772   5.0976832
  39.1118339  13.3481222  20.6269598  39.5500919  13.1146246  21.4452744
  39.2376909  12.5858408  20.0618792  27.7831173  88.5452938  21.2403417
  27.0651960  87.9841805  21.5335417  27.3544335  89.3498135  20.9484243
   2.3309666  62.8056908  14.4590986   2.3731524  63.7449646  14.6385944
   3.1419748  62.6152754  13.9876771  30.4902697  86.1539650  57.7033043
  30.5900311  86.8892193  57.0985889  31.3628244  85.7633781  57.7514744
  39.2775416  64.4621086  35.7543159  38.7342095  64.3258667  34.9781322
  39.4744468  65.3988123  35.7474327  11.4545977  64.7577047  29.7522449
  11.1276984  65.2006149  30.5353141  11.4715981  65.4397106  29.0808201
  52.4825171   6.8266684  56.6468096  51.6861227   7.3444468  56.7646456
  52.9715994   7.2907645  55.9673643  14.8294318  53.5784054  60.4729366
  15.6474876  53.1180811  60.2855349  14.3913317  53.0321884  61.1255836
  26.6149801   7.2239024  48.6883450  25.7087776   6.9400793  48.8086653
  26.7665085   7.8485495  49.3976307  50.3717652   2.3423296  54.5427799
  51.2816599   2.0831782  54.6882629  50.1021817   1.8464667  53.7696838
  70.7410850  81.6322803  31.8317962  70.7257022  82.1204662  31.0085917
  71.5804424  81.8616867  32.2306514  26.4494565  18.6080080  76.2637472
  27.2734797  18.8049799  76.7091942  25.7730958  18.9453131  76.8511057
  25.4351425  87.7870655  30.1148367  26.1813617  87.6354885  29.5348263
  25.8282185  87.9660130  30.9690619  82.8301226  37.5249252  62.1805148
  83.3657705  36.8589458  61.7494790  82.5506269  38.1035385  61.4710681
  26.3522077  60.5893660  12.5609040  25.5034804  60.2323771  12.8225362
  26.3447857  61.4889193  12.8879821  84.3782206  57.9067945  36.0799813
  85.1649245  58.1544733  35.5941987  83.9873197  58.7398243  36.3435960
  11.5624595  44.6138668  52.3530674  11.0612941  44.9083853  51.5925932
  12.3958886  45.0798035  52.2857428  74.1318678  66.9496402  71.3455836
  73.9204179  67.8473529  71.6017572  74.5855616  66.5843639  72.1051685
  75.2434458  84.6134472  38.9782619  75.6567123  84.1441059  39.7029424
  74.5516660  84.0252495  38.6754560  27.4354362  49.3046331  13.5710990
  26.6980648  49.8520994  13.3012986  27.1101213  48.8222980  14.3312013
  26.0671902  75.6920147  52.9141808  26.8071246  75.5273581  53.4986591
  25.4885054  74.9404764  53.0428123  36.8117476  37.8685760  20.5350780
  35.9303331  37.9715085  20.1762676  36.8945551  36.9295502  20.7012296
  12.9170930  79.1441536  27.5952435  12.7242470  80.0677109  27.7567530
  13.5532796  79.1538191  26.8801188  11.7785358  71.7202568  58.0269957
  12.4442971  72.3407316  57.7303457  11.2020814  71.6079140  57.2711468
  57.6973465  10.3007227  34.7883439  56.7969230  10.0099951  34.6436119
  58.1960300   9.4908911  34.8966122  92.7844808  81.5476894  28.2938170
  92.2700772  81.2564754  27.5409436  92.7222027  82.5025940  28.2715249
  10.6754506  68.9311934  34.5560217  11.4511096  68.3735704  34.4956684
  10.2381861  68.8255405  33.7111139  18.8230598  73.3661604  33.2181025
  18.2241309  73.7275934  32.5647402  19.5927238  73.9337873  33.1774569
  14.6392500  74.8946333  18.5935104  14.8176515  74.5979452  17.7011096
  14.0062559  74.2624998  18.9340329  37.5753233   4.4401366  21.9722176
  38.0247262   5.2494627  22.2156715  36.8548218   4.7258955  21.4105678
  30.2660418  44.3972492  62.8653526  29.5439363  44.2368650  63.4728670
  30.5577207  45.2858305  63.0692577  87.3409751  -0.2496332  34.5653129
  87.6127055  -0.1827902  33.6499286  87.0559362   0.6346136  34.7957301
  11.2239435   3.5850817  12.3433995  11.4316300   3.5745436  11.4090621
  10.2692369   3.5249049  12.3772371  12.1263766  84.5117855  42.6195717
  13.0711174  84.5337486  42.7719307  11.8586183  83.6370182  42.9012251
  67.3281908  84.7063828  22.3831105  67.8034639  85.5359650  22.3367429
  66.4283371  84.9324131  22.1477342  65.7334641   7.1467310  24.9552393
  65.9991697   8.0547434  25.1006961  66.4913300   6.6289622  25.2268696
  56.8748978  33.6336047  20.6755686  56.0606364  33.7343508  20.1825547
  56.7154315  32.8855711  21.2511110  26.5983510  66.9134903  32.0695758
  25.9072614  66.4239597  32.5156522  26.7896628  66.3978577  31.2861514
  85.8672670   0.7300288  63.5383749  85.9006646   1.6852003  63.4858561
  84.9910262   0.5035120  63.2267284  66.6988066  27.8629595  62.2032022
  66.6359332  28.0730921  61.2714720  65.8377603  27.5102907  62.4278259
  50.0014392  14.2805964  55.9452391  50.3510490  14.0106684  55.0960398
  50.2481762  13.5736281  56.5415144  63.4093025   1.7738158  40.2253532
  63.6239031   1.1009318  40.8714247  62.5703338   1.4947993  39.8585844
  58.4490061  71.4173222  20.8591485  57.7598238  70.8109045  20.5880022
  58.1338978  72.2775412  20.5817199  22.7571225  42.9441547  30.4041910
  22.5767303  42.3124027  31.1003089  23.2203865  42.4387455  29.7362232
  73.8249129  72.6211688   3.7914546  72.9344482  72.9407164   3.6458858
  74.2446310  73.3088061   4.3083938  36.4763284  80.1450348  22.3965001
  37.3091292  80.5406666  22.1392965  36.7149496  79.2802143  22.7302289
  36.0852167  16.5796381  35.3334141  36.5711931  16.3913065  34.5305514
  35.1785684  16.6855723  35.0453210  10.7195592  80.9803295  10.8992088
   9.8598498  81.3795280  11.0325158  11.1516750  81.5493298  10.2622283
  75.5423403  60.3136349  68.3935022  75.8605766  61.2157631  68.4270859
  75.6386518  60.0596952  67.4756432  74.8104157  82.6154900  42.1714687
  74.6130766  83.3296680  42.7774763  74.3278803  81.8657112  42.5196362
  26.8731046  52.6218367  66.2981510  27.0849895  53.1961203  67.0340395
  26.3709497  53.1748533  65.6996202  45.6055775  28.3630949  49.3381596
  44.9105778  28.9301020  49.0039206  46.1980871  28.2471663  48.5953760
   3.3318239  78.6222982  31.9246030   2.8706864  78.0650139  31.2976909
   3.9688614  78.0403471  32.3390293  83.6696794  69.8076153  40.8339119
  83.2247235  70.5799103  40.4849052  84.4402089  69.7024918  40.2758217
  81.4605716  23.1958586  54.7400141  81.4219335  23.8216025  54.0166950
  81.9487336  23.6519915  55.4254913  85.0457700   3.6749086  26.8508196
  84.6942701   4.2811537  27.5028515  84.3270930   3.5457018  26.2319160
  30.6352711  57.2161865  31.1739993  29.8688364  56.9326305  31.6724014
  31.3003659  56.5533066  31.3596439  19.9801004  79.3290567  47.9893494
  19.8600793  80.2588081  48.1827402  19.5171201  79.1947126  47.1624088
  76.6564109  74.4616270  52.2887754  77.5027110  74.8907566  52.4146986
  76.0127654  75.1197577  52.5511026  49.5875206  87.8416252  20.4061007
  49.9941864  87.7212238  21.2642145  48.6515798  87.7196503  20.5653667
  92.2591260   3.0990893  46.9826126  92.3898986   2.1846396  46.7317867
  91.8843416   3.0549151  47.8622818  58.5819510  25.3386122  30.0119448
  58.5736016  26.1566645  29.5149946  57.8331545  24.8463351  29.6755004
  46.9357065  24.1642290  73.4350681  46.3285855  24.4599253  72.7566862
  47.5906065  24.8601443  73.4902430  15.3041577  64.5876026  37.9982018
  15.7042718  64.8478985  37.1685100  15.0219893  65.4108810  38.3967328
  19.6719885  69.7709417  36.2114286  18.9904499  69.3099260  35.7223463
  20.3673887  69.1225910  36.3222933  78.9076768  19.9314031  69.4075934
  78.4629511  19.1044721  69.2214863  78.2085847  20.5210218  69.6901791
  54.8093224  82.8617764  12.8462648  55.2977657  83.5391426  12.3784769
  54.5092630  82.2657585  12.1600008  23.0143571  53.6115456  66.0647345
  23.8641357  53.6764336  65.6289625  22.5676680  54.4281244  65.8413553
   4.6120089  77.2518873  16.8547082   5.4443467  77.6113129  17.1617246
   4.7839794  76.3178778  16.7351997  35.0628376  63.4821081  35.5594563
  34.5207644  63.3393955  36.3353586  34.8554349  62.7460861  34.9837041
  68.0555228  30.5470568  23.8794184  68.7681320  29.9265295  24.0322828
  67.3602489  30.0208002  23.4845948  32.5678635  83.5054302  14.9691212
  31.9684386  83.6148453  15.7073271  33.4375596  83.4818268  15.3682494
  43.1833723  10.1844126  22.3346233  43.1066099   9.7244841  21.4986825
  43.5361162   9.5293719  22.9368901  34.9883869  12.2027785  44.3062830
  35.5590382  12.0892626  43.5462141  35.5004785  11.8679339  45.0424004
  85.2755054  70.0486183  50.7584667  86.1354621  70.2077579  51.1475468
  85.1312347  69.1092300  50.8723259   9.9036252  65.2522135  55.1918268
   9.2631143  65.8121014  54.7530794  10.7253587  65.4217911  54.7311449
  46.2242237  12.0894820  28.6532593  46.5032855  13.0049902  28.6391830
  47.0376590  11.5924460  28.7399268   5.8224341  54.8124275  74.5120211
   6.7082044  55.1752147  74.5070766   5.6263062  54.6719703  75.4383246
  18.8880431  32.0017299  61.8323509  18.2630287  32.2208175  62.5234262
  18.3676850  32.0049820  61.0289542  11.0464919  70.5543995  53.1010723
  11.3743937  69.7009897  52.8175211  10.1863885  70.6298637  52.6878405
  33.0206958  38.8128191  42.9015493  33.9310417  38.6745173  42.6400661
  32.9866369  39.7295386  43.1748629   0.4165666  32.3665330   8.1373389
  -0.3480394  31.8031070   8.2563384   0.5132191  32.8192326   8.9751704
  82.9528858  63.9475346  24.8807049  83.4244742  64.7443056  25.1235843
  83.4586742  63.2390738  25.2788234  34.5506430  65.6802273  37.7458239
  33.7422132  65.5196571  37.2591114  34.3728423  65.3424549  38.6236215
  34.2116237  75.7761431  12.7254105  33.7486053  76.5831137  12.5003767
  34.0325832  75.6491280  13.6570990  47.7586106  19.6235377  19.5412302
  47.9095379  20.5562025  19.6948218  46.8133882  19.5136458  19.6447134
   7.2740048  76.3930178   8.7405491   6.6899168  75.7908916   8.2795501
   6.6896123  77.0466995   9.1244972  53.6141243  83.4416008  44.8824263
  53.4021082  83.4077644  45.8152390  53.2259216  82.6454544  44.5195389
  46.5273228  13.8551146  25.3158236  46.8603423  14.1931063  24.4845057
  45.9822312  14.5623022  25.6607699  83.0992653  81.5696239   6.5971386
  82.3620166  81.5234375   5.9884000  82.8934350  80.9228802   7.2721106
  36.5343103  24.8563391  32.5584960  36.8530139  25.4831225  31.9090366
  36.7835853  25.2365977  33.4008121  85.2493950  74.6315384  66.9397974
  85.0180395  74.9637794  66.0724354  86.1795547  74.8366117  67.0345640
  33.0419779  86.2870598  38.3994675  32.4279976  86.9762516  38.1459355
  32.9835510  85.6428146  37.6939392  21.6814709  75.6575537  46.4912796
  22.1155715  74.8204136  46.3269997  20.8062768  75.4178095  46.7958879
  87.2843491  32.4341259  72.1145160  87.2442495  32.6629552  73.0430965
  86.3686644  32.3480901  71.8492816  52.9306701   0.9566122  49.3638277
  52.7343634   0.0262362  49.2538786  52.4239543   1.2191302  50.1323032
  10.7762468  87.0897102  21.7322946  10.8837485  86.8115711  20.8227277
  11.5662801  86.7772675  22.1732664  16.1677051  37.3549485  49.7503042
  15.8145475  37.9833651  50.3800678  17.0735395  37.6336718  49.6161032
  66.4177289  33.7556672  59.1443443  65.4815545  33.7174630  58.9485121
  66.4637365  33.7301254  60.1000977  11.2311971  45.9766245  67.2499275
  11.6303551  46.2433577  66.4218235  11.1058593  46.7951822  67.7300167
  22.1490121  31.7468047  68.3730793  21.5402460  31.9027567  69.0951014
  22.1132421  32.5490212  67.8521204  91.1934762  46.2669086  30.2633619
  90.2577435  46.1838818  30.4470539  91.2710758  47.0913219  29.7832036
  74.4654583  76.5033179  34.0874743  74.4692134  75.7887131  34.7243094
  74.8767363  77.2355622  34.5467138  68.7952106  17.6809654  62.0590238
  69.0866791  17.5086698  61.1637072  67.8399138  17.6973114  62.0009498
  17.3095286  57.1929455  34.2133045  17.5440311  56.4294910  34.7409201
  16.3883889  57.0569515  33.9914083  33.1900883  50.8523083   4.0857580
  33.0189729  49.9108791   4.0600365  32.8298068  51.1383867   4.9251565
  11.1534595  77.9766703  32.0874190  11.4629269  77.1550083  32.4686503
  11.7682755  78.1573391  31.3763690  82.9911353  73.2880449  26.6281343
  83.6817922  72.7422285  27.0040488  82.1786298  72.9167652  26.9719672
  60.8329156  33.0458221  68.3573948  60.9074234  33.9999065  68.3372788
  61.1251346  32.7644262  67.4904124  79.4478880   6.6682729  73.9323996
  79.3747853   7.6128349  74.0690966  80.3756403   6.4773759  74.0704842
  84.5746793  62.5667477  18.9206040  85.0270077  63.2957602  19.3450737
  84.3274172  61.9864702  19.6405840  23.6416674  62.6359224  11.8762445
  23.0104733  63.0946302  12.4306941  24.4590545  62.6594687  12.3737931
  13.7308490  15.1787221  37.2309446  13.5823894  14.4802690  36.5934849
  14.5838225  15.5424070  36.9934583  17.4634337  31.3280845  64.5079708
  17.9213023  31.1882019  65.3368378  16.5361583  31.3377881  64.7452402
  81.8207731  62.7864599  43.3811331  81.6438987  63.5033035  43.9902973
  82.4379732  62.2226715  43.8474369   5.1236624  32.6657557  22.4781561
   5.0790542  32.7017617  21.5226746   5.8464056  33.2503796  22.7063847
  25.2565289  39.3939066  29.3010926  24.4654560  39.8680997  29.0450144
  24.9339557  38.6335564  29.7848797  20.2552724  15.3315449  10.2334571
  20.3347850  16.2195420   9.8850745  19.3146992  15.2074504  10.3605556
  92.6838206  86.5735149  58.6560869  92.3576960  87.4137020  58.3336544
  93.3437127  86.3105679  58.0145025  16.8945956  47.6859951  10.7973814
  16.3778877  48.4167910  10.4579949  16.5128863  46.9109774  10.3852165
  72.2640791  61.7621899  28.7133241  72.4399175  62.5031281  29.2932606
  72.2089805  62.1495962  27.8397584  74.5319678  34.1636395  40.9601164
  73.6531820  33.7886596  41.0180712  74.4806053  34.7828770  40.2320099
  81.2653171  12.9228792  29.1983811  82.1589600  12.5946006  29.2977158
  80.7391511  12.1398649  29.0362899  52.7921581  36.8133402  49.1696072
  53.5899782  36.5281987  49.6150398  53.0005693  37.6881027  48.8416004
  34.7774386  34.2189932  19.5853150  34.5467257  33.8940191  20.4555988
  33.9547920  34.5545435  19.2290962   7.1133882  88.2161808  27.5791955
   8.0240315  87.9446602  27.4641562   6.8373907  88.5036087  26.7088842
  92.6654087  71.6382647  39.0879321  92.1835574  70.8584309  38.8124132
  93.5866783  71.3896656  39.0124774  45.7942200  20.9972787  14.4648612
  46.2748384  20.1844740  14.3080640  44.8899746  20.7172585  14.6068645
   6.3100100  55.3477383   3.1341970   6.2800449  56.2885427   3.3080336
   5.7375807  54.9631643   3.7980181  89.0763928  36.9363379   4.0124613
  89.7674282  36.2739921   4.0123835  88.7967380  36.9908118   3.0986467
  77.0139815  47.3071527   6.7599136  77.4766554  46.5833235   6.3377321
  77.2365715  47.2252798   7.6872659  90.2197831  34.9061966  24.8328948
  89.2731737  34.9136353  24.9746943  90.5522879  34.2729402  25.4690218
  32.5872421  21.3896346  28.7348604  33.2300425  20.6856775  28.6483502
  32.9831719  22.1327853  28.2796717  12.6174486  42.1443176  52.6008701
  12.5470018  43.0835772  52.4304152  11.8467236  41.9384241  53.1298542
  24.4048977  28.8644743   9.2083478  24.4688249  28.8690710  10.1634002
  23.8918352  29.6449399   8.9988846  88.0269124  45.4825592  18.5202825
  88.1850227  45.4279041  17.5778151  87.5773742  44.6653557  18.7355161
   5.3404677  64.9057674  48.9009523   6.2802225  64.9362612  48.7216139
   4.9505892  64.5956802  48.0835962  12.8053260  54.5157671   2.4660933
  13.6460412  54.2658615   2.8494686  12.4715471  53.7088442   2.0740446
  82.8458132  50.4510117  46.5107203  83.5885801  50.2232170  47.0698595
  82.2579970  50.9445858  47.0826340  71.6680684  31.4355731  15.8169353
  71.4977040  31.4365172  14.8750186  71.8149581  32.3560286  16.0346878
  91.6183778  62.2580624  17.8421152  92.5560889  62.1603012  17.6766682
  91.5570684  62.4227047  18.7830544  17.7323508  37.9394555  23.2436419
  17.5341833  38.5560250  23.9484859  18.6858547  37.9654455  23.1637216
  32.8643179  51.2569952  38.8023925  33.4059811  51.7898989  39.3844986
  33.2798171  51.3418293  37.9442549  86.1568721  61.1108017  23.5947728
  86.4465161  60.9695196  24.4960928  86.4939549  61.9774961  23.3679438
  94.2179751  69.5280933  70.0064707  94.4306472  69.2743826  69.1083384
  94.0831565  70.4747248  69.9623966  79.6784403  62.0960522   4.5178422
  79.9391498  62.9878378   4.2876688  80.3924384  61.7719316   5.0668281
  88.2687565  54.2580891  16.2264681  87.7759196  54.3580914  15.4120088
  87.7640953  54.7505474  16.8737972  45.1946974  68.8370609  24.2092252
  44.7679996  69.3825674  24.8699689  44.6515131  68.0503893  24.1609406
  18.1687856  76.3549995  15.6071770  17.9249930  75.4294491  15.5949306
  18.6964452  76.4741659  14.8174882  91.6751017  41.5738916  50.2890301
  92.3215308  42.2773314  50.2295685  91.4856290  41.5011692  51.2244701
  84.6345814  41.7308950  20.6256461  85.4068144  41.9537544  21.1454749
  84.9858459  41.2916899  19.8510861  89.4857096  55.0281811  24.7990894
  88.9410343  54.9866724  25.5851150  89.8344769  54.1420507  24.7023010
  87.7910467  58.3480406  40.1582146  87.2708042  57.7439451  39.6284533
  88.4546783  57.7947664  40.5701780  44.7718382   5.4814619  25.4667616
  44.8267365   5.3044248  26.4058447  45.6577873   5.3228390  25.1409340
  67.7634155  24.0526161  67.4512170  68.5119783  24.3210086  67.9839919
  67.0043539  24.4255170  67.8995470  73.2087548  86.0209039  75.8797738
  72.3452361  86.3800147  76.0837513  73.4525235  86.4380172  75.0534419
  31.4409137  60.9771204   9.7945189  30.6281447  61.1597443   9.3230456
  31.6644239  61.8065691  10.2167630   3.5283154  55.6645441  15.7601070
   3.1044084  54.8108339  15.8479047   3.0954257  56.2151384  16.4125526
  15.6296766  13.9137900  32.8157020  15.1580155  13.5164785  32.0836425
  14.9421239  14.2683661  33.3794212  93.0991160  23.7768039  52.6677291
  92.3395621  24.0345106  53.1901233  92.8441345  23.9660987  51.7647426
  19.6253622  45.0465393  14.8818493  18.7012529  44.7970533  14.8850799
  20.0761771  44.2907524  14.5053041  41.7799091  48.2496119  36.5209389
  41.5741110  48.4562874  37.4326205  41.9683456  49.0979767  36.1196852
  66.5031427   0.2315041   1.3670047  66.1809930   1.1304614   1.3012298
  67.1142841   0.2493712   2.1034988  33.2686090  65.3532410  27.6668835
  33.7938786  65.7933521  26.9985819  32.5807548  65.9825706  27.8837466
  53.6973667  64.0113449  37.0217991  53.4041500  64.2973232  36.1566544
  54.6511555  64.0845490  36.9877386  43.7656546  46.0957575  18.7288094
  44.3774891  45.3703499  18.8540173  43.5668182  46.0824966  17.7925825
  41.4938934  76.4502743  68.7123303  41.7994650  76.4021352  67.8064935
  42.0378645  77.1284202  69.1128866  75.8678450  47.5342751  18.6734521
  75.0444223  48.0217123  18.6487103  75.8396699  46.9768715  17.8958046
  47.4775410  44.2513561  29.4620371  46.6050339  43.9977264  29.7630978
  47.3297501  45.0346661  28.9321160  65.0022878  67.0014477  49.3334055
  65.9558024  67.0776367  49.2982244  64.8188128  66.6993237  50.2229500
  66.7987731   3.9081389  25.4614353  66.1172107   3.4461600  24.9733019
  66.6377118   3.6757571  26.3759232  73.7814321  45.6893492   0.9704967
  74.4284727  46.1269617   0.4172647  73.3364238  45.0795031   0.3820380
  92.0062544  46.5758133  46.4714146  92.7836003  47.0732832  46.7253637
  92.2041435  46.2548637  45.5916071   7.7476662  20.9203243   7.8968060
   8.4788775  21.3290548   7.4336642   6.9673383  21.3194036   7.5120264
  20.0788569  24.4444990  33.3395028  19.8796451  24.3329120  34.2690706
  21.0083079  24.2278051  33.2660460  39.2493439  63.6062670  17.4261177
  38.8913488  62.8388262  16.9798982  38.4996939  63.9903021  17.8808427
   8.8712764  53.6403370   9.8263586   8.7529546  53.8164663   8.8929713
   8.0117458  53.3431196  10.1248562  25.5427003  54.1035604  37.0338607
  26.0587311  53.3009005  36.9584560  26.1028838  54.7843456  36.6610956
   9.2706966  53.1453276   0.2943694   8.3353770  52.9605436   0.3796069
   9.4802141  53.6790705   1.0608239  59.4943892  36.4514217  76.1770572
  59.6515583  36.6585598  77.0982668  60.1906734  35.8359108  75.9477884
  34.3443883  83.3004656   1.8439468  34.7778762  82.4471655   1.8580564
  35.0620970  83.9338007   1.8472703  25.5393267  22.8209424  37.2880673
  25.5255604  22.4663520  38.1770611  26.1249828  23.5762501  37.3405170
  19.4648337  48.6796761  33.3298349  19.4318378  49.6126556  33.5412240
  19.3166292  48.6428022  32.3848987  85.1467605  27.7695990  26.3169622
  86.0528638  27.5021911  26.4709187  84.7260102  26.9911313  25.9520125
   2.3532207  54.9405384   7.7470505   1.6070406  55.1762056   8.2983285
   2.3978001  55.6382418   7.0932537  22.2677064  34.7638178   8.6779648
  21.7765212  35.5286717   8.3780164  21.6731405  34.0270114   8.5371166
  87.5841620  76.3261604  13.2814503  86.9031032  76.9535732  13.5238266
  88.1519755  76.8090963  12.6809573  73.0937543  29.8512864  12.0742548
  72.3821177  29.9502158  12.7067244  73.4825768  30.7237935  12.0127857
  43.0114122  84.8116782  74.2025049  43.4931310  85.5931762  73.9315112
  42.6909526  84.4321230  73.3842893  17.3206556  46.8330622  40.8119869
  17.3551178  47.7733040  40.6359482  16.7535627  46.7536259  41.5790129
   4.5440292  67.5356627  44.2706299   3.9914593  67.4026203  43.5004377
   4.1420937  68.2734871  44.7292089  69.4888534  39.7231913  15.8238626
  68.5795250  39.4753146  15.9909272  69.5622148  40.6124687  16.1703181
  15.1753414  30.8380723  16.0623014  15.0775135  30.6737304  17.0002007
  14.3943858  31.3375926  15.8239305  29.2678523  59.0767384  52.1541405
  28.6607265  59.0002108  51.4180899  30.1280880  58.8970661  51.7747402
  76.9154265  56.7854166  28.8386798  77.3253491  57.6382303  28.9832664
  76.0354318  56.8776703  29.2038250  37.5573380  68.9387444  66.7120723
  36.6257747  68.7433508  66.6108648  37.8058239  68.5046604  67.5281964
  19.7764823  28.1656274  59.8828213  20.4757687  27.6760397  60.3158705
  19.0837666  28.2263145  60.5406157  79.5171891   1.5574226  70.7016734
  80.3035854   1.6836557  71.2325947  78.8012372   1.8662509  71.2568907
  86.5596118  81.2846947  34.5358419  87.4015721  81.1125088  34.9573755
  85.9115763  80.9141445  35.1349878  94.1100139  51.6010189  12.1421409
  93.7191092  51.8825769  12.9692745  94.0318988  52.3633385  11.5685546
  36.2732715   1.7576987  15.0412178  35.5733013   1.1103636  14.9562263
  36.8845871   1.3687235  15.6666934  85.2874647  26.0733661  47.4520556
  85.5831777  25.2347049  47.8062169  85.9542214  26.7002687  47.7325193
   5.2531075  47.5484419  21.1569238   4.5244908  48.1031322  21.4356089
   5.9662467  47.7712584  21.7552686  36.1590958  53.7463188  23.6853576
  35.4416800  53.7124443  24.3181252  36.6874743  54.4949293  23.9621782
   9.6899283  47.2298098  10.0549805   9.3345308  46.4695787   9.5945758
   9.3430811  47.1551228  10.9439981  79.7757735  51.0666180  27.2382426
  78.8311519  50.9459925  27.3350549  80.0616898  50.3133726  26.7214155
  70.2760212  27.2501573  72.1248059  70.0648861  26.3965759  72.5030265
  71.2247031  27.2284565  71.9992561  15.4848254  62.4024057  53.7872601
  15.5657077  62.3390532  52.8355885  16.3756526  62.2725439  54.1125202
  43.6801052  71.1269999  14.7150159  44.4077635  70.5176687  14.5906508
  43.8825130  71.8628740  14.1373014  28.2538342  47.0125246  20.9446383
  27.7800035  46.1891937  21.0623002  29.0230107  46.7743492  20.4270720
  38.6341691  40.1062632  26.2426734  38.7561798  39.2610765  26.6751146
  38.9921451  39.9796271  25.3640103  87.0509919  70.6089926  17.0017922
  86.6270723  70.7668781  17.8453529  86.4865758  71.0465860  16.3644719
   2.7816394  48.1182480  32.2597551   3.0544996  47.2398806  32.5247931
   3.4949365  48.6877966  32.5479484  80.9648927  82.9933599  63.0789081
  81.3265307  83.5224083  63.7899343  81.6779120  82.9261401  62.4438362
  20.0683141  85.2089405  51.4277697  20.9042573  85.6088829  51.6675138
  19.9760270  84.4689083  52.0278215   4.5451686  76.4708138  46.3217354
   4.1337258  77.1978664  45.8544636   4.9056938  76.8687773  47.1141243
  56.0607719  37.3787618  14.8210788  55.4377079  37.2814465  15.5411863
  55.5930805  37.0495200  14.0535522  73.8351335  66.4681244   5.0445473
  73.4959759  67.1906805   5.5728626  74.2521753  66.8941450   4.2956725
  87.4371280  54.2677212  13.5070574  87.4220689  54.9280500  12.8142548
  88.0773785  53.6218500  13.2084632   4.6342552  59.2804766  21.3018894
   4.8289075  59.1139889  20.3795958   4.9875620  58.5193539  21.7624259
  80.7565211   5.8530101  70.6401448  81.1418032   5.0673589  71.0281388
  81.2550663   6.5766916  71.0195814  19.1090107  80.2429104  41.3824177
  18.6817729  80.5999947  40.6038332  18.4913445  79.5931149  41.7177963
  16.6832316  55.7420111   9.6120715  17.5731242  55.4278326   9.4520199
  16.7339635  56.1835432  10.4598367   4.9705285  85.7394791  25.9053016
   5.3637683  85.5246735  26.7511463   5.0303560  84.9284267  25.4004741
  84.6270927  73.9262199  19.8856616  83.8123121  73.4496164  20.0444531
  85.1967367  73.6757326  20.6129813  88.3221348  68.2861996  26.1362123
  87.9150285  68.2720852  27.0024085  88.3035858  69.2076826  25.8778358
  88.1929572  69.1873074   9.2285198  87.3622187  69.3281460   8.7743503
  88.6722185  70.0075102   9.1110224  28.3499026  71.7247534  15.4714584
  28.5741305  72.3808050  16.1314189  28.6288881  72.1137714  14.6425664
   8.9071745  75.6827736  51.3524008   9.6260321  76.2630653  51.1019230
   9.3391919  74.9030018  51.7010403  65.3088965  82.9992390  27.4436665
  66.0866918  82.6484680  27.8775144  65.5854549  83.1476116  26.5393806
  31.7012821  18.6951932  72.8358735  31.9374358  19.5462284  72.4668230
  32.2283994  18.6246595  73.6317394  17.4313354  51.3051844   9.8070717
  16.7284322  51.8647766  10.1372421  17.1849644  50.4226542  10.0839686
  45.8998680  83.1342793  36.5279984  45.5094290  82.8058243  35.7181215
  46.5132856  82.4490166  36.7932725  43.0047499  21.7630634  75.1269170
  43.5193788  22.5673732  75.0600633  43.2712482  21.2444124  74.3678297
  66.5887847  37.2452235  49.3462276  66.9352951  38.1107569  49.5630550
  67.3497834  36.7527056  49.0387583  18.6412549  63.5520792  57.3566341
  18.1436968  63.2897663  58.1311417  19.5503855  63.3474588  57.5753641
  46.6934851  23.1884390  27.5032187  47.1550790  23.8532645  26.9921684
  46.8001774  23.4683520  28.4123373  37.7376858   2.0163637  26.6454482
  37.6824328   2.8317839  27.1437168  38.6715892   1.8069273  26.6316462
  30.8476973  84.7201729  48.2772303  30.5072904  83.9715481  48.7670517
  30.2345896  84.8296070  47.5503540  41.1276722  68.7789345  49.9746370
  41.1593151  69.0012360  50.9051275  41.8861103  69.2236710  49.5962048
  11.9673359  36.9091582   8.8399327  11.2127626  36.6539598   8.3091551
  12.3267615  36.0813308   9.1589129  13.1101251  46.1105871  20.5869365
  13.8667977  46.6899633  20.4974914  12.9545116  46.0637474  21.5302420
   5.4971814  52.2478056  42.7305508   5.6647766  51.3724756  43.0797482
   6.1784172  52.3768902  42.0706367  75.9628453  81.6999054  50.6952810
  76.5068128  81.8297768  49.9184513  75.6264498  82.5721931  50.9006739
  21.0382366  80.1844788  12.5775063  20.2474785  79.9482489  12.0926082
  21.5114284  79.3588686  12.6808691  65.3465948  26.5823230  68.0578832
  64.8519118  25.9881744  67.4935178  65.2496951  27.4406490  67.6454256
  37.5667238  61.1541128  48.7300968  38.4459448  60.8703709  48.9804888
  37.4374795  60.7891273  47.8547049  25.7831621  61.7240286  22.0485973
  25.9920764  62.5330496  21.5816116  24.8949599  61.5066624  21.7656064
  84.3392160  27.7366590   2.4369122  85.1931932  27.3068547   2.4840614
  84.0628829  27.8211260   3.3494565  14.3054783  40.5750084  27.1847486
  13.7180161  40.3330088  26.4688182  14.5775986  41.4694309  26.9793534
  44.8240185  87.8615475  49.3713999  44.8789978  88.4199810  50.1468706
  44.7622490  86.9723988  49.7204447  77.9914172  73.3017185  72.6340441
  77.3116859  73.9591959  72.4859886  78.0185683  72.7979139  71.8206088
  17.0024717  74.1208887  14.5182049  16.7709351  74.6302271  13.7415469
  17.6836896  73.5200453  14.2162728  49.6524747  85.5804685  61.5440337
  50.1650270  86.2365440  61.0717086  48.7667628  85.9424308  61.5710513
  34.5826650  20.1855302  50.1621246  34.3386292  19.3242443  49.8232031
  35.4418588  20.0509191  50.5619955  79.2338790  38.2992244  32.2285700
  79.5147326  38.9857531  32.8335738  80.0318219  38.0495286  31.7625523
  72.4651017  74.0473318  62.1545506  72.2466816  74.4248199  61.3024807
  72.7965178  73.1726742  61.9511700  15.7990015  77.6693630  34.8796391
  16.4521325  77.9144955  34.2242312  15.2931142  78.4689617  35.0243759
  20.5266285  60.6880903  56.3603258  20.1244116  60.6031656  55.4958963
  19.7865164  60.7679033  56.9620705  93.0264795  86.8552876  36.0418296
  92.6631959  86.0062027  36.2934470  93.7740389  86.9787788  36.6267538
  64.9281210  14.7681198  56.6618387  65.7417934  14.8025713  57.1648113
  65.1903712  14.4320592  55.8047954  10.6916475  55.6513071  42.8228378
   9.7486925  55.6239605  42.9850721  10.9622335  54.7331619  42.8276682
  14.0936553  30.6619120  54.6857309  13.9089608  30.1385713  55.4656267
  14.1802609  30.0196481  53.9812946  28.2179499  63.2284498  31.8112278
  27.6281261  62.6984835  31.2750626  28.3865714  64.0083265  31.2824607
  37.5897408  63.8619518  33.3272314  37.8134465  62.9426384  33.4723020
  37.4234152  63.9224148  32.3865318  82.2827138  87.2990990  14.0775549
  81.3642397  87.1797276  14.3191898  82.4613633  86.5914726  13.4582198
  47.6441537   2.3233995  68.5748295  48.0644606   1.5335712  68.2346187
  47.5323044   2.8846464  67.8075455  15.9591508  43.7713003   7.4705380
  16.8317235  43.5735130   7.8107238  16.0773551  43.8203478   6.5219319
  20.5674863  72.2714186  54.0339613  20.2741814  73.0111456  54.5659494
  19.9814284  71.5545750  54.2766619   4.7327676  39.6182323   4.5246848
   5.6029773  40.0158978   4.4958824   4.7127828  39.1457248   5.3568912
  34.2538500  73.8021708  20.5936909  33.8671446  74.5803547  20.9950876
  35.1313329  73.7483168  20.9723163  31.2052941  69.3526363  40.1533461
  32.0773745  69.1613960  39.8081875  31.1764169  68.8991976  40.9958363
  92.8808696  63.0316210   7.1342158  93.4629481  62.9427242   6.3795549
  93.2490416  63.7586355   7.6363438  16.0440680  39.3422565  75.4101956
  16.2093446  39.8973045  74.6480713  16.2693450  39.8923168  76.1604736
  11.3363171  67.4853563  16.4518189  11.1349726  68.3614683  16.1230063
  10.5697322  66.9607782  16.2207425  77.5964179  41.3178825  10.9879005
  76.7079570  40.9865522  11.1186171  77.6544180  41.4830303  10.0468397
   9.1192353  32.9394913  35.2238274   8.2848155  32.7911878  34.7788763
   8.9449060  33.6640930  35.8244872  83.9709150   3.6401424  70.3895525
  83.8475596   3.8010273  69.4540684  84.1830503   4.4992790  70.7544051
  82.1427991  63.0864096   1.6157946  82.8941967  63.6570311   1.4544772
  82.2751894  62.7621412   2.5066116   0.6945676  85.5195427  28.0260229
   0.6344154  86.4606762  27.8620315   0.0030553  85.1375675  27.4855304
  25.7520795  48.0989408   0.3120261  26.0200691  47.3555517  -0.2281473
  24.8275208  48.2278538   0.1003486  81.4287128  57.6508427  47.1642256
  80.8949627  56.9415760  47.5223970  80.9660532  57.9218197  46.3712883
  16.0528946  67.7377033   8.0762547  15.3602958  67.5978374   7.4305171
  15.9226179  68.6373234   8.3761632  57.9932155  54.2155647  19.7523201
  57.9533543  53.4971762  20.3836393  57.8971233  53.7909031  18.8998771
  16.0627580  76.0472107   6.0375226  16.1438882  76.8104362   5.4655635
  15.2211297  76.1661530   6.4776897  18.4374440  50.9912109  23.3072925
  18.4865880  51.7795277  23.8480020  18.8755858  51.2327862  22.4912643
  82.1100699  16.9415769  74.6703596  81.9555877  17.5668916  73.9623026
  82.9621493  16.5555915  74.4673626   7.0226330  33.8511920  44.1966820
   6.6614068  33.6663485  45.0636196   7.7490556  34.4519258  44.3629932
  87.9215350  77.3712540  41.4508438  88.3476033  76.5794659  41.7791271
  88.4667619  77.6490068  40.7147646  61.7933491   5.1230627  10.6559002
  62.0671609   4.4142920  11.2380552  62.5709131   5.6742483  10.5674255
  13.6983740  48.5555696  29.1563106  13.9035141  49.0040159  29.9767041
  14.3136764  48.9233303  28.5219717  28.8969815  -0.0560659  24.6341085
  28.9862850   0.4534346  25.4395080  28.1253985   0.3110987  24.2027378
   6.2476942  35.5443916  57.7855603   6.9816157  35.8060798  58.3415381
   5.7488248  34.9281129  58.3218078  16.7949346   9.3990809  31.8849587
  17.0133463  10.2323443  32.3023367  16.3825420   8.8845068  32.5787759
  83.2420220  67.9240036   8.3558214  84.1357793  67.7262926   8.6357188
  82.7950539  67.0776320   8.3661330  93.3361260  46.1616373  43.8861561
  93.3503540  45.3682423  43.3508539  93.2238815  46.8735790  43.2562590
  40.1791811  64.9208975  12.0036101  39.6603322  65.1946068  12.7599895
  40.1692057  63.9644289  12.0397818   3.4776799  22.3065850   0.2632983
   2.8112547  22.0702979   0.9084924   3.2922093  23.2214352   0.0514300
  35.6750213  33.8445863  70.4118214  36.4842616  33.7089071  69.9189172
  35.2874194  34.6294508  70.0245414  51.0938600  12.9081351   5.5700809
  50.9947780  13.0479819   4.6283501  50.5180624  13.5593611   5.9708178
  35.3272869  83.9616588  67.7989636  35.6018992  83.0865005  67.5252543
  34.7667779  84.2703822  67.0870988  68.9552393  60.6630087  40.3383732
  68.4304776  60.9758377  41.0752535  69.4810881  61.4200640  40.0803375
  31.5527081  82.4088955  24.3657064  31.9698024  82.8015518  25.1325750
  32.2308159  82.4238205  23.6902952  16.3068020  74.7002840  55.3323507
  15.7685864  74.0296698  54.9118328  16.5777516  74.3050861  56.1609888
  85.7137122  60.7910490   4.4254673  86.5611591  60.3909731   4.6204183
  85.7479056  61.6458035   4.8549512  32.3730683  63.4904575  31.2219501
  33.1441569  63.3318233  30.6774426  31.6992640  62.9176950  30.8556747
  78.6381753  81.9983462  71.3393591  79.1270526  82.3117784  70.5784450
  78.4925302  81.0686615  71.1641280  11.9314623  62.4053240  30.9402156
  11.9709373  63.2401991  30.4736757  12.6207542  62.4676323  31.6014481
   1.2193350  32.0888543  16.0918069   1.3325071  32.0079565  15.1447690
   1.4177753  33.0063081  16.2792325  76.3065531  55.5137873  20.7099795
  75.6486394  55.1846790  20.0975513  75.8753802  55.4830933  21.5640163
  45.0067520  82.0940018  40.9555387  45.6597710  82.5458813  40.4211140
  44.6530437  81.4163876  40.3793812  10.3947282  81.9619465  51.7801237
  11.0915053  81.5946007  51.2362576  10.8221650  82.1649075  52.6121902
  87.4735679  53.3015251  28.1429505  86.8702837  53.0896711  27.4306321
  87.9878988  52.5037575  28.2664704  31.2012100  85.6461048  40.8501053
  31.9895911  85.6192970  41.3922930  31.5291858  85.6573200  39.9509168
  55.7310823   0.5039316  18.0745828  55.6377056  -0.3133291  18.5640848
  55.6837610   1.1891657  18.7412465   4.9772188  80.6669140  24.3945718
   4.6870422  80.7296181  25.3045702   4.5824143  79.8565531  24.0725803
  33.2113171  55.7156086  24.6512747  32.3248506  55.9783554  24.8990130
  33.3643007  56.1502600  23.8122845   1.8606006  68.4387016  34.2032433
   2.2498946  67.5806522  34.0346217   1.1275882  68.2577038  34.7916007
   1.6869698  76.4247036  43.7073517   0.9578155  75.9805727  44.1401529
   1.9729003  75.8115864  43.0301809   0.3141797  75.0201988  24.1431618
   0.6643143  74.7762108  23.2863617   0.8455274  74.5271254  24.7682881
   1.8448588  79.1522741  17.4466050   2.3710556  78.3902931  17.2042441
   1.5486535  79.5142365  16.6114533  91.5976950  66.3256550  37.3781347
  92.2018676  65.6659889  37.7187967  91.9243493  66.5185356  36.4993167
  22.3565602  53.1671095  16.9250965  21.5786600  53.1523848  16.3675213
  22.5930953  52.2456169  17.0306063  16.2050176  62.3523712  24.3243170
  16.2883186  61.4828682  23.9328384  16.4295757  62.2227097  25.2457237
  22.4993992  61.1262417   7.0903546  21.9001627  60.8499622   6.3969451
  23.3353710  61.2622070   6.6443735  16.8294632  70.1742744  37.3455787
  16.7805195  69.8842287  38.2564640  17.4028051  70.9404182  37.3686528
  91.2374030  18.3787450  70.6864916  91.7771350  17.6529560  70.3731934
  90.4081212  17.9705391  70.9352682  57.7306798   2.3437220  34.4944715
  58.1765393   1.4968973  34.4763660  57.7769736   2.6581293  33.5915661
  70.7600345  56.8637848  34.6301246  71.5561213  56.3353443  34.6869254
  70.7721510  57.4010229  35.4222465  42.4604845  55.4309797  43.4404898
  41.6956902  55.8651066  43.8184500  42.2285080  55.2938604  42.5220060
  92.7168772  53.9747524  52.9012966  92.2637403  54.2004871  53.7136650
  93.4285002  53.3968067  53.1766224  85.4973446  12.5484476  73.1241493
  85.7072412  12.2448024  74.0073101  84.5521342  12.6985464  73.1408097
  50.9370746  64.8709106  57.4103737  50.5287304  64.0304613  57.2026920
  50.8482494  65.3851414  56.6079330  74.1257146  17.2575384   4.7371617
  73.7381032  17.3446852   5.6080204  74.1756156  18.1543738   4.4063643
  13.6413646  49.7715092  13.1587064  14.4397593  49.2703009  13.3247936
  13.0910385  49.1815901  12.6435697  93.3366957  79.6550322  30.3888011
  93.2034889  78.7317467  30.1742601  93.2751918  80.1076794  29.5476317
  32.7149081  82.6384926   4.1427681  32.7882934  83.5346127   3.8144144
  33.4728479  82.5311470   4.7174323  68.4595465  32.2401294  68.4783773
  69.3614082  32.5415906  68.5879145  68.3203827  31.6321287  69.2044638
  65.8506908  78.5944986   7.7789903  65.3995575  78.7945700   8.5991615
  66.7541947  78.4161234   8.0399454  79.4167851  19.5472440  76.1680217
  80.2927839  19.6512088  76.5395741  79.5204197  19.7727451  75.2435538
  37.3898363  15.6636906  25.2756143  38.2164025  15.2344549  25.0547504
  36.9392967  15.0382185  25.8430910   7.3234624  42.3710680  32.7802396
   8.0726612  42.2837067  32.1909165   6.7456669  42.9958963  32.3420930
   5.9745413  77.4331379  29.8186326   6.7382425  76.8567085  29.7917056
   5.7252955  77.4574852  30.7424903  82.0961903  51.8796119  59.5122830
  82.5801121  51.4127597  60.1935331  81.5931069  51.1983070  59.0662281
  75.5111078   9.6852499  20.4227924  75.1765683  10.5707461  20.2806520
  76.1989024   9.7916704  21.0799384   2.4698721  40.3645658   8.1629306
   2.7032435  40.4982185   7.2442865   2.8040594  41.1418962   8.6104846
  89.0365778  30.2996978  63.7826137  88.6762558  30.7081804  64.5697240
  88.2682024  30.0450859  63.2717304  35.3247154   5.4805189   8.0725288
  35.5189350   6.0598379   7.3357171  34.7444388   5.9940440   8.6344904
  12.8448761  82.7731800  35.0606680  12.4003160  83.5665035  34.7619367
  12.4065900  82.0623970  34.5927763  15.7451630  44.3683052  32.1333075
  15.9717894  44.2591190  33.0568600  15.3873098  45.2543497  32.0776343
  31.7055202  59.1012383  26.0254288  31.2272191  59.0455961  26.8526912
  31.8772602  58.1904316  25.7863283   8.5347688  61.3518476  12.5581563
   9.1769719  61.0226440  11.9293213   7.9238915  60.6249619  12.6794052
  60.4713521  53.7267360  76.5900640  60.6379366  53.6696777  75.6491993
  60.0548153  52.8935871  76.8105060  76.9392561  10.2874765  76.2792175
  75.9893619  10.4008445  76.2463546  77.0751261   9.3549738  76.1112746
  35.7246685  27.1327949  44.4928789  36.2638974  27.4558234  45.2147627
  34.9370217  27.6760030  44.5205688  62.8814341  45.5794582  66.1214928
  63.7752632  45.6105098  66.4625756  62.9652480  45.8445510  65.2055601
   9.4818902  86.6910458   0.3089754  10.3024185  86.1981487   0.3126994
   9.0111440  86.3667297  -0.4587768  33.2055521  64.6575737  34.0477180
  33.0793881  63.9861107  33.3773088  33.7477732  64.2332268  34.7126651
  61.6619968  85.5349064  25.0895643  61.0512543  86.0126209  25.6508255
  61.9588709  84.8015499  25.6283402   0.4119695   2.8390318   6.6054606
   1.3669456   2.9040629   6.6104358   0.1099933   3.7383467   6.7330444
  21.5877199  81.2886143  16.3792622  22.4552870  81.2108231  15.9823930
  21.0059476  80.8265114  15.7757425   3.0089128  30.4598784  40.5937338
   2.2466312  30.4473209  40.0149441   3.3613744  31.3455296  40.5064249
  15.6303656  86.5522003   1.2309688  16.4128029  86.0010338   1.2157072
  15.6793916  87.0145893   2.0676474  86.3196041  51.6059828  21.7837930
  86.9250460  50.9340334  22.0970893  86.6146221  51.7979670  20.8936596
  90.3937392  31.8468642  14.6304178  91.1667218  32.0230675  14.0940583
  89.8865308  32.6577854  14.5932865  41.5068626  85.5479622  17.2862232
  40.7588434  85.5727291  17.8829515  41.9205332  84.7015667  17.4557078
  81.1038270  78.1086779   8.8619763  80.5924024  77.8967619   8.0811006
  80.9742143  77.3596811   9.4437271  35.2424312  82.4250126  42.4037075
  36.0801315  82.5258255  42.8557348  34.9758720  83.3194160  42.1910477
  38.9117169  59.8096418   3.4616515  38.2696199  60.0019550   2.7783084
  39.7569942  59.8503590   3.0143514  66.0808506  86.2615490  55.1263428
  65.1776065  85.9468269  55.1628733  66.3606443  86.2931919  56.0411882
  84.6528490  49.5824003  20.9204483  85.1716628  50.3157616  21.2509656
  84.0535857  49.3710947  21.6363144  82.3828938  72.2829103  21.1116958
  82.9002919  72.2946310  21.9169259  81.8710615  71.4759827  21.1675978
   2.2143067  56.0811424  22.0777607   2.0212287  56.6814280  22.7979064
   3.1673187  56.1080742  21.9924688  47.2430992  68.5961962  27.5449967
  47.3776436  68.1713104  28.3921075  46.7836332  69.4091988  27.7551150
  22.1229550  18.7177333  74.7309059  22.2652814  19.0805254  75.6051804
  21.1734387  18.7433872  74.6126045   5.7233357  39.0677428  33.4555173
   5.5844259  39.2565012  32.5274515   6.4657974  38.4637475  33.4685731
  63.8962760  54.1824389  15.2543771  63.4512248  53.5552502  15.8242869
  64.7223200  53.7554598  15.0272799  28.1261945  66.3857126  12.5445437
  28.4550214  67.2135687  12.8949201  27.2075534  66.5602636  12.3399401
   5.9955579  60.7899094  23.4452939   5.3774410  60.1946020  23.0212975
   6.0829741  61.5203953  22.8329372  18.9329660  45.5823469  22.9347777
  18.2053459  45.5151129  22.3164892  18.8572359  46.4643908  23.2987809
  51.7183148  48.7844715  70.6067602  51.3275753  48.3109436  71.3411520
  50.9712099  49.0672264  70.0793974  81.8336593  31.2409219  73.5828151
  81.2775885  31.6311273  74.2571719  81.2197279  30.8278284  72.9756318
  12.8772509  52.1831226  11.4350450  13.4436214  51.4136314  11.4928544
  12.1598220  51.9985485  12.0412302  65.7238312  25.4675541  75.5897574
  65.1513359  25.0373563  74.9546089  66.0343214  26.2528143  75.1389847
   4.4588539  26.7040405  73.3755953   5.0995871  27.1838769  72.8507630
   4.6819112  25.7827625  73.2424505  94.2127551  70.2315664  25.1830029
  94.0880348  71.1254597  24.8642159  93.5469582  69.7187710  24.7247529
  27.4855948  14.6401697  56.3509941  28.1214729  13.9263922  56.3019991
  27.9982770  15.4299170  56.1786652  40.8809996  74.6344471  28.8284397
  40.9306288  75.2881575  28.1309938  41.7937326  74.4565868  29.0554023
  94.0415607  38.4839773  28.5181832  93.4914363  38.9057612  27.8581142
  94.6808951  37.9824924  28.0122232  78.1767847  59.8527145  24.7118688
  77.7162447  59.7716618  25.5470729  77.8866770  60.6938887  24.3590355
  33.7351394  57.1047306  22.2816730  33.0821037  57.1647549  21.5844107
  33.6266994  57.9137230  22.7816772  18.7289631  65.9751940  19.6670771
  18.7966645  65.8724928  20.6163406  17.9822481  65.4297590  19.4198048
   0.8140511  75.0155306  51.0057402   1.6892435  74.6674347  51.1763239
   0.9240155  75.9658813  51.0368919  77.5551942   0.8644682  41.5670729
  78.1802562   0.9064585  42.2907877  77.1338228   0.0104624  41.6637707
   8.5964918  71.6987371  22.3311663   9.0715331  70.9963274  22.7752256
   7.7500665  71.7343712  22.7767301  33.1258893  50.8576584  25.0032210
  32.3514128  50.3838205  25.3063679  32.7873969  51.4878750  24.3672323
  45.3681993  45.8868742   2.9924488  45.3013134  46.4716005   2.2375616
  46.0682583  45.2763844   2.7612475  42.4080753  88.8354874  41.2028980
  43.2452250  88.5338020  41.5556049  41.7704535  88.1951809  41.5186024
  45.6440115  83.3984756  15.7416797  45.6750822  84.0330219  16.4576590
  46.0595131  83.8475037  15.0054944  80.8861731  48.4051380  54.1212408
  81.6619788  48.3143386  53.5679666  80.8512067  49.3378505  54.3335072
  40.2599812  56.7854357   4.9706402  40.3698254  57.7363014   4.9755237
  40.4180574  56.5214109   5.8770257  91.3680111  36.2087688  60.3153698
  91.0154043  36.9463310  59.8174755  91.2788736  35.4585514  59.7276096
   1.9789557  76.6587448  12.9937267   2.6267815  76.4649868  12.3162222
   1.2686040  76.0383177  12.8303170  22.4798584  75.6820297  23.9920473
  22.6091170  75.3546858  23.1018972  21.6898608  75.2368689  24.2985892
  56.1548999   2.5382239  28.4277034  56.3235787   3.4749895  28.5290217
  57.0235399   2.1472365  28.3337784  54.6260548  84.5534134   2.5781950
  54.9100590  85.1958656   3.2284492  53.8118935  84.1968536   2.9334924
  91.4219629  82.2718430  33.1740546  92.3682805  82.3430443  33.0489755
  91.0846322  82.0234108  32.3134041  52.6493835  70.7497025  39.8715353
  52.0522881  71.1201906  39.2215753  53.2948923  71.4397192  40.0245762
  56.8134526  10.1138026  21.5635180  57.6261476   9.6817690  21.3006282
  56.1746505   9.4038302  21.6275716  45.8835459  65.6802654  11.8793237
  46.2774181  66.2954760  11.2607670  44.9687576  65.6171751  11.6047108
   7.2806474   4.2565593  51.8459217   7.8233501   4.8049364  51.2793652
   6.6615078   4.8661527  52.2475378  93.4272467  12.8462991  75.5959323
  93.8670384  13.1342563  76.3958671  92.9973947  12.0268068  75.8406566
  78.0210708  34.2610797  75.0420159  78.6849688  33.8691387  74.4746948
  77.7499770  33.5487089  75.6210369  63.6063722  24.5825297  61.1114025
  63.5738972  25.1699454  60.3563404  64.0254524  23.7885863  60.7793427
   6.3103014  51.5882683   3.2569250   6.2432855  51.9147253   4.1542369
   6.0459501  52.3295021   2.7120155  46.2715769  79.6218300  20.5185890
  45.9582424  78.7462330  20.2919102  46.9704914  79.7967052  19.8883748
  55.4216722  25.8753210  15.4073381  56.0551599  26.4690882  15.0043964
  55.0038865  26.3989359  16.0910833  36.2454700  83.8092518  12.8448725
  35.9954429  82.9166317  13.0835307  35.4255629  84.2240429  12.5766754
  36.9452477  58.2251692  40.0702524  36.3820815  57.5790548  39.6440911
  36.3512778  58.7333441  40.6226921  23.1112409  65.8637381  39.2960143
  23.5057998  65.0053740  39.1418481  22.1732497  65.6868267  39.3674898
  16.4822766  38.2164630  63.7398700  17.3282572  37.9423103  64.0939788
  16.4347502  37.7966365  62.8809635   0.6572030  71.0378122  34.2964959
   0.8505065  70.1778507  33.9232326   0.7787836  71.6476059  33.5687590
  19.8866728  12.4589735  14.7682464  20.4891887  13.1209856  15.1072741
  20.1208428  11.6587645  15.2384150  11.3864803  77.1590137  26.6657472
  11.8317270  77.9820061  26.8674231  10.4547048  77.3733521  26.7114258
  21.7524719  55.1580954  69.7448397  20.9598756  54.7010660  70.0261736
  22.4137640  54.4696283  69.6745586  66.0334506  70.8597136  39.1041446
  65.6573929  71.3570356  39.8304248  66.9571676  70.7605457  39.3346739
  57.9812005   2.6955229  12.5860071  57.1345070   2.2699553  12.4509728
  57.7657369   3.5321432  12.9981577  59.1826132  13.2960516  45.8181620
  59.8603991  13.0651766  46.4534092  59.6330169  13.8448721  45.1761627
  21.6081730  19.4376761  34.4798136  21.3275448  18.7839514  33.8394117
  22.5640544  19.3886286  34.4690084  84.1301312  77.3974943  39.9297738
  83.5965623  77.5412130  40.7113647  84.5527871  78.2413006  39.7698259
  23.1742835  70.4850626  33.5893083  23.2236481  69.5341492  33.6871099
  22.4804187  70.6238365  32.9446959  12.3351896  71.8930244  28.9755917
  11.4767253  72.1346855  28.6279321  12.4967682  71.0164309  28.6267209
  46.7859697  53.1013298  36.2254739  46.3689375  52.3404217  36.6296220
  46.5182257  53.8398600  36.7723894  89.1006293  87.6122475  63.5590649
  88.6572220  88.4593391  63.5137653  89.4083049  87.5510120  64.4633961
  22.4157166  78.3177137  47.4368334  21.5131044  78.6203814  47.5363922
  22.3392391  77.4859667  46.9693041  21.6305494  75.1920366  28.4110951
  22.1583343  75.7487154  27.8385735  22.2663355  74.6213531  28.8427472
  77.3699819  24.7029457  75.1172407  77.7327775  25.1595220  75.8762872
  77.0804797  25.4031906  74.5323686  92.9312788  86.2467861   4.6475422
  92.0903655  85.8283329   4.8319197  92.7274699  86.9166660   3.9948896
  76.6102794  29.3134219  10.0174749  76.3181117  28.4129149   9.8762214
  76.9991210  29.3046576  10.8920944  45.5147389   1.9287783  47.9779673
  45.8577123   2.7250964  47.5724125  44.6367517   2.1695715  48.2735777
  48.1702247  14.1480261  10.5766034  48.0629054  13.5027033  11.2753749
  47.7624777  13.7425143   9.8114002  12.5903022  58.9450979  13.5617042
  12.7107048  58.1335878  13.0685699  11.6604435  58.9516783  13.7887537
  70.5462869  84.9158624  60.8288113  70.6585248  84.4798091  59.9841265
  69.9295862  84.3600276  61.3052182  75.0992574  81.7585278  35.4444861
  76.0363807  81.7199039  35.6356359  74.7264447  81.0182381  35.9232378
  21.7342946  40.9548339  71.5405200  21.0950276  40.2734527  71.3324688
  21.2720296  41.5424976  72.1381871  27.5968504  60.1357317  16.0592580
  26.6726661  60.3731441  16.1350811  28.0292106  60.6309319  16.7550111
  83.5723578  34.7551307  72.4084170  82.9373967  35.0930795  73.0399580
  84.3802940  34.6542368  72.9117010  47.2038651  85.9896088   9.9269694
  47.2248220  86.5303612   9.1374224  47.7180576  86.4810276  10.5675507
  50.3250788  24.3283138  69.0398048  49.6810340  24.8899707  68.6085526
  50.9576904  24.1181097  68.3528928  31.7283058  67.5025558  27.7881360
  31.6089821  68.2084990  27.1528125  31.0859728  67.6861620  28.4736490
   6.2227809  35.9076977  17.5621903   6.5445769  35.9827065  16.6638279
   5.5220246  36.5571308  17.6205993  62.6181463   9.2302138  27.4037671
  61.7823270   9.4695383  27.8042221  62.5647548   9.5763689  26.5129495
  78.4315704  59.9133453  50.3882448  79.2632352  59.8728332  49.9160973
  78.2239972  60.8469162  50.4280774  30.9506059  81.4723778   6.5372640
  31.8005753  81.8029594   6.2465745  31.0233355  80.5213261   6.4570326
  26.5603924  84.4579315  -0.1022488  26.4509583  83.9317322   0.6898232
  27.3256779  84.0809727  -0.5363831  29.1080594  52.6461601  52.3807573
  28.8288188  51.7874956  52.0630312  28.3892155  52.9398298  52.9404497
  60.7553053  68.4606171   1.9583423  61.5245199  68.1108713   1.5086553
  60.4112387  69.1258430   1.3622479  27.1491337  48.0929613  16.2695682
  26.2132263  48.0526066  16.0729027  27.2800446  47.4307299  16.9482005
  38.6688972  82.6366043  38.4139967  38.4000611  83.5486221  38.5244346
  38.2107282  82.3456478  37.6255417  65.9276356  53.5821304  59.1961293
  66.3532840  52.7711162  59.4741849  66.0052456  54.1646061  59.9517290
  84.2862665  13.6113796  64.9820499  84.2780386  13.2259998  65.8582048
  84.3096434  12.8596458  64.3899505  94.2832178  78.8525295  46.5687799
  93.4946398  78.6978149  46.0487413  94.0752969  78.4939814  47.4315929
  48.6948851  25.6327540  27.3780274  49.2252162  26.4004237  27.1643424
  47.8085080  25.9770018  27.4878287  24.8100400  88.4474087  13.3530951
  24.5005035  89.3240261  13.1251442  25.6316924  88.3508205  12.8716516
  19.0869570  83.0148125  14.1408157  19.0054023  83.8549042  14.5922959
  20.0051570  82.9747963  13.8733482  42.2417831  83.7157154  41.1024666
  41.3193369  83.9444733  40.9885216  42.2874832  82.7862263  40.8784485
  16.6822135  87.9667473  23.6586738  16.6577661  87.0359802  23.8807154
  17.5321627  88.2674503  23.9802313  36.7421412  87.2961712  11.8508792
  36.1920381  87.1924305  12.6273179  37.5808406  86.9064617  12.0977533
  29.1544580  81.8713093   8.7139696  29.0111113  82.8137207   8.8008779
  29.8761535  81.7953777   8.0897725  63.0969334  39.4405937   2.2093630
  63.0948019  40.0375938   2.9575741  64.0006924  39.4546318   1.8943232
  47.4118832   5.5250555  24.7679424  47.4439290   5.4567820  23.8137174
  47.4427977   6.4657980  24.9419308  49.8001436  10.3464323   5.4117292
  50.5206624  10.9377390   5.6295389  49.1322389  10.9141833   5.0272852
  34.1955566  59.5863390  23.7922335  34.3591809  59.2848730  24.6858644
  34.7696710  60.3449154  23.6864686  31.3651776  47.9101849  18.6241782
  31.9862103  47.9735947  19.3498027  31.2777424  48.8082123  18.3045888
  47.6532497  35.9799457  12.2217023  48.3353319  35.3868794  12.5367725
  47.8331508  36.0766077  11.2865424  70.3753165  16.2524229   7.0439404
  70.6574157  17.1194750   7.3352617  71.1844996  15.7444865   6.9851553
  25.1850839  88.8283208  71.0604821  25.9167637  88.3139756  70.7194160
  25.2396937  88.7219814  72.0101882  42.5062561  31.2707353  23.1937766
  41.7268753  30.9075880  23.6143947  42.9549026  31.7477822  23.8919020
  39.8207712  85.2318859  40.3545380  38.9752841  85.5089092  40.0014877
  40.4646873  85.5934525  39.7455382  76.6024600  43.2651100  74.7336273
  77.1025394  42.6926002  74.1519166  77.2652267  43.6963901  75.2730407
   3.9457437  34.1643390  71.4985029   4.5697209  33.7877807  70.8779458
   3.1317445  34.2438755  71.0011999  73.4991633  40.9289798  64.9284140
  73.8833879  41.7601451  65.2072839  74.1261028  40.5749664  64.2976622
  56.2040424  48.6118364  17.8148675  56.9575548  49.1578341  18.0392277
  56.1177492  48.0079269  18.5524869  42.4342442  88.2801628  48.4915018
  42.6425028  89.1934395  48.2945967  43.2860374  87.8472996  48.5490465
  55.8697823  11.3870913  46.5444517  55.3750900  11.3083273  45.7287836
  55.4758242  12.1358115  46.9921541  59.5772629   3.1315908  76.0644480
  58.7544297   2.8405771  76.4574979  60.1366042   3.3461675  76.8109907
  14.3723273  51.9305611  18.1045508  15.0977862  51.4057207  18.4429026
  14.7940433  52.6174307  17.5882161  66.0090068   1.2140089  43.5913229
  66.7114809   0.8652407  44.1400766  65.2190426   0.7737929  43.9050198
  45.3341773  17.4541766  26.3620734  44.6809152  16.8557173  25.9996772
  45.8869925  17.6857573  25.6157517  70.3903424  57.2503051  72.7410160
  69.8488693  57.5895366  72.0283024  71.2297689  57.0472107  72.3282827
  50.2517453  11.3293272  74.4745636  49.3769315  11.6461378  74.6994305
  50.2344576  11.2338549  73.5222912  39.2117429  59.6644545  44.5608282
  38.5111070  59.5010900  43.9294386  39.9379158  59.9956608  44.0324306
  13.6184880  65.2726421  75.5457601  13.0207154  65.0855789  76.2695748
  13.9821383  64.4194850  75.3088630  31.9939065  85.8767319   8.4105742
  31.7849755  86.6170311   8.9802641  32.3304844  85.2053452   9.0040272
  77.1938037  26.4512119  72.7537216  76.2971269  26.1162576  72.7506800
  77.5312232  26.2402925  71.8831502  22.8044581  38.9557338  12.8553057
  23.1279945  39.6092224  13.4753931  23.4154058  38.2235670  12.9384208
  42.3991349   4.2819792  43.3694601  42.5445822   3.4825713  43.8754368
  43.2751325   4.6444136  43.2371712  34.4727635  60.0214291  14.6068788
  34.1565728  59.1382408  14.4165289  33.6917901  60.5722427  14.5528901
  51.5225935  84.9794006   4.4927898  51.5575552  84.0917778   4.1362190
  51.8151808  84.8850632   5.3992802  35.5390716  57.2939920  17.8721189
  36.1820722  57.7081156  18.4476924  34.7127962  57.7279758  18.0846250
   5.1698148  83.9404774   8.7812990   4.8411801  84.6770287   8.2658213
   5.0497413  83.1787586   8.2142007   8.7332913   8.1952247  74.8928852
   9.6142670   8.2165775  75.2665935   8.2068059   7.7354154  75.5468146
  31.8854690  64.9455595  36.9139361  31.6185784  64.0421724  36.7439485
  31.7206550  65.0722170  37.8482962  54.4228700  20.3417975  12.5605392
  54.8973850  19.8303992  13.2159328  54.8111966  20.0803953  11.7256117
  42.4914649  11.7648894  30.0581312  41.7890623  11.2466341  30.4509115
  42.9688910  11.1435515  29.5083785  90.2617811  78.9023352  40.1400375
  90.7214357  79.4678879  39.5194745  90.7159295  79.0399885  40.9713221
  84.5762112  59.4985628  40.7356882  83.6939873  59.7965622  40.9572935
  84.4649168  59.0031624  39.9242544  20.1500320  74.5647287  71.8130255
  19.7471595  74.2632103  72.6272821  20.1158500  73.8041258  71.2329054
  33.6209798  76.1091185  30.7410717  33.1631422  75.3569317  31.1163497
  33.7363815  75.8831835  29.8181057  74.7859897  63.0863953  42.0863819
  73.8857355  63.2847261  42.3441410  74.7935464  62.1386194  41.9525957
  45.3574184   9.9864394  17.6007831  45.2019683  10.6447321  16.9234979
  44.9733880  10.3624255  18.3928633  49.0320778  47.3268509   3.9027324
  49.1082382  46.7629719   3.1330091  48.6794901  46.7550278   4.5845944
  24.4006038  69.0933990   7.0526779  24.4819975  69.3518448   7.9707271
  23.5614705  68.6352062   7.0063370  37.2867346  43.9682674   7.3453605
  38.1876588  43.7628508   7.0956177  36.9006848  43.1210232   7.5675690
  35.6425428  82.4641991  39.4544458  35.6189394  83.4209156  39.4353461
  35.6854486  82.2442055  40.3850317  14.1264486  77.8410292   0.6722298
  14.8911381  78.3426476   0.9548248  14.3511915  76.9313240   0.8675826
  88.4376725  63.0122042  51.8719339  89.2449917  63.4768486  52.0923328
  87.9069885  63.0637884  52.6668882  17.4254429  60.6496668  13.5799766
  16.6070700  60.2189684  13.8269508  17.7430153  60.1480103  12.8291631
  71.7477468   7.7907759   0.3738257  71.3842514   7.3655230  -0.4028776
  71.9967082   8.6649901   0.0738453  15.1387143  45.6874323   9.4104344
  14.5839643  46.3165665   8.9492649  15.2397394  44.9611282   8.7952054
  67.9396630  47.0426604   0.0942262  68.5081655  46.4800498   0.6200584
  67.3266927  47.4203154   0.7250007   5.0186700  41.2732840  34.9861598
   5.4617679  42.0343542  34.6111059   5.3025091  40.5386734  34.4420815
  35.6196451  85.0154018  27.0824146  36.2233448  84.9702644  27.8238606
  34.8545027  85.4778671  27.4243546   9.2742527  77.6881981   7.0793003
   8.7037003  77.3118734   7.7494335   9.5134872  76.9460630   6.5241110
  28.9732507   2.4817187  55.1465845  29.4382131   2.8917509  55.8759117
  28.0677879   2.4114996  55.4489756  65.7336931  28.2048759  64.9615507
  65.8373215  27.8646192  64.0728895  66.2393396  29.0176019  64.9673168
  65.4098728   2.7900797  20.5696034  65.1125673   3.4402472  21.2060952
  66.2505391   3.1261259  20.2588177  54.7822192   5.9762770   4.2844969
  55.4091266   6.6467863   4.0131438  55.1225498   5.1642138   3.9090416
  56.0536626  28.6922842  14.4281626  55.3011778  28.9369303  13.8895059
  56.8130282  28.9965922  13.9311779  89.5876228  42.7705535  76.6463852
  89.5225822  41.8232307  76.7671777  88.6866032  43.0548439  76.4928387
  37.5771538  17.6291376  20.9987378  36.7058894  17.9337794  20.7451177
  37.6594088  17.8782088  21.9192982  34.2184877  68.9508057  27.9907179
  34.4511867  68.4243298  28.7555122  33.5421491  68.4404230  27.5453997
  42.3159591  22.9029185  12.6350451  42.0453647  21.9892317  12.5445032
  43.1904343  22.8565508  13.0215359  44.2137289  83.4400654  22.9553866
  44.7465611  83.0431461  23.6444259  43.3937788  82.9464817  22.9724002
  74.2037716  68.8480616  46.8012428  73.5247984  68.5399961  46.2009764
  74.5419528  68.0511475  47.2096443  29.2915320  65.1013374  55.4304314
  29.4541192  65.5353928  56.2679195  28.9288497  64.2482996  55.6692076
  77.0053437  25.4487616   1.3237110  77.3178914  24.7300249   0.7741925
  77.8030637  25.8730990   1.6396305  84.4682840  16.6158110  19.2441142
  83.8219741  17.3170859  19.1620255  84.0346816  15.9520537  19.7804439
  53.2886461   9.0303618  48.9568853  54.2402890   9.0484625  48.8555050
  52.9950884   9.8741919  48.6133575  14.0121722  79.0705681  20.3472590
  13.9575183  79.8254967  19.7613180  14.1702878  79.4494534  21.2119412
  89.8849045  58.5504684  75.8583748  89.6239387  58.0072746  75.1146885
  90.7801091  58.8213024  75.6546950  59.1771391  13.4214217  14.6218622
  59.2544273  13.8381010  13.7635875  59.9128369  13.7707335  15.1248157
  76.9263557   7.0256716   2.0708323  77.5863698   7.6568133   2.3576853
  76.3136628   7.5414282   1.5465793  16.9766963  75.2822018  19.9289167
  16.5259159  75.1306009  20.7596087  16.2879670  75.2173328  19.2673457
  81.5147446  54.6155414  59.6977262  82.0005809  54.7234020  60.5153815
  81.7248677  53.7272224  59.4096772  22.6010466  39.3617439   2.0637403
  22.7951288  38.4263563   2.1238591  21.7543268  39.4025850   1.6191810
  84.1373740  32.6309595  74.3636138  83.7182103  32.5320301  75.2184508
  83.4101163  32.6566419  73.7417875  21.5347981  42.7621508  14.0723193
  20.9898973  42.4402094  13.3542204  21.8520641  41.9699955  14.5059800
  16.6816470  13.9558992  65.6794302  17.2846600  13.6249265  66.3450615
  16.3670298  13.1715116  65.2300040   0.0844094  16.5180358  75.5333781
   0.5949899  17.1028242  76.0933451  -0.2308992  15.8347950  76.1249826
  44.6320581  73.2913589   7.2118872  44.9208689  73.6373329   8.0563527
  44.6774578  74.0405989   6.6179115  50.4975557  68.0236530  40.3635693
  50.4228067  67.2826385  39.7622871  50.2930737  68.7892914  39.8267126
  52.5957444   0.5232054  35.1134872  52.6223329   0.9663111  35.9615326
  51.6640380   0.3801066  34.9471283  23.1269670  85.1338577  21.8825912
  22.7478862  84.9152565  21.0312724  23.8728070  84.5406151  21.9721103
  52.6986361  71.8655682  17.0178652  53.2502985  72.4413681  16.4883804
  52.4998426  71.1277485  16.4413798  41.7340994  78.4449720  16.2261772
  40.9637451  78.7511778  16.7047405  42.4448347  79.0096331  16.5299022
  48.8363409  81.5757847  33.7930274  48.7597466  82.5270939  33.7196565
  48.6045027  81.3862419  34.7021794  54.1371921   1.0739523  71.1132479
  54.9358204   0.8699709  70.6266069  54.0117887   0.3229529  71.6933441
  36.5803027  84.7241974  24.2943668  36.4468241  83.7764168  24.2827940
  36.3799334  84.9833202  25.1937747  64.9070905  40.1955280  67.4898015
  64.9680658  41.1491165  67.5463222  65.7976215  39.9102840  67.2852944
   8.5218626  65.2510881  28.8294983   9.2594129  65.8571291  28.8999534
   8.9265394  64.3843269  28.7948990  89.7317024  56.9319534  22.7230620
  89.8086517  57.8396559  23.0169868  89.5967190  56.4304590  23.5271239
  23.3692694  64.5427227  55.6684399  23.8202596  64.5368147  54.8241615
  24.0734529  64.5179415  56.3163185  43.5740614  79.6874809  21.5458989
  44.4232082  79.5892715  21.1151552  43.7751675  79.6581650  22.4812746
  68.9206317  15.6165415  16.0569143  69.3401984  15.5866915  15.1970863
  68.7506107  16.5462786  16.2083077   6.3782656  68.0821609  15.1680493
   5.9338570  68.9093733  14.9824488   5.7874066  67.4109650  14.8265636
  28.0618119  79.2347383  12.7553868  27.2602439  78.7440872  12.9369926
  27.9644036  80.0457954  13.2543111  42.1857166  87.7490902  14.3765712
  41.4532137  87.2074890  14.0827286  42.0610285  87.8279114  15.3223372
  91.9587671  78.5545444  50.9642506  91.3513704  79.2277861  50.6575823
  92.1869332  78.8249922  51.8536520  23.7417126  70.8925772  17.1204329
  23.5848784  71.8335772  17.0419848  23.3187628  70.6470490  17.9432702
  35.9913555   9.0352064   9.0949631  35.3126624   8.6207110   8.5622329
  36.0921905   9.9088675   8.7170941  38.8666150   3.2029349  63.3444357
  39.6992090   3.6667162  63.2554007  39.0015105   2.6080519  64.0821028
   8.7185591  42.5920677  35.2040672   8.2890075  42.5992393  34.3486929
   8.1632394  43.1431437  35.7555795  29.8192546  48.3905181  66.3736848
  29.6968075  47.8609428  67.1615849  29.7133252  49.2934761  66.6731541
  14.0228975  86.4978886  18.9656341  14.7994125  87.0331097  18.8019443
  14.3433881  85.5963421  18.9387417  31.0940578   7.9302412   9.7242850
  30.9506355   8.5249907  10.4604495  30.9879899   8.4800822   8.9479774
  32.1475840  57.6051855  11.3850474  31.2758493  57.9906559  11.2971652
  32.2831726  57.1301508  10.5651772  39.3199054   1.3809782  22.7158380
  40.1381496   1.8481165  22.5470567  39.3221060   0.6591898  22.0871425
  52.6857785   8.5484701   7.3691118  53.1367019   7.7096850   7.2724444
  53.3895829   9.1964155   7.4015331  37.4718380  82.4798679   7.2905523
  38.3828449  82.5011444   7.5835466  36.9595718  82.5129890   8.0984610
  87.5042378  17.7086792  67.8204618  87.0336758  18.2988843  68.4090702
  87.5481640  18.1831655  66.9903044  78.5878502   9.3414936  64.9243335
  79.2941760   9.6985540  65.4627053  78.9514898   8.5366830  64.5551757
  59.9624422   9.3663031   5.5919933  60.0263289   8.4266859   5.7630724
  60.3735235   9.7767645   6.3527608  58.2189754   2.4209791  21.4381123
  57.6447800   3.1047541  21.7830491  59.0365008   2.5267798  21.9246221
  36.1673164  61.8870926  24.7149301  35.2389479  61.9832087  24.9273586
  36.2314010  62.1500397  23.7967896  38.7404620  25.4330787  65.3663520
  37.8036581  25.6273851  65.3958742  39.1627466  26.2477264  65.6388513
  53.9606217  14.0605646  57.9868078  54.1980747  14.9325758  57.6714563
  53.0297092  14.1279417  58.1991625  28.7538147  80.3728676  20.0180650
  28.2762313  80.8547592  20.6932878  29.6720171  80.5987644  20.1667571
  76.8075708   7.0141989  33.2706690  77.3253253   7.7365500  33.6261511
  77.3545459   6.2398344  33.4026122  12.2658059  56.1386547  65.9630851
  11.9522950  55.9093341  66.8379323  11.9349190  55.4395351  65.3991954
  69.9946683  56.3015899  66.4248185  70.0127958  56.8605671  65.6479995
  69.0810149  56.0264072  66.5006129  67.8608754   0.7663637   3.6064580
  67.7971438  -0.0729173   4.0622732  67.7005914   1.4208990   4.2862591
  63.1693772  32.2861105  40.9292173  62.3103979  32.3577315  40.5129719
  63.7256935  31.8831164  40.2626228  78.7342488  43.1168613  69.1856746
  79.6170079  43.0461082  68.8224099  78.7138807  43.9798889  69.5991860
  25.8641505  65.7708693  18.2615590  24.9261260  65.6010056  18.1750429
  26.2815428  64.9523973  17.9930067  81.4680961  42.8333765   8.8969797
  81.6838697  42.5965697   9.7989726  81.6033939  42.0273024   8.3988124
  84.8284565  16.3677082  73.9340846  85.1766573  17.1874961  74.2847089
  85.5800782  15.7751903  73.9191420  83.1999973  20.0242716  66.2012196
  83.2971290  20.1559454  67.1443319  82.6031497  19.2799860  66.1235094
  62.5127009  16.8741804  35.9135723  62.8195623  17.5649744  35.3263116
  61.7167404  17.2309786  36.3077474  90.3761588  50.1464424  71.5331362
  89.9246584  49.5931491  70.8957641  89.7512375  50.2429447  72.2517393
  57.2054434  73.4695530  45.1099730  56.9390059  73.6041594  44.2005062
  57.0010614  72.5511456  45.2859974   9.0368068  55.1431179  25.2478647
   8.8037527  54.2566013  24.9721766   8.6635828  55.7097960  24.5727277
  39.2504025  60.0825977  16.6895735  38.5218024  60.1434708  17.3073661
  38.8630223  59.7078419  15.8985448  29.9065948  79.3796682  33.0005693
  30.0245810  80.3044701  33.2175040  29.2329669  79.3772268  32.3205304
  74.8982345  21.4576397  72.7179555  74.1587340  21.3738927  73.3199171
  75.6377708  21.0784444  73.1928543  91.1447733  61.2582827  21.6565967
  91.0429411  61.1294794  22.5996065  91.7608931  60.5771542  21.3869786
  90.3281930   6.1158377  59.5707226  90.7375863   6.9749075  59.6737957
  90.9159282   5.6392103  58.9845276  54.7356656  37.1486193   0.6959666
  55.0161389  36.9992167   1.5988752  55.5316523  37.0366293   0.1762610
  71.2423995  11.6859156   5.8355027  71.2685540  12.1418101   6.6767603
  71.5687946  12.3278719   5.2049512  86.4606844  39.1658077  76.2036261
  86.1273729  39.7109565  76.9163337  87.3353373  39.5118866  76.0262893
  63.6332014   6.5563017  26.8113708  64.3955115   6.3287836  26.2790608
  63.4323552   7.4600416  26.5681648  15.6729221  77.4941206  15.8062410
  15.3738534  77.5446796  16.7141140  16.6244602  77.4133348  15.8716679
  42.5713304  42.8823191  17.7965081  43.4874490  42.9511267  17.5277603
  42.4276009  41.9439799  17.9193783  62.5016546  80.5122280  25.4854846
  63.4548235  80.4618263  25.4136443  62.2932911  80.0035286  26.2690926
  60.5349544  11.2255484  36.6004658  60.8349422  10.6667715  35.8835220
  60.6987050  12.1173483  36.2936974  68.6273794  55.6146392  50.2701346
  69.5366525  55.7095871  49.9865167  68.1102930  55.8637294  49.5041005
  93.8570415  53.4519252  50.1722996  93.1571804  53.1667957  50.7597749
  93.5036026  53.3131275  49.2936365  45.1120806  84.2000389  19.2567337
  45.4992580  84.8718452  18.6954856  44.3889093  84.6448421  19.6987748
  20.4029059  77.2344351  69.4136143  19.6604514  76.6544867  69.5828819
  21.1050820  76.6484022  69.1312313  18.5832787  79.3397236  11.5598691
  17.7652943  78.8428593  11.5758586  18.3124030  80.2415371  11.3878512
   1.3152183   5.9792048  13.5161841   0.4726232   6.4332682  13.5065484
   1.1889995   5.2530390  14.1269028  49.5203304  77.8240442   9.2875254
  50.2825785  78.1192112   9.7856092  48.7690496  78.1305456   9.7953296
  42.9026031  61.2122679  56.2057924  42.2034979  61.4700222  56.8066645
  42.5051260  60.5427980  55.6489706  19.2112538  25.5503234  74.4448380
  19.4951531  24.9843320  75.1626736  19.9806782  26.0816392  74.2400829
  26.0192823  77.0054197  44.9955654  25.7009673  76.4553499  45.7113409
  25.8454132  76.4942980  44.2051506  46.6371098   8.8803488  22.5644612
  46.5448907   9.5024687  21.8428683  45.7552973   8.8037688  22.9288411
  30.8197761  61.9107246  38.0019855  30.7097244  61.6717529  37.0816517
  31.7247963  62.2163057  38.0635238  58.8897371  70.8220434   9.6165228
  59.0529871  70.2220058  10.3442156  58.2589340  71.4529943   9.9632531
  58.9898446  29.7780424   7.7469069  58.8826612  29.5431620   8.6686301
  59.5380929  30.5625349   7.7618414  48.3037183  34.2793045  61.9296376
  48.1633946  33.4302673  61.5104978  47.4458882  34.7032842  61.9049684
  67.7503766  74.6235618  74.6701662  68.1900441  75.4711208  74.6026732
  67.8356938  74.2393264  73.7976305  75.5522322  36.4375267  69.7701834
  75.0682102  35.8779487  70.3774945  76.1923193  36.8898830  70.3196315
  51.2695387  18.2664114  23.7811661  51.6380790  17.9755503  22.9470134
  50.3698304  17.9397875  23.7723923  33.8538051  42.9589176  26.1462116
  33.2067323  42.2908974  25.9197664  34.6986032  42.5356627  25.9932184
  17.0582530  53.6017093  65.8906249  17.4559304  53.6109123  66.7612581
  16.1958834  53.9974079  66.0170130  65.0004426  26.8853757  23.5722430
  64.7528228  27.0490834  24.4822486  65.2672154  25.9662053  23.5582622
  27.5972867  83.7083244  27.4833536  26.8608832  83.8522816  28.0776739
  27.3226213  82.9731464  26.9353509  80.1290801  21.5493876  37.9337025
  80.7610420  21.2705141  37.2710705  80.3640035  22.4581629  38.1212687
  45.5429366  11.5352923  36.9163680  45.6566528  11.9542319  36.0632634
  46.3797072  11.1016375  37.0836878  60.3858856  10.9955984  54.5533848
  60.7692698  10.6097227  55.3410101  61.1301926  11.3741118  54.0854502
  44.9703875   6.4556032  16.1787713  45.6138471   5.7555491  16.2888503
  45.4064122   7.0953661  15.6159008  15.0080821  56.9117317  63.7379889
  14.3266675  56.4333591  63.2656924  15.2753159  56.3177833  64.4394473
  85.4640487   9.8244006  38.2256174  84.7704891  10.4625136  38.3929873
  85.1826528   9.3671137  37.4331951  62.1272209   7.0592791  20.1320815
  61.8986228   6.1297804  20.1285386  62.8063133   7.1363646  20.8022499
  47.9130411  86.3704014   6.9781327  47.2289181  86.2044716   6.3295400
  47.8818083  87.3161221   7.1226186  84.7363094  14.6559435  35.1233459
  84.5576814  13.8138014  34.7048783  83.8773683  15.0708109  35.2029729
   6.0844505  65.0018883   7.9277295   5.6812716  64.4141245   7.2888142
   5.8072442  65.8769846   7.6564479  46.1077860   2.3356921  28.9533424
  46.0546520   1.9059569  29.8070025  46.9808033   2.7278525  28.9365363
  65.1619747   6.8259722  19.8361886  64.8512510   7.6838595  19.5468807
  65.0811675   6.8509966  20.7896423  38.8031793  61.2141895  34.0823412
  38.4873533  60.7725859  33.2940078  39.6945810  60.8858585  34.1999626
  23.6189474   8.5168558  34.5910001  23.5481085   9.3290526  34.0894580
  24.2422022   7.9839999  34.0971851  15.4081930  12.3382098  15.8569944
  15.1573862  12.1646601  16.7643034  15.8163751  11.5243918  15.5614829
  66.9270519  10.5404288  18.5405219  66.4681819  10.0653178  17.8477430
  67.7878502  10.1243311  18.5866451  23.4803262  15.2124220  14.4719648
  24.2478570  15.7263666  14.2210019  22.8393224  15.3871352  13.7828934
  43.4526014  69.7742748  11.1108756  42.9428339  70.5225134  10.8002138
  43.7429237  69.3340063  10.3120601   0.6906093  28.7693220  11.3907182
   0.4161085  28.9991003  12.2784591   0.6668628  27.8125864  11.3727593
  17.5927150  85.1434994   5.2186555  17.8248692  85.2504253   6.1410987
  16.6625786  84.9177933   5.2303731  29.7963378  48.1334552  71.0376344
  30.4541680  48.7177524  70.6606935  29.8338982  48.3057270  71.9784532
  35.4717636  74.5056963  24.5720148  34.8580933  75.2118444  24.3695426
  34.9141836  73.7622499  24.8014164   3.7013224  28.4502703  27.2160101
   4.2632249  29.1766077  27.4860573   4.0515712  27.6906592  27.6813579
  32.7607915  43.2516918  76.4253097  33.0133340  42.4610576  76.9021214
  32.9370305  43.9667186  77.0367869  56.0164407  20.7830244   1.7762969
  56.2873987  21.2326437   0.9758871  56.8111685  20.3506857   2.0889013
  31.5885636  61.0420761  70.5023192  31.0907885  60.9419498  69.6908812
  31.3019654  61.8837509  70.8568154  87.9758488  72.3271045  63.9766971
  88.2887756  72.8424415  64.7201602  87.7794873  71.4667091  64.3473677
  66.9466053  40.3887329  49.8976247  67.0148756  40.5028400  50.8455436
  66.4844047  41.1703929  49.5949594  91.7388259  42.2806701  69.4047455
  91.1658131  41.6136894  69.7829298  91.4033400  42.4095878  68.5175810
  64.2579699  83.6979961   9.5631802  63.3638763  83.5814667   9.2418486
  64.8079586  83.2904434   8.8941163   0.2464381  87.8243923  22.4177599
   0.6974271  86.9931889  22.2696114  -0.6808031  87.6181412  22.2997999
  31.6289783  69.1665363  31.6083121  32.5442004  68.9273930  31.7546439
  31.1891818  68.9441872  32.4289060   5.5294534  11.6901264  53.8583104
   5.4261967  10.8027563  54.2020313   5.7940528  12.2113094  54.6163241
   9.6241850  71.0593796   7.7541709   9.6787924  72.0000362   7.9227406
  10.0986373  70.9354258   6.9321233   3.6581394  50.6893882  57.7510290
   4.5923278  50.4812488  57.7652268   3.3761999  50.4649505  56.8642537
  53.2319477   0.0058943  31.7186069  52.2787956   0.0853068  31.7563510
  53.4969524   0.6235606  31.0370684  56.1397889  54.8804480   4.5572054
  56.5896443  55.6127173   4.9786988  55.4704335  54.6154600   5.1880550
  83.4292494  10.9951076  52.7749555  83.8507043  10.2375755  52.3690597
  83.5681664  10.8718977  53.7139718  34.5317265  13.6042652  59.0101020
  34.0189788  12.9350671  58.5567824  35.4109570  13.5236225  58.6403946
  20.1022530  75.0680304  13.5999262  20.5200958  74.4631910  14.2129564
  20.7711959  75.7292652  13.4223950  43.1405926  40.3390503   1.3159116
  42.8958988  39.4438601   1.5504050  42.6244307  40.5311728   0.5330320
  26.8853327  40.4928836  51.4188640  26.2491080  39.8487148  51.1082236
  27.4864098  39.9900684  51.9685118  54.2990187  11.5867049  44.1638851
  54.7399071  12.4244028  44.0220594  53.5535696  11.6037470  43.5636759
  75.3646520   4.1701418   0.2141712  74.6637967   4.5900637   0.7128625
  76.1440471   4.2775351   0.7593694  41.1704636  82.6502514  12.0026660
  40.3265858  82.3635197  12.3517931  41.5940380  83.0962276  12.7360964
  75.1712002  50.8352232  15.2220368  75.0882973  49.9446726  14.8810458
  74.3722322  50.9721184  15.7310963  69.5115535  24.6528205  72.7455456
  69.6002905  24.6186170  73.6980097  69.6374320  23.7477216  72.4606134
  13.7188959  30.2635145  30.6054497  13.6280847  31.2051749  30.4596376
  14.1397905  30.1933169  31.4622784  34.7676039  50.6872702   8.1847477
  34.4683647  50.5438805   9.0825927  35.2475882  49.8896360   7.9619855
  57.2569418  41.7195845  10.6957865  56.6067171  41.7625713  11.3969231
  56.9959784  40.9612179  10.1732850  89.9953248  73.5139227   4.8822430
  90.6115963  73.6569738   4.1639268  89.9160995  74.3696165   5.3038442
   2.1903898  32.7525496  20.0525808   2.8780797  32.6243091  19.3992293
   2.1700437  31.9309735  20.5433249   4.0623489  54.6260929  36.9057345
   3.4754232  54.3057489  37.5906658   3.7569469  54.1948462  36.1076188
  37.3848744  62.9117277  74.9948060  37.3364510  63.6945358  74.4460825
  36.4727177  62.7055910  75.1990352  47.3594712  26.6216812  51.0555999
  47.8081833  27.3352537  51.5091459  46.9060313  27.0478305  50.3282611
   1.9034167   8.9427465  33.9868546   2.2785965   9.8207098  33.9186478
   0.9569696   9.0857679  33.9830446   3.5858232  73.0353928  45.0748634
   2.6393592  72.9491711  44.9608278   3.6854830  73.7037182  45.7528305
  11.7024231  26.2282634  36.3931417  12.0423424  26.7502236  35.6663370
  11.0151720  26.7722583  36.7778325   7.5470072  14.5774055  31.5119410
   7.6233095  13.8132524  32.0833254   7.6827317  14.2314029  30.6298470
  20.4212093  37.6341438  12.5749803  20.1858330  37.3315787  13.4520686
  21.1207414  38.2709837  12.7210069  37.6531768  36.4728069  10.0914156
  37.7315903  36.2198281   9.1715860  37.3866439  37.3917747  10.0651956
  24.0957475  36.5684366  12.9855323  24.7141218  35.9234905  13.3288848
  24.2245793  36.5426683  12.0373929   2.6119068  45.9280729   4.1512081
   2.0860992  46.6432524   3.7930438   2.2215202  45.1357603   3.7823373
  92.0306977  76.3293600  21.9710827  91.1408277  76.3407850  21.6186142
  92.0220055  76.9887924  22.6648450   1.0158341  17.5029695  28.0154490
   0.2731116  17.4544263  27.4135852   1.6415438  18.0800903  27.5776696
  15.0795126  35.1020598  17.9140973  14.3964481  35.1750278  17.2475159
  15.2267540  36.0018110  18.2056427  86.5686991   0.2365526  28.6895037
  87.2437390   0.8244655  29.0284896  86.7971506  -0.6216378  29.0466475
  31.6359496  41.5223789  25.5544043  31.4245558  41.0924292  26.3830733
  30.7992268  41.5772390  25.0927591  76.3652231  47.8647327  41.2272692
  76.1834385  48.3030605  40.3959703  75.8200397  48.3253193  41.8651295
  91.8804822  34.3985391  75.1700401  90.9896859  34.2627573  75.4929590
  92.3957669  33.7114024  75.5925989   1.9400743  50.7553768   6.0951287
   2.6908010  50.2060080   5.8696634   2.3175314  51.4898205   6.5792263
  92.5662734  47.3260927  32.8304887  92.3881144  47.1576118  31.9052291
  92.2719841  48.2260180  32.9710674  43.4844494  24.0798974   9.9698502
  44.1409111  23.6811805   9.3986064  43.2753277  23.3972049  10.6073713
  91.5956207  33.4932470   2.4223915  92.5218265  33.2857656   2.2985920
  91.3492220  33.0230284   3.2188925   7.3003551   6.9187030  65.2083866
   6.9249603   6.2264976  64.6641771   6.5417907   7.3748931  65.5726663
   0.4928008  50.0397301  21.4321446   0.4157717  50.0348186  20.4780626
  -0.3806982  50.2792931  21.7417288  27.7027512  55.2813768   5.6438053
  28.2630038  54.7852278   6.2406200  27.6308060  56.1467218   6.0465866
  23.5516763  57.8568363  10.8285630  23.1807518  57.7776003  11.7074072
  23.5476160  58.7973738  10.6507826  35.1922774  71.3186216  23.0586314
  35.8384967  71.9773388  22.8042269  34.6389556  71.7618036  23.7017965
  50.9348856  83.6265182  20.1494622  51.1957120  84.0859017  19.3512332
  50.3146361  82.9612839  19.8511589  40.7294559  36.1480212  10.6223285
  40.3348732  36.7015553   9.9484324  41.4526033  36.6708946  10.9685910
  20.1292586  54.2601061   3.4488875  20.9886098  53.9120865   3.2109159
  20.1211953  54.2445421   4.4059268  44.9906536  84.4673875  71.6185884
  44.7805794  84.7937015  70.7435916  44.5331045  83.6287025  71.6776792
  29.6620011  10.3189921  46.7954063  30.1259470  11.0966718  47.1055698
  28.8848233  10.6633425  46.3553476  73.2534947   8.3813858  14.0547025
  74.0829696   8.6676764  13.6722898  73.5056367   7.7496570  14.7281826
  83.2924249  71.7137432  17.9858744  82.5431253  71.1188126  18.0148411
  84.0129485  71.2100554  18.3645248  12.9059970  49.7654343  16.0209942
  12.8388178  49.8403120  15.0690949  12.3796749  50.4913330  16.3560867
  13.3057797  35.4518318  15.7023036  13.7153387  35.6758094  14.8666441
  12.9276407  34.5842791  15.5587995   8.1365883  45.0165462   8.9620179
   7.8988940  44.3618298   8.3054513   8.4287965  44.5044470   9.7160721
  25.7421207  70.8506346  31.6406250  26.1034155  70.5845308  32.4861360
  25.2449203  71.6458225  31.8322015  90.1158213  45.6656647  10.8390665
  91.0016574  46.0252953  10.8859038  89.9926098  45.4521227   9.9141616
  19.7062290  61.9333887  21.9772577  19.0692937  61.5060472  21.4046097
  20.2918267  62.3981047  21.3794732  22.1403694  50.4339838  21.3080835
  21.9461966  50.9551477  22.0871329  22.9784322  50.7743549  20.9949851
  55.5954123  25.2774811  25.8802128  55.4302883  24.3621087  26.1061788
  54.8828173  25.5094767  25.2847123  56.2846613  32.5776172  24.8174572
  56.5755510  33.4148812  24.4560599  55.9111166  32.1108937  24.0698838
   2.8871840  44.6335602  21.1260629   2.4186033  45.2482367  20.5614066
   3.4291354  44.1219568  20.5254126  15.1364636  20.0821471  19.4962192
  15.1687956  19.8600018  18.5657156  14.7943234  19.2943621  19.9187899
  50.2676077  85.6748298  68.2371156  50.0377377  85.2714637  67.4000446
  50.8085294  86.4279559  67.9995434  39.0874435  81.7552260  73.2774995
  38.9286162  82.6829365  73.4517432  39.5142730  81.4321378  74.0710117
  77.8782990  31.0513258  20.4601336  78.4057452  30.5628848  21.0921621
  77.8022804  31.9275093  20.8379602  93.9030299  29.1713309  45.7656479
  93.1721560  28.7094951  45.3548384  94.6842942  28.7668872  45.3884411
  24.1588092  17.6712048   9.2408419  24.1770005  17.7756405   8.2895303
  23.5627651  16.9372034   9.3898588   9.0239167  86.0741615   5.8874488
   8.4459138  86.4271450   6.5638667   8.4333646  85.8084011   5.1825708
  73.5825052  16.7922866  16.7354226  74.1591444  17.5078595  17.0031488
  74.0987386  16.0001278  16.8844831  18.4704876  40.9106445  41.7980099
  18.9878023  41.0035563  40.9980202  18.9310443  40.2417994  42.3047304
   5.0959188  64.0639687   2.9657766   5.3096157  63.2453108   3.4133974
   5.8412999  64.6369314   3.1456476  68.8651739  10.5013952  52.2981970
  68.5796140  10.8348236  53.1487934  68.0574017  10.2231512  51.8665568
  29.9763083  40.3559208  17.4244654  30.8935523  40.6205130  17.3545575
  29.6397901  40.8530331  18.1700313  79.1942989  15.6900081  58.3459918
  79.5638393  16.3380298  57.7462129  79.5706152  14.8574504  58.0605666
  12.6087472   0.1365861  59.0158193  13.4687373  -0.1776448  58.7367145
  12.4629733   0.9278259  58.4972410   1.6253969  29.1295919  59.8946206
   1.9277307  28.5396156  59.2041509   2.3784372  29.2208204  60.4784362
  20.0100899  61.4275551  12.9076040  19.1904247  61.1694574  13.3292294
  19.8197079  62.2796917  12.5153697  68.4257092  33.4097147  21.2147617
  68.5565509  32.6579547  20.6368613  69.1274514  33.3393121  21.8619347
  53.8469362  75.2323389  20.9969521  53.0631733  74.6830082  21.0105801
  53.9677763  75.4543686  20.0737357  93.2884346   0.9211168  70.0179802
  93.4779774   1.4750585  70.7752476  93.9178644   1.2006435  69.3532143
  82.2198569  17.7403030  49.0910355  82.8296768  18.4677705  49.2140834
  82.7630817  17.0261774  48.7576215  33.4903455  71.5500879  28.4098411
  32.8038549  71.7093277  29.0576124  33.5391402  70.5965424  28.3420348
  32.9587984  45.8376884  25.2285051  33.6479378  45.8970404  24.5668411
  33.0923915  44.9826097  25.6374335  67.4885448  86.9590619  49.7846906
  67.6676400  86.0187724  49.7810475  67.4392732  87.1970847  48.8588659
  12.2489107  13.0088389  17.8142595  11.5761352  12.7469087  17.1857715
  13.0036461  12.4606395  17.5995886  17.0047662   1.1021146  72.0705773
  17.2328517   0.2475891  71.7045270  17.7876755   1.3742981  72.5493280
  30.4440522  72.1994734  45.0602007  30.5065322  71.7844582  45.9204865
  30.6828618  73.1130362  45.2170801  21.4678574  35.3422952  11.2498021
  21.5981841  36.2365651  11.5652883  22.0175695  35.2814293  10.4685569
  40.9385725  67.4575260  74.7352339  41.7694791  67.9132941  74.8697719
  40.2727755  68.1370166  74.8412461  74.9387946  21.3396740  53.6078978
  75.2526178  20.6159711  54.1501141  75.1524033  22.1257329  54.1106081
  93.3467500  73.6009741  15.3519464  93.3683313  74.0133619  14.4884062
  93.9903265  72.8946209  15.2961981   5.1074290  45.7800293   1.9315207
   6.0212672  46.0642672   1.9499473   4.6055847  46.5753126   2.1101411
  69.5091646   3.7650308  76.4043697  69.1826855   4.4512519  76.9863877
  69.9734508   3.1606445  76.9834953  76.4428838  66.3521484  67.9801713
  75.6778796  66.3569096  67.4048637  76.1483462  65.8926681  68.7665276
  30.4034328  37.2880411  10.8644772  31.1776924  37.8240657  11.0360265
  29.7282338  37.6524639  11.4367843  22.9810381  56.0093975  13.7612081
  23.1313324  55.0662613  13.8255656  23.8504982  56.3808441  13.6118865
  78.4450983  88.6183159   5.1932472  78.8756214  89.0242644   5.9456348
  79.1404306  88.5223136   4.5424572   1.9081560  37.6661587  19.3521285
   2.1709122  37.0124245  20.0000668   1.3571462  37.1841645  18.7354410
  81.2107312  33.6973247  75.9297160  81.6857802  34.2034111  76.5888321
  81.1188911  32.8266296  76.3166196  24.7140121  41.0165930  25.9646463
  24.4594359  41.2888670  25.0830054  25.0597858  40.1312399  25.8514237
  63.0411037  81.9148615  69.5992724  62.2926982  82.4277428  69.2941932
  63.2167442  81.3003114  68.8867335  73.6929535  35.9009418  74.1570095
  73.7301027  36.1451492  75.0817869  74.5979952  35.6887016  73.9287899
  10.6519878  83.5688305   0.4165765  10.7442451  82.6161480   0.4276220
  11.5310931  83.8923264   0.2197194  40.0633206  62.4264231  60.3097360
  39.1103395  62.5113407  60.2806274  40.2586378  62.2328332  61.2265818
  17.5171609  53.5485420  68.6257134  18.3858998  53.9437142  68.5524742
  17.2371228  53.7495199  69.5186965  12.8966435  56.5083531  74.4331039
  12.5571223  56.6756728  75.3122858  12.4825366  55.6868485  74.1687606
  16.3871014  83.9862061  60.8891630  16.4831018  83.6002636  61.7598343
  16.2366354  83.2383728  60.3109455  45.5753088  33.4036517  11.1400747
  45.2175617  32.6978707  10.6014431  46.5171146  33.2341313  11.1623132
   5.9743494   4.7659257  18.3421123   5.5768311   4.9740344  17.4965942
   5.3460240   5.0886399  18.9880967   1.8285160  49.1901159   1.0538977
   1.6577668  50.0864220   0.7645626   1.7205630  48.6590624   0.2648731
  34.7129726  65.2275419  43.4310675  34.0637231  65.8901882  43.6668777
  35.5489206  65.6933832  43.4513760  18.5474300  43.5344267  49.6067286
  18.5948467  44.4772387  49.7651148  19.4390559  43.2209539  49.7582865
  82.9524504   1.3933763  65.3127818  83.1525241   2.2805605  65.6112818
  82.8859626   0.8792266  66.1174302  50.4685402  69.5156622  60.5672503
  50.8666801  69.9379921  61.3284063  49.5633841  69.3505001  60.8311510
  40.6583023   0.4111903  24.9648690  39.9441671   0.3766978  24.3284345
  41.1534977   1.1950387  24.7269654  19.7630692  60.1358175  18.6885834
  18.9727640  60.2832985  19.2081010  19.4594240  60.1513720  17.7809560
  58.7812042  24.8940754   4.2789099  58.6239815  24.5583057   5.1613903
  58.9048815  24.1106200   3.7430614  47.0167446  47.4085569   9.7933638
  47.6457787  47.5794077  10.4943335  47.2910976  47.9844809   9.0797305
   1.5457198  12.5529680  28.1907861   1.3518211  13.4343347  27.8716723
   0.6947705  12.1994648  28.4499185  92.2123252  27.6628027  51.5765039
  91.7994343  28.0166111  52.3642699  93.0563937  27.3273239  51.8785517
  29.7627330  55.4163408  11.3601327  30.5590844  55.9160137  11.5400922
  29.6311712  55.5070972  10.4163706  34.7714400  52.9603720  25.8427453
  34.4066978  52.1567583  25.4720640  34.0799356  53.2965326  26.4128757
  35.7756853  54.1771603  32.7536702  35.6087971  54.7411442  31.9984841
  35.1542687  53.4557104  32.6557899  20.7416081  72.6954651  21.1206079
  20.0543165  72.2902250  21.6494226  20.8704638  72.0899725  20.3905368
  18.7386700  38.2256279  49.0167848  19.5563075  38.6795101  49.2209737
  19.0138003  37.4291572  48.5627238  45.0112792  74.7317031  71.1434959
  45.8979817  74.4678190  70.8978228  44.4414838  74.2226508  70.5669252
  30.3950739  57.4250698  46.9994164  29.7548294  56.9651508  46.4564705
  30.5825639  58.2308722  46.5180016   8.5987198  23.8180995   4.2012507
   8.2565969  23.9799762   5.0804436   9.4836789  23.4834504   4.3464699
  14.2234790  28.9763188  13.8956928  13.3720994  28.5709333  13.7312305
  14.3138766  28.9654398  14.8485518  16.4543366  62.0002508  44.3277740
  17.0157695  62.7604055  44.1755104  16.8654823  61.5417767  45.0605774
  30.6029129  40.2785826  27.9271722  31.0390806  39.8390269  28.6570907
  29.6776032  40.0575542  28.0329037  21.3420153  54.2096090   7.5071001
  21.7035794  54.9732494   7.9569381  20.8153725  53.7667656   8.1725097
  20.0659513  53.3424664  15.5613637  19.4828868  52.6082230  15.7541203
  19.6625316  53.7779331  14.8104644  54.5334466  88.3132890  65.9707741
  54.3425854  87.4489310  65.6065111  54.5570190  88.8938764  65.2101223
  29.1747308  12.5980747  20.8594871  29.6731210  12.5288415  21.6737628
  29.8371124  12.7502704  20.1854539   8.3995721  86.2002936  43.1455231
   8.2592651  85.2836493  42.9082298   9.1659161  86.1846811  43.7188578
  15.0912428  64.8502111  15.3288686  15.3095877  63.9282036  15.1929903
  15.5970693  65.3167152  14.6634769  71.8124377  16.9114646  72.2856278
  72.0593177  16.8785867  73.2098578  71.8898242  17.8359184  72.0497842
  52.3612690  34.2158604  28.6097383  51.9262791  33.6196208  29.2192578
  53.2449007  33.8599777  28.5160851   9.4491321  39.3865705  38.6412048
   8.6646450  39.4406104  39.1869998   9.1240710  39.4746876  37.7452135
  13.0024052  34.5592999   0.6273659  13.6365485  35.2168870   0.3415789
  12.2572160  34.6728969   0.0374332  18.4535678  73.6553791  73.8530098
  17.8089376  73.8418988  73.1704454  18.5353597  74.4775489  74.3363119
  47.5123119  77.7332830  29.9136996  47.4825478  78.6569786  29.6644330
  48.2488060  77.3751020  29.4182062   4.1287947  60.0898743   6.1471868
   4.2409879  61.0183096   6.3512897   3.7367716  60.0822783   5.2739787
  87.0396270  68.6629391  28.7300849  86.1557825  69.0288973  28.7636280
  87.6145573  69.4276857  28.7009335  33.4151125  74.0085363   2.5253835
  33.2257915  74.8087502   3.0153310  34.2402315  74.1922092   2.0763019
  91.5782006  80.7998255  38.5872285  91.8941863  80.3735879  37.7905456
  92.2728856  81.4153746  38.8212029  75.1161947  78.6910295  35.4746389
  75.1516821  78.2462215  36.3214660  75.9477725  79.1614437  35.4161525
  13.8263237  81.2074566  47.9484653  14.3401492  80.4026985  47.8807878
  14.4768846  81.9093323  47.9291868  77.6428546  55.6356478  17.2750652
  77.9542925  54.9348211  16.7022836  77.8290155  55.3221655  18.1601095
  16.9644591  14.3757925  49.1461555  17.4149510  13.5342607  49.0746610
  16.7777487  14.4689092  50.0803391  87.8206383  11.8200454  76.3834284
  88.4468280  11.6856536  77.0948064  87.9938518  11.1031684  75.7732499
   9.9304098  85.4555321  28.1769228   9.6577334  86.2781715  27.7705312
   9.9557316  85.6482601  29.1141796  82.8604557  64.4713831  22.1918297
  81.9435539  64.2213297  22.0778275  82.9999413  64.4451857  23.1384516
  37.4813676  22.6015258  54.9663925  37.0403934  22.9086709  55.7585001
  38.3099723  23.0805421  54.9525118  67.2930475   3.5759172  65.0072710
  66.8281652   3.7106332  65.8330838  67.2838147   4.4345817  64.5843784
   2.7039489  60.3746510   3.9224669   2.5716671  60.1198673   3.0093300
   1.9265091  60.8876610   4.1430214  79.0220963  33.1536398  72.5975422
  78.8480352  32.2868166  72.2307230  78.9545296  33.7479362  71.8502299
  32.3953772  38.3987999   1.8298915  32.0941615  37.5116491   2.0260170
  32.6692510  38.7514162   2.6765832  31.0359168  23.0135918  27.0359778
  31.0629272  23.7801075  27.6086497  31.3143373  22.2876024  27.5942373
  57.6990175  22.4057794   9.2192519  57.7528763  22.6945066  10.1302779
  56.7716599  22.2108340   9.0842080  72.7111732  39.3138370  69.8506896
  73.4819495  39.0847930  69.3313901  72.8574835  38.8898906  70.6963239
  19.8877907  70.0566435  26.5315700  20.3364563  69.7498274  25.7436609
  19.2822874  70.7276821  26.2164426  35.2708673  46.9274616  10.3120399
  35.4439449  46.9942379  11.2510908  34.3457866  47.1563148  10.2221298
   8.1142718  56.2996054  31.1223578   8.9255667  55.8007526  31.0265565
   7.4336112  55.7168674  30.7856870  30.9765291  73.3310318   4.5410749
  31.8539357  73.3889103   4.1628700  30.4374576  73.8908911   3.9823341
  83.8789188  14.6878395  75.7484092  82.9304873  14.7044811  75.6202185
  84.2114722  15.3699121  75.1649567  33.8293409  38.5051322  14.0812111
  34.0801430  37.7257967  14.5771611  34.6592617  38.9352274  13.8751066
  27.3293185  21.4092636  26.4907312  27.0432568  20.7073593  27.0753098
  27.2932577  21.0221171  25.6160593  29.9041271  76.9533920  42.6752996
  30.4648280  77.5716782  43.1438780  30.0046134  77.1902084  41.7533159
  75.4795800  26.5710601  63.8946382  74.9383007  26.6006479  63.1057314
  76.1156761  25.8767471  63.7227718  41.5587950  52.9666376   9.2203647
  41.1832714  52.5401020   8.4501183  41.7181206  52.2515059   9.8363483
  89.0369784  12.2264919  42.6474349  89.7987210  11.7183647  42.3685257
  88.3066856  11.6096220  42.5987188  42.8036833  28.0427575  31.6286469
  42.9060698  27.2362137  32.1338606  42.5893164  28.7088919  32.2817469
  21.6422677  65.0053310  31.2192392  21.2076497  64.8796034  30.3757143
  22.1986389  64.2329121  31.3194919  14.3156540  62.1878958  19.0701151
  14.6166360  61.3636112  19.4524705  13.6457825  61.9280624  18.4376681
  85.8315559  75.6649208  24.7710395  86.1169769  75.1073599  24.0472364
  85.5325367  75.0515842  25.4423356   7.2494555  35.8503056   0.7747708
   6.9177896  36.7409539   0.8886918   8.1906718  35.9231567   0.9330006
  91.3676988   6.1540851  42.5029675  91.5636884   5.2443037  42.7268426
  92.1602927   6.4700803  42.0691792   3.1044647  44.2661524  12.0041502
   3.5992503  43.9170122  11.2628531   3.6368132  44.0510798  12.7700365
  37.0675707  43.2056904   2.5294080  37.0020962  42.2873259   2.7912295
  37.7157545  43.5793352   3.1264675  93.9408688  52.2082758  44.3140411
  94.2013856  51.2943220  44.4282913  92.9930042  52.2056055  44.4473743
  82.8488718  21.3863143  72.2235606  83.4325634  20.8230791  72.7317963
  82.5425612  20.8298072  71.5075271  72.6584704  86.0600570  62.1598486
  73.3429893  86.2156204  61.5091042  71.8900807  85.8136562  61.6449789
  42.3298645  56.2966585  35.0509048  42.8024340  56.5076303  34.2456675
  42.9164362  56.5772295  35.7533646  29.0873647  43.5650063  21.1097765
  28.9597034  43.7852335  22.0325089  28.3637834  43.9988852  20.6576562
  85.1133930  19.8154602  70.0037621  85.4206859  20.6461343  70.3667871
  85.1615487  19.2014322  70.7364855  64.2444139  46.2785492  60.9483175
  65.1142018  46.4899025  60.6091599  64.4044668  45.6201992  61.6244797
  62.0955993   1.3405332  65.4297082  61.8475043   1.1626873  64.5224873
  62.9972085   1.0262975  65.4974548   5.4356498  41.6724634  15.0435114
   5.0531465  41.1524153  15.7502460   6.2596422  41.9987488  15.4051805
  22.7464747  29.6236801   0.5691847  23.0853915  28.7488866   0.3791669
  23.5282993  30.1659751   0.6735752  83.6605873  68.5287523  35.1940346
  83.5060205  68.9756775  36.0262609  84.2434671  67.8028536  35.4166365
   2.7841255  24.2829380  70.4733829   3.2178518  23.9851865  69.6737228
   2.7401897  25.2347383  70.3818486  19.9103177  39.4812870  29.5733476
  19.4755816  38.7699556  30.0437140  20.8180642  39.1906261  29.4853616
   5.1677728  62.7064037   9.7880507   4.9325541  61.9516516   9.2483664
   5.8306080  63.1697321   9.2759913  20.5507922  50.9083605  12.6042080
  21.0817909  51.6250706  12.2569311  20.0048041  50.6356859  11.8667960
  40.5765295  82.2995281  17.8882813  41.5324259  82.2891331  17.8394306
  40.3494740  81.4729595  18.3142650  20.7717204  37.1297503   8.3681816
  21.5344167  37.5205684   8.7945473  20.1371622  37.8440857   8.3108109
  49.7731304  52.4667931   6.3112265  49.1778374  51.8496943   6.7367142
  50.4814625  52.5906229   6.9430238   0.7645839  62.6313829  23.8720608
   0.7081418  62.0573521  23.1081653   1.6205096  63.0524492  23.7925267
  60.3354179  21.5006265  63.5098819  60.7161548  21.9234285  62.7401356
  61.0429021  20.9595069  63.8604383   7.8141934  72.9438114  15.1773202
   7.9260552  73.6012983  15.8639288   8.1112158  73.3790779  14.3782246
  25.7474351  34.7668052   6.6578746  25.1911783  34.0557933   6.9761115
  25.7657933  34.6497536   5.7080358  78.1233441  40.3351268  66.8486587
  77.8396915  40.7370624  67.6697652  77.6446747  39.5071373  66.8094007
   7.3664552  38.8289928  25.9422135   7.6176858  39.5804310  25.4051352
   6.6627479  38.4069252  25.4493809   2.9863220  63.0730867  32.9338884
   3.7469789  62.7056885  33.3840561   2.4646497  62.3105192  32.6837301
  81.8645194  23.4209067  25.5195737  82.6116946  24.0123659  25.6097198
  81.2400201  23.7215716  26.1797500  33.4079742  54.1415548  36.2575960
  33.8313365  54.7458124  35.6477880  32.6494551  54.6245766  36.5855742
  48.6607265  45.9466648   1.7111416  48.8170052  45.1792908   1.1607371
  47.9156733  46.3870049   1.3022040  88.9438855  28.7511501  60.0837807
  89.0343939  27.8083286  60.2220981  88.3550035  28.8276443  59.3330483
  27.3229766  68.2792377  18.4450090  26.8169594  68.8943434  17.9141378
  26.6955543  67.5972462  18.6847103  11.6154182  75.1035547  34.9874711
  12.5645375  75.2233648  35.0198388  11.2629759  75.8518553  35.4691982
  33.9659452  52.0675135  32.1195698  34.0697765  51.5045595  31.3524127
  33.5432673  51.5084219  32.7714825  89.7260128  12.7822074  66.1631421
  89.7310435  13.3475694  65.3907589  89.5345818  13.3732423  66.8913357
   9.2027661  17.0696506  59.8487846   8.5038730  17.1634349  59.2014961
   9.6546027  17.9134187  59.8373656  21.2058353  47.0215464  13.8386440
  21.3758802  46.4757252  14.6063662  20.3423476  46.7432404  13.5334110
  28.1254315  55.9937048  18.3539438  27.4581790  56.1527634  17.6863325
  27.6982331  56.2236214  19.1790938  40.8670425  63.2928801   0.6360789
  40.2289963  63.2986259  -0.0774337  40.4376698  63.7714434   1.3451996
  40.2930056  39.1626606  74.7479820  41.0972081  39.6732196  74.8418881
  39.9393736  39.1073570  75.6357419  66.6118898  64.4767857  34.8895860
  66.5375223  64.9988937  35.6883979  67.0591011  65.0516462  34.2684841
  68.4000172  18.1390822  16.7277753  67.8375759  18.9057803  16.8376124
  69.2889514  18.4938872  16.7157853  39.3882132  67.5669575   2.9978520
  39.1805935  68.0119276   3.8195133  39.5597553  68.2760429   2.3781726
  16.7346632  57.4928617  16.7901886  15.9302914  57.7623367  17.2335863
  17.1577060  56.8933773  17.4049151  89.2117914  44.1021633  50.4945230
  89.7878500  44.0812826  49.7303534  88.4286531  43.6267710  50.2171659
  22.3008990  43.3172750  46.3802481  22.6427197  43.0962467  45.5139160
  22.7243519  44.1470432  46.6002607  37.3808074  31.3225675  14.2670667
  37.8263307  30.7459760  14.8877776  37.2618651  30.7852030  13.4839165
  16.7366894  79.6454457  51.3088886  16.0070475  80.1028422  51.7267887
  16.9460710  80.1787832  50.5421154  83.3309701  24.6210581  28.7860990
  82.5528529  24.5872027  28.2296634  83.0129102  24.9617392  29.6221614
  14.1790708  68.0727199  55.3829615  14.6256753  68.0705217  56.2295858
  13.2484980  68.1148842  55.6031649  11.5455639  41.9333267  13.5405815
  11.7252374  41.9348812  12.6003969  12.2396588  42.4737358  13.9179659
  39.1109920  64.4703674  50.8471489  39.1033506  65.4266548  50.8882475
  39.6493149  64.2029190  51.5920734  38.1981897  72.6982260   6.1476165
  38.0296540  72.4165010   5.2484733  39.1009092  72.4291515   6.3176954
  44.8186460   7.7749354   2.0786615  45.0574127   7.7538973   3.0053651
  45.5395046   7.3276144   1.6353822  23.1149745  85.2888107   1.6519961
  24.0017772  85.6026173   1.8290177  22.5665092  85.7503033   2.2863796
   1.9450974  83.1512642  28.7272549   1.4489836  83.9596272  28.8563013
   2.1790142  82.8700066  29.6117926  89.1431915  15.2313909  67.6610820
  88.2571064  15.0051126  67.3784469  89.3011771  16.0968885  67.2840111
  41.6720486  19.6696663   4.7300273  41.6364431  20.1307917   3.8919783
  42.5606585  19.3162596   4.7713801  80.1063536  18.8729438  65.4875378
  80.5996202  18.3003149  66.0749165  79.2761468  18.4168586  65.3497819
  85.5947696   3.7677393  63.7005631  85.5727373   3.8510856  62.7472524
  86.1237608   4.5096836  63.9936892  12.3360932   3.5136449  56.7299747
  12.5381196   4.1714814  56.0646439  12.9610527   2.8073999  56.5660381
  57.1872902  32.1558976   3.8773668  56.8917561  31.2513065   3.7743691
  56.4002562  32.6374578   4.1321427  12.1470881  31.2478018   2.9578084
  12.9101133  31.7471457   2.6668096  11.8318355  31.7196298   3.7286693
   4.6632001  15.3096876  64.6414010   4.0072557  15.0662860  65.2946441
   4.7198197  14.5485792  64.0637032   8.2918292  48.8177347  35.9139395
   8.1633937  49.3848658  36.6742706   7.4385619  48.4069061  35.7747149
  75.2853106  10.3218708  58.2691984  75.6110631  10.6271038  59.1159253
  74.7766792  11.0578451  57.9288058  38.0420923  30.4388070   1.9860837
  38.4797573  29.5901823   1.9189042  38.3032250  30.9064388   1.1927605
  50.6413888  26.5710077  65.1212994  51.1058866  27.3650798  64.8568694
  50.7658969  25.9659633  64.3900983  12.1270415  47.6424655  57.7401785
  12.3077676  47.3278579  56.8544046  12.8743359  47.3428592  58.2578866
  46.8741369  45.2139425  26.8931174  46.9862747  44.3391085  26.5212083
  47.2873783  45.7989359  26.2580991  66.5168360  30.3512293  19.1792953
  67.3521379  30.8174139  19.2136061  65.9316233  30.8672148  19.7338343
  32.5286938  76.5500572  58.4728901  32.6789226  75.6219986  58.6528091
  32.0339043  76.5581516  57.6535313  56.1392536  28.7895155  17.0738482
  55.3033485  29.2360520  17.2083843  56.2248077  28.7227821  16.1228180
  83.9698913  70.3865957  61.6977167  84.2369260  70.7319164  62.5495815
  83.5397603  71.1238766  61.2645483  26.4573812  49.8675108  30.2967858
  26.2186909  49.1399956  30.8712244  27.1824217  49.5296431  29.7710538
  78.2985853  35.7402095  43.6300365  78.8277303  36.0056743  44.3822090
  77.4612664  35.4724655  44.0087764  92.3136364  23.2295522  74.0605886
  91.7837750  22.9184589  73.3266271  92.5167834  24.1387853  73.8409100
  48.3067846  50.7031155  37.3456550  47.3620558  50.7605886  37.2027731
  48.4376764  51.0548401  38.2262158  40.9806395  34.8488736  28.9309812
  40.0419569  34.8340940  28.7442040  41.3890076  34.5141578  28.1325889
  91.5917288  14.8537311  65.0202135  92.5133477  14.6150217  65.1195459
  91.5236675  15.7191763  65.4234557  19.9774134  72.3748112  44.4776869
  20.6726146  71.7209339  44.5510054  20.2355933  72.9162884  43.7317801
  51.2203026  79.5034313  15.8898520  51.9128990  79.8489618  15.3266907
  51.6039801  79.5001316  16.7667854   8.3621752  71.3095284   4.8195484
   9.1160446  71.5056276   4.2632589   8.0564022  70.4547834   4.5159900
  39.3259382  51.5211725   3.2223633  39.3266201  52.3251438   3.7418440
  40.2028561  51.1570454   3.3434203  11.7618843  81.6261271  66.7783908
  10.8779390  81.8874052  67.0364694  11.7604168  81.6872481  65.8231453
  26.6978168  62.7191401  60.2597189  26.2450767  61.9451475  59.9247742
  27.5410938  62.3882580  60.5689573   7.7311659  46.6567135   1.8103695
   8.0802572  47.5439024   1.8956161   8.5063028  46.0956478   1.7859505
  63.4346292  26.9310150  48.3524267  63.8288286  26.0859689  48.5686032
  62.5608220  26.8942174  48.7414495  29.8548973  68.1968549  66.0626952
  29.4689718  69.0598992  66.2125139  30.0717890  68.1900361  65.1304166
  54.9206785   0.9887606  23.3924556  54.7526577   0.7314688  24.2989898
  54.0615991   0.9574992  22.9714584  38.3747824  80.1527980  44.9068992
  38.8943096  79.8776606  45.6622950  38.0611731  79.3348244  44.5211570
   1.7326709  34.9005994  69.7818546   2.5464985  35.2603588  69.4290290
   1.3822982  34.3609199  69.0731804  34.3355012  28.3444500   2.0770532
  34.3965721  29.1008234   1.4936140  33.4671092  27.9797840   1.9063450
  27.0755196  40.4543781  23.5657024  27.4238825  39.8978782  22.8691530
  27.8391957  40.9231949  23.9022183  60.3149271  63.6938143   0.8215052
  60.0116682  63.1289673   1.5322867  60.4413605  64.5489931   1.2325008
  48.4361649  61.7875576  31.6245651  48.0648327  60.9071636  31.6816616
  47.7152967  62.3314190  31.3070774  35.2450170  70.2076295  70.5567030
  36.0601248  69.9051717  70.9571401  35.4854675  70.4194740  69.6547393
  32.8443991  21.2869606  71.6234652  32.0418941  21.7856273  71.7769305
  33.2267748  21.1747322  72.4937673  45.0247049  61.7031765  20.0475597
  44.9094629  61.1434460  20.8154511  44.3912554  61.3707161  19.4116008
  25.8870673  58.4222841  18.7713957  26.3883209  58.0446100  19.4941247
  26.4488554  58.3080626  18.0048585  29.0069175  73.8508177  54.0150499
  29.8449183  73.6959314  53.5791588  29.1985345  74.5207262  54.6713543
  85.4924833   6.6887674  60.2417926  86.3709770   6.3163385  60.3177957
  85.2654682   6.5803871  59.3182401  45.2688694  67.4595594  32.1312094
  45.0282383  66.9767380  32.9219103  45.1478386  66.8302679  31.4201689
  59.2273315  73.5349277  71.2945310  59.7172006  74.3502334  71.1871235
  58.3170255  73.8137439  71.3936983  65.7326882   0.9176454  69.7688429
  65.1298231   0.1779089  69.8434870  66.5682976   0.5216178  69.5215569
  51.9875272  78.4952048  60.5310885  51.5942963  77.6235631  60.4882078
  52.9291566  78.3309224  60.5818717  38.6272979  68.3901691  25.6749082
  37.9070544  68.9659119  25.9318137  38.9357257  68.0106401  26.4977455
  86.4341446  52.2804070  10.8792949  85.8255668  52.8397131  10.3965509
  86.9166585  51.8092394  10.2000237  49.1701551  88.0056337  76.9463498
  48.8763531  88.7012056  76.3580543  49.5779713  87.3600868  76.3691240
   8.2523489  78.9193630  15.4550922   8.0369431  78.1117678  14.9885941
   8.8473129  79.3843460  14.8668420  30.3381423  70.7475188  55.0094096
  30.8219899  71.4750269  54.6184413  30.9416918  70.0060299  54.9629824
   9.3113848  38.7482700  53.5481874   9.1322657  37.9489955  54.0434830
   8.6927363  39.3899593  53.8971035  87.0025240  26.3695821  68.0420087
  86.6574894  27.1805343  67.6684563  87.1923124  26.5879259  68.9544449
  12.1988165  55.4605770  46.5136766  12.7424467  55.0767231  45.8256674
  12.7805662  55.5240583  47.2711515   2.9696628   4.5832500  37.8437392
   3.6810014   4.3330202  38.4333269   3.1940719   5.4695568  37.5603048
  51.6218185  84.7257805  30.8010960  51.9852161  84.5197678  31.6623354
  50.7481813  85.0704670  30.9859729  37.4484089   8.8947684  20.6002378
  36.8613276   8.7379557  19.8606586  38.2254204   8.3711726  20.4044485
  90.3157030  18.3226404  56.5631072  90.8192264  18.4623727  57.3650865
  90.5272805  17.4268207  56.3004796  55.0155767  74.2196730  61.2852899
  55.4556902  73.6900571  61.9501500  55.6581743  74.8880866  61.0475354
  48.7122488  64.7359180  46.6074944  48.6548185  65.1206112  45.7328844
  49.4869041  64.1747761  46.5719414  23.1751561  60.5978251   9.9231637
  23.4978771  60.8787155   9.0669042  23.4116220  61.3124418  10.5144644
  24.8132706  80.1977634  21.8218160  24.5472407  79.4950533  22.4148226
  24.8209190  79.7902536  20.9557319  43.5360241  42.7110338   2.7390084
  43.4114742  42.1845198   1.9493875  44.4710398  42.6381207   2.9304883
  11.3194966  31.2756872  39.5614791  11.3833809  31.2485337  38.6067986
  10.5910957  30.6905532  39.7695231   5.7642370  77.4431229  32.8779173
   6.6836762  77.5970602  33.0950975   5.3838044  77.0908689  33.6825418
  36.4666605  87.2897720   5.0511342  36.9514537  86.8486595   5.7487196
  35.6423879  86.8069935   4.9900383  16.1624515  64.2115545   4.1825807
  15.8159304  63.4442234   3.7272203  16.4728320  63.8720322   5.0219965
  65.9556429  38.8185653  70.1055483  66.3685106  39.2880306  69.3807225
  66.6645019  38.6748180  70.7325153   6.9535991  52.9201755  68.9430229
   7.3100325  52.1551857  69.3946616   7.7170822  53.4679946  68.7607686
  52.7388906  77.5767279  21.7788100  53.0443478  78.1393290  22.4904299
  53.4581757  76.9620323  21.6338706  61.4314225   4.4328982  19.9149954
  60.7876685   4.3289572  19.2142761  61.3385847   3.6411768  20.4448986
  22.8387856  80.1501369   6.0959274  22.4225879  79.2940760   6.1967766
  23.6416268  80.0885963   6.6135114  33.9388013  86.7772675   6.3943112
  33.5947323  86.5116405   7.2471237  34.1405344  85.9536076   5.9503216
   8.0694219  11.0111866  70.6265519   7.2428414  11.4375934  70.4003302
   7.9379627  10.6924257  71.5194921  72.6539135  59.5748425   6.1262316
  73.0713940  58.7147760   6.0789722  71.8953848  59.4419718   6.6947478
  25.9024405  53.9935684  12.0208514  25.4318380  54.3619871  11.2731683
  25.7142282  53.0557823  11.9838500   3.7287804  14.0052900  66.9007413
   3.2320282  13.2122144  67.1019779   3.2978126  14.6930608  67.4081556
  49.5323372  63.2571459  33.6599827  49.2005825  62.6031971  33.0447483
  50.4256105  62.9726791  33.8533115  55.1333438  12.5841913  71.9434522
  54.3783217  12.8754386  72.4546732  55.7539784  13.3109054  71.9975896
  69.8824644  42.4506378  16.9141674  69.6375084  42.5038338  17.8379643
  69.7875261  43.3459902  16.5892661  80.2629580  83.4332466  25.8053231
  81.1212244  83.0473518  25.9805274  79.6597924  82.9371262  26.3587499
   7.9612936   5.8016783   2.3494370   7.2321857   5.2595049   2.0483041
   8.7178816   5.2155215   2.3342471  26.8070436  51.4570284  57.9338789
  26.4588547  51.1577940  58.7737942  26.4354253  50.8524942  57.2914886
  39.7604561  32.4012494  26.3376856  40.1621151  32.0295167  27.1229982
  38.8564992  32.5834918  26.5943575  54.9562958   3.8681799  41.3740587
  55.0735548   2.9184157  41.3947964  54.2156604   4.0308863  41.9581985
  92.5927642   8.8305384  15.6437981  92.7459863   8.3443838  14.8336077
  92.7284959   9.7468573  15.4026020  72.4671173  48.7601757   1.0953195
  72.0839071  48.7873507   0.2185974  73.2309246  48.1903315   1.0052986
  86.5274814   6.0907179   7.9527426  85.9866384   5.4611403   8.4295630
  86.2554744   5.9970957   7.0397925  40.2319765  51.3671255  26.4281368
  40.3635693  51.9009209  25.6445670  41.0656166  50.9131861  26.5514851
  60.1087332  65.3138542  14.3066359  60.0049067  64.3623114  14.3029952
  59.5528841  65.6126881  15.0263333  74.4110336  61.5581799   6.9900388
  73.6791458  61.0305595   6.6703689  75.1914479  61.0834122   6.7040652
  33.4337592  82.9128933  22.4647593  32.7665544  83.1675339  21.8273973
  34.0941381  82.4507141  21.9485068  35.4846584  67.1546391  66.5134863
  36.2297379  66.5546087  66.4810495  34.8034121  66.7184547  66.0017435
   7.6616138  64.8384619  25.1938272   7.8098446  64.0786886  25.7568550
   7.8064418  64.5107126  24.3062258  49.9312162  69.7741413  33.3283424
  49.2691851  69.1158676  33.5395718  50.7653236  69.3439293  33.5165143
  36.7143703  61.7523098  40.7846117  37.5555038  61.3270378  40.9515476
  36.8743920  62.3086691  40.0223160   7.7909642  75.6516600  26.6888475
   7.9790455  76.5887117  26.7416453   7.8233701  75.4532242  25.7530022
  85.5000340  53.7097797  76.4607407  85.0007950  53.2954464  77.1645297
  86.1747466  54.2169342  76.9121729  36.3828993  43.8934278  19.8822391
  36.7023396  42.9911423  19.8733819  37.1342969  44.4106913  20.1721883
  47.1068764  62.6214123  11.5838087  47.5101519  62.7694702  10.7284272
  46.5143728  61.8826294  11.4446127   5.0331372  57.7625418   0.7192317
   5.2038008  57.6752853  -0.2185804   5.0973642  58.7025690   0.8879187
  46.7768145  84.6891594  26.4364815  46.7981148  84.0077972  27.1084356
  45.8804750  85.0239563  26.4631963  61.4074681  32.3448572  48.2690160
  61.5912578  33.2246456  47.9397361  62.2137378  32.0819816  48.7129275
  58.8879585  67.9453039   8.5183561  58.9725161  68.7088871   7.9473686
  59.7183037  67.9081059   8.9930928  27.1982098  86.6689777   8.1061155
  26.8719816  87.5595665   7.9769999  27.1377015  86.2639523   7.2409415
  16.9528927  40.4165369  48.7567616  17.4919618  39.6273047  48.8092422
  17.5578607  41.1330134  48.9488649  46.3248202  37.3773346  56.5427415
  47.2345778  37.6292953  56.7011420  45.9976336  38.0347690  55.9287779
   2.9828674  45.1692915  28.3784986   3.7376732  44.9027681  27.8536510
   2.8786132  44.4679499  29.0215254  11.7539689  14.9360523  70.3957061
  12.6024672  14.9718961  69.9541281  11.1331507  15.2720937  69.7492562
   6.7301959  63.7503433  12.7964568   6.8794304  64.2725992  12.0082891
   7.3815608  63.0506897  12.7470613  90.8038698  10.3154144  67.2982268
  90.3908025  11.0527525  66.8488459  90.4070174   9.5401439  66.9011239
  89.4444336  47.5080156  40.5768108  88.8822981  46.8307972  40.9531212
  89.8926865  47.8929377  41.3298941  86.2119471  53.9802799  63.9679949
  86.8211447  53.3068809  64.2707078  85.7092606  54.2164287  64.7475938
  34.0380931  53.8814068  29.2503905  34.1157651  52.9769373  29.5539188
  33.4438753  53.8325548  28.5015583  77.9714111   8.7424666  47.8351355
  78.5830310   8.4387785  48.5058975  77.2104123   8.1692797  47.9277325
  50.7947731  71.8238878   5.8866566  50.0200701  71.3124752   5.6531566
  50.4983807  72.7336311   5.8593518   9.9755609  62.6563931  14.6487057
   9.6488804  62.3721027  13.7950718  10.2582788  61.8489218  15.0779986
  93.0146936  18.8062483  11.9096410  93.6107162  19.5446593  11.7841733
  92.2924999  18.9759260  11.3047624  11.2712443  70.3742695  25.7092857
  10.8770561  71.2190151  25.9266639  10.5761147  69.8943615  25.2590466
  78.6794781  23.1366739  61.6051940  78.7631224  22.3812160  61.0233693
  77.7787553  23.4359273  61.4811818  27.2562933  29.6041775  20.5604172
  27.5305033  30.1949716  19.8589873  26.3601470  29.3588352  20.3302884
   6.3921738  74.6081924   3.1803688   5.9338385  74.0595055   2.5438911
   5.6979525  75.1088619   3.6088768  46.4488459  55.0309944  38.1297064
  47.3134470  55.0374889  38.5403824  45.8367014  54.9530792  38.8614416
  74.7098421  17.2338113  70.2562122  74.3527745  17.8580818  70.8878909
  73.9462971  16.7528352  69.9370043  44.9825655  30.2625284  55.2869503
  44.5654975  30.3533897  56.1437051  44.4974600  29.5576343  54.8579661
  11.6571879  79.0605211  22.5621676  11.8615711  79.9952507  22.5348783
  10.7264841  79.0252066  22.7830219  26.2632823  23.9871621   8.1552756
  26.2943029  23.5870957   9.0243071  25.5263662  23.5582256   7.7203029
  73.1111683  59.2433071  22.1206093  73.6879243  58.8878202  21.4444351
  72.6898732  59.9955511  21.7048335  29.4969058  85.1755142  19.4406354
  29.4219613  86.0741997  19.1197252  28.6601377  85.0050449  19.8730588
  65.7330107   3.0928382  74.4120602  65.8388515   4.0391693  74.3146179
  66.5613340   2.7967987  74.7895151  79.4404888  72.8726101  10.9866369
  78.8934183  72.7143526  11.7559886  80.3331470  72.7053547  11.2889886
  58.4529658  17.6756296  72.3662801  57.5518827  17.9143295  72.5837739
  58.8944836  18.5126981  72.2227169  20.2556229  73.4111261   8.6018288
  21.1668420  73.3893490   8.8941300  20.2037787  74.1818333   8.0365354
   4.3777354  73.0262354  73.7055196   4.4109018  72.2798351  74.3038673
   4.7908695  72.7082208  72.9027624  13.4115025  40.0603351  74.6277572
  14.2784831  39.6823082  74.4805398  13.3725449  40.8091602  74.0327961
  38.7915047  80.0744298  64.8924641  39.0649422  80.9509066  65.1631181
  38.1135102  80.2275947  64.2343645  81.2560724  25.8500680  47.6951734
  81.9395839  26.3921651  48.0890934  80.9193324  25.3244409  48.4208171
  24.0319085  82.0265865  15.3873050  24.4853234  81.3784504  15.9263539
  24.6317744  82.1957493  14.6608233   8.8893020  78.1688070  17.9823971
   8.8489503  78.4647179  17.0729804   8.5440278  78.9039040  18.4890044
  45.7953501  64.2083788  27.9901266  45.1623297  63.7364674  27.4489975
  46.4358044  64.5503569  27.3663473  13.0613896  25.8613452  52.1334593
  13.1760308  26.0768899  51.2079160  12.3661038  25.2035150  52.1418445
  39.1062188  68.8495970   5.2731264  39.8634219  68.6525154   5.8245230
  38.3621192  68.8383007   5.8751386  83.9432766  65.1416588  12.8096902
  84.6471711  65.1106930  13.4576154  83.3624901  64.4205189  13.0523431
  36.0680509  53.1085587   8.3050364  36.5706730  52.9775524   7.5010216
  35.6273675  52.2714806   8.4510845  90.2172708  45.2853823   4.6024829
  89.7902568  45.5517435   5.4166955  89.5059510  45.2365446   3.9638352
  66.0083919  17.8737745  62.1115736  66.0689094  17.5723276  63.0180518
  65.0901758  17.7412424  61.8758897   3.5056588  68.7039423   5.9711200
   3.0084410  68.6568546   6.7876917   2.8457990  68.6150122   5.2834368
  18.7786591  60.4670954   2.2420739  18.4424853  60.8746576   1.4438806
  19.4720757  59.8813820   1.9381860  81.6801821   3.4731874  72.2984485
  82.5023710   3.4717569  71.8083106  81.9389688   3.2862672  73.2008461
  55.1806548   2.6052958   4.4517341  55.2857950   3.0292231   3.5999948
  56.0543898   2.2783381   4.6660206  67.9640055  82.0653152  28.5875010
  67.5361156  81.2121964  28.5144925  67.9631233  82.2541904  29.5258808
  40.6643581  72.6684237  21.8717837  40.4253721  73.5914516  21.7872834
  40.1899433  72.2324085  21.1639309  34.1099238  70.7088518   7.9932010
  33.7764621  71.2421608   7.2716606  35.0572062  70.8448982   7.9737049
  15.7811892  77.2162533  54.3102646  15.7715106  77.0881748  53.3617210
  15.9384310  76.3425875  54.6683264  45.9453583  85.0216770  46.1931896
  45.8316803  85.9089184  46.5339470  45.3749657  84.9850845  45.4253721
  31.7573261  88.9117622   2.4209398  31.5942311  88.1738377   1.8334813
  31.8436050  88.5137558   3.2871854   5.5965304  43.6242151  22.2511864
   4.7030780  43.3565044  22.4663734   5.8420229  44.2260885  22.9538345
  60.6740665  51.8272734  26.8745351  61.3302660  52.2716808  27.4113178
  60.6521654  50.9328318  27.2147226  81.0813049   5.9621149   8.9298093
  80.5013135   6.4119631   9.5442033  80.7828573   6.2472254   8.0661702
  19.1295907  25.8413086  58.2114784  19.9930903  25.8620891  57.7989725
  19.2577264  26.2710533  59.0571336  29.1890788  46.1825657   4.1507930
  29.3685150  46.9687319   4.6665186  29.8483825  45.5513430   4.4390851
  42.1166992  74.4944334   9.1846484  42.9618168  74.5394325   8.7374550
  41.7745161  75.3872871   9.1404945  70.1782274  45.5676889   1.1922101
  70.1816654  45.8615971   2.1031651  71.0525084  45.7833767   0.8676487
  68.1870811   2.1208868  74.8346679  68.8030397   2.2418174  74.1120313
  68.4704636   2.7494201  75.4986517  59.4096218  29.7531375  71.3140826
  60.1255177  29.1505870  71.1124389  59.4533454  29.8678884  72.2633730
  92.4899629   0.8184439   7.4805969  91.9297937   1.1363608   8.1886750
  93.3053497   0.5673987   7.9145920   7.3421091  52.6150575  73.8289527
   6.6511672  53.2159069  74.1078971   8.1500667  53.0109671  74.1555829
  50.0075579  69.0188026   9.6931618  50.2716541  69.3651342  10.5455327
  49.8220825  69.7958755   9.1659212  34.0821740  42.9777584  66.2178664
  33.7054250  43.1877288  67.0723842  33.9001796  43.7483367  65.6799833
  30.1142216  84.1606903  38.3100629  29.6840787  83.5742950  38.9324403
  30.9212065  83.7051773  38.0702472  33.5965967  62.6075172  37.8829479
  34.0041256  63.1821632  38.5309696  34.1167426  61.8045759  37.9140735
  23.9285803  78.1935453  17.8525639  23.0987406  78.6305380  18.0439579
  24.5138454  78.8999748  17.5793505  20.3144261  50.8139572  70.5776719
  20.2951905  51.1643276  69.6871082  19.5094868  50.3011665  70.6507472
  72.9126056  52.8389469  75.1468990  72.0949300  52.3597875  75.0125642
  72.6453813  53.7559828  75.2090992  10.6974924  61.2587357  11.1006701
  11.2220645  60.4603004  11.0410273  11.3262272  61.9414663  11.3347673
  79.5153812  34.8887354   3.3909100  80.1684573  34.2859560   3.0354175
  78.6825422  34.4288069   3.2856864  88.1445586  11.5733442  60.1354257
  87.3803650  11.4347658  60.6949214  88.8665711  11.7166051  60.7473139
  36.0758066  68.6882067  39.4000173  35.8886671  68.7092257  38.4615231
  36.3732719  69.5746517  39.6048427  12.0619130  75.9136105   9.4530320
  12.2246218  76.6863394   8.9120638  12.5381577  76.0853529  10.2653909
  60.7858724  77.8591880  75.2748105  61.7264638  78.0244503  75.2099396
  60.3792505  78.6912784  75.0329217  19.0817761  88.0557537   2.0912993
  18.7086022  87.2383404   2.4211654  18.6933315  88.7357044   2.6417646
   3.9127111  38.0449200  54.9455357   4.8027655  38.3965445  54.9256659
   3.3622235  38.7983942  55.1587772  93.5523139  27.8770504  74.3638067
  94.3660151  28.1536684  73.9423780  93.3138524  27.0659217  73.9149807
   6.7606081   7.2900015  36.9758725   7.3862327   7.9410368  36.6581011
   7.2176899   6.8477732  37.6912308  10.9530605   8.9094359   9.3061280
  10.2561630   9.4444186   9.6860772  11.3935388   8.5187060  10.0608075
  78.7677254  47.5348854  16.7952645  79.4422628  46.9677162  16.4216936
  79.2427148  48.3145380  17.0829368  44.1061974  55.6037092  30.0612450
  44.7259283  54.8744726  30.0417137  43.4660053  55.3561687  30.7284141
  88.5968121  47.4365997  30.3580117  87.8016915  47.8681374  30.0452948
  88.7925931  47.8685808  31.1894536   3.0309460  68.6281157   1.2665594
   3.1870651  68.6965370   0.3246584   3.8168961  68.9995861   1.6672152
  65.2629319  54.6865520  68.9930384  65.4187762  54.3395767  69.8714171
  65.9604206  55.3288707  68.8620136  28.2362056  64.1889477   4.5945209
  28.6294174  63.5769606   5.2166855  28.7407470  64.0697145   3.7898758
  36.8066260   1.0472304  24.1580915  37.4014667   1.4807993  23.5461950
  37.0543614   1.3902861  25.0166750  28.6147213  78.1295300  23.0282855
  28.4540939  77.3703957  22.4677992  29.4601130  78.4693003  22.7348566
  23.7778020  68.1889343   4.1095632  23.4333086  69.0802717   4.0541130
  24.2048860  68.1500292   4.9653184  12.3161662  78.5301256  16.4018059
  12.9972863  78.1282282  16.9410503  12.1538830  77.8926086  15.7064903
  22.6933551  47.5058794  17.6202512  23.1036377  46.6413307  17.5990534
  21.8105435  47.3604536  17.2800648  46.5447760  77.6476574  49.1719532
  46.5631485  78.3506966  49.8212814  45.6136179  77.4887085  49.0173244
  42.8103259   1.6784102  23.5283160  42.1714988   2.1268374  22.9742026
  43.3574715   1.1882788  22.9146123  24.1301084  58.2108688  16.8802667
  24.6615887  58.2601404  17.6748312  24.0184164  57.2730398  16.7245960
  69.5242088  35.2421865  53.0328814  69.3096190  34.3510303  53.3086197
  69.3830221  35.2405080  52.0861523  50.2468395  72.1802950  20.4388070
  50.4559565  73.0158424  20.8563733  51.0964632  71.8208694  20.1834893
  14.9015614  28.4971008  69.3866948  15.7597968  28.7976417  69.0877931
  14.7932431  27.6379451  68.9788280   6.9959280  21.1983165  72.0534534
   7.7834722  21.4027748  71.5492700   6.2742850  21.3545618  71.4443139
  68.6764956  68.1018400  19.4551039  68.2371283  68.3831644  20.2576303
  69.4807768  67.6801014  19.7575974  40.5550766  84.5922947   0.2079370
  41.4965868  84.4984818   0.3528164  40.3063011  83.8011837  -0.2700625
  33.5410973  13.5754356  73.4786753  33.3464190  14.5090684  73.3970426
  34.2937800  13.4365663  72.9038618  62.8082259  77.5614169  47.0404736
  62.8344234  78.3333400  46.4750711  63.4532197  77.7431730  47.7239816
  91.0727130  17.3379430  66.3759200  90.6096278  18.0484924  66.8196611
  91.9981562  17.5696430  66.4540355   0.4817876  71.4920616  15.4358160
  -0.4300990  71.2229013  15.5464745   0.9170613  71.1981678  16.2360632
   8.7687588  57.2485018  36.8062949   7.9697549  57.6651144  36.4834070
   9.2185181  56.9485617  36.0163689  71.8099693   1.3736636  24.3831229
  71.3184646   1.8412787  23.7078500  71.1927512   1.2830168  25.1091099
  27.2034836  60.9597158  29.7648740  27.6923251  60.4522514  30.4127502
  27.5267553  60.6450701  28.9206409  69.4386292  72.9191160   5.5721217
  69.8696327  72.8014326   6.4186549  68.8108397  72.1983719   5.5207372
   2.4938556  27.3979625  62.9548935   2.7192804  26.4784727  62.8136556
   3.1847092  27.8855667  62.5063447  34.5978022  54.6836805  10.0795853
  34.7926784  55.5794573   9.8041892  34.8386955  54.1438770   9.3267143
  78.2600092  51.5780696  71.4987115  78.6284505  51.6520652  70.6183670
  78.3450471  52.4568138  71.8685887  35.1162553  71.7215300  42.2312260
  34.1605330  71.7190599  42.1781111  35.3628588  72.6318884  42.0679426
  56.0134315  86.1490059  23.1830716  56.5767145  85.8002663  22.4921870
  55.7254839  86.9993019  22.8509355  94.0670035  66.0673666   2.8734967
  93.7934257  65.1745129   3.0837309  93.2608872  66.5816021   2.9179165
  10.4217288  35.9341583  47.1446626  11.3278386  36.1224136  46.9002025
  10.0023076  35.6712398  46.3253991   6.7657679  68.9172268  10.8205664
   5.8961612  68.6432076  10.5291378   6.7157996  69.8723745  10.8582652
  15.9914517  39.6160984  33.7600327  15.0693583  39.8078752  33.5891628
  15.9794295  38.7835670  34.2322421  51.2857424  17.3139009  74.6595378
  52.0870196  16.8460187  74.4244368  50.6028043  16.8991813  74.1324345
  87.9826771  14.4654426  75.2072465  88.4815275  14.3828115  74.3945037
  88.0319344  13.5974798  75.6078078  43.4720612  53.7927723  15.1626289
  42.8591681  53.2553577  15.6644058  43.7530470  54.4717026  15.7760882
  15.4099798  80.8696842  38.4447789  14.5142353  80.6113434  38.2276773
  15.7604933  81.2273312  37.6290202  75.8069658  61.4213276   3.4124914
  75.4333067  60.6062365   3.7475225  76.3180923  61.7687321   4.1434434
  69.9763584  40.3822660   1.4100680  70.1193810  41.3096952   1.2212657
  69.1017008  40.2000237   1.0665676  19.1439557  83.1583691  27.1635771
  19.6123397  82.7198601  26.4532566  19.3497193  84.0861797  27.0492363
  65.1255655  62.3899221  33.9146805  64.2833376  62.4503231  34.3655038
  65.7204199  62.9185057  34.4466352  34.9076343  51.9411278  14.6347368
  34.6380901  52.2381067  13.7656093  34.3573356  52.4390173  15.2393103
  11.8261811  11.7350397  59.3966751  11.2687775  11.8301782  58.6243503
  11.6681144  10.8401451  59.6973614  84.7303059  86.1304379  44.8837328
  84.8199477  85.2060986  44.6517897  85.6014528  86.3870525  45.1861954
  49.1698864  24.7819144  13.7733936  49.8504809  25.4294783  13.9569259
  49.6418455  24.0378195  13.3994782  26.5462014  39.2326412  72.3815249
  26.9996974  39.7455368  71.7125617  25.6394717  39.1910228  72.0776449
  34.5885658  67.8584766   9.0975958  34.7636914  68.3985901   8.3269840
  33.7240052  68.1405115   9.3962985  33.5200953  82.0217705  50.7383776
  34.2652130  82.5865841  50.5334044  32.8612137  82.6156425  51.0981417
  72.0736246  24.7711906  71.1135445  71.5565019  25.1255235  71.8369142
  71.7665921  23.8695345  71.0187815  64.1348376  63.7921715  22.0938230
  64.9319305  63.7513828  22.6222277  64.1311969  62.9709673  21.6020513
  41.5070009  60.8711815  34.6829891  41.4908981  61.7936468  34.9380040
  42.3740196  60.7442856  34.2977476  12.7922833  61.7494726   0.4470881
  12.0270896  61.1787367   0.5175585  13.5002911  61.1677694   0.1703653
  59.2950037   4.0102011   3.4532791  58.8351777   3.5338026   4.1445348
  58.6228517   4.5640951   3.0562365   6.9411600  65.1669216  34.8020601
   7.2255343  64.4676065  34.2135692   6.2504798  64.7683430  35.3315210
  53.7067795  73.7907553   4.2452589  53.3574295  74.1455793   5.0627464
  53.1681252  74.1892290   3.5616654  49.0783809  38.0187759  56.2798325
  49.3610190  38.3194313  57.1435170  49.8621153  38.0861911  55.7344453
  44.1050644  66.0985831  75.1451340  44.0888186  66.6965631  74.3978812
  44.4324978  66.6304806  75.8704649  30.2840087  42.7553806  72.6684768
  30.3801724  43.2466754  71.8526236  29.4056412  42.9756698  72.9786025
  38.3028984  52.4628353  29.3177056  38.5274339  53.3145380  28.9429832
  37.7868295  52.0303726  28.6373520  52.8090620  53.5917330  17.8020656
  53.3210802  52.8816843  17.4149013  52.0540428  53.6867714  17.2214234
  56.5676972  32.2181902  61.7376558  57.1080968  32.2818574  60.9501604
  57.0124623  31.5680084  62.2814218  53.2688856  69.8988008  13.6333513
  53.5384655  69.0552664  13.2700181  52.6421738  69.6740770  14.3210781
   9.3599221  72.0869121  73.4270955   9.0972563  71.1888084  73.6286892
  10.2416226  72.0028362  73.0640994  69.0232300  37.6020011  54.2596118
  69.1994821  36.6674289  54.1512458  68.0707912  37.6748237  54.1980640
  66.3959067  30.7502136  58.4598855  66.5228875  31.6807613  58.2749800
  65.6642263  30.4922781  57.8992216  32.8216624  67.2297621  35.3498435
  32.5468564  67.0783806  36.2541652  32.9648328  66.3531446  34.9930859
  88.0240618  80.6122857  37.4817777  88.9362322  80.8200854  37.2793031
  87.6098548  81.4637721  37.6219034  52.3259695  83.1891230  74.2483060
  51.3855644  83.2634047  74.0859772  52.7241023  83.8101485  73.6383445
  42.5100899  71.8110895  18.1736124  41.9927979  71.5092278  17.4269414
  42.5679874  71.0482788  18.7489331  24.4725800  30.2814674  19.3152750
  24.3187976  30.3855038  20.2542949  24.7958803  29.3852210  19.2233706
  60.7627821  81.3671589  18.4701860  61.1629725  81.9549656  17.8294325
  61.2549257  81.5211391  19.2766094  26.0832834  45.1156950  20.9753847
  25.4341006  45.6115341  20.4764485  25.6089950  44.8106480  21.7488384
  19.1720006  48.1809101  74.3357016  18.9128110  47.4608001  73.7608133
  20.0540587  47.9495010  74.6266637  36.0585213  79.0334749  30.0676346
  36.1869740  78.3642817  30.7398772  35.2815294  78.7455511  29.5884490
  40.1800680  71.9018412  32.9619884  40.5560875  71.6928673  33.8170719
  39.3141890  72.2577047  33.1616092  47.4353361  68.2716703  16.1245716
  47.7715397  68.1827545  15.2327788  46.7375517  68.9230490  16.0536432
  44.3469301   5.1192957   6.7025328  44.9583474   4.9765879   7.4250537
  43.6062470   5.5753428   7.1020865  34.8649689   1.5924320  72.3503606
  35.5623719   0.9436283  72.2559719  34.8241183   1.7650375  73.2909830
  27.8682923  84.6906281  14.3578136  28.0394316  85.3595543  13.6948776
  27.2845173  85.1182175  14.9843931  28.6530650  12.7743632  49.0136623
  28.9353739  13.4570700  49.6223021  29.3805987  12.6867205  48.3978319
  90.7747303  42.0050869  40.5299107  90.5364953  41.1326274  40.8434145
  90.5026304  42.0124111  39.6122305  41.3283634  79.0167522  24.2099094
  42.2813225  78.9750576  24.1301417  41.0049677  78.7940454  23.3369565
  87.2560933   6.6309458  44.9891376  86.7339185   6.2981993  45.7190990
  86.7453578   7.3629576  44.6433926  43.4618711  88.8633537   9.2787540
  44.3903494  88.8800621   9.5108718  43.0050898  88.8428497  10.1196826
  10.9145781  72.7610073  69.7361807  10.9539124  72.8509674  68.7840299
  10.2289292  72.1103820  69.8871635  68.3055639  57.0764351   8.7203169
  68.0078316  56.6366911   7.9239416  67.7470016  56.7225599   9.4124234
  69.6908382  26.9641310  26.8361187  69.0616444  26.4669234  26.3134980
  69.1518667  27.5579459  27.3587275  63.1635809  88.3922577   6.1014616
  63.9907646  88.5577488   6.5538025  62.5447226  89.0020275   6.5032417
   4.1275331  66.9676361  58.1712441   3.8286659  66.0804996  57.9714815
   4.3402240  66.9443187  59.1042237  48.3908606   2.5439039  58.4465079
  48.5344791   2.4879614  59.3912177  47.6064205   2.0176092  58.2919185
   2.6218054  17.3214778  68.2428501   2.4187752  17.5923357  67.3475037
   3.1016156  18.0618772  68.6140935  88.0071929  12.4866015  20.2065420
  87.9144672  13.3338362  19.7708523  87.8743556  12.6788145  21.1347890
  85.0729047  53.8509903  52.6081197  84.6020924  54.5450649  52.1467916
  84.9635874  54.0627155  53.5351865  12.3039815  50.9419879  57.9500775
  12.1307275  50.0969944  57.5350932  13.0798146  50.7893047  58.4895234
   9.1734883  34.3370494  68.0671976   9.6447655  35.0811872  68.4418778
   9.5776793  34.2047462  67.2096692  15.2290106  84.3377399  22.7569032
  15.7040715  84.5972633  23.5463285  15.9137821  84.1712856  22.1091270
  81.0770975  41.3997707  61.0054783  81.1184477  41.7566166  61.8927113
  81.4588593  42.0830497  60.4544668  11.1313817  28.1234083  55.3486769
  10.5956599  27.3783645  55.0763790  11.5177104  27.8493414  56.1804621
  28.9152741  64.6449232  26.6653776  28.2394266  65.2655315  26.9379663
  28.6012387  64.3007898  25.8292055  47.6580903  68.0115280  75.8196236
  48.1693312  67.7747974  76.5934585  47.5218531  67.1830711  75.3599180
  68.3854656  55.4872284  71.3749169  69.1161059  55.4762992  71.9932021
  67.6531397  55.8463630  71.8758683  49.9485922  82.7093983  12.6581764
  50.6389093  82.6669216  11.9964397  49.3926954  83.4365368  12.3780489
  71.9406751  16.6282278  33.1372619  71.4842942  16.1403185  33.8227487
  71.6222909  17.5261504  33.2299638  61.5945204  57.5270334  73.7906061
  61.2432011  56.6399565  73.8674186  61.6664656  57.6753393  72.8477053
  65.3189452  85.1760867  36.2906901  65.7438310  85.6423715  35.5707709
  64.3926819  85.4035047  36.2097709  14.8446335  27.9645926  35.0848651
  14.1847814  27.6635367  34.4602108  14.3414367  28.3955485  35.7757378
  11.5530059  18.5334739  76.0445054  12.4513385  18.6777076  76.3418706
  11.0178324  19.0682277  76.6309014  33.8486382  25.8119163  51.8078796
  33.8045785  26.6102752  52.3341028  33.7584111  25.1012907  52.4427835
   5.9507677  18.5920057  64.7693877   6.7704627  18.3872566  65.2192847
   5.3301355  17.9393444  65.0935451  75.9853481  66.8176517  64.1153769
  75.4707466  66.0706768  63.8096969  76.4969109  66.4726791  64.8471765
  80.2084831   5.8645445  47.1274185  80.7926658   6.3949972  47.6692533
  79.7770313   6.4957529  46.5515184  69.7958279  54.1975737  17.1328855
  70.2237940  55.0257063  17.3503041  70.4086399  53.7589979  16.5426779
  14.9589981  44.2937857  19.0571415  15.2014936  44.0709978  19.9559116
  14.0726818  44.6480662  19.1290164  15.5919969  59.6493816   7.3452187
  14.6622610  59.4391060   7.4324363  15.7829666  59.5105362   6.4175963
  16.9417426  43.0226669  72.2720261  16.7898318  43.8782177  71.8705331
  17.2282550  43.2236633  73.1629471  50.0096035  65.8861351  42.0489120
  50.5562496  65.2378130  41.6049719  50.1403999  66.6921043  41.5493727
  54.9321222  49.6158600   7.8981024  55.7472897  50.0758314   7.6977104
  54.7098064  49.8979712   8.7853581  20.8601392   4.4442946  25.3132319
  20.4015840   3.6916453  24.9397731  20.4737676   4.5531184  26.1822009
  62.5761557  57.8924417  14.7750568  61.6761398  57.8993225  15.1008785
  63.0637121  57.3912668  15.4287732  53.1555319  51.1645699   6.4258993
  53.0840778  51.8660307   7.0732647  53.6893845  50.4959917   6.8551236
  73.3822941  49.2617950  38.5606853  73.0890690  48.3690605  38.7431042
  72.6040374  49.7052726  38.2232301   9.9330279  22.5235424  73.8084398
  10.3815171  23.3430872  73.6000128   9.7812697  22.1106443  72.9583133
  11.9935700  50.1050434  70.7577727  12.2360179  50.4483184  69.8977641
  11.9059989  49.1614303  70.6230239  78.2872258  44.3847332  48.5882704
  79.1270183  43.9270076  48.5499136  78.4857332  45.2132473  49.0246097
  61.2515356  34.6998796  75.0934675  62.1630894  34.6317682  75.3774783
  61.1479996  33.9985189  74.4503461  91.7532991  81.7175865   8.4440672
  91.2303608  81.6826820   9.2450345  92.6602985  81.7171192   8.7499815
  50.6616882   1.5576655  12.9690337  51.0828355   1.6160017  13.8266253
  50.5882505   0.6180769  12.8016794  85.0912153  72.7505359  62.9329328
  85.9648739  72.5711879  63.2804779  85.2414237  72.9867515  62.0175807
  73.2038628  52.1162853  66.3007419  74.0120183  51.8066177  65.8918123
  72.6932668  51.3213405  66.4542906  23.4738970  87.3987961  19.7850800
  23.8379860  87.6474380  20.6346965  23.2855368  86.4641190  19.8694932
  27.2959590  81.8630695  22.1849823  27.6881957  81.8772697  23.0580139
  26.4738703  81.3863182  22.2994781  81.6169463   1.5950832  67.9726676
  80.9692608   2.0777902  67.4591194  81.1336528   1.2874994  68.7395118
  49.6155548  88.1682587  17.7761650  49.5828819  87.3703957  17.2483587
  49.6838522  87.8559494  18.6784029  90.3351270  24.0746269  62.9785149
  89.5362936  24.5847997  63.1120245  90.9530174  24.4248161  63.6202399
  18.2638967  56.3777542  18.9024627  18.6372626  57.0546770  19.4669151
  19.0226710  55.9003925  18.5668707  81.7125713  26.5831384  68.9634345
  82.4105536  25.9379539  69.0765296  81.4892672  26.5339717  68.0339454
  28.6198804  28.1994781  63.3247868  28.4608981  28.2956943  62.3857979
  29.5728633  28.1556568  63.4031050   7.0421359  61.4896640  61.3267950
   7.0699879  62.3082790  60.8314888   7.7158567  60.9424743  60.9231738
   7.6229681  19.1753489  14.1301131   7.5577129  20.0683218  13.7916338
   7.6233782  19.2793185  15.0816500  79.9009323  77.3233080   6.6089505
  79.2560387  76.6166496   6.6402400  79.7022915  77.7931547   5.7989991
  65.0164795  67.9047871  26.9192719  65.3444862  67.9943514  26.0244989
  65.6110048  67.2774553  27.3306441  52.1882010  79.5267773   5.4662114
  51.6809320  79.6148634   6.2731493  51.5535021  79.2258596   4.8159516
   5.2877161  50.5583725  73.9888419   5.9710833  51.2214431  73.8909460
   5.3104016  50.3262958  74.9172054  35.8082700  81.0217381   1.8447118
  36.5631080  80.5308151   2.1694405  35.3912187  80.4320049   1.2166061
  38.8285780  82.4832535  13.1031108  38.2564759  83.1549072  12.7318811
  38.5815787  82.4421597  14.0269804  25.3755879  76.7892075  33.6066556
  25.4484224  77.5059128  34.2369413  25.7036853  77.1574259  32.7862906
  23.2987952  76.4630175  43.7006903  23.7308884  75.6508780  43.9651918
  22.8183770  76.7434072  44.4796753  81.8702232   7.3143396  61.4018433
  81.9860934   7.0311889  60.4948525  82.5555610   6.8537244  61.8859665
  59.3664721   0.7153803  14.3717325  60.1732901   0.4385096  13.9374280
  59.0188936   1.4093310  13.8115108  79.0919828  75.0609064   0.5866912
  79.4613743  75.5922222  -0.1186359  79.8375463  74.5703125   0.9326364
   1.9585988  51.8339977  54.2049376   1.7688843  50.8958778  54.1922323
   2.5912782  51.9408187  54.9152462   1.5116569  55.9620819  68.9484606
   1.2859651  56.4090976  68.1326972   2.2847578  56.4260349  69.2698465
  91.2696301  70.1002750  70.7277117  92.1831785  69.9214038  70.5048506
  90.8023273  69.3019733  70.4816149  68.3929496  12.8040514  65.5237071
  69.0129201  12.0985612  65.7085184  68.9428030  13.5471592  65.2753417
  21.5431926  55.6032524  64.8916344  21.0475013  56.4220199  64.8799543
  21.1557576  55.0786933  64.1909496  75.2783822  29.0938863  51.2925021
  75.6652557  29.8230466  50.8078496  75.2620124  28.3711490  50.6651155
   3.1945774  79.7858104  67.3257987   3.8522097  79.0983162  67.4311278
   2.8530976  79.9278984  68.2086549  75.0140809  59.6979770  74.6269662
  75.1405214  60.4604682  75.1916396  74.3509125  59.9753532  73.9949064
  13.9286324  38.4392986  69.2352800  13.4533211  38.7446365  68.4625672
  14.3699118  37.6409969  68.9450888  20.9722850  22.6418552  72.8836138
  20.0175330  22.6098260  72.9440884  21.1516091  23.3974084  72.3239533
  77.7133563  25.8774191  13.8794780  76.7740205  26.0333449  13.7816763
  77.8225139  25.6426913  14.8010087   4.9610802  23.7719259  73.5139386
   4.7285244  22.8498325  73.6229859   5.2041432  23.8501558  72.5914244
  27.6949739  70.7525396   6.0583162  27.7131391  71.7075729   6.1200404
  28.4798551  70.4673195   6.5261263   7.4078048  32.3386484   1.8231705
   7.1150078  31.4692885   2.0965199   6.6300644  32.7435976   1.4392829
  61.7814255  68.7776756  15.9949684  62.2865295  68.2013416  16.5684974
  62.3114538  69.5717859  15.9264314  87.6028119  47.8572616  73.3649189
  88.2079111  47.5217971  74.0263982  86.7724668  47.4214897  73.5569097
  73.1245235  10.2898699  26.5905666  73.8673833  10.0389296  27.1395826
  73.4534601  11.0150153  26.0593390  20.3535795  23.6094975  38.8986397
  20.5048704  24.1404033  39.6806121  19.7691798  22.9108310  39.1928697
  68.5320910  77.5584367  60.6150286  69.3792065  77.7987364  60.2396874
  68.2104905  76.8557814  60.0501565   1.2651382  22.4464560  43.0911255
   0.5476737  22.7815628  43.6288786   1.8372007  23.2021165  42.9571342
  88.9628898  25.0829515  75.7157056  88.4664117  25.8577642  75.4522648
  89.1517388  25.2235231  76.6435027   6.4368951  24.2586732  18.7947667
   6.5997124  23.4928703  19.3454623   6.4484555  24.9977970  19.4028735
  84.5308219  20.1476631  74.0554507  84.9176871  20.9739122  74.3450771
  85.2065765  19.4925985  74.2300223  86.8387281  49.1056594  67.8986226
  87.5356542  48.7647972  67.3379646  86.1799084  48.4113655  67.9107032
  48.1942892  69.4916296  23.8323665  48.5953903  69.0311337  24.5694542
  47.2528601  69.3770933  23.9620733  46.3799000  54.7912407  24.3668962
  47.0963144  54.3347216  23.9257932  45.9952593  54.1318464  24.9443722
  16.9078410  29.6686769  14.0745366  15.9855855  29.4533658  13.9355493
  16.8934238  30.3867888  14.7072577  59.3556555  79.8370269  72.1869509
  59.0303929  79.8622707  71.2870626  59.2983325  78.9147237  72.4365623
  38.9813280  80.6458759  24.8320937  39.8508644  80.2469540  24.8637128
  38.3890796  79.9527693  25.1237559  40.1533365  71.5703487  24.3404293
  40.2969360  71.7234993  23.4065366  40.0115490  72.4430370  24.7072291
  33.3543706  59.8181820  28.2115984  33.1907535  58.9921951  28.6668015
  32.9259706  59.7124767  27.3621678  65.0301154  85.1364234  73.9661680
  65.1791580  84.2809060  74.3687902  64.3216093  84.9864105  73.3402697
  92.3844703  58.7622467  75.1310147  92.3571237  57.8253713  74.9367270
  92.7079280  59.1646639  74.3249945  91.7148830  36.0458851   2.8870556
  91.5203287  36.3105679   1.9879872  91.7261376  35.0891924   2.8579721
  90.0125869  69.9142125  52.5284950  89.9985869  69.3647960  51.7447988
  90.1424630  69.2988685  53.2501022   6.3621777  57.2578669  18.7441254
   6.6008306  57.9906988  18.1764650   5.6721926  56.7987490  18.2652080
  10.7569468  57.3999929   5.2773845  10.8235931  56.6019440   4.7530633
  10.4892790  57.0952749   6.1444104  89.8316701  85.9347585  72.7979402
  90.1571162  86.8293193  72.8983383  89.3860324  85.7478717  73.6242036
  41.7769003  50.4775810  10.5096471  42.0983410  49.7717476  11.0706365
  41.7711735  50.1005316   9.6298558  82.5847923  29.6934757  66.2047784
  83.4330331  30.1238069  66.3121824  82.7930485  28.7600336  66.1654667
  13.0684233  65.6986094  22.0654726  13.4584188  65.0212860  22.6180696
  12.7917171  65.2335930  21.2758994  46.8267250  37.6878381  18.4565902
  47.1733522  37.6269126  19.3467414  46.4437580  36.8267012  18.2892275
  46.0260630  57.7898836   5.2990389  46.5561342  57.8834295   4.5075184
  45.8279133  56.8545675   5.3454477  72.5341065  72.1077398  74.2968733
  71.7796500  72.6319698  74.5655860  72.4178393  71.2717036  74.7482688
  15.5663848  62.8075171  13.4167945  16.2778509  62.1714401  13.4906077
  16.0075331  63.6445808  13.2720721   9.9323767  51.4004517  47.7355862
   9.0803498  51.0437059  47.9866171  10.4810309  51.2778711  48.5103035
  13.8197660  29.2468667   1.9024216  13.4140992  29.9906588   2.3478848
  13.1833172  28.5375977   1.9924462  93.4066736  20.4006300  38.3028738
  94.3025695  20.4633770  38.6340348  92.8571283  20.4763374  39.0829389
  58.1187804  84.5040754  53.3624308  57.2586210  84.1445139  53.1454675
  58.0191811  85.4491475  53.2477538   7.3879474  42.5773287   0.5033356
   7.8970593  41.8907261   0.9341589   6.5214199  42.5214481   0.9061240
  81.7220556  52.2765216  69.4068436  81.1574363  52.9251918  68.9865301
  81.3469981  52.1624622  70.2800868  29.4923159   1.7171011  75.7402570
  29.1044900   1.5614423  74.8791004  30.4359814   1.7250785  75.5800523
  16.3600537  36.3887176  69.1845832  17.0260045  36.0262165  68.6003463
  15.9561631  35.6224975  69.5920329  14.4272846  85.9127286  54.3794529
  13.6776679  85.7268098  53.8140003  14.6831792  86.8065503  54.1517774
   5.1076671  15.1555118  70.8492849   5.6619593  15.5982647  71.4919077
   4.2601630  15.5946312  70.9209965  94.4098054  61.0513639   4.5989174
  94.2907626  60.3204155   5.2053654  93.8688232  60.8253574   3.8422853
  31.3654017  60.2888775  13.6317813  31.2645340  61.1585903  13.2449293
  30.5306625  59.8525906  13.4612083  56.8893909  53.1860113   9.8232418
  57.4858189  53.3928013   9.1036963  57.2474861  52.3864698  10.2089036
  19.6903083  18.6829052  71.8000452  18.9311358  19.1463003  72.1538119
  20.0914094  18.2639608  72.5615154  72.9079135  78.5899022  39.4395630
  73.4284575  77.8908733  39.0438048  72.8020509  79.2349294  38.7403027
  14.6045101  32.0432997   8.2315838  15.0143337  31.9038057   7.3778754
  15.0284719  32.8297138   8.5751563  24.4563958  11.1637077  75.4306897
  24.6256682  11.7524967  74.6952240  25.2946851  11.1059866  75.8891375
   2.9294321   7.1561393  65.2232127   2.7206036   6.3183364  65.6363861
   3.8803527   7.2317848  65.3023474  48.5861130  77.0480731  69.5862923
  49.1583713  77.5489405  70.1675693  47.7859469  77.5703314  69.5296208
  27.6867867  58.7505579   7.2790211  27.1373177  58.6109543   6.5077704
  27.1339869  58.4928894   8.0167550  10.1650998  12.8394184  57.5078015
  10.0842759  13.7928781  57.5325231  10.8530566  12.6740036  56.8631403
  12.2817990   9.9014101  68.4631173  11.9568106  10.4837284  67.7764444
  11.5847489   9.8921833  69.1190658  42.7562475  24.4767785  23.1906343
  43.2081413  24.6495104  24.0165806  41.8262053  24.5244169  23.4119463
   6.7689794  68.0063942  69.7645376   5.9465021  67.5752762  69.9966953
   6.7916530  68.7903908  70.3132353  44.5574474  74.8315763  14.3720138
  43.8083410  75.0145864  14.9390924  44.8325300  75.6913471  14.0536487
  44.3671703  33.1882024  16.2204421  44.3300390  33.4976506  17.1254802
  43.4519434  33.1496644  15.9427536  88.0622994   8.2065305  63.4448830
  87.6484476   9.0595111  63.3130328  88.9638530   8.4132585  63.6912517
   4.9388337  28.0073857   6.2701231   4.8697573  27.8460312   7.2110933
   5.8168316  28.3702493   6.1531574  40.9318972  49.8750782  15.9252465
  40.5648279  50.6818438  15.5638349  40.5959558  49.8392630  16.8208432
  28.7097594  32.8472528  55.7592623  28.3582732  32.5251255  54.9292461
  29.5681378  33.2053337  55.5330054  39.6607995  38.4669495  30.1025558
  40.6050873  38.5904336  30.0060940  39.4062567  39.0891433  30.7839608
  65.3930044  61.6961145   9.9710286  64.4822407  61.8079138  10.2434969
  65.7825184  61.1515093  10.6550765  26.3645217   9.0203437  70.4364709
  26.5810296   9.9378500  70.2705209  25.5076739   9.0496501  70.8621262
  36.0940790  31.1406803  22.2743821  35.6863880  30.2754569  22.2368836
  37.0321846  30.9669805  22.1968174  89.9077304  47.3948172  63.2493977
  90.5603393  47.2148740  63.9261178  90.2511628  48.1561995  62.7818708
   8.3205077  13.9260015  50.9874503   7.4549839  13.5249433  50.9083740
   8.6900660  13.8738927  50.1060073  74.7480090  79.8315242  69.3755690
  75.3035625  80.3537849  69.9542193  75.0363620  80.0638059  68.4928845
  63.7147284  68.1529999   1.3549878  64.5841551  68.1269073   1.7545471
  63.7841415  67.5783539   0.5926282  47.0353031   6.5346569  20.8185053
  47.1503115   7.2109699  21.4860439  47.0937443   7.0060033  19.9874520
  10.2878904  73.6649418  17.4056244  10.4717124  74.3918180  18.0006850
  10.7156515  72.9102087  17.8101301  31.0711622  73.6343956  10.1620984
  30.9028125  74.5761824  10.1925981  31.1004567  73.4264421   9.2282194
  53.3286174  72.2460249  64.2225341  52.9222782  71.7989305  63.4800867
  53.2230719  73.1773403  64.0282623  74.9846395  72.6478103  73.8015444
  74.0417989  72.6267746  73.9653612  75.0852330  72.2617915  72.9314287
  50.9560299  50.2784204   3.0361322  50.6311369  51.1536741   2.8249231
  51.4692831  50.0221062   2.2699071  24.0647888  77.4676466  10.6886554
  23.2666230  77.3195791  10.1814651  24.6021271  76.6934252  10.5210829
  89.1160234  69.0368703  75.8528499  88.8969596  69.8276571  76.3456940
  89.7550996  69.3290666  75.2028988  80.7290586  61.7560247  67.8679047
  81.0693343  61.1383751  68.5151712  81.5024264  62.2252134  67.5548599
  48.6419292  87.1846536  49.7728960  48.5798235  86.2896255  49.4392793
  49.4700571  87.5136426  49.4233243   3.3207032  24.6111402  42.6544802
   4.2392585  24.4247350  42.4602143   3.1077906  25.3650627  42.1044723
  56.4309597  71.7958307   5.7891560  56.4728737  70.9241581   5.3958869
  56.0309124  71.6526365   6.6468781  64.4098568  36.9374824  23.7084579
  64.3641424  36.5439248  22.8371048  64.7918510  37.8026390  23.5607648
  40.6022120  64.0526247  33.0342937  39.8935819  64.6813869  32.8974175
  40.3128386  63.2625341  32.5779438  10.5495179  21.8911767   7.4298811
  10.4539084  22.7907348   7.7427548  11.2030184  21.5033412   8.0119044
   2.4524495  14.6283826  61.2785737   3.0324265  13.9195547  61.0003285
   1.7212602  14.1847906  61.7084793  74.0377187  23.9080534  64.8210816
  74.6071266  24.4331560  65.3834645  73.4384369  24.5424518  64.4278471
  13.7159201  23.7720069  68.1658362  13.0336520  23.2081279  67.8014438
  14.3499085  23.1648550  68.5474913  28.6586711  84.5361358   5.6295407
  29.1429707  83.9432692   5.0549120  29.0022656  84.3554720   6.5044898
  55.7257040  63.3659449  63.3553759  56.4490541  63.7279371  63.8671939
  55.0049670  63.2889047  63.9805452  40.8013487  36.2350535  36.2398291
  40.5732298  36.9778633  35.6808758  39.9790072  35.7581377  36.3518143
  41.6475964  21.3369703  18.0727792  41.5364218  20.5474830  18.6024785
  41.2019777  21.1376810  17.2494078  56.5959876   5.8804235  74.7665100
  56.6415052   4.9357519  74.9140131  56.3427763   6.2434349  75.6152381
  28.9934874  31.6082311   3.5759979  28.8672996  32.4126506   3.0727926
  29.4654417  31.8879342   4.3603805   6.3781303  75.7661679  62.2016434
   6.8037265  75.5669764  61.3677232   7.0862621  75.7367113  62.8450004
  66.4920858  11.7153269  21.0262513  66.7124751  11.4329058  20.1386166
  66.0902646  10.9458548  21.4295936  47.4591684  39.9702811  14.1294110
  46.9823313  40.2372742  13.3435524  47.1677160  39.0733767  14.2932701
   2.8040910  55.2843475  28.3207369   2.9125261  54.3348312  28.3745480
   2.0132822  55.4057074  27.7952600  21.0175443  22.7633500  29.8745680
  21.0372114  22.0883036  30.5529189  20.1270485  22.7262259  29.5254731
  11.5109154   8.1498394  75.3574688  12.0499894   7.3626194  75.2805553
  11.3222310   8.2204351  76.2932288  67.3149014  55.4734182  10.7454920
  68.1408691  55.3462696  11.2122226  67.2717714  54.7407579  10.1310158
  29.1159368  58.0138445  15.2039862  28.6383915  58.7713575  15.5421460
  29.0161085  58.0724287  14.2538106  28.1461430  73.3609629   6.2311375
  28.6883044  74.1124630   6.4710015  27.4550891  73.7299871   5.6811404
   8.4599972  85.0525951   3.0767038   8.6570525  84.1963005   3.4563795
   8.9389729  85.0631332   2.2480279  51.6998053  83.5653210  10.5498672
  52.3214340  83.8904762   9.8986524  51.6284180  84.2750549  11.1881518
  39.8616743  43.5933685   7.0281285  40.1343727  44.4892120   6.8298078
  40.2873993  43.0593824   6.3574213   5.2215358   8.0749282  66.6591613
   5.4563305   7.9495296  67.5786058   4.9341795   8.9865169  66.6075222
  46.9221115  46.8143034  24.2988944  46.6006327  45.9369659  24.0911388
  46.5551043  47.3724413  23.6133146  74.7471841  80.1144222  77.2494468
  74.3508943  79.5395520  76.5946869  75.5965169  80.3517011  76.8772070
  86.3081681  29.7682676  62.8282670  85.4260169  29.5096740  63.0950455
  86.4238607  29.3701133  61.9655268  60.9358835  65.9888363   5.2046657
  60.3185844  65.7286978   4.5209229  60.9226370  66.9457960   5.1878387
  10.4813096  19.1689930  62.5461332   9.5324036  19.0458164  62.5712947
  10.7753083  18.9457807  63.4292952  72.3196316  46.7421865  10.5040026
  72.5467443  46.8039799  11.4318132  73.0730104  47.1167517  10.0475430
  11.9844782  45.8130169  12.4026287  12.6317239  45.1130104  12.3172128
  12.1443677  46.1823940  13.2710910  31.7311835  76.3884783  36.6377974
  31.5631771  75.6697750  37.2472858  31.6980648  75.9811640  35.7722163
  40.1652619  20.1384029  58.2233397  40.7874915  19.4339475  58.4044616
  40.5403516  20.6027708  57.4750714  89.7480734  62.3391771   4.1885975
  89.5338740  62.7910137   3.3723909  89.0494128  61.6936684   4.2954937
  23.3908677  73.6316538  17.7818751  24.2593908  73.7974215  17.4152386
  23.3072877  74.2643690  18.4952581  57.9579353  11.2312233  13.3141971
  58.7176371  10.6737614  13.4824836  58.2365799  12.1049738  13.5883272
  62.4558619   1.4085299  24.5928907  62.1033362   2.2354990  24.9216604
  62.4692825   0.8329970  25.3576183  48.8309717  56.0849953   9.9889255
  47.9128170  56.0627651  10.2586138  48.8101959  56.4307785   9.0966046
  50.7108052  86.4286903  70.8456348  50.7089301  86.1779073  69.9218730
  49.8369153  86.7883447  70.9979526   3.7365886  46.9483146  68.1718097
   2.9841611  46.8637619  68.7574170   4.0624353  47.8348693  68.3269898
  78.1121074  33.2703552  46.9996588  77.8338884  32.8801403  46.1710708
  78.9787577  32.8973732  47.1610014  51.1571455  77.0617104  12.3108923
  50.6129074  77.4245358  13.0097437  51.5222979  77.8283739  11.8691647
  25.3802535  10.9798631  67.8434406  24.5461795  11.4494905  67.8453408
  25.1633879  10.1078615  67.5135694  50.9897041  31.3086009   2.2188164
  50.5699444  32.1238708   1.9442889  51.2727833  31.4758492   3.1177753
   8.0390140  16.0774669  45.3802506   8.8798806  16.5301094  45.3147761
   8.1683823  15.4310331  46.0742370  69.5780005  45.2468157   7.2086048
  70.1286568  44.4686031   7.2945893  70.1941266  45.9791803   7.2248900
  66.8421592  25.8204612  72.7481951  66.1412923  25.5214128  72.1688951
  67.6295551  25.3920612  72.4124659  63.1429060  80.2704647  66.7941789
  62.9011686  80.1373485  65.8776228  64.0945061  80.3726533  66.7784910
  16.7014691   9.0186414  48.1569807  17.4793288   8.6638269  47.7265493
  16.2425706   9.4966850  47.4662415  13.6938518  61.5842691  57.7306501
  14.1601461  61.5366092  56.8960659  13.9692348  62.4181035  58.1115941
  80.4406341  82.4441627  49.3196408  81.3453563  82.6528743  49.0869467
  80.1380523  83.2068756  49.8125355  22.2829604  45.3307867  20.8098435
  21.6780305  44.6241283  21.0355115  22.8315020  45.4339695  21.5874600
  28.9081883  56.2947178   8.9442748  28.7333274  55.3582811   8.8507986
  29.1893601  56.5740108   8.0729717  21.0096738  30.1703558  45.2899758
  20.1990697  30.2139387  45.7971804  20.9570119  30.9142265  44.6898810
  77.1792327   5.8933219  65.8261065  76.5511416   6.3235721  66.4062921
  76.7701303   5.9291801  64.9614791  15.8750483  21.9540796  65.4298667
  16.6304967  22.4595460  65.7299284  16.2303588  21.3641176  64.7650902
  52.9988432  42.0846033   3.0520567  53.1679392  42.5833845   2.2527707
  53.3551168  41.2147331   2.8714347  52.1025133  74.7845602   2.1462238
  52.1762562  75.6754065   1.8039033  51.4257860  74.8424053   2.8207052
  55.2336459  37.6764450  67.6672385  55.2148061  38.6333904  67.6781474
  56.0082595  37.4462661  68.1802951  30.1588464  61.6431999   2.5586817
  30.5568433  61.5603590   3.4252661  30.3519154  62.5418091   2.2913593
  11.9830939   1.2331733  67.2801183  12.6966473   1.3511524  66.6530983
  12.1575829   1.8780193  67.9656540  57.8824186  80.7581234  34.0069866
  58.1004143  80.0487232  33.4024453  58.6472321  80.8296108  34.5781112
  86.2086140  42.1871624  73.2660918  85.9151303  41.3859233  72.8323610
  85.7575713  42.1814880  74.1103442  82.1262932  55.7503557  40.2045107
  81.4322567  56.3655615  40.4412889  81.7199612  54.8875999  40.2868891
  12.3709047  79.2148113   6.0413736  11.5342593  79.6798372   6.0390025
  12.1333897  78.2950878   6.1593831  72.7647829  63.9890862  15.0115860
  73.4594297  63.4735250  15.4213345  72.5655985  63.5209846  14.2007613
  32.6146743  12.2952041  66.3416139  33.4299847  12.1301946  66.8151895
  32.6262280  13.2359800  66.1654155  69.6827005   5.7761821  74.1562776
  70.2187072   6.5540990  74.3104760  69.6620266   5.3281030  75.0018710
  68.8429721  74.5697191  70.4055421  68.4761532  75.4508689  70.4779879
  68.8155849  74.3751553  69.4687240  36.7458677  45.6952477   0.8887968
  37.3695707  46.3868618   1.1099318  36.8850970  45.0244570   1.5572922
  32.1472692  72.9430151  16.6030014  32.6327157  72.5970650  15.8540726
  32.3709297  72.3560095  17.3252451  39.2394447  29.3645453  21.6267896
  39.4385815  30.2988362  21.6874576  38.4693718  29.3201017  21.0600066
  18.6372292  42.5044298   4.3746027  17.8824008  42.3402739   3.8093433
  19.3498075  42.0072365   3.9730278  72.9487613  11.5931994  14.7430658
  72.5928119  10.8107668  14.3219662  72.1999267  12.1840960  14.8225439
  35.8681917  48.4656000   6.7753744  36.3051820  48.8811016   6.0319817
  36.5065217  47.8333950   7.1056497  64.6690438  30.0166950  41.8169181
  65.4459875  29.5907268  41.4547841  64.0657901  30.0838289  41.0767762
  59.6422418  88.3140376  39.3474786  59.9483021  87.5144723  39.7755615
  59.1044100  88.0046657  38.6186067  38.0922318  46.5211821  21.3462901
  38.4609294  45.6546974  21.5180469  37.5794125  46.7227077  22.1290016
  48.0486250  57.9080534  12.6056206  47.5526714  57.7322483  11.8060243
  48.9316511  57.5921059  12.4141037  64.9265766  68.9475060  12.8288686
  65.5681705  68.7655401  12.1422267  64.1002417  68.6144590  12.4788904
  37.7424717  53.0408001  18.3327460  37.6464510  53.3887291  19.2192888
  37.3218751  53.6931372  17.7725768  43.1962681  64.1720295  15.0770295
  44.1181183  64.1511917  14.8201406  43.1918812  63.8532639  15.9795821
  56.3774487  19.8466548  74.0556206  56.7384049  20.4920682  74.6633853
  56.5881821  20.1908884  73.1876789  70.5415614  88.8733056  74.1149933
  69.9807604  88.4088042  74.7362622  70.1372202  88.7142757  73.2620863
  92.3612701  11.8473110  64.4415430  92.5598608  11.1917362  65.1101367
  92.1148526  12.6280937  64.9374143  57.7951622  27.0160723  25.4187417
  57.1105289  26.4294052  25.7401919  58.4626961  26.4313054  25.0600195
  62.3888302  55.3812885   5.7527739  61.7381334  55.3551865   6.4543003
  62.7259207  56.2769651   5.7719588  41.1281824  36.6608357   5.7703930
  42.0226479  36.6116381   5.4331410  40.6371546  36.0338616   5.2393311
  34.1824198  57.7168703  13.3276927  34.9152398  57.7992821  12.7174330
  33.4149551  57.6050901  12.7666807   7.3940366  76.2849978  67.6987414
   6.6147703  76.8040136  67.4997489   7.2802728  76.0227040  68.6122463
  56.3516808  88.4378433  14.0234435  56.2823868  87.7904892  14.7251248
  55.5774546  88.2870674  13.4811532  34.0683409  29.1094503  48.4886233
  34.4287678  28.2410297  48.6679809  33.2756516  29.1548643  49.0232365
  56.4857912  69.2266035   8.9137554  56.6635180  70.1111317   8.5939878
  57.3498106  68.8654470   9.1119170  58.3115244  54.5137739   6.8508810
  58.5788679  53.7202454   7.3146427  58.7179184  54.4351959   5.9878063
  89.0139198  50.4052544   1.0314298  88.7470245  49.7789383   1.7042787
  88.2233715  50.9136677   0.8503673  53.2613656   8.4061775  72.7181561
  52.3714730   8.2367763  73.0273963  53.1469437   8.7287530  71.8242417
  18.8240874  74.9922180  11.0945916  19.2881811  75.1613379  11.9144976
  19.3876779  74.3793440  10.6223774  62.8051432  78.4026697  68.5235546
  62.4602588  79.0150526  67.8737293  62.2003015  78.4715083  69.2622409
  45.1764870  79.8697329  36.3135719  44.6659327  79.3296385  35.7103634
  45.4757643  80.6064320  35.7807088  44.6531725  64.4645548   6.5961075
  44.4666910  63.7612343   5.9741724  43.8756704  64.5041990   7.1530205
  89.6424304   0.3596410  45.1029913  89.3829833   0.3632125  46.0243527
  89.6107160   1.2799320  44.8416654  17.9665992  45.0696239  65.0648658
  17.9323622  44.8578224  65.9977130  17.3215148  44.4875392  64.6632687
  16.3033974  19.3452728   7.9636079  16.3999093  20.2406621   8.2879454
  15.3572226  19.2096901   7.9125965  93.7374862  86.3526872  31.6888396
  93.8043101  86.8555310  32.5005738  94.5079310  85.7846978  31.6948335
  33.6399144  72.7529386  50.8316056  32.8605342  73.2696536  50.6271474
  33.7982258  72.2355917  50.0419704  75.7869008   4.4568449   7.2043395
  76.4429668   4.2263800   7.8621316  75.6724456   5.4022318   7.3011935
   2.3957057  45.7735920   7.2772503   2.1701337  44.8640728   7.4724990
   2.0352638  45.9275866   6.4039809  19.9016809  45.0277758   3.8918456
  19.2419577  44.3399048   3.8033462  20.6992507  44.6428680   3.5285828
  56.2797928  73.8717175   3.0671015  55.5841112  73.9289427   3.7220702
  56.3989639  72.9325485   2.9257026  37.8937769  37.2517085  27.2238708
  38.2430077  37.1939731  28.1132174  37.1280479  36.6773748  27.2294879
  88.6558022  56.8479538   7.1759778  89.1504445  56.7410898   7.9884678
  89.1783478  56.3926125   6.5157932  69.8419619  53.3127642  27.3672795
  70.5758095  52.7352858  27.1570039  70.1151371  53.7665987  28.1645536
  50.8500481  58.1489754  34.0538907  50.2802944  57.5150967  34.4895625
  51.3854980  57.6218128  33.4609103  19.5239782  42.1776390   7.1867466
  20.1489449  42.2682905   6.4674205  18.9906371  41.4199400   6.9465929
  82.9765927  12.8771171  47.5147550  82.1584069  12.9887495  47.0306651
  83.6429011  12.7660665  46.8365733  27.3825499  12.6886091  64.1059331
  27.1497437  13.2660636  64.8329679  28.1029650  13.1381759  63.6642091
  20.0497290   6.4797649  49.9128668  19.0996119   6.5871296  49.9573461
  20.3659102   6.7910966  50.7610027  72.2744131  34.0790224  15.1451433
  72.1142006  34.5869422  14.3497932  73.2277012  34.0102053  15.1974225
  40.8777949   2.2459468  35.5140416  40.9703728   2.1264658  36.4592330
  41.3249156   1.4906129  35.1322142
  94.2719450  94.2719450  94.2719450 109.4712190 109.4712190 109.4712190
